# vtk DataFile Version 2.0
Pressure Field Data 
ASCII 
DATASET UNSTRUCTURED_GRID 

POINTS 289 double 

    0.0000000000000000E+00     0.0000000000000000E+00     0.0000000000000000E+00 
    1.0000000000000000E+00     0.0000000000000000E+00     0.0000000000000000E+00 
    1.0000000000000000E+00     1.0000000000000000E+00     0.0000000000000000E+00 
    0.0000000000000000E+00     1.0000000000000000E+00     0.0000000000000000E+00 
    6.2499999999872928E-02     0.0000000000000000E+00     0.0000000000000000E+00 
    1.2499999999977310E-01     0.0000000000000000E+00     0.0000000000000000E+00 
    1.8749999999959341E-01     0.0000000000000000E+00     0.0000000000000000E+00 
    2.4999999999941089E-01     0.0000000000000000E+00     0.0000000000000000E+00 
    3.1249999999922851E-01     0.0000000000000000E+00     0.0000000000000000E+00 
    3.7499999999904610E-01     0.0000000000000000E+00     0.0000000000000000E+00 
    4.3749999999886358E-01     0.0000000000000000E+00     0.0000000000000000E+00 
    4.9999999999869210E-01     0.0000000000000000E+00     0.0000000000000000E+00 
    5.6249999999884603E-01     0.0000000000000000E+00     0.0000000000000000E+00 
    6.2499999999901090E-01     0.0000000000000000E+00     0.0000000000000000E+00 
    6.8749999999917577E-01     0.0000000000000000E+00     0.0000000000000000E+00 
    7.4999999999934064E-01     0.0000000000000000E+00     0.0000000000000000E+00 
    8.1249999999950551E-01     0.0000000000000000E+00     0.0000000000000000E+00 
    8.7499999999967026E-01     0.0000000000000000E+00     0.0000000000000000E+00 
    9.3749999999983513E-01     0.0000000000000000E+00     0.0000000000000000E+00 
    1.0000000000000000E+00     6.2499999999872928E-02     0.0000000000000000E+00 
    1.0000000000000000E+00     1.2499999999977310E-01     0.0000000000000000E+00 
    1.0000000000000000E+00     1.8749999999959341E-01     0.0000000000000000E+00 
    1.0000000000000000E+00     2.4999999999941089E-01     0.0000000000000000E+00 
    1.0000000000000000E+00     3.1249999999922851E-01     0.0000000000000000E+00 
    1.0000000000000000E+00     3.7499999999904610E-01     0.0000000000000000E+00 
    1.0000000000000000E+00     4.3749999999886358E-01     0.0000000000000000E+00 
    1.0000000000000000E+00     4.9999999999869210E-01     0.0000000000000000E+00 
    1.0000000000000000E+00     5.6249999999884603E-01     0.0000000000000000E+00 
    1.0000000000000000E+00     6.2499999999901090E-01     0.0000000000000000E+00 
    1.0000000000000000E+00     6.8749999999917577E-01     0.0000000000000000E+00 
    1.0000000000000000E+00     7.4999999999934064E-01     0.0000000000000000E+00 
    1.0000000000000000E+00     8.1249999999950551E-01     0.0000000000000000E+00 
    1.0000000000000000E+00     8.7499999999967026E-01     0.0000000000000000E+00 
    1.0000000000000000E+00     9.3749999999983513E-01     0.0000000000000000E+00 
    9.3749999999973976E-01     1.0000000000000000E+00     0.0000000000000000E+00 
    8.7499999999950118E-01     1.0000000000000000E+00     0.0000000000000000E+00 
    8.1249999999991318E-01     1.0000000000000000E+00     0.0000000000000000E+00 
    7.5000000000034706E-01     1.0000000000000000E+00     0.0000000000000000E+00 
    6.8750000000078049E-01     1.0000000000000000E+00     0.0000000000000000E+00 
    6.2500000000121403E-01     1.0000000000000000E+00     0.0000000000000000E+00 
    5.6250000000164757E-01     1.0000000000000000E+00     0.0000000000000000E+00 
    5.0000000000205946E-01     1.0000000000000000E+00     0.0000000000000000E+00 
    4.3750000000182099E-01     1.0000000000000000E+00     0.0000000000000000E+00 
    3.7500000000156092E-01     1.0000000000000000E+00     0.0000000000000000E+00 
    3.1250000000130068E-01     1.0000000000000000E+00     0.0000000000000000E+00 
    2.5000000000104050E-01     1.0000000000000000E+00     0.0000000000000000E+00 
    1.8750000000078040E-01     1.0000000000000000E+00     0.0000000000000000E+00 
    1.2500000000052031E-01     1.0000000000000000E+00     0.0000000000000000E+00 
    6.2500000000260125E-02     1.0000000000000000E+00     0.0000000000000000E+00 
    0.0000000000000000E+00     9.3749999999973976E-01     0.0000000000000000E+00 
    0.0000000000000000E+00     8.7499999999950118E-01     0.0000000000000000E+00 
    0.0000000000000000E+00     8.1249999999991318E-01     0.0000000000000000E+00 
    0.0000000000000000E+00     7.5000000000034706E-01     0.0000000000000000E+00 
    0.0000000000000000E+00     6.8750000000078049E-01     0.0000000000000000E+00 
    0.0000000000000000E+00     6.2500000000121403E-01     0.0000000000000000E+00 
    0.0000000000000000E+00     5.6250000000164757E-01     0.0000000000000000E+00 
    0.0000000000000000E+00     5.0000000000205946E-01     0.0000000000000000E+00 
    0.0000000000000000E+00     4.3750000000182099E-01     0.0000000000000000E+00 
    0.0000000000000000E+00     3.7500000000156092E-01     0.0000000000000000E+00 
    0.0000000000000000E+00     3.1250000000130068E-01     0.0000000000000000E+00 
    0.0000000000000000E+00     2.5000000000104050E-01     0.0000000000000000E+00 
    0.0000000000000000E+00     1.8750000000078040E-01     0.0000000000000000E+00 
    0.0000000000000000E+00     1.2500000000052031E-01     0.0000000000000000E+00 
    0.0000000000000000E+00     6.2500000000260125E-02     0.0000000000000000E+00 
    6.2499999999897131E-02     6.2500000000235922E-02     0.0000000000000000E+00 
    6.2499999999921327E-02     1.2500000000047351E-01     0.0000000000000000E+00 
    6.2499999999945530E-02     1.8750000000070621E-01     0.0000000000000000E+00 
    6.2499999999969733E-02     2.5000000000093858E-01     0.0000000000000000E+00 
    6.2499999999993928E-02     3.1250000000117117E-01     0.0000000000000000E+00 
    6.2500000000018124E-02     3.7500000000140382E-01     0.0000000000000000E+00 
    6.2500000000042327E-02     4.3750000000163619E-01     0.0000000000000000E+00 
    6.2500000000066530E-02     5.0000000000184897E-01     0.0000000000000000E+00 
    6.2500000000090733E-02     5.6250000000147260E-01     0.0000000000000000E+00 
    6.2500000000114922E-02     6.2500000000107636E-01     0.0000000000000000E+00 
    6.2500000000139125E-02     6.8750000000068034E-01     0.0000000000000000E+00 
    6.2500000000163328E-02     7.5000000000028411E-01     0.0000000000000000E+00 
    6.2500000000187531E-02     8.1249999999988787E-01     0.0000000000000000E+00 
    6.2500000000211720E-02     8.7499999999951172E-01     0.0000000000000000E+00 
    6.2500000000235922E-02     9.3749999999974565E-01     0.0000000000000000E+00 
    1.2499999999981980E-01     6.2500000000211733E-02     0.0000000000000000E+00 
    1.2499999999986650E-01     1.2500000000042691E-01     0.0000000000000000E+00 
    1.2499999999991319E-01     1.8750000000063199E-01     0.0000000000000000E+00 
    1.2499999999995989E-01     2.5000000000083678E-01     0.0000000000000000E+00 
    1.2500000000000661E-01     3.1250000000104172E-01     0.0000000000000000E+00 
    1.2500000000005329E-01     3.7500000000124661E-01     0.0000000000000000E+00 
    1.2500000000010000E-01     4.3750000000145117E-01     0.0000000000000000E+00 
    1.2500000000014669E-01     5.0000000000163858E-01     0.0000000000000000E+00 
    1.2500000000019340E-01     5.6250000000129741E-01     0.0000000000000000E+00 
    1.2500000000024011E-01     6.2500000000093847E-01     0.0000000000000000E+00 
    1.2500000000028680E-01     6.8750000000057998E-01     0.0000000000000000E+00 
    1.2500000000033351E-01     7.5000000000022127E-01     0.0000000000000000E+00 
    1.2500000000038020E-01     8.1249999999986211E-01     0.0000000000000000E+00 
    1.2500000000042691E-01     8.7499999999952238E-01     0.0000000000000000E+00 
    1.2500000000047359E-01     9.3749999999975164E-01     0.0000000000000000E+00 
    1.8749999999966760E-01     6.2500000000187531E-02     0.0000000000000000E+00 
    1.8749999999974179E-01     1.2500000000038020E-01     0.0000000000000000E+00 
    1.8749999999981601E-01     1.8750000000055780E-01     0.0000000000000000E+00 
    1.8749999999989009E-01     2.5000000000073502E-01     0.0000000000000000E+00 
    1.8749999999996431E-01     3.1250000000091221E-01     0.0000000000000000E+00 
    1.8750000000003850E-01     3.7500000000108941E-01     0.0000000000000000E+00 
    1.8750000000011269E-01     4.3750000000126649E-01     0.0000000000000000E+00 
    1.8750000000018691E-01     5.0000000000142808E-01     0.0000000000000000E+00 
    1.8750000000026110E-01     5.6250000000112244E-01     0.0000000000000000E+00 
    1.8750000000033529E-01     6.2500000000080080E-01     0.0000000000000000E+00 
    1.8750000000040951E-01     6.8750000000047962E-01     0.0000000000000000E+00 
    1.8750000000048361E-01     7.5000000000015843E-01     0.0000000000000000E+00 
    1.8750000000055780E-01     8.1249999999983680E-01     0.0000000000000000E+00 
    1.8750000000063199E-01     8.7499999999953304E-01     0.0000000000000000E+00 
    1.8750000000070621E-01     9.3749999999975764E-01     0.0000000000000000E+00 
    2.4999999999951281E-01     6.2500000000163314E-02     0.0000000000000000E+00 
    2.4999999999961461E-01     1.2500000000033351E-01     0.0000000000000000E+00 
    2.4999999999971650E-01     1.8750000000048361E-01     0.0000000000000000E+00 
    2.4999999999981831E-01     2.5000000000063310E-01     0.0000000000000000E+00 
    2.4999999999992020E-01     3.1250000000078260E-01     0.0000000000000000E+00 
    2.5000000000002198E-01     3.7500000000093209E-01     0.0000000000000000E+00 
    2.5000000000012390E-01     4.3750000000108180E-01     0.0000000000000000E+00 
    2.5000000000022571E-01     5.0000000000121769E-01     0.0000000000000000E+00 
    2.5000000000032763E-01     5.6250000000094724E-01     0.0000000000000000E+00 
    2.5000000000042938E-01     6.2500000000066314E-01     0.0000000000000000E+00 
    2.5000000000053119E-01     6.8750000000037925E-01     0.0000000000000000E+00 
[...]
CELL_DATA 256 
SCALARS Pressure double 1 
LOOKUP_TABLE default 

    7.7810110051485004E-01 
    7.2722171679710135E-01 
    6.9381201184960761E-01 
    6.6291972041473668E-01 
    6.3120149307960038E-01 
    5.9787540829281727E-01 
    5.6273881793484992E-01 
    5.2589576206740141E-01 
    4.8768655153911677E-01 
    4.4873760837705540E-01 
    4.1009351338296768E-01 
    3.7339914013215658E-01 
    3.4103209641284099E-01 
    3.1582750274359983E-01 
    2.9879693219974962E-01 
    2.9067707806116805E-01 
    7.6414497587253272E-01 
    7.2861303740822769E-01 
    6.9635612536128055E-01 
    6.6573246566555899E-01 
    6.3424173177090304E-01 
    6.0113157315062793E-01 
    5.6619069885610418E-01 
    5.2949910454361693E-01 
    4.9136415079592582E-01 
    4.5236589393407300E-01 
    4.1348431107505335E-01 
    3.7628824638908392E-01 
    3.4311049755625717E-01 
    3.1689328168373809E-01 
    2.9898418345850386E-01 
    2.9026043068313712E-01 
    7.5342581178873569E-01 
    7.2783693289477058E-01 
    6.9811953561830176E-01 
    6.6818351700084122E-01 
    6.3705520309368036E-01 
    6.0421394326814770E-01 
    5.6949157561286035E-01 
    5.3295563429986903E-01 
    4.9487718273953829E-01 
    4.5578010382455386E-01 
    4.1656446122240565E-01 
    3.7870584674369073E-01 
    3.4448607805011522E-01 
    3.1698309566666094E-01 
    2.9805239021727747E-01 
    2.8880118931857474E-01 
    7.4496421864366391E-01 
    7.2594551402086316E-01 
    6.9914022426635647E-01 
    6.7025343469378074E-01 
    6.3964077548899823E-01 
    6.0713117848793907E-01 
    5.7265208087955399E-01 
    5.3627804445930016E-01 
    4.9824637156239665E-01 
    4.5901659194156508E-01 
    4.1939171907401779E-01 
    3.8072890910763757E-01 
    3.4523582818977150E-01 
    3.1613503741191240E-01 
    2.9591741104580654E-01 
    2.8606711024393655E-01 
    7.3810978959960571E-01 
    7.2352278012692339E-01 
    6.9954798381610417E-01 
    6.7194977734583705E-01 
    6.4199840002037800E-01 
    6.0989245520262136E-01 
    5.7568785505288933E-01 
    5.3948632687569553E-01 
    5.0149887931575454E-01 
    4.6211657274427143E-01 
    4.2202907335135142E-01 
    3.8244350537424976E-01 
    3.4545091680196194E-01 
    3.1439704816443781E-01 
    2.9249891302487663E-01 
    2.8182969320713708E-01 
    7.3248018880300347E-01 
    7.2091917207583300E-01 
    6.9949548597350386E-01 
    6.7330663520232115E-01 
    6.4413531630035104E-01 
    6.1250638915548283E-01 
    5.7861542176556302E-01 
    5.4260522101224251E-01 
    5.0466775675955822E-01 
    4.6512548085293387E-01 
    4.2454306439937312E-01 
    3.8394331217657196E-01 
    3.4523832524301912E-01 
    3.1183432269575179E-01 
    2.8772913594693095E-01 
    2.7587324659527901E-01 
    7.2782911637614978E-01 
    7.1835584265627950E-01 
    6.9913902596323751E-01 
    6.7438391685713106E-01 
    6.4607443003725118E-01 
    6.1498607519093729E-01 
    5.8145029562044959E-01 
    5.4565877815799679E-01 
    5.0778766044535439E-01 
    4.6809175684643645E-01 
    4.2700386242905009E-01 
    3.8532993327112630E-01 
    3.4472431956003352E-01 
    3.0854178455606607E-01 
    2.8155754966160601E-01 
    2.6795594876315704E-01 
    7.2398081073476617E-01 
    7.1596803058956338E-01 
    6.9861824574137976E-01 
    6.7525256928403254E-01 
    6.4784899446167443E-01 
    6.1734995274606441E-01 
    5.8420852841220150E-01 
    5.4866792133393250E-01 
    5.1089066217142620E-01 
    4.7106332365748471E-01 
    4.2948476213122222E-01 
    3.8671505732425948E-01 
    3.4405951024301940E-01 
    3.0465439501039393E-01 
    2.7396182787775009E-01 
    2.5780414496407944E-01 
    7.2081130632967871E-01 
    7.1383619710133861E-01 
    6.9804795598788139E-01 
    6.7598532207003359E-01 
    6.4949750658978178E-01 
    6.1962001198073036E-01 
    5.8690602287397386E-01 
    5.5164987770300900E-01 
    5.1400172899802787E-01 
    4.7408166280293706E-01 
    4.3205687484594574E-01 
    3.8821828253819129E-01 
    3.4342331747283139E-01 
    3.0036090739546162E-01 
    2.6495366720426483E-01 
    2.4507568154317555E-01 
    7.1822977386623332E-01 
    7.1200340163234921E-01 
    6.9751528808684016E-01 
    6.7664967461866710E-01 
    6.5106226868110462E-01 
    6.2182193592621748E-01 
    5.8955946711476315E-01 
    5.5461969975012593E-01 
    5.1714095146946215E-01 
    4.7718074020884815E-01 
    4.3478452168265053E-01 
    3.8996109622871766E-01 
    3.4302292338591317E-01 
    2.9592283471950653E-01 
    2.5460132027907045E-01 
    2.2930598918528594E-01 
    7.1616874017874999E-01 
    7.1049400404311869E-01 
    6.9709176431453035E-01 
    6.7731153550283152E-01 
    6.5259098413471361E-01 
    6.2398766591412413E-01 
    5.9218996460075068E-01 
    5.5759539559713389E-01 
    5.2032974138823407E-01 
    4.8039099819918935E-01 
    4.3772374608527059E-01 
    3.9206195159293600E-01 
    3.4309192704583852E-01 
    2.9169675324092914E-01 
    2.4308853908116002E-01 
    2.0988444837438569E-01 
    7.1457799744429629E-01 
    7.0932876416757185E-01 
    6.9684320601361227E-01 
    6.7803795994596661E-01 
    6.5413693379430704E-01 
    6.2615617477274099E-01 
    5.9482640563903388E-01 
    5.6060234080460736E-01 
    5.2359397044580802E-01 
    4.8373771466757948E-01 
    4.4091397242557312E-01 
    3.9462082933900267E-01 
    3.4387895458578521E-01 
    2.8815671468982396E-01 
    2.3079974133870973E-01 
    1.8598454368739623E-01 
    7.1343324222575022E-01 
    7.0854050350664266E-01 
    6.9683804252065951E-01 
    6.7889899229926132E-01 
    6.5575601706038433E-01 
    6.2836821486884853E-01 
    5.9749742197222722E-01 
    5.6366342360209476E-01 
    5.2695162046260058E-01 
    4.8722332043339583E-01 
    4.4434821679605957E-01 
    3.9766967887068089E-01 
    3.4557855349682648E-01 
    2.8585448533073260E-01 
    2.1840549058030068E-01 
    1.5637010162787773E-01 
    7.1264792757751039E-01 
    7.0810442873531343E-01 
    6.9710109812886534E-01 
    6.7993405775140814E-01 
    6.5747731624733130E-01 
    6.3062605264096805E-01 
    6.0016210510839185E-01 
    5.6669153964899033E-01 
    5.3028513355485607E-01 
    4.9071296698201217E-01 
    4.4784713068480259E-01 
    4.0097980137943751E-01 
    3.4809186750481191E-01 
    2.8517595451816818E-01 
    2.0687957746700486E-01 
    1.1890488132194861E-01 
    7.1208764416380754E-01 
    7.0786631355405150E-01 
    6.9750357861520407E-01 
    6.8104944951199364E-01 
    6.5923192236716355E-01 
    6.3288232113468179E-01 
    6.0279067124246055E-01 
    5.6964531504277083E-01 
    5.3355116039482675E-01 
    4.9423357397160722E-01 
    4.5153923089099829E-01 
    4.0475732008575499E-01 
    3.5171596020730411E-01 
    2.8690529535621423E-01 
    1.9811685935018544E-01 
    6.9495687971994263E-02 
    7.1190281495768670E-01 
    7.0801762404355062E-01 
    6.9824047675063261E-01 
    6.8242339153331222E-01 
    6.6118506580255210E-01 
    6.3531586604141654E-01 
    6.0560461171857272E-01 
    5.7277495370752318E-01 
    5.3699453177276824E-01 
    4.9800239487560960E-01 
    4.5562503666735277E-01 
    4.0917848820661129E-01 
    3.5659700595414795E-01 
    2.9212507245159519E-01 
    1.9811385064023829E-01 
    0.0000000000000000E+00 

SCALARS Saturarion double 1 
LOOKUP_TABLE default 

    1.0000000000000007E+00 
    9.7159233443276805E-01 
    9.2094821726691611E-01 
    8.5692111020378947E-01 
    8.0270954447182774E-01 
    7.5617056099915858E-01 
    7.1696491416239660E-01 
    6.8372815889553396E-01 
    6.5472050401345605E-01 
    6.2828990980728139E-01 
    6.0297928029870762E-01 
    5.7742808784280586E-01 
    5.5016660087501268E-01 
    5.1658088268100122E-01 
    3.9746870964761999E-01 
    2.6881950243517701E-02 
    9.8882748584352276E-01 
    9.6189522488710477E-01 
    9.0886465169186736E-01 
    8.4849436789580057E-01 
    7.9721851733381222E-01 
    7.5273190796624978E-01 
    7.1443626820749062E-01 
    6.8144305988154619E-01 
    6.5259524841063732E-01 
    6.2652879095658276E-01 
    6.0196998039231453E-01 
    5.7749116572849812E-01 
    5.5135502008339432E-01 
    5.1902202186255886E-01 
    4.0991126922533483E-01 
    4.6903314581549962E-02 
    9.7125790487588115E-01 
    9.4467252550162195E-01 
    8.9179294607815340E-01 
    8.3408326331006144E-01 
    7.8635913392175816E-01 
    7.4534370099405556E-01 
    7.0909787319768880E-01 
    6.7676158494067040E-01 
    6.4803974258243235E-01 
    6.2232343156495862E-01 
    5.9877390114885021E-01 
    5.7592290514301270E-01 
    5.5176321169966525E-01 
    5.2176936175580801E-01 
    4.2600851573223852E-01 
    7.7417201569501951E-02 
    9.4048023093569011E-01 
    9.1851468284775450E-01 
    8.7122426949739595E-01 
    8.1780991022136662E-01 
    7.7154984018090356E-01 
    7.3321136270878484E-01 
    6.9979703675411020E-01 
    6.6976284065759761E-01 
    6.4248120639688600E-01 
    6.1786594648717885E-01 
    5.9529277154003823E-01 
    5.7379340225919939E-01 
    5.5156045469049209E-01 
    5.2458354751805258E-01 
    4.4070723618311836E-01 
    1.1877566762321999E-01 
    9.0425052739328693E-01 
    8.8550545867908070E-01 
    8.4409385607539267E-01 
    7.9631375131198767E-01 
    7.5298131769469290E-01 
    7.1661054426328374E-01 
    6.8578977270534114E-01 
    6.5869805343974097E-01 
    6.3431859630575493E-01 
    6.1208589112887735E-01 
    5.9150529699171706E-01 
    5.7169600352997363E-01 
    5.5113513861969810E-01 
    5.2667420681276911E-01 
    4.5309317968536000E-01 
    1.5327846271699472E-01 
    8.6554344022921492E-01 
    8.5018402899256573E-01 
    8.1478048494366428E-01 
    7.7254818110055423E-01 
    7.3303137001648111E-01 
    6.9872294961180992E-01 
    6.6934531693176635E-01 
    6.4439097567325421E-01 
    6.2274528520781802E-01 
    6.0331848611514816E-01 
    5.8539581621483627E-01 
    5.6835641244188784E-01 
    5.5044660133097068E-01 
    5.2844712903938784E-01 
    4.6413572088972183E-01 
    1.8554557140985298E-01 
    8.2469879463977969E-01 
    8.1337674238986857E-01 
    7.8441173786703300E-01 
    7.4758421469637326E-01 
    7.1195580596150665E-01 
    6.8019515230594174E-01 
    6.5275683946535590E-01 
    6.2914263993868025E-01 
    6.0910731081360447E-01 
    5.9191910192477781E-01 
    5.7673332650162679E-01 
    5.6269487612241176E-01 
    5.4840281741625407E-01 
    5.3011316042147394E-01 
    4.7407536895279628E-01 
    2.1735168893117060E-01 
    7.8173296943832038E-01 
    7.7480614792041136E-01 
    7.5282344448565774E-01 
    7.2163398254166877E-01 
    6.8948987226958602E-01 
    6.6022154112616593E-01 
    6.3458225483908504E-01 
    6.1261084603214833E-01 
    5.9394485189321711E-01 
    5.7843935088029963E-01 
    5.6562050828878085E-01 
    5.5474843087936754E-01 
    5.4429264086155837E-01 
    5.3070725428565957E-01 
    4.8369037803927550E-01 
    2.4901963600273649E-01 
    7.3688965236391546E-01 
    7.3399986999596623E-01 
    7.1847807756566651E-01 
    6.9315989273888445E-01 
    6.6517465589360203E-01 
    6.3855711946570126E-01 
    6.1481507847600625E-01 
    5.9403236629280887E-01 
    5.7631194025877130E-01 
    5.6196663426317339E-01 
    5.5128564569481220E-01 
    5.4381159722651773E-01 
    5.3778518720155544E-01 
    5.2948427094474160E-01 
    4.9227012000380160E-01 
    2.7726822470545137E-01 
    6.9009717425505301E-01 
    6.9082169156945084E-01 
    6.8111102594763884E-01 
    6.6131137965716302E-01 
    6.3788980965165787E-01 
    6.1460843614313321E-01 
    5.9294917532328251E-01 
    5.7365918997857501E-01 
    5.5701106712444703E-01 
    5.4360798851141379E-01 
    5.3410660951150324E-01 
    5.2909685243932281E-01 
    5.2783905240011952E-01 
    5.2589975217676543E-01 
    4.9924119820853957E-01 
    3.0397787207853727E-01 
    6.4116877322857757E-01 
    6.4507178217373740E-01 
    6.4062366732012865E-01 
    6.2601801824052028E-01 
    6.0731594904604391E-01 
    5.8800445212782504E-01 
    5.6951582436067105E-01 
    5.5228663214867024E-01 
    5.3726926063197267E-01 
    5.2508692735381812E-01 
    5.1626050371650822E-01 
    5.1180517331418918E-01 
    5.1353281313740828E-01 
    5.1878276652606403E-01 
    5.0395503150357424E-01 
    3.3032999475232067E-01 
    5.9068029151132628E-01 
    5.9705594432738385E-01 
    5.9764272952976361E-01 
    5.8839784449533028E-01 
    5.7417609059590924E-01 
    5.5827971949470223E-01 
    5.4279984444241891E-01 
    5.2897950804221738E-01 
    5.1662906599602287E-01 
    5.0553688378192108E-01 
    4.9665736908291414E-01 
    4.9199241323482407E-01 
    4.9483427205973313E-01 
    5.0639919039146108E-01 
    5.0515168824973944E-01 
    3.5593441027564837E-01 
    5.4179033126887166E-01 
    5.4999222599988107E-01 
    5.5407400475371582E-01 
    5.4908762376944775E-01 
    5.3837279407669247E-01 
    5.2467749168668110E-01 
    5.1122507341750245E-01 
    4.9876057357339593E-01 
    4.8590966755994258E-01 
    4.7403814405238354E-01 
    4.6190536307834068E-01 
    4.5449212444126241E-01 
    4.6002123739833634E-01 
    4.8222761946280301E-01 
    4.9757882626711675E-01 
    3.7890366311415069E-01 
    4.4407435862294725E-01 
    4.6802233668472426E-01 
    4.8460828871041400E-01 
    4.8702341443935149E-01 
    4.7864613376392950E-01 
    4.6173586652269477E-01 
    4.3576100854289340E-01 
    3.9431469297644339E-01 
    3.2850493275466047E-01 
    2.4621413023377769E-01 
    2.1779645177763579E-01 
    2.1846159814677496E-01 
    2.7846938433437796E-01 
    3.9794014190794036E-01 
    4.6944145328073583E-01 
    3.9428682989545466E-01 
    8.6885382568243741E-02 
    1.6476822596892474E-01 
    2.0174369554100990E-01 
    2.1453199814891116E-01 
    1.9992276984343582E-01 
    1.5210324801644529E-01 
    8.4687648182896813E-02 
    2.5595096417967856E-02 
    9.7404896574421213E-03 
    1.3509688974654452E-03 
    1.9353532502945048E-04 
    1.0234125587312073E-04 
    1.6025150125692528E-02 
    1.3315728431285628E-01 
    3.7748794562945959E-01 
    3.9802342546638986E-01 
    1.0007454058227247E-06 
    8.2049741025063631E-05 
    7.7666412015319009E-05 
    8.9860371026838912E-06 
    1.3142482746050489E-04 
    1.8250235100487323E-05 
    1.0140943000786029E-05 
    2.8397135088466306E-06 
    1.1916382903489904E-06 
    1.0161171710869096E-06 
    1.0003441408452108E-06 
    1.0004013755945267E-06 
    2.0330361110092532E-05 
    8.4262141629167561E-03 
    2.2017719551266418E-01 
    3.5429327695545998E-01 
