# vtk DataFile Version 2.0
Pressure Field Data 
ASCII 
DATASET UNSTRUCTURED_GRID 

POINTS 289 double 

    0.0000000000000000E+00     0.0000000000000000E+00     0.0000000000000000E+00 
    1.0000000000000000E+00     0.0000000000000000E+00     0.0000000000000000E+00 
    1.0000000000000000E+00     1.0000000000000000E+00     0.0000000000000000E+00 
    0.0000000000000000E+00     1.0000000000000000E+00     0.0000000000000000E+00 
    6.2499999999872928E-02     0.0000000000000000E+00     0.0000000000000000E+00 
    1.2499999999977310E-01     0.0000000000000000E+00     0.0000000000000000E+00 
    1.8749999999959341E-01     0.0000000000000000E+00     0.0000000000000000E+00 
    2.4999999999941089E-01     0.0000000000000000E+00     0.0000000000000000E+00 
    3.1249999999922851E-01     0.0000000000000000E+00     0.0000000000000000E+00 
    3.7499999999904610E-01     0.0000000000000000E+00     0.0000000000000000E+00 
    4.3749999999886358E-01     0.0000000000000000E+00     0.0000000000000000E+00 
    4.9999999999869210E-01     0.0000000000000000E+00     0.0000000000000000E+00 
    5.6249999999884603E-01     0.0000000000000000E+00     0.0000000000000000E+00 
    6.2499999999901090E-01     0.0000000000000000E+00     0.0000000000000000E+00 
    6.8749999999917577E-01     0.0000000000000000E+00     0.0000000000000000E+00 
    7.4999999999934064E-01     0.0000000000000000E+00     0.0000000000000000E+00 
    8.1249999999950551E-01     0.0000000000000000E+00     0.0000000000000000E+00 
    8.7499999999967026E-01     0.0000000000000000E+00     0.0000000000000000E+00 
    9.3749999999983513E-01     0.0000000000000000E+00     0.0000000000000000E+00 
    1.0000000000000000E+00     6.2499999999872928E-02     0.0000000000000000E+00 
    1.0000000000000000E+00     1.2499999999977310E-01     0.0000000000000000E+00 
    1.0000000000000000E+00     1.8749999999959341E-01     0.0000000000000000E+00 
    1.0000000000000000E+00     2.4999999999941089E-01     0.0000000000000000E+00 
    1.0000000000000000E+00     3.1249999999922851E-01     0.0000000000000000E+00 
    1.0000000000000000E+00     3.7499999999904610E-01     0.0000000000000000E+00 
    1.0000000000000000E+00     4.3749999999886358E-01     0.0000000000000000E+00 
    1.0000000000000000E+00     4.9999999999869210E-01     0.0000000000000000E+00 
    1.0000000000000000E+00     5.6249999999884603E-01     0.0000000000000000E+00 
    1.0000000000000000E+00     6.2499999999901090E-01     0.0000000000000000E+00 
    1.0000000000000000E+00     6.8749999999917577E-01     0.0000000000000000E+00 
    1.0000000000000000E+00     7.4999999999934064E-01     0.0000000000000000E+00 
    1.0000000000000000E+00     8.1249999999950551E-01     0.0000000000000000E+00 
    1.0000000000000000E+00     8.7499999999967026E-01     0.0000000000000000E+00 
    1.0000000000000000E+00     9.3749999999983513E-01     0.0000000000000000E+00 
    9.3749999999973976E-01     1.0000000000000000E+00     0.0000000000000000E+00 
    8.7499999999950118E-01     1.0000000000000000E+00     0.0000000000000000E+00 
    8.1249999999991318E-01     1.0000000000000000E+00     0.0000000000000000E+00 
    7.5000000000034706E-01     1.0000000000000000E+00     0.0000000000000000E+00 
    6.8750000000078049E-01     1.0000000000000000E+00     0.0000000000000000E+00 
    6.2500000000121403E-01     1.0000000000000000E+00     0.0000000000000000E+00 
    5.6250000000164757E-01     1.0000000000000000E+00     0.0000000000000000E+00 
    5.0000000000205946E-01     1.0000000000000000E+00     0.0000000000000000E+00 
    4.3750000000182099E-01     1.0000000000000000E+00     0.0000000000000000E+00 
    3.7500000000156092E-01     1.0000000000000000E+00     0.0000000000000000E+00 
    3.1250000000130068E-01     1.0000000000000000E+00     0.0000000000000000E+00 
    2.5000000000104050E-01     1.0000000000000000E+00     0.0000000000000000E+00 
    1.8750000000078040E-01     1.0000000000000000E+00     0.0000000000000000E+00 
    1.2500000000052031E-01     1.0000000000000000E+00     0.0000000000000000E+00 
    6.2500000000260125E-02     1.0000000000000000E+00     0.0000000000000000E+00 
    0.0000000000000000E+00     9.3749999999973976E-01     0.0000000000000000E+00 
    0.0000000000000000E+00     8.7499999999950118E-01     0.0000000000000000E+00 
    0.0000000000000000E+00     8.1249999999991318E-01     0.0000000000000000E+00 
    0.0000000000000000E+00     7.5000000000034706E-01     0.0000000000000000E+00 
    0.0000000000000000E+00     6.8750000000078049E-01     0.0000000000000000E+00 
    0.0000000000000000E+00     6.2500000000121403E-01     0.0000000000000000E+00 
    0.0000000000000000E+00     5.6250000000164757E-01     0.0000000000000000E+00 
    0.0000000000000000E+00     5.0000000000205946E-01     0.0000000000000000E+00 
    0.0000000000000000E+00     4.3750000000182099E-01     0.0000000000000000E+00 
    0.0000000000000000E+00     3.7500000000156092E-01     0.0000000000000000E+00 
    0.0000000000000000E+00     3.1250000000130068E-01     0.0000000000000000E+00 
    0.0000000000000000E+00     2.5000000000104050E-01     0.0000000000000000E+00 
    0.0000000000000000E+00     1.8750000000078040E-01     0.0000000000000000E+00 
    0.0000000000000000E+00     1.2500000000052031E-01     0.0000000000000000E+00 
    0.0000000000000000E+00     6.2500000000260125E-02     0.0000000000000000E+00 
    6.2499999999897131E-02     6.2500000000235922E-02     0.0000000000000000E+00 
    6.2499999999921327E-02     1.2500000000047351E-01     0.0000000000000000E+00 
    6.2499999999945530E-02     1.8750000000070621E-01     0.0000000000000000E+00 
    6.2499999999969733E-02     2.5000000000093858E-01     0.0000000000000000E+00 
    6.2499999999993928E-02     3.1250000000117117E-01     0.0000000000000000E+00 
    6.2500000000018124E-02     3.7500000000140382E-01     0.0000000000000000E+00 
    6.2500000000042327E-02     4.3750000000163619E-01     0.0000000000000000E+00 
    6.2500000000066530E-02     5.0000000000184897E-01     0.0000000000000000E+00 
    6.2500000000090733E-02     5.6250000000147260E-01     0.0000000000000000E+00 
    6.2500000000114922E-02     6.2500000000107636E-01     0.0000000000000000E+00 
    6.2500000000139125E-02     6.8750000000068034E-01     0.0000000000000000E+00 
    6.2500000000163328E-02     7.5000000000028411E-01     0.0000000000000000E+00 
    6.2500000000187531E-02     8.1249999999988787E-01     0.0000000000000000E+00 
    6.2500000000211720E-02     8.7499999999951172E-01     0.0000000000000000E+00 
    6.2500000000235922E-02     9.3749999999974565E-01     0.0000000000000000E+00 
    1.2499999999981980E-01     6.2500000000211733E-02     0.0000000000000000E+00 
    1.2499999999986650E-01     1.2500000000042691E-01     0.0000000000000000E+00 
    1.2499999999991319E-01     1.8750000000063199E-01     0.0000000000000000E+00 
    1.2499999999995989E-01     2.5000000000083678E-01     0.0000000000000000E+00 
    1.2500000000000661E-01     3.1250000000104172E-01     0.0000000000000000E+00 
    1.2500000000005329E-01     3.7500000000124661E-01     0.0000000000000000E+00 
    1.2500000000010000E-01     4.3750000000145117E-01     0.0000000000000000E+00 
    1.2500000000014669E-01     5.0000000000163858E-01     0.0000000000000000E+00 
    1.2500000000019340E-01     5.6250000000129741E-01     0.0000000000000000E+00 
    1.2500000000024011E-01     6.2500000000093847E-01     0.0000000000000000E+00 
    1.2500000000028680E-01     6.8750000000057998E-01     0.0000000000000000E+00 
    1.2500000000033351E-01     7.5000000000022127E-01     0.0000000000000000E+00 
    1.2500000000038020E-01     8.1249999999986211E-01     0.0000000000000000E+00 
    1.2500000000042691E-01     8.7499999999952238E-01     0.0000000000000000E+00 
    1.2500000000047359E-01     9.3749999999975164E-01     0.0000000000000000E+00 
    1.8749999999966760E-01     6.2500000000187531E-02     0.0000000000000000E+00 
    1.8749999999974179E-01     1.2500000000038020E-01     0.0000000000000000E+00 
    1.8749999999981601E-01     1.8750000000055780E-01     0.0000000000000000E+00 
    1.8749999999989009E-01     2.5000000000073502E-01     0.0000000000000000E+00 
    1.8749999999996431E-01     3.1250000000091221E-01     0.0000000000000000E+00 
    1.8750000000003850E-01     3.7500000000108941E-01     0.0000000000000000E+00 
    1.8750000000011269E-01     4.3750000000126649E-01     0.0000000000000000E+00 
    1.8750000000018691E-01     5.0000000000142808E-01     0.0000000000000000E+00 
    1.8750000000026110E-01     5.6250000000112244E-01     0.0000000000000000E+00 
    1.8750000000033529E-01     6.2500000000080080E-01     0.0000000000000000E+00 
    1.8750000000040951E-01     6.8750000000047962E-01     0.0000000000000000E+00 
    1.8750000000048361E-01     7.5000000000015843E-01     0.0000000000000000E+00 
    1.8750000000055780E-01     8.1249999999983680E-01     0.0000000000000000E+00 
    1.8750000000063199E-01     8.7499999999953304E-01     0.0000000000000000E+00 
    1.8750000000070621E-01     9.3749999999975764E-01     0.0000000000000000E+00 
    2.4999999999951281E-01     6.2500000000163314E-02     0.0000000000000000E+00 
    2.4999999999961461E-01     1.2500000000033351E-01     0.0000000000000000E+00 
    2.4999999999971650E-01     1.8750000000048361E-01     0.0000000000000000E+00 
    2.4999999999981831E-01     2.5000000000063310E-01     0.0000000000000000E+00 
    2.4999999999992020E-01     3.1250000000078260E-01     0.0000000000000000E+00 
    2.5000000000002198E-01     3.7500000000093209E-01     0.0000000000000000E+00 
    2.5000000000012390E-01     4.3750000000108180E-01     0.0000000000000000E+00 
    2.5000000000022571E-01     5.0000000000121769E-01     0.0000000000000000E+00 
    2.5000000000032763E-01     5.6250000000094724E-01     0.0000000000000000E+00 
    2.5000000000042938E-01     6.2500000000066314E-01     0.0000000000000000E+00 
    2.5000000000053119E-01     6.8750000000037925E-01     0.0000000000000000E+00 
[...]
CELL_DATA 256 
SCALARS Pressure double 1 
LOOKUP_TABLE default 

    6.2350073194622491E-01 
    5.7439102976111134E-01 
    5.4377803963306803E-01 
    5.1660757047651018E-01 
    4.8942267627527186E-01 
    4.6133485982069705E-01 
    4.3205372174938778E-01 
    4.0158752534877851E-01 
    3.7015977426212049E-01 
    3.3823393313360872E-01 
    3.0661542268868047E-01 
    2.7659113996625012E-01 
    2.5000770007690554E-01 
    2.2908444484255097E-01 
    2.1571817487389811E-01 
    2.0943714952989828E-01 
    6.0949407323774452E-01 
    5.7558668818404224E-01 
    5.4603811537282176E-01 
    5.1906247514607617E-01 
    4.9203466837427545E-01 
    4.6409274662166250E-01 
    4.3494314378861865E-01 
    4.0457863362160806E-01 
    3.7319777245629876E-01 
    3.4122640376555025E-01 
    3.0941683980559065E-01 
    2.7899505753510673E-01 
    2.5177159191295451E-01 
    2.3001842229065331E-01 
    2.1585060747229037E-01 
    2.0907680487531805E-01 
    5.9874853151460805E-01 
    5.7466834947401346E-01 
    5.4757020410125223E-01 
    5.2120897573061276E-01 
    4.9447578473599124E-01 
    4.6673289140205348E-01 
    4.3773410447186323E-01 
    4.0747198951436248E-01 
    3.7612140390180310E-01 
    3.4406437181780530E-01 
    3.1198828650566818E-01 
    2.8104459882530625E-01 
    2.5300449021145860E-01 
    2.3022571543121062E-01 
    2.1512682931794611E-01 
    2.0791089094774154E-01 
    5.9033514941114684E-01 
    5.7270065926875646E-01 
    5.4841894297532245E-01 
    5.2302414053788115E-01 
    4.9673512932390662E-01 
    4.6925596044603091E-01 
    4.4043446362604205E-01 
    4.1028065036615119E-01 
    3.7895043540212070E-01 
    3.4677787778173152E-01 
    3.1437380269938142E-01 
    2.8279741085587307E-01 
    2.5376497312518853E-01 
    2.2973393324188490E-01 
    2.1350724811816832E-01 
    2.0581795724640428E-01 
    5.8362228155403506E-01 
    5.7028236758221340E-01 
    5.4871975383093452E-01 
    5.2451748669926967E-01 
    4.9880797154564649E-01 
    4.7166151128267481E-01 
    4.4305051466435491E-01 
    4.1301771866933884E-01 
    3.8170611935770632E-01 
    3.4939965951946783E-01 
    3.1662145224886085E-01 
    2.8431715428196497E-01 
    2.5412003825756202E-01 
    2.2857760616337913E-01 
    2.1094771528156081E-01 
    2.0266792623850680E-01 
    5.7819927016001316E-01 
    5.6775582491905996E-01 
    5.4862338404128774E-01 
    5.2572233000900959E-01 
    5.0069820780820240E-01 
    4.7394963615103586E-01 
    4.4558630815499550E-01 
    4.1569435781693620E-01 
    3.8440910017066227E-01 
    3.5196355627877074E-01 
    3.1878297020114515E-01 
    2.8567465304698370E-01 
    2.5414785173709986E-01 
    2.2680319159980766E-01 
    2.0740149698157873E-01 
    1.9830854366960574E-01 
    5.7379060648478353E-01 
    5.6532256354611721E-01 
    5.4827406751930741E-01 
    5.2668995695345722E-01 
    5.0242290703612280E-01 
    4.7612752543209885E-01 
    4.4804790358000973E-01 
    4.1832076289572079E-01 
    3.8707828645093356E-01 
    3.5450288007410935E-01 
    3.2091273267398396E-01 
    2.8694927480336224E-01 
    2.5394219856213884E-01 
    2.2447681565232400E-01 
    2.0282821853306376E-01 
    1.9256555722549962E-01 
    5.7020202341728743E-01 
    5.6309848523250583E-01 
    5.4779633671655503E-01 
    5.2748105143734536E-01 
    5.0400943037089474E-01 
    4.7820956284876914E-01 
    4.5044544735339803E-01 
    4.2090754489242949E-01 
    3.8973075605598789E-01 
    3.5704815101705117E-01 
    3.2306473189159429E-01 
    2.8822805804064894E-01 
    2.5361761917795711E-01 
    2.2169422136968212E-01 
    1.9720259823649630E-01 
    1.8523328289520960E-01 
    5.6729351506762460E-01 
    5.6114662972183749E-01 
    5.4729099156487981E-01 
    5.2815865237284532E-01 
    5.0549023495614331E-01 
    4.8021357880730214E-01 
    4.5279086240727795E-01 
    4.2346561005283362E-01 
    3.9238102845585998E-01 
    3.5962527765326402E-01 
    3.2528837199516142E-01 
    2.8960080470570543E-01 
    2.5331069131921219E-01 
    2.1859226527955736E-01 
    1.9052149669329460E-01 
    1.7605040117048570E-01 
    5.6496200904437710E-01 
    5.5949700223008014E-01 
    5.4683430472040795E-01 
    5.2878138647967188E-01 
    5.0690017682952426E-01 
    4.8215946523906961E-01 
    4.5509687637434487E-01 
    4.2600571278284283E-01 
    3.9504214063730919E-01 
    3.6225614378222382E-01 
    3.2762683285332328E-01 
    2.9115478770939712E-01 
    2.5317655124317157E-01 
    2.1536143688922912E-01 
    1.8282269026911632E-01 
    1.6467183427527810E-01 
    5.6313026186139170E-01 
    5.5816253926905035E-01 
    5.4648598603885268E-01 
    5.2940391632425676E-01 
    5.0827636437463786E-01 
    4.8407032312398718E-01 
    4.5737831424785708E-01 
    4.2853932978158654E-01 
    3.9772684179656531E-01 
    3.6496024938613036E-01 
    3.3011753765068097E-01 
    2.9297214505200603E-01 
    2.5338570390792065E-01 
    2.1225308363203446E-01 
    1.7421194498277764E-01 
    1.5063588585615867E-01 
    5.6173575846324786E-01 
    5.5714785230556774E-01 
    5.4629476966162271E-01 
    5.3007691759865938E-01 
    5.0965690083924975E-01 
    4.8597228531180381E-01 
    4.5965347265037315E-01 
    4.3107958014207098E-01 
    4.0044785996870202E-01 
    3.6775468757585178E-01 
    3.3279157511662005E-01 
    2.9512616942866043E-01 
    2.5411902354117716E-01 
    2.0961194787111093E-01 
    1.6495599682185158E-01 
    1.3330513409931483E-01 
    5.6072936537363016E-01 
    5.5645503594314250E-01 
    5.4630105617850477E-01 
    5.3084716889900319E-01 
    5.1107995464366762E-01 
    4.8789390115580300E-01 
    4.6194358255458112E-01 
    4.3364125948934895E-01 
    4.0321670386324482E-01 
    3.7065342125837758E-01 
    3.3567294909700607E-01 
    2.9767591846320030E-01 
    2.5555239237503458E-01 
    2.0788246506215668E-01 
    1.5559131443639920E-01 
    1.1175649746595323E-01 
    5.6008046351263663E-01 
    5.5609263291126543E-01 
    5.4654423812119790E-01 
    5.3176258324999892E-01 
    5.1258863914188557E-01 
    4.8986898470862178E-01 
    4.6427422817173952E-01 
    4.3623986072816745E-01 
    4.0604152941589017E-01 
    3.7366457501769268E-01 
    3.3877595178596959E-01 
    3.0065923832581631E-01 
    2.5783024902227658E-01 
    2.0759973698543022E-01 
    1.4714601895969470E-01 
    8.4611423332922694E-02 
    5.5972414032931894E-01 
    5.5603657073704582E-01 
    5.4703926909141865E-01 
    5.3285569824814594E-01 
    5.1421443811250200E-01 
    4.9191651003200260E-01 
    4.6665317842242743E-01 
    4.3886898839992083E-01 
    4.0889434108328832E-01 
    3.7674268942299860E-01 
    3.4203392637277930E-01 
    3.0400449233580562E-01 
    2.6094146706842913E-01 
    2.0916776491879008E-01 
    1.4134847628819400E-01 
    4.9618796440104924E-02 
    5.5960655880049359E-01 
    5.5624066486224522E-01 
    5.4775936537158887E-01 
    5.3411828050045540E-01 
    5.1595788357865380E-01 
    4.9404121800657130E-01 
    4.6908472830787235E-01 
    4.4154003887920340E-01 
    4.1177702767724733E-01 
    3.7987081761031960E-01 
    3.4541501152473714E-01 
    3.0768761618473367E-01 
    2.6490267165171921E-01 
    2.1278910425550338E-01 
    1.4088058478011767E-01 
    0.0000000000000000E+00 

SCALARS Saturarion double 1 
LOOKUP_TABLE default 

    1.0000000000000004E+00 
    9.8084891907897342E-01 
    9.4549778366735115E-01 
    8.9485580062220327E-01 
    8.5270242987643907E-01 
    8.1536702393906857E-01 
    7.8223397507040948E-01 
    7.5289535721942258E-01 
    7.2663988586110784E-01 
    7.0264359512905561E-01 
    6.8003471656929859E-01 
    6.5772514811565830E-01 
    6.3393344999146695E-01 
    6.0506433440574747E-01 
    5.6342396750831958E-01 
    3.8062521987297981E-01 
    9.9309140859722267E-01 
    9.7500948652404151E-01 
    9.3785337609740227E-01 
    8.8950445709052073E-01 
    8.4802565744437952E-01 
    8.1163493888893423E-01 
    7.7941868927121727E-01 
    7.5076243004860332E-01 
    7.2504706993596335E-01 
    7.0150308034483178E-01 
    6.7941940614895779E-01 
    6.5783838942753881E-01 
    6.3500738665454493E-01 
    6.0711820611137468E-01 
    5.6663374526024879E-01 
    3.9683354431281687E-01 
    9.8213472199801832E-01 
    9.6386064548431005E-01 
    9.2631761619502018E-01 
    8.7941912769772201E-01 
    8.3866974620610735E-01 
    8.0387722063688605E-01 
    7.7353661404019292E-01 
    7.4634252284419889E-01 
    7.2164543898642275E-01 
    6.9885846341315638E-01 
    6.7746098178296466E-01 
    6.5669488716922642E-01 
    6.3520785757016729E-01 
    6.0941498499366165E-01 
    5.7140787787417824E-01 
    4.1230408134121238E-01 
    9.6304774851249331E-01 
    9.4758639117096699E-01 
    9.1193656579395310E-01 
    8.6875425161840525E-01 
    8.2872258111926378E-01 
    7.9444159802752257E-01 
    7.6494602932096778E-01 
    7.3908116312576344E-01 
    7.1579030103737662E-01 
    6.9448809891707119E-01 
    6.7444301493225844E-01 
    6.5492454298228886E-01 
    6.3477559301119413E-01 
    6.1116398643283609E-01 
    5.7615807080620596E-01 
    4.2762889020693878E-01 
    9.3926511427073023E-01 
    9.2517908983893959E-01 
    8.9270955929268903E-01 
    8.5368897871949978E-01 
    8.1553329895132676E-01 
    7.8174456068481557E-01 
    7.5280727457973029E-01 
    7.2791043208105610E-01 
    7.0616558581749433E-01 
    6.8679821781887140E-01 
    6.6910030723879477E-01 
    6.5202263265843496E-01 
    6.3396207094174695E-01 
    6.1239450439541243E-01 
    5.8038282171935396E-01 
    4.4080332477493750E-01 
    9.1152187592579359E-01 
    8.9947693803787199E-01 
    8.7094235744771253E-01 
    8.3517603465638568E-01 
    7.9953641418414922E-01 
    7.6724058267946804E-01 
    7.3900400580903092E-01 
    7.1480997621044207E-01 
    6.9406182878299083E-01 
    6.7613961797345545E-01 
    6.6056328503236694E-01 
    6.4661414059205324E-01 
    6.3209093083840973E-01 
    6.1327717115636360E-01 
    5.8400389146288356E-01 
    4.5300375469965948E-01 
    8.8069839849653819E-01 
    8.7138712863956169E-01 
    8.4702746444965704E-01 
    8.1464455009672210E-01 
    7.8187034673227829E-01 
    7.5177977353254843E-01 
    7.2514851213508025E-01 
    7.0169173977048072E-01 
    6.8145196674375574E-01 
    6.6431486936300310E-01 
    6.5015766470189085E-01 
    6.3862641004311349E-01 
    6.2813077952308383E-01 
    6.1361742213542914E-01 
    5.8747369573629671E-01 
    4.6510263722259715E-01 
    8.4672305269835768E-01 
    8.4056299053675798E-01 
    8.2103844319358588E-01 
    7.9272111557555303E-01 
    7.6276993689363515E-01 
    7.3480770985113453E-01 
    7.0964446584773144E-01 
    6.8745994273211719E-01 
    6.6814968431501542E-01 
    6.5185583211138254E-01 
    6.3866132486346872E-01 
    6.2884844878695378E-01 
    6.2172697204265404E-01 
    6.1258579326143370E-01 
    5.9091521958896409E-01 
    4.7738200058096236E-01 
    8.0953239475945959E-01 
    8.0658611540820491E-01 
    7.9201587114835181E-01 
    7.6824664007162058E-01 
    7.4163486334969397E-01 
    7.1575842019820435E-01 
    6.9213112966387802E-01 
    6.7109368038693684E-01 
    6.5281147701418063E-01 
    6.3744153388652380E-01 
    6.2538281648428173E-01 
    6.1715280190886401E-01 
    6.1291738626554237E-01 
    6.0931192073699469E-01 
    5.9380546487589003E-01 
    4.8928973585323832E-01 
    7.6913246047424821E-01 
    7.6932554070446513E-01 
    7.5959193300042249E-01 
    7.4028835882330046E-01 
    7.1727453645118744E-01 
    6.9392146393217946E-01 
    6.7184410758159863E-01 
    6.5216566079604199E-01 
    6.3514708560480471E-01 
    6.2086959830167199E-01 
    6.0971860761653129E-01 
    6.0283255706263517E-01 
    6.0126083740788017E-01 
    6.0315543633589253E-01 
    5.9521710047255372E-01 
    5.0125394160136416E-01 
    7.2523018738268497E-01 
    7.2843267685928337E-01 
    7.2334752781539002E-01 
    7.0827966569368006E-01 
    6.8891680842035563E-01 
    6.6858593050115678E-01 
    6.4896201121711927E-01 
    6.3076360337568027E-01 
    6.1491590705672894E-01 
    6.0183468494341874E-01 
    5.9184885336161985E-01 
    5.8586927779948739E-01 
    5.8607837662377726E-01 
    5.9321728904431381E-01 
    5.9237560444445492E-01 
    5.1367622108076993E-01 
    6.7642604550653729E-01 
    6.8264763606148937E-01 
    6.8242356436559493E-01 
    6.7173723321340362E-01 
    6.5580364265303104E-01 
    6.3825347400607058E-01 
    6.2097999817994376E-01 
    6.0507376146375369E-01 
    5.9102406806628671E-01 
    5.7940939872391217E-01 
    5.7078858497304530E-01 
    5.6619140687441094E-01 
    5.6754500364420502E-01 
    5.7838109890073908E-01 
    5.8877582566844422E-01 
    5.2468935547494211E-01 
    6.2140688058386973E-01 
    6.3034698723114002E-01 
    6.3472304222381659E-01 
    6.2856843415381669E-01 
    6.1666721004162228E-01 
    6.0235095837657404E-01 
    5.8811496271143504E-01 
    5.7453528760512718E-01 
    5.6218410152196785E-01 
    5.5185906579965482E-01 
    5.4486123520229945E-01 
    5.4197295305825677E-01 
    5.4500733266171730E-01 
    5.5816066660287977E-01 
    5.7918777947868494E-01 
    5.3345026526430350E-01 
    5.6345717813052032E-01 
    5.7356616104766411E-01 
    5.8136393189348523E-01 
    5.7955399896275905E-01 
    5.7194533866392316E-01 
    5.6122673003066303E-01 
    5.4969110543772459E-01 
    5.3832739919919848E-01 
    5.2661716056573671E-01 
    5.1622671197060988E-01 
    5.0964435581754697E-01 
    5.0853680848249605E-01 
    5.1421780356022972E-01 
    5.3101385860272443E-01 
    5.6527860884721259E-01 
    5.3908606558593042E-01 
    4.5006455191546757E-01 
    4.7136670978542483E-01 
    4.8830157493419274E-01 
    4.9511075762824586E-01 
    4.9201685910589560E-01 
    4.8247288888816847E-01 
    4.6803380880158169E-01 
    4.5273231128197017E-01 
    4.3698936597590954E-01 
    4.1185887064188781E-01 
    3.8770703502715909E-01 
    3.6732339331314096E-01 
    3.9066998107815537E-01 
    4.5233784450979519E-01 
    5.2778175158935137E-01 
    5.3930683576039518E-01 
    6.0426307672204721E-02 
    1.2996807102002500E-01 
    1.4738662214441792E-01 
    1.7628694023910832E-01 
    1.3926464033282532E-01 
    1.4043839439341729E-01 
    9.1076718183017408E-02 
    8.2555288130842869E-02 
    3.8307335123842934E-02 
    2.4198770393336566E-02 
    1.6736158743398857E-02 
    2.1938493393336200E-02 
    6.0097728874935731E-02 
    2.0721065729685498E-01 
    3.5931299846985976E-01 
    4.8839738120366677E-01 
