# vtk DataFile Version 2.0
Pressure Field Data 
ASCII 
DATASET UNSTRUCTURED_GRID 

POINTS 289 double 

    0.0000000000000000E+00     0.0000000000000000E+00     0.0000000000000000E+00 
    1.0000000000000000E+00     0.0000000000000000E+00     0.0000000000000000E+00 
    1.0000000000000000E+00     1.0000000000000000E+00     0.0000000000000000E+00 
    0.0000000000000000E+00     1.0000000000000000E+00     0.0000000000000000E+00 
    6.2499999999872928E-02     0.0000000000000000E+00     0.0000000000000000E+00 
    1.2499999999977310E-01     0.0000000000000000E+00     0.0000000000000000E+00 
    1.8749999999959341E-01     0.0000000000000000E+00     0.0000000000000000E+00 
    2.4999999999941089E-01     0.0000000000000000E+00     0.0000000000000000E+00 
    3.1249999999922851E-01     0.0000000000000000E+00     0.0000000000000000E+00 
    3.7499999999904610E-01     0.0000000000000000E+00     0.0000000000000000E+00 
    4.3749999999886358E-01     0.0000000000000000E+00     0.0000000000000000E+00 
    4.9999999999869210E-01     0.0000000000000000E+00     0.0000000000000000E+00 
    5.6249999999884603E-01     0.0000000000000000E+00     0.0000000000000000E+00 
    6.2499999999901090E-01     0.0000000000000000E+00     0.0000000000000000E+00 
    6.8749999999917577E-01     0.0000000000000000E+00     0.0000000000000000E+00 
    7.4999999999934064E-01     0.0000000000000000E+00     0.0000000000000000E+00 
    8.1249999999950551E-01     0.0000000000000000E+00     0.0000000000000000E+00 
    8.7499999999967026E-01     0.0000000000000000E+00     0.0000000000000000E+00 
    9.3749999999983513E-01     0.0000000000000000E+00     0.0000000000000000E+00 
    1.0000000000000000E+00     6.2499999999872928E-02     0.0000000000000000E+00 
    1.0000000000000000E+00     1.2499999999977310E-01     0.0000000000000000E+00 
    1.0000000000000000E+00     1.8749999999959341E-01     0.0000000000000000E+00 
    1.0000000000000000E+00     2.4999999999941089E-01     0.0000000000000000E+00 
    1.0000000000000000E+00     3.1249999999922851E-01     0.0000000000000000E+00 
    1.0000000000000000E+00     3.7499999999904610E-01     0.0000000000000000E+00 
    1.0000000000000000E+00     4.3749999999886358E-01     0.0000000000000000E+00 
    1.0000000000000000E+00     4.9999999999869210E-01     0.0000000000000000E+00 
    1.0000000000000000E+00     5.6249999999884603E-01     0.0000000000000000E+00 
    1.0000000000000000E+00     6.2499999999901090E-01     0.0000000000000000E+00 
    1.0000000000000000E+00     6.8749999999917577E-01     0.0000000000000000E+00 
    1.0000000000000000E+00     7.4999999999934064E-01     0.0000000000000000E+00 
    1.0000000000000000E+00     8.1249999999950551E-01     0.0000000000000000E+00 
    1.0000000000000000E+00     8.7499999999967026E-01     0.0000000000000000E+00 
    1.0000000000000000E+00     9.3749999999983513E-01     0.0000000000000000E+00 
    9.3749999999973976E-01     1.0000000000000000E+00     0.0000000000000000E+00 
    8.7499999999950118E-01     1.0000000000000000E+00     0.0000000000000000E+00 
    8.1249999999991318E-01     1.0000000000000000E+00     0.0000000000000000E+00 
    7.5000000000034706E-01     1.0000000000000000E+00     0.0000000000000000E+00 
    6.8750000000078049E-01     1.0000000000000000E+00     0.0000000000000000E+00 
    6.2500000000121403E-01     1.0000000000000000E+00     0.0000000000000000E+00 
    5.6250000000164757E-01     1.0000000000000000E+00     0.0000000000000000E+00 
    5.0000000000205946E-01     1.0000000000000000E+00     0.0000000000000000E+00 
    4.3750000000182099E-01     1.0000000000000000E+00     0.0000000000000000E+00 
    3.7500000000156092E-01     1.0000000000000000E+00     0.0000000000000000E+00 
    3.1250000000130068E-01     1.0000000000000000E+00     0.0000000000000000E+00 
    2.5000000000104050E-01     1.0000000000000000E+00     0.0000000000000000E+00 
    1.8750000000078040E-01     1.0000000000000000E+00     0.0000000000000000E+00 
    1.2500000000052031E-01     1.0000000000000000E+00     0.0000000000000000E+00 
    6.2500000000260125E-02     1.0000000000000000E+00     0.0000000000000000E+00 
    0.0000000000000000E+00     9.3749999999973976E-01     0.0000000000000000E+00 
    0.0000000000000000E+00     8.7499999999950118E-01     0.0000000000000000E+00 
    0.0000000000000000E+00     8.1249999999991318E-01     0.0000000000000000E+00 
    0.0000000000000000E+00     7.5000000000034706E-01     0.0000000000000000E+00 
    0.0000000000000000E+00     6.8750000000078049E-01     0.0000000000000000E+00 
    0.0000000000000000E+00     6.2500000000121403E-01     0.0000000000000000E+00 
    0.0000000000000000E+00     5.6250000000164757E-01     0.0000000000000000E+00 
    0.0000000000000000E+00     5.0000000000205946E-01     0.0000000000000000E+00 
    0.0000000000000000E+00     4.3750000000182099E-01     0.0000000000000000E+00 
    0.0000000000000000E+00     3.7500000000156092E-01     0.0000000000000000E+00 
    0.0000000000000000E+00     3.1250000000130068E-01     0.0000000000000000E+00 
    0.0000000000000000E+00     2.5000000000104050E-01     0.0000000000000000E+00 
    0.0000000000000000E+00     1.8750000000078040E-01     0.0000000000000000E+00 
    0.0000000000000000E+00     1.2500000000052031E-01     0.0000000000000000E+00 
    0.0000000000000000E+00     6.2500000000260125E-02     0.0000000000000000E+00 
    6.2499999999897131E-02     6.2500000000235922E-02     0.0000000000000000E+00 
    6.2499999999921327E-02     1.2500000000047351E-01     0.0000000000000000E+00 
    6.2499999999945530E-02     1.8750000000070621E-01     0.0000000000000000E+00 
    6.2499999999969733E-02     2.5000000000093858E-01     0.0000000000000000E+00 
    6.2499999999993928E-02     3.1250000000117117E-01     0.0000000000000000E+00 
    6.2500000000018124E-02     3.7500000000140382E-01     0.0000000000000000E+00 
    6.2500000000042327E-02     4.3750000000163619E-01     0.0000000000000000E+00 
    6.2500000000066530E-02     5.0000000000184897E-01     0.0000000000000000E+00 
    6.2500000000090733E-02     5.6250000000147260E-01     0.0000000000000000E+00 
    6.2500000000114922E-02     6.2500000000107636E-01     0.0000000000000000E+00 
    6.2500000000139125E-02     6.8750000000068034E-01     0.0000000000000000E+00 
    6.2500000000163328E-02     7.5000000000028411E-01     0.0000000000000000E+00 
    6.2500000000187531E-02     8.1249999999988787E-01     0.0000000000000000E+00 
    6.2500000000211720E-02     8.7499999999951172E-01     0.0000000000000000E+00 
    6.2500000000235922E-02     9.3749999999974565E-01     0.0000000000000000E+00 
    1.2499999999981980E-01     6.2500000000211733E-02     0.0000000000000000E+00 
    1.2499999999986650E-01     1.2500000000042691E-01     0.0000000000000000E+00 
    1.2499999999991319E-01     1.8750000000063199E-01     0.0000000000000000E+00 
    1.2499999999995989E-01     2.5000000000083678E-01     0.0000000000000000E+00 
    1.2500000000000661E-01     3.1250000000104172E-01     0.0000000000000000E+00 
    1.2500000000005329E-01     3.7500000000124661E-01     0.0000000000000000E+00 
    1.2500000000010000E-01     4.3750000000145117E-01     0.0000000000000000E+00 
    1.2500000000014669E-01     5.0000000000163858E-01     0.0000000000000000E+00 
    1.2500000000019340E-01     5.6250000000129741E-01     0.0000000000000000E+00 
    1.2500000000024011E-01     6.2500000000093847E-01     0.0000000000000000E+00 
    1.2500000000028680E-01     6.8750000000057998E-01     0.0000000000000000E+00 
    1.2500000000033351E-01     7.5000000000022127E-01     0.0000000000000000E+00 
    1.2500000000038020E-01     8.1249999999986211E-01     0.0000000000000000E+00 
    1.2500000000042691E-01     8.7499999999952238E-01     0.0000000000000000E+00 
    1.2500000000047359E-01     9.3749999999975164E-01     0.0000000000000000E+00 
    1.8749999999966760E-01     6.2500000000187531E-02     0.0000000000000000E+00 
    1.8749999999974179E-01     1.2500000000038020E-01     0.0000000000000000E+00 
    1.8749999999981601E-01     1.8750000000055780E-01     0.0000000000000000E+00 
    1.8749999999989009E-01     2.5000000000073502E-01     0.0000000000000000E+00 
    1.8749999999996431E-01     3.1250000000091221E-01     0.0000000000000000E+00 
    1.8750000000003850E-01     3.7500000000108941E-01     0.0000000000000000E+00 
    1.8750000000011269E-01     4.3750000000126649E-01     0.0000000000000000E+00 
    1.8750000000018691E-01     5.0000000000142808E-01     0.0000000000000000E+00 
    1.8750000000026110E-01     5.6250000000112244E-01     0.0000000000000000E+00 
    1.8750000000033529E-01     6.2500000000080080E-01     0.0000000000000000E+00 
    1.8750000000040951E-01     6.8750000000047962E-01     0.0000000000000000E+00 
    1.8750000000048361E-01     7.5000000000015843E-01     0.0000000000000000E+00 
    1.8750000000055780E-01     8.1249999999983680E-01     0.0000000000000000E+00 
    1.8750000000063199E-01     8.7499999999953304E-01     0.0000000000000000E+00 
    1.8750000000070621E-01     9.3749999999975764E-01     0.0000000000000000E+00 
    2.4999999999951281E-01     6.2500000000163314E-02     0.0000000000000000E+00 
    2.4999999999961461E-01     1.2500000000033351E-01     0.0000000000000000E+00 
    2.4999999999971650E-01     1.8750000000048361E-01     0.0000000000000000E+00 
    2.4999999999981831E-01     2.5000000000063310E-01     0.0000000000000000E+00 
    2.4999999999992020E-01     3.1250000000078260E-01     0.0000000000000000E+00 
    2.5000000000002198E-01     3.7500000000093209E-01     0.0000000000000000E+00 
    2.5000000000012390E-01     4.3750000000108180E-01     0.0000000000000000E+00 
    2.5000000000022571E-01     5.0000000000121769E-01     0.0000000000000000E+00 
    2.5000000000032763E-01     5.6250000000094724E-01     0.0000000000000000E+00 
    2.5000000000042938E-01     6.2500000000066314E-01     0.0000000000000000E+00 
    2.5000000000053119E-01     6.8750000000037925E-01     0.0000000000000000E+00 
[...]
CELL_DATA 256 
SCALARS Pressure double 1 
LOOKUP_TABLE default 

    8.0602853114789763E-01 
    7.5486805080840158E-01 
    7.2102104463353600E-01 
    6.8954982879722659E-01 
    6.5712536728328241E-01 
    6.2298043461306285E-01 
    5.8693034423066137E-01 
    5.4910054740968173E-01 
    5.0985455435776494E-01 
    4.6984136556002043E-01 
    4.3013368951036990E-01 
    3.9243070045052558E-01 
    3.5920985582672077E-01 
    3.3325507685470357E-01 
    3.1480546413476745E-01 
    3.0611261282300056E-01 
    7.9207835591440334E-01 
    7.5628881384839808E-01 
    7.2360765784271008E-01 
    6.9241594328512401E-01 
    6.6023078834868953E-01 
    6.2631395737067541E-01 
    5.9046945585906008E-01 
    5.5279728512284632E-01 
    5.1362799139661353E-01 
    4.7356424693834231E-01 
    4.3361226605679337E-01 
    3.9539122427349532E-01 
    3.6133516048198783E-01 
    3.3436282640601489E-01 
    3.1504306810434518E-01 
    3.0571456483120973E-01 
    7.8135875458019921E-01 
    7.5553187751856921E-01 
    7.2540383364741168E-01 
    6.9491028016992940E-01 
    6.6309892298175188E-01 
    6.2946378410505799E-01 
    5.9384875506693890E-01 
    5.5633890715795875E-01 
    5.1722823073679591E-01 
    4.7706295519019482E-01 
    4.3676699865164903E-01 
    3.9786118898239270E-01 
    3.6272612994834502E-01 
    3.3444308736441991E-01 
    3.1412961773204662E-01 
    3.0428863111115634E-01 
    7.7288102783217594E-01 
    7.5364668699585180E-01 
    7.2644637643746335E-01 
    6.9701449969297236E-01 
    6.6573038303286003E-01 
    6.3243927076389705E-01 
    5.9707850796468731E-01 
    5.5973763488388650E-01 
    5.2067641380532015E-01 
    4.8037569334888908E-01 
    4.3965853629955925E-01 
    3.9992070960552190E-01 
    3.6346347111411959E-01 
    3.3354130063679971E-01 
    3.1198855769091766E-01 
    3.0160329910010042E-01 
    7.6599315850059979E-01 
    7.5121479332541763E-01 
    7.2686390403281764E-01 
    6.9873617368917096E-01 
    6.6812676678245009E-01 
    6.3525168073758054E-01 
    6.0017575705437687E-01 
    5.6301415767717600E-01 
    5.2400044305019466E-01 
    4.8354546764363654E-01 
    4.4235301606774891E-01 
    4.0165993072841905E-01 
    3.6364282983650714E-01 
    3.3171096555887264E-01 
    3.0852785726791421E-01 
    2.9738799278175132E-01 
    7.6031923729577000E-01 
    7.4858906522012059E-01 
    7.2680994175318470E-01 
    7.0011002992087934E-01 
    6.7029681096020599E-01 
    6.3791221077256122E-01 
    6.0315989633969913E-01 
    5.6619532334108214E-01 
    5.2723451954116840E-01 
    4.8661887502623974E-01 
    4.4491946477672822E-01 
    4.0317700059897105E-01 
    3.6337703919898062E-01 
    3.2901822469754050E-01 
    3.0365185367891578E-01 
    2.9135709048931413E-01 
    7.5561787210624121E-01 
    7.4599448012917102E-01 
    7.2644335540406857E-01 
    7.0119754212489682E-01 
    6.7226448012009477E-01 
    6.4043580381509857E-01 
    6.0604939640071442E-01 
    5.6930792175341516E-01 
    5.3041485654967846E-01 
    4.8964523318432174E-01 
    4.4742986425155190E-01 
    4.0457763056973689E-01 
    3.6279799648367522E-01 
    3.2555697230787067E-01 
    2.9728263154041307E-01 
    2.8320212266409367E-01 
    7.5171677319999164E-01 
    7.4356985169517631E-01 
    7.2590641365887842E-01 
    7.0207103501885759E-01 
    6.7406370507995561E-01 
    6.4284216424990426E-01 
    6.0886260224546795E-01 
    5.7237530270407855E-01 
    5.3357533118544831E-01 
    4.9267417037495043E-01 
    4.4995990680679865E-01 
    4.0597810992401423E-01 
    3.6206303241111104E-01 
    3.2146624787512013E-01 
    2.8939025815473191E-01 
    2.7261612502760169E-01 
    7.4849458870192220E-01 
    7.4139849848443395E-01 
    7.2531608456825170E-01 
    7.0280457427278942E-01 
    6.7573392200637039E-01 
    6.4515444171972780E-01 
    6.1161718119691966E-01 
    5.7541645191659796E-01 
    5.3674285607478311E-01 
    4.9575000116853896E-01 
    4.5258430420006568E-01 
    4.0750344273926026E-01 
    3.6136097684507384E-01 
    3.1694557759074721E-01 
    2.7999114854400514E-01 
    2.5924757702259144E-01 
    7.4586241356085603E-01 
    7.3952569887603992E-01 
    7.2476145120677338E-01 
    7.0346728717426454E-01 
    6.7731872814787597E-01 
    6.4739962468322310E-01 
    6.1433169549771116E-01 
    5.7844802340567936E-01 
    5.3993924367227519E-01 
    4.9891021432790605E-01 
    4.5537229727248191E-01 
    4.0928192897320403E-01 
    3.6090988708116317E-01 
    3.1227038634700505E-01 
    2.6916252966853305E-01 
    2.4262299630874118E-01 
    7.4375503401684007E-01 
    7.3797839248162334E-01 
    7.2431666412967288E-01 
    7.0412747047370772E-01 
    6.7886757438979828E-01 
    6.4961144031807516E-01 
    6.1703036567210545E-01 
    5.8149031170963839E-01 
    5.4318669493091654E-01 
    5.0218723915652541E-01 
    4.5838342459387493E-01 
    4.1143879931730071E-01 
    3.6095569270048028E-01 
    3.0781946034293456E-01 
    2.5710921761269367E-01 
    2.2210956583942709E-01 
    7.4212699180782427E-01 
    7.3678247343954462E-01 
    7.2405233887626719E-01 
    7.0485576834340391E-01 
    6.8043547449307507E-01 
    6.5183096888703207E-01 
    6.1974743152913392E-01 
    5.8457143049381310E-01 
    5.4650765909191390E-01 
    5.0560197767447801E-01 
    4.6165353476970433E-01 
    4.1407672622068498E-01 
    3.6175900334809541E-01 
    3.0409473108496421E-01 
    2.4425013525161060E-01 
    1.9684780664267634E-01 
    7.4095421573053455E-01 
    7.3597342546969524E-01 
    7.2403998630603483E-01 
    7.0572376705193318E-01 
    6.8207671882648779E-01 
    6.5409726639564936E-01 
    6.2251554073689541E-01 
    5.8771461069897302E-01 
    5.4990151112939245E-01 
    5.0912068942604372E-01 
    4.6512806425422620E-01 
    4.1717563259557305E-01 
    3.6346438943885240E-01 
    3.0160468125135065E-01 
    2.3123863765973204E-01 
    1.6553262894541898E-01 
    7.4011612905415314E-01 
    7.3550081929526645E-01 
    7.2428694800557669E-01 
    7.0675539055232439E-01 
    6.8379525898772309E-01 
    6.5636617353912385E-01 
    6.2524630829483907E-01 
    5.9081935458932511E-01 
    5.5325366753007754E-01 
    5.1260606051519486E-01 
    4.6863406678006370E-01 
    4.2050311732872003E-01 
    3.6593269436497416E-01 
    3.0065311673059730E-01 
    2.1889076351890102E-01 
    1.2577201057892623E-01 
    7.3952896623471009E-01 
    7.3523762788470171E-01 
    7.2467596486477526E-01 
    7.0786589519512200E-01 
    6.8553957214111216E-01 
    6.5860922608429995E-01 
    6.2790906468709340E-01 
    5.9386861815801872E-01 
    5.5660842084873674E-01 
    5.1618961233611504E-01 
    4.7238648552533302E-01 
    4.2433763592052443E-01 
    3.6961361261219999E-01 
    3.0243222810004061E-01 
    2.0953042225163940E-01 
    7.3154121998193086E-02 
    7.3934607431261223E-01 
    7.3539842411856238E-01 
    7.2542994893001311E-01 
    7.0926624391961857E-01 
    6.8752516385215012E-01 
    6.6107613643958074E-01 
    6.3077470788118395E-01 
    5.9710453332293267E-01 
    5.6018567759877713E-01 
    5.2007724662092636E-01 
    4.7657816350139826E-01 
    4.2885941266696376E-01 
    3.7460929667706677E-01 
    3.0791580350806336E-01 
    2.0989512721925435E-01 
    0.0000000000000000E+00 

SCALARS Saturarion double 1 
LOOKUP_TABLE default 

    1.0000000000000011E+00 
    9.7007080735856765E-01 
    9.1716090237754033E-01 
    8.5102880489831734E-01 
    7.9493770600928781E-01 
    7.4722969590506472E-01 
    7.0740501629665387E-01 
    6.7380922374788199E-01 
    6.4446629871496786E-01 
    6.1759373274493234E-01 
    5.9174521688756454E-01 
    5.6571791222595103E-01 
    5.3832593991887323E-01 
    4.9951158339897578E-01 
    3.2235410417645916E-01 
    2.8296241437594182E-03 
    9.8808346403334280E-01 
    9.5970853441773152E-01 
    9.0430649740279168E-01 
    8.4223394915993754E-01 
    7.8947358337170692E-01 
    7.4386212366525739E-01 
    7.0483721899651197E-01 
    6.7138406351651148E-01 
    6.4218566996387849E-01 
    6.1574577207287917E-01 
    5.9072820427334771E-01 
    5.6578365819658749E-01 
    5.3946859505626243E-01 
    5.0226592817313676E-01 
    3.4821703886874483E-01 
    9.2447737926309396E-03 
    9.6935755863268314E-01 
    9.4147737799578157E-01 
    8.8634644945570773E-01 
    8.2729695866413899E-01 
    7.7858895742822654E-01 
    7.3656282472591694E-01 
    6.9941916599158982E-01 
    6.6642597556997518E-01 
    6.3730628667282663E-01 
    6.1135051905147719E-01 
    5.8755120712206432E-01 
    5.6432787034947463E-01 
    5.3987508852313393E-01 
    5.0574973418737268E-01 
    3.7407320258897214E-01 
    2.3297916098481534E-02 
    9.3652392037938725E-01 
    9.1367896408147187E-01 
    8.6471637224081865E-01 
    8.1002000293767340E-01 
    7.6313774140725887E-01 
    7.2426972612584284E-01 
    6.9018279697895690E-01 
    6.5950540318198259E-01 
    6.3176655630851608E-01 
    6.0688144876177175E-01 
    5.8410052371713195E-01 
    5.6230310095594160E-01 
    5.3975968515959660E-01 
    5.0951125115868756E-01 
    3.9700134181362129E-01 
    5.0941456328627031E-02 
    8.9843883412961567E-01 
    8.7906163399197668E-01 
    8.3636852223501545E-01 
    7.8759470603460779E-01 
    7.4390131313069396E-01 
    7.0735002009185433E-01 
    6.7624573226536444E-01 
    6.4877488036306274E-01 
    6.2400585230145844E-01 
    6.0142138513856924E-01 
    5.8051773070344226E-01 
    5.6035640318271029E-01 
    5.3947772279870854E-01 
    5.1236838503592441E-01 
    4.1638067952306612E-01 
    8.2382879706223933E-02 
    8.5817452786063519E-01 
    8.4235909930643416E-01 
    8.0608290093968737E-01 
    7.6322641454367335E-01 
    7.2345414001203656E-01 
    6.8905951613263416E-01 
    6.5966607737860128E-01 
    6.3466906063400108E-01 
    6.1283379954595396E-01 
    5.9304901323758186E-01 
    5.7468311373345826E-01 
    5.5718760071178952E-01 
    5.3894543746937040E-01 
    5.1522228137033299E-01 
    4.3097782641879873E-01 
    1.1802791572150133E-01 
    8.1597649480267009E-01 
    8.0442143867098082E-01 
    7.7496398018558355E-01 
    7.3774241342712255E-01 
    7.0190939517660045E-01 
    6.7012350783849484E-01 
    6.4281625686308497E-01 
    6.1936618332532589E-01 
    5.9937488782828519E-01 
    5.8198986724370005E-01 
    5.6636521816128049E-01 
    5.5176409179925590E-01 
    5.3700398119508297E-01 
    5.1727445062115007E-01 
    4.4423567472178599E-01 
    1.5655157188249832E-01 
    7.7192460811343799E-01 
    7.6493099139035625E-01 
    7.4272772016200705E-01 
    7.1129123219965806E-01 
    6.7901616539037224E-01 
    6.4980348727947113E-01 
    6.2435446107655157E-01 
    6.0260794680323793E-01 
    5.8413751696071359E-01 
    5.6870719786205692E-01 
    5.5567013996431069E-01 
    5.4423202298477891E-01 
    5.3311139802536300E-01 
    5.1833046333076616E-01 
    4.5701096907646577E-01 
    1.9511112740073763E-01 
    7.2621787885761424E-01 
    7.2335733033661065E-01 
    7.0777819937944297E-01 
    6.8236613652647871E-01 
    6.5438555903842899E-01 
    6.2790403092258640E-01 
    6.0432549004574876E-01 
    5.8369375129135037E-01 
    5.6622965251958346E-01 
    5.5224720646077585E-01 
    5.4173557141717010E-01 
    5.3387330084781437E-01 
    5.2700419139925991E-01 
    5.1766041590848599E-01 
    4.6824306560392243E-01 
    2.2869811699749026E-01 
    6.7878215076323556E-01 
    6.7958188780215045E-01 
    6.6992016334493076E-01 
    6.5017829889211998E-01 
    6.2692442522283254E-01 
    6.0388498013504899E-01 
    5.8239018704918066E-01 
    5.6319906747633919E-01 
    5.4685566038838651E-01 
    5.3406859461220269E-01 
    5.2500574457793892E-01 
    5.1986574359581494E-01 
    5.1775150258312586E-01 
    5.1446146339737464E-01 
    4.7770035610328393E-01 
    2.5981705907670605E-01 
    6.2961235915298808E-01 
    6.3356549024389963E-01 
    6.2923721501252972E-01 
    6.1486374420042922E-01 
    5.9646756257120637E-01 
    5.7745061644565021E-01 
    5.5922512517889478E-01 
    5.4227253581932078E-01 
    5.2755500716552683E-01 
    5.1575917969166118E-01 
    5.0713284929073421E-01 
    5.0270582608776271E-01 
    5.0420472466279720E-01 
    5.0814700367874654E-01 
    4.8516101447857274E-01 
    2.9012817591969953E-01 
    5.8010723954839161E-01 
    5.8633140184074306E-01 
    5.8695599734163628E-01 
    5.7794871800825398E-01 
    5.6381464086090993E-01 
    5.4806146269220113E-01 
    5.3319568145370111E-01 
    5.1990715005554011E-01 
    5.0713426604685607E-01 
    4.9529709312657250E-01 
    4.8576797408514122E-01 
    4.8097878148395329E-01 
    4.8507497321043530E-01 
    4.9683309943680115E-01 
    4.8900219744525475E-01 
    3.1939773262152793E-01 
    5.3100895853405894E-01 
    5.3974956977619204E-01 
    5.4372891868939888E-01 
    5.3883333576436709E-01 
    5.2764390240100667E-01 
    5.1352218675448402E-01 
    5.0001016236562135E-01 
    4.8743496283664300E-01 
    4.7343458772784408E-01 
    4.5435709177257189E-01 
    4.3185848671063959E-01 
    4.1991784871383453E-01 
    4.2971742901036408E-01 
    4.6505678097195596E-01 
    4.8208281416829646E-01 
    3.4614248856880714E-01 
    4.1069299666920422E-01 
    4.4396360408899760E-01 
    4.6491271376969417E-01 
    4.6762045140273428E-01 
    4.5722818650064845E-01 
    4.3108717114474743E-01 
    3.8234348673718827E-01 
    3.1446458010888351E-01 
    2.5470516911695107E-01 
    1.7247617771775764E-01 
    1.2194960762882795E-01 
    1.1165424059813607E-01 
    1.7564194333215347E-01 
    3.4529430507832798E-01 
    4.4679759523505164E-01 
    3.6331912102244429E-01 
    4.3288169442531457E-02 
    1.1858633432904682E-01 
    1.4866264702570620E-01 
    1.6151004603070618E-01 
    1.3666856773963870E-01 
    8.1275800541174434E-02 
    2.3036711124538412E-02 
    3.2257661210049341E-03 
    1.0798909588232706E-03 
    5.2415806464949589E-05 
    1.1184211305794231E-05 
    4.1673760134084607E-06 
    4.1925383908968869E-03 
    8.9678906937580641E-02 
    3.4975275183141302E-01 
    3.6830717558336046E-01 
    1.0005810813827569E-06 
    6.8061166141987752E-05 
    1.0206811462708002E-05 
    3.7159274344524940E-06 
    2.3224319816767521E-05 
    1.6073110855700779E-05 
    3.3854256897584915E-06 
    1.0721488375224657E-06 
    1.0051604153635413E-06 
    1.0000958655339220E-06 
    1.0000122767785512E-06 
    1.0000021383426429E-06 
    1.9947690799977503E-06 
    3.3865402077706626E-03 
    2.0586652614701320E-01 
    3.2987417019540483E-01 
