# vtk DataFile Version 2.0
Pressure Field Data 
ASCII 
DATASET UNSTRUCTURED_GRID 

POINTS 289 double 

    0.0000000000000000E+00     0.0000000000000000E+00     0.0000000000000000E+00 
    1.0000000000000000E+00     0.0000000000000000E+00     0.0000000000000000E+00 
    1.0000000000000000E+00     1.0000000000000000E+00     0.0000000000000000E+00 
    0.0000000000000000E+00     1.0000000000000000E+00     0.0000000000000000E+00 
    6.2499999999872928E-02     0.0000000000000000E+00     0.0000000000000000E+00 
    1.2499999999977310E-01     0.0000000000000000E+00     0.0000000000000000E+00 
    1.8749999999959341E-01     0.0000000000000000E+00     0.0000000000000000E+00 
    2.4999999999941089E-01     0.0000000000000000E+00     0.0000000000000000E+00 
    3.1249999999922851E-01     0.0000000000000000E+00     0.0000000000000000E+00 
    3.7499999999904610E-01     0.0000000000000000E+00     0.0000000000000000E+00 
    4.3749999999886358E-01     0.0000000000000000E+00     0.0000000000000000E+00 
    4.9999999999869210E-01     0.0000000000000000E+00     0.0000000000000000E+00 
    5.6249999999884603E-01     0.0000000000000000E+00     0.0000000000000000E+00 
    6.2499999999901090E-01     0.0000000000000000E+00     0.0000000000000000E+00 
    6.8749999999917577E-01     0.0000000000000000E+00     0.0000000000000000E+00 
    7.4999999999934064E-01     0.0000000000000000E+00     0.0000000000000000E+00 
    8.1249999999950551E-01     0.0000000000000000E+00     0.0000000000000000E+00 
    8.7499999999967026E-01     0.0000000000000000E+00     0.0000000000000000E+00 
    9.3749999999983513E-01     0.0000000000000000E+00     0.0000000000000000E+00 
    1.0000000000000000E+00     6.2499999999872928E-02     0.0000000000000000E+00 
    1.0000000000000000E+00     1.2499999999977310E-01     0.0000000000000000E+00 
    1.0000000000000000E+00     1.8749999999959341E-01     0.0000000000000000E+00 
    1.0000000000000000E+00     2.4999999999941089E-01     0.0000000000000000E+00 
    1.0000000000000000E+00     3.1249999999922851E-01     0.0000000000000000E+00 
    1.0000000000000000E+00     3.7499999999904610E-01     0.0000000000000000E+00 
    1.0000000000000000E+00     4.3749999999886358E-01     0.0000000000000000E+00 
    1.0000000000000000E+00     4.9999999999869210E-01     0.0000000000000000E+00 
    1.0000000000000000E+00     5.6249999999884603E-01     0.0000000000000000E+00 
    1.0000000000000000E+00     6.2499999999901090E-01     0.0000000000000000E+00 
    1.0000000000000000E+00     6.8749999999917577E-01     0.0000000000000000E+00 
    1.0000000000000000E+00     7.4999999999934064E-01     0.0000000000000000E+00 
    1.0000000000000000E+00     8.1249999999950551E-01     0.0000000000000000E+00 
    1.0000000000000000E+00     8.7499999999967026E-01     0.0000000000000000E+00 
    1.0000000000000000E+00     9.3749999999983513E-01     0.0000000000000000E+00 
    9.3749999999973976E-01     1.0000000000000000E+00     0.0000000000000000E+00 
    8.7499999999950118E-01     1.0000000000000000E+00     0.0000000000000000E+00 
    8.1249999999991318E-01     1.0000000000000000E+00     0.0000000000000000E+00 
    7.5000000000034706E-01     1.0000000000000000E+00     0.0000000000000000E+00 
    6.8750000000078049E-01     1.0000000000000000E+00     0.0000000000000000E+00 
    6.2500000000121403E-01     1.0000000000000000E+00     0.0000000000000000E+00 
    5.6250000000164757E-01     1.0000000000000000E+00     0.0000000000000000E+00 
    5.0000000000205946E-01     1.0000000000000000E+00     0.0000000000000000E+00 
    4.3750000000182099E-01     1.0000000000000000E+00     0.0000000000000000E+00 
    3.7500000000156092E-01     1.0000000000000000E+00     0.0000000000000000E+00 
    3.1250000000130068E-01     1.0000000000000000E+00     0.0000000000000000E+00 
    2.5000000000104050E-01     1.0000000000000000E+00     0.0000000000000000E+00 
    1.8750000000078040E-01     1.0000000000000000E+00     0.0000000000000000E+00 
    1.2500000000052031E-01     1.0000000000000000E+00     0.0000000000000000E+00 
    6.2500000000260125E-02     1.0000000000000000E+00     0.0000000000000000E+00 
    0.0000000000000000E+00     9.3749999999973976E-01     0.0000000000000000E+00 
    0.0000000000000000E+00     8.7499999999950118E-01     0.0000000000000000E+00 
    0.0000000000000000E+00     8.1249999999991318E-01     0.0000000000000000E+00 
    0.0000000000000000E+00     7.5000000000034706E-01     0.0000000000000000E+00 
    0.0000000000000000E+00     6.8750000000078049E-01     0.0000000000000000E+00 
    0.0000000000000000E+00     6.2500000000121403E-01     0.0000000000000000E+00 
    0.0000000000000000E+00     5.6250000000164757E-01     0.0000000000000000E+00 
    0.0000000000000000E+00     5.0000000000205946E-01     0.0000000000000000E+00 
    0.0000000000000000E+00     4.3750000000182099E-01     0.0000000000000000E+00 
    0.0000000000000000E+00     3.7500000000156092E-01     0.0000000000000000E+00 
    0.0000000000000000E+00     3.1250000000130068E-01     0.0000000000000000E+00 
    0.0000000000000000E+00     2.5000000000104050E-01     0.0000000000000000E+00 
    0.0000000000000000E+00     1.8750000000078040E-01     0.0000000000000000E+00 
    0.0000000000000000E+00     1.2500000000052031E-01     0.0000000000000000E+00 
    0.0000000000000000E+00     6.2500000000260125E-02     0.0000000000000000E+00 
    6.2499999999897131E-02     6.2500000000235922E-02     0.0000000000000000E+00 
    6.2499999999921327E-02     1.2500000000047351E-01     0.0000000000000000E+00 
    6.2499999999945530E-02     1.8750000000070621E-01     0.0000000000000000E+00 
    6.2499999999969733E-02     2.5000000000093858E-01     0.0000000000000000E+00 
    6.2499999999993928E-02     3.1250000000117117E-01     0.0000000000000000E+00 
    6.2500000000018124E-02     3.7500000000140382E-01     0.0000000000000000E+00 
    6.2500000000042327E-02     4.3750000000163619E-01     0.0000000000000000E+00 
    6.2500000000066530E-02     5.0000000000184897E-01     0.0000000000000000E+00 
    6.2500000000090733E-02     5.6250000000147260E-01     0.0000000000000000E+00 
    6.2500000000114922E-02     6.2500000000107636E-01     0.0000000000000000E+00 
    6.2500000000139125E-02     6.8750000000068034E-01     0.0000000000000000E+00 
    6.2500000000163328E-02     7.5000000000028411E-01     0.0000000000000000E+00 
    6.2500000000187531E-02     8.1249999999988787E-01     0.0000000000000000E+00 
    6.2500000000211720E-02     8.7499999999951172E-01     0.0000000000000000E+00 
    6.2500000000235922E-02     9.3749999999974565E-01     0.0000000000000000E+00 
    1.2499999999981980E-01     6.2500000000211733E-02     0.0000000000000000E+00 
    1.2499999999986650E-01     1.2500000000042691E-01     0.0000000000000000E+00 
    1.2499999999991319E-01     1.8750000000063199E-01     0.0000000000000000E+00 
    1.2499999999995989E-01     2.5000000000083678E-01     0.0000000000000000E+00 
    1.2500000000000661E-01     3.1250000000104172E-01     0.0000000000000000E+00 
    1.2500000000005329E-01     3.7500000000124661E-01     0.0000000000000000E+00 
    1.2500000000010000E-01     4.3750000000145117E-01     0.0000000000000000E+00 
    1.2500000000014669E-01     5.0000000000163858E-01     0.0000000000000000E+00 
    1.2500000000019340E-01     5.6250000000129741E-01     0.0000000000000000E+00 
    1.2500000000024011E-01     6.2500000000093847E-01     0.0000000000000000E+00 
    1.2500000000028680E-01     6.8750000000057998E-01     0.0000000000000000E+00 
    1.2500000000033351E-01     7.5000000000022127E-01     0.0000000000000000E+00 
    1.2500000000038020E-01     8.1249999999986211E-01     0.0000000000000000E+00 
    1.2500000000042691E-01     8.7499999999952238E-01     0.0000000000000000E+00 
    1.2500000000047359E-01     9.3749999999975164E-01     0.0000000000000000E+00 
    1.8749999999966760E-01     6.2500000000187531E-02     0.0000000000000000E+00 
    1.8749999999974179E-01     1.2500000000038020E-01     0.0000000000000000E+00 
    1.8749999999981601E-01     1.8750000000055780E-01     0.0000000000000000E+00 
    1.8749999999989009E-01     2.5000000000073502E-01     0.0000000000000000E+00 
    1.8749999999996431E-01     3.1250000000091221E-01     0.0000000000000000E+00 
    1.8750000000003850E-01     3.7500000000108941E-01     0.0000000000000000E+00 
    1.8750000000011269E-01     4.3750000000126649E-01     0.0000000000000000E+00 
    1.8750000000018691E-01     5.0000000000142808E-01     0.0000000000000000E+00 
    1.8750000000026110E-01     5.6250000000112244E-01     0.0000000000000000E+00 
    1.8750000000033529E-01     6.2500000000080080E-01     0.0000000000000000E+00 
    1.8750000000040951E-01     6.8750000000047962E-01     0.0000000000000000E+00 
    1.8750000000048361E-01     7.5000000000015843E-01     0.0000000000000000E+00 
    1.8750000000055780E-01     8.1249999999983680E-01     0.0000000000000000E+00 
    1.8750000000063199E-01     8.7499999999953304E-01     0.0000000000000000E+00 
    1.8750000000070621E-01     9.3749999999975764E-01     0.0000000000000000E+00 
    2.4999999999951281E-01     6.2500000000163314E-02     0.0000000000000000E+00 
    2.4999999999961461E-01     1.2500000000033351E-01     0.0000000000000000E+00 
    2.4999999999971650E-01     1.8750000000048361E-01     0.0000000000000000E+00 
    2.4999999999981831E-01     2.5000000000063310E-01     0.0000000000000000E+00 
    2.4999999999992020E-01     3.1250000000078260E-01     0.0000000000000000E+00 
    2.5000000000002198E-01     3.7500000000093209E-01     0.0000000000000000E+00 
    2.5000000000012390E-01     4.3750000000108180E-01     0.0000000000000000E+00 
    2.5000000000022571E-01     5.0000000000121769E-01     0.0000000000000000E+00 
    2.5000000000032763E-01     5.6250000000094724E-01     0.0000000000000000E+00 
    2.5000000000042938E-01     6.2500000000066314E-01     0.0000000000000000E+00 
    2.5000000000053119E-01     6.8750000000037925E-01     0.0000000000000000E+00 
[...]
CELL_DATA 256 
SCALARS Pressure double 1 
LOOKUP_TABLE default 

    1.1764794923786617E+00 
    1.1127337189050110E+00 
    1.0614057178313314E+00 
    1.0064785221039925E+00 
    9.3543360030072276E-01 
    8.5112365263393197E-01 
    7.7551236598605944E-01 
    7.0412239363597218E-01 
    6.3502820710468721E-01 
    5.6823087388077653E-01 
    5.0461452711522015E-01 
    4.4601244877352580E-01 
    3.9527106858473304E-01 
    3.5594219373346886E-01 
    3.3110069961169331E-01 
    3.2113245418844655E-01 
    1.1623530631509476E+00 
    1.1149889209318760E+00 
    1.0652661707979603E+00 
    1.0114044663718789E+00 
    9.4168877674574580E-01 
    8.5813013086782619E-01 
    7.8253532348444665E-01 
    7.1094931480527912E-01 
    6.4163271567095215E-01 
    5.7449439367682975E-01 
    5.1032088792442210E-01 
    4.5084015443104192E-01 
    3.9883244476605229E-01 
    3.5793008134906473E-01 
    3.3155013502032393E-01 
    3.2068406876123862E-01 
    1.1503284543367662E+00 
    1.1141304941278376E+00 
    1.0674562044526996E+00 
    1.0148807487432765E+00 
    9.4642498462940094E-01 
    8.6416900425818000E-01 
    7.8918951083844369E-01 
    7.1757991693347856E-01 
    6.4807681272046691E-01 
    5.8055845923860305E-01 
    5.1571706090431091E-01 
    4.5515966495837790E-01 
    4.0159814027474777E-01 
    3.5880314857222489E-01 
    3.3069552835993210E-01 
    3.1907270782355662E-01 
    1.1390419536730498E+00 
    1.1109746317864637E+00 
    1.0679840282049882E+00 
    1.0168911196022798E+00 
    9.4972696721131389E-01 
    8.6940154496844912E-01 
    7.9544720895466492E-01 
    7.2400673079096145E-01 
    6.5437446604834593E-01 
    5.8646121229058834E-01 
    5.2086953431627225E-01 
    4.5906345682930766E-01 
    4.0366291072060095E-01 
    3.5860207000211813E-01 
    3.2845489267937261E-01 
    3.1607294373909234E-01 
    1.1282786146443926E+00 
    1.1062268463772689E+00 
    1.0671097066858688E+00 
    1.0175136561304736E+00 
    9.5167360496051501E-01 
    8.7404676376492052E-01 
    8.0132827569710230E-01 
    7.3023696887265033E-01 
    6.6054807225546253E-01 
    5.9224855907213059E-01 
    5.2585343958249586E-01 
    4.6265645288640428E-01 
    4.0513919284481759E-01 
    3.5738346664508336E-01 
    3.2474630783263758E-01 
    3.1145439369066236E-01 
    1.1184066564901902E+00 
    1.1007103286933348E+00 
    1.0651766090862052E+00 
    1.0168543951664242E+00 
    9.5245922847852116E-01 
    8.7829894544337472E-01 
    8.0688217128728668E-01 
    7.3628780071187516E-01 
    6.6662357245315029E-01 
    5.9796698588171904E-01 
    5.3074583697325506E-01 
    4.6605242503895838E-01 
    4.0615919870484646E-01 
    3.5522759825364841E-01 
    3.1949135078356877E-01 
    3.0496708793983468E-01 
    1.1096211551655271E+00 
    1.0949687873406557E+00 
    1.0622368641060786E+00 
    1.0149388326356448E+00 
    9.5254910776467394E-01 
    8.8224130707205206E-01 
    8.1216489581854634E-01 
    7.4218219632811455E-01 
    6.7262488822568778E-01 
    6.0365702431130142E-01 
    5.3562026769862769E-01 
    4.6937005072585802E-01 
    4.0687613424439573E-01 
    3.5224643462969957E-01 
    3.1261686419685769E-01 
    2.9631238677216359E-01 
    1.1016634319157153E+00 
    1.0889659389419486E+00 
    1.0580741729836600E+00 
    1.0119716505281275E+00 
    9.5255130187620174E-01 
    8.8586400070630056E-01 
    8.1723132248512109E-01 
    7.4795078452990393E-01 
    6.7857684491514514E-01 
    6.0935950483737611E-01 
    5.4054997414047390E-01 
    4.7273579796158904E-01 
    4.0747125443344351E-01 
    3.4860162591894062E-01 
    3.0407110658657593E-01 
    2.8513204786355834E-01 
    1.0929335495148158E+00 
    1.0817301677445335E+00 
    1.0527279555888542E+00 
    1.0089364069006268E+00 
    9.5294879810759114E-01 
    8.8923170532065188E-01 
    8.2214175770384912E-01 
    7.5363487791931993E-01 
    6.8451583313936892E-01 
    6.1511777267952383E-01 
    5.4560719317327111E-01 
    4.7627950322137214E-01 
    4.0815597243082813E-01 
    3.4452306457746890E-01 
    2.9384497464538317E-01 
    2.7097030207974665E-01 
    1.0845768108875582E+00 
    1.0743528994957274E+00 
    1.0476767854511884E+00 
    1.0067161473211426E+00 
    9.5375132590684986E-01 
    8.9251263948708337E-01 
    8.2696337585026947E-01 
    7.5927630420795200E-01 
    6.9047248600246569E-01 
    6.2096811983015632E-01 
    5.5085771210374201E-01 
    4.8013480976560324E-01 
    4.0917711505445875E-01 
    3.4033860481243661E-01 
    2.8202059257397466E-01 
    2.5323919746531998E-01 
    1.0784092553889009E+00 
    1.0688784178212734E+00 
    1.0440541411771711E+00 
    1.0053564624652851E+00 
    9.5487310924253432E-01 
    8.9583936776167672E-01 
    8.3176296887782986E-01 
    7.6491049452967275E-01 
    6.9646896117705093E-01 
    6.2693750388245095E-01 
    5.5635387996521501E-01 
    4.8442105733424512E-01 
    4.1079754199716573E-01 
    3.3648666485057782E-01 
    2.6883231918773476E-01 
    2.3115865912096734E-01 
    1.0737563179463649E+00 
    1.0646957710736016E+00 
    1.0414322614975913E+00 
    1.0047308392445509E+00 
    9.5641007630593444E-01 
    8.9931842342494583E-01 
    8.3661158191167773E-01 
    7.7057818550274126E-01 
    7.0253102272869050E-01 
    6.3304977771880433E-01 
    5.6213387379925905E-01 
    4.8923424731710335E-01 
    4.1328024555926013E-01 
    3.3353521026847471E-01 
    2.5478404684994588E-01 
    2.0367968965485680E-01 
    1.0704228974616798E+00 
    1.0617450018403822E+00 
    1.0398306237156514E+00 
    1.0048834240375444E+00 
    9.5844149961800151E-01 
    9.0304689215977862E-01 
    8.4158496248496140E-01 
    7.7632958270665675E-01 
    7.0869202999627801E-01 
    6.3932617713063056E-01 
    5.6822064580527609E-01 
    4.9463956885646904E-01 
    4.1686455779568271E-01 
    3.3218440939249377E-01 
    2.4084512553444121E-01 
    1.6935077462455456E-01 
    1.0682506575820658E+00 
    1.0599612208429587E+00 
    1.0392488048469191E+00 
    1.0058485521976137E+00 
    9.6103626054040725E-01 
    9.0710899888180574E-01 
    8.4674961461871967E-01 
    7.8220923613440663E-01 
    7.1497599761691433E-01 
    6.4577642158209947E-01 
    5.7461997264015385E-01 
    5.0066721248891277E-01 
    4.2172855246053714E-01 
    3.3322338455943668E-01 
    2.2878443847617358E-01 
    1.2612832683627814E-01 
    1.0670860352703690E+00 
    1.0592637325827696E+00 
    1.0396698131556161E+00 
    1.0076526319823906E+00 
    9.6425377981400229E-01 
    9.1157616283378007E-01 
    8.5216169311098322E-01 
    7.8825080443995621E-01 
    7.2139687994892165E-01 
    6.5240083772125668E-01 
    5.8131991373438519E-01 
    5.0729796840193020E-01 
    4.2792587493918760E-01 
    3.3736703155342468E-01 
    2.2171812379635267E-01 
    7.1091216828631648E-02 
    1.0667656520441384E+00 
    1.0595701651502578E+00 
    1.0410822354589779E+00 
    1.0103284500039398E+00 
    9.6815299166575863E-01 
    9.1651521667493185E-01 
    8.5787627226700902E-01 
    7.9448932928428584E-01 
    7.2797144271481107E-01 
    6.5919882851891576E-01 
    5.8829556158180218E-01 
    5.1446665657998647E-01 
    4.3534755872972375E-01 
    3.4488670281137523E-01 
    2.2503829383059301E-01 
    0.0000000000000000E+00 

SCALARS Saturarion double 1 
LOOKUP_TABLE default 

    9.9999987516364375E-01 
    8.9409886521533444E-01 
    7.6466930105021402E-01 
    6.1131496281791931E-01 
    3.9570801310232545E-01 
    2.5217522262829965E-02 
    1.0000004972832677E-06 
    1.0000000000002596E-06 
    9.9999999999999995E-07 
    9.9999999999999995E-07 
    9.9999999999999995E-07 
    9.9999999999999995E-07 
    9.9999999999999995E-07 
    9.9999999999999995E-07 
    9.9999999999999995E-07 
    9.9999999999999995E-07 
    9.4144402070002553E-01 
    8.5100050379490255E-01 
    7.3603080988779479E-01 
    5.9346305296779900E-01 
    3.7869171564744908E-01 
    2.0090852240873917E-02 
    1.4897879062403717E-06 
    1.0000000691108509E-06 
    1.0000000000000173E-06 
    9.9999999999999995E-07 
    9.9999999999999995E-07 
    9.9999999999999995E-07 
    9.9999999999999995E-07 
    9.9999999999999995E-07 
    9.9999999999999995E-07 
    9.9999999999999995E-07 
    8.4067299829038056E-01 
    7.7937957482348530E-01 
    6.8594167243481219E-01 
    5.7057491855096154E-01 
    3.4398312763590122E-01 
    1.0698768435049641E-02 
    1.8398440163247551E-06 
    1.0000001187467300E-06 
    1.0000000000000091E-06 
    9.9999999999999995E-07 
    9.9999999999999995E-07 
    9.9999999999999995E-07 
    9.9999999999999995E-07 
    9.9999999999999995E-07 
    9.9999999999999995E-07 
    9.9999999999999995E-07 
    7.3106114000064737E-01 
    6.9301631901596594E-01 
    6.3067703843535694E-01 
    5.4714491709206270E-01 
    2.9521369174001127E-01 
    3.6513337414462972E-03 
    1.2132830335273336E-06 
    1.0000000475253106E-06 
    9.9999999999999995E-07 
    9.9999999999999995E-07 
    9.9999999999999995E-07 
    9.9999999999999995E-07 
    9.9999999999999995E-07 
    9.9999999999999995E-07 
    9.9999999999999995E-07 
    9.9999999999999995E-07 
    6.5190095984813523E-01 
    6.2927339324821274E-01 
    5.8566517079681168E-01 
    5.1352661263879840E-01 
    2.2420779732350316E-01 
    5.8877233796397776E-04 
    1.0136892189986432E-06 
    1.0000000035070918E-06 
    1.0000000000000002E-06 
    9.9999999999999995E-07 
    9.9999999999999995E-07 
    9.9999999999999995E-07 
    9.9999999999999995E-07 
    9.9999999999999995E-07 
    9.9999999999999995E-07 
    9.9999999999999995E-07 
    5.9353850424088983E-01 
    5.8023225699742720E-01 
    5.4327670631210856E-01 
    4.5752878165812677E-01 
    1.2383528348244130E-01 
    1.3145754087168807E-04 
    1.0071042359401821E-06 
    1.0000000000000006E-06 
    9.9999999999999995E-07 
    9.9999999999999995E-07 
    9.9999999999999995E-07 
    9.9999999999999995E-07 
    9.9999999999999995E-07 
    9.9999999999999995E-07 
    9.9999999999999995E-07 
    9.9999999999999995E-07 
    5.4928952023095368E-01 
    5.3684316550319355E-01 
    4.9805447720822538E-01 
    3.4247759239652309E-01 
    2.4018610941797674E-02 
    2.3608989733919605E-05 
    1.0000426808126004E-06 
    1.0000000000000002E-06 
    9.9999999999999995E-07 
    9.9999999999999995E-07 
    9.9999999999999995E-07 
    9.9999999999999995E-07 
    9.9999999999999995E-07 
    9.9999999999999995E-07 
    9.9999999999999995E-07 
    9.9999999999999995E-07 
    4.9335447616971312E-01 
    4.7704561484530722E-01 
    4.0246001631859851E-01 
    1.3191636951484034E-01 
    2.6656195437545612E-04 
    1.0144108671957302E-06 
    1.0000000008618210E-06 
    9.9999999999999995E-07 
    9.9999999999999995E-07 
    9.9999999999999995E-07 
    9.9999999999999995E-07 
    9.9999999999999995E-07 
    9.9999999999999995E-07 
    9.9999999999999995E-07 
    9.9999999999999995E-07 
    9.9999999999999995E-07 
    3.1223360510305276E-01 
    2.6803462916030396E-01 
    1.1160139989499285E-01 
    1.9295557023473995E-03 
    1.0643312451032051E-06 
    1.0000000125275984E-06 
    1.0000000000000016E-06 
    9.9999999999999995E-07 
    9.9999999999999995E-07 
    9.9999999999999995E-07 
    9.9999999999999995E-07 
    9.9999999999999995E-07 
    9.9999999999999995E-07 
    9.9999999999999995E-07 
    9.9999999999999995E-07 
    9.9999999999999995E-07 
    5.9447579585250520E-03 
    2.0813748356963606E-03 
    3.5158866120999378E-04 
    1.1415633419895874E-06 
    1.0000000400425567E-06 
    1.0000000000000061E-06 
    9.9999999999999995E-07 
    9.9999999999999995E-07 
    9.9999999999999995E-07 
    9.9999999999999995E-07 
    9.9999999999999995E-07 
    9.9999999999999995E-07 
    9.9999999999999995E-07 
    9.9999999999999995E-07 
    9.9999999999999995E-07 
    9.9999999999999995E-07 
    1.0000176954059946E-06 
    1.0468182923898005E-06 
    1.0290705665251771E-06 
    1.0000000191152777E-06 
    1.0000000000000105E-06 
    9.9999999999999995E-07 
    9.9999999999999995E-07 
    9.9999999999999995E-07 
    9.9999999999999995E-07 
    9.9999999999999995E-07 
    9.9999999999999995E-07 
    9.9999999999999995E-07 
    9.9999999999999995E-07 
    9.9999999999999995E-07 
    9.9999999999999995E-07 
    9.9999999999999995E-07 
    1.0000000000030251E-06 
    1.0000000027616069E-06 
    1.0000000001558305E-06 
    1.0000000000000019E-06 
    9.9999999999999995E-07 
    9.9999999999999995E-07 
    9.9999999999999995E-07 
    9.9999999999999995E-07 
    9.9999999999999995E-07 
    9.9999999999999995E-07 
    9.9999999999999995E-07 
    9.9999999999999995E-07 
    9.9999999999999995E-07 
    9.9999999999999995E-07 
    9.9999999999999995E-07 
    9.9999999999999995E-07 
    9.9999999999999995E-07 
    9.9999999999999995E-07 
    9.9999999999999995E-07 
    9.9999999999999995E-07 
    9.9999999999999995E-07 
    9.9999999999999995E-07 
    9.9999999999999995E-07 
    9.9999999999999995E-07 
    9.9999999999999995E-07 
    9.9999999999999995E-07 
    9.9999999999999995E-07 
    9.9999999999999995E-07 
    9.9999999999999995E-07 
    9.9999999999999995E-07 
    9.9999999999999995E-07 
    9.9999999999999995E-07 
    9.9999999999999995E-07 
    9.9999999999999995E-07 
    9.9999999999999995E-07 
    9.9999999999999995E-07 
    9.9999999999999995E-07 
    9.9999999999999995E-07 
    9.9999999999999995E-07 
    9.9999999999999995E-07 
    9.9999999999999995E-07 
    9.9999999999999995E-07 
    9.9999999999999995E-07 
    9.9999999999999995E-07 
    9.9999999999999995E-07 
    9.9999999999999995E-07 
    9.9999999999999995E-07 
    9.9999999999999995E-07 
    9.9999999999999995E-07 
    9.9999999999999995E-07 
    9.9999999999999995E-07 
    9.9999999999999995E-07 
    9.9999999999999995E-07 
    9.9999999999999995E-07 
    9.9999999999999995E-07 
    9.9999999999999995E-07 
    9.9999999999999995E-07 
    9.9999999999999995E-07 
    9.9999999999999995E-07 
    9.9999999999999995E-07 
    9.9999999999999995E-07 
    9.9999999999999995E-07 
    9.9999999999999995E-07 
    9.9999999999999995E-07 
    9.9999999999999995E-07 
    9.9999999999999995E-07 
    9.9999999999999995E-07 
    9.9999999999999995E-07 
    9.9999999999999995E-07 
    9.9999999999999995E-07 
    9.9999999999999995E-07 
    9.9999999999999995E-07 
    9.9999999999999995E-07 
    9.9999999999999995E-07 
    9.9999999999999995E-07 
    9.9999999999999995E-07 
    9.9999999999999995E-07 
    9.9999999999999995E-07 
    9.9999999999999995E-07 
    1.0000001051857158E-06 
