# vtk DataFile Version 2.0
Pressure Field Data 
ASCII 
DATASET UNSTRUCTURED_GRID 

POINTS 289 double 

    0.0000000000000000E+00     0.0000000000000000E+00     0.0000000000000000E+00 
    1.0000000000000000E+00     0.0000000000000000E+00     0.0000000000000000E+00 
    1.0000000000000000E+00     1.0000000000000000E+00     0.0000000000000000E+00 
    0.0000000000000000E+00     1.0000000000000000E+00     0.0000000000000000E+00 
    6.2499999999872928E-02     0.0000000000000000E+00     0.0000000000000000E+00 
    1.2499999999977310E-01     0.0000000000000000E+00     0.0000000000000000E+00 
    1.8749999999959341E-01     0.0000000000000000E+00     0.0000000000000000E+00 
    2.4999999999941089E-01     0.0000000000000000E+00     0.0000000000000000E+00 
    3.1249999999922851E-01     0.0000000000000000E+00     0.0000000000000000E+00 
    3.7499999999904610E-01     0.0000000000000000E+00     0.0000000000000000E+00 
    4.3749999999886358E-01     0.0000000000000000E+00     0.0000000000000000E+00 
    4.9999999999869210E-01     0.0000000000000000E+00     0.0000000000000000E+00 
    5.6249999999884603E-01     0.0000000000000000E+00     0.0000000000000000E+00 
    6.2499999999901090E-01     0.0000000000000000E+00     0.0000000000000000E+00 
    6.8749999999917577E-01     0.0000000000000000E+00     0.0000000000000000E+00 
    7.4999999999934064E-01     0.0000000000000000E+00     0.0000000000000000E+00 
    8.1249999999950551E-01     0.0000000000000000E+00     0.0000000000000000E+00 
    8.7499999999967026E-01     0.0000000000000000E+00     0.0000000000000000E+00 
    9.3749999999983513E-01     0.0000000000000000E+00     0.0000000000000000E+00 
    1.0000000000000000E+00     6.2499999999872928E-02     0.0000000000000000E+00 
    1.0000000000000000E+00     1.2499999999977310E-01     0.0000000000000000E+00 
    1.0000000000000000E+00     1.8749999999959341E-01     0.0000000000000000E+00 
    1.0000000000000000E+00     2.4999999999941089E-01     0.0000000000000000E+00 
    1.0000000000000000E+00     3.1249999999922851E-01     0.0000000000000000E+00 
    1.0000000000000000E+00     3.7499999999904610E-01     0.0000000000000000E+00 
    1.0000000000000000E+00     4.3749999999886358E-01     0.0000000000000000E+00 
    1.0000000000000000E+00     4.9999999999869210E-01     0.0000000000000000E+00 
    1.0000000000000000E+00     5.6249999999884603E-01     0.0000000000000000E+00 
    1.0000000000000000E+00     6.2499999999901090E-01     0.0000000000000000E+00 
    1.0000000000000000E+00     6.8749999999917577E-01     0.0000000000000000E+00 
    1.0000000000000000E+00     7.4999999999934064E-01     0.0000000000000000E+00 
    1.0000000000000000E+00     8.1249999999950551E-01     0.0000000000000000E+00 
    1.0000000000000000E+00     8.7499999999967026E-01     0.0000000000000000E+00 
    1.0000000000000000E+00     9.3749999999983513E-01     0.0000000000000000E+00 
    9.3749999999973976E-01     1.0000000000000000E+00     0.0000000000000000E+00 
    8.7499999999950118E-01     1.0000000000000000E+00     0.0000000000000000E+00 
    8.1249999999991318E-01     1.0000000000000000E+00     0.0000000000000000E+00 
    7.5000000000034706E-01     1.0000000000000000E+00     0.0000000000000000E+00 
    6.8750000000078049E-01     1.0000000000000000E+00     0.0000000000000000E+00 
    6.2500000000121403E-01     1.0000000000000000E+00     0.0000000000000000E+00 
    5.6250000000164757E-01     1.0000000000000000E+00     0.0000000000000000E+00 
    5.0000000000205946E-01     1.0000000000000000E+00     0.0000000000000000E+00 
    4.3750000000182099E-01     1.0000000000000000E+00     0.0000000000000000E+00 
    3.7500000000156092E-01     1.0000000000000000E+00     0.0000000000000000E+00 
    3.1250000000130068E-01     1.0000000000000000E+00     0.0000000000000000E+00 
    2.5000000000104050E-01     1.0000000000000000E+00     0.0000000000000000E+00 
    1.8750000000078040E-01     1.0000000000000000E+00     0.0000000000000000E+00 
    1.2500000000052031E-01     1.0000000000000000E+00     0.0000000000000000E+00 
    6.2500000000260125E-02     1.0000000000000000E+00     0.0000000000000000E+00 
    0.0000000000000000E+00     9.3749999999973976E-01     0.0000000000000000E+00 
    0.0000000000000000E+00     8.7499999999950118E-01     0.0000000000000000E+00 
    0.0000000000000000E+00     8.1249999999991318E-01     0.0000000000000000E+00 
    0.0000000000000000E+00     7.5000000000034706E-01     0.0000000000000000E+00 
    0.0000000000000000E+00     6.8750000000078049E-01     0.0000000000000000E+00 
    0.0000000000000000E+00     6.2500000000121403E-01     0.0000000000000000E+00 
    0.0000000000000000E+00     5.6250000000164757E-01     0.0000000000000000E+00 
    0.0000000000000000E+00     5.0000000000205946E-01     0.0000000000000000E+00 
    0.0000000000000000E+00     4.3750000000182099E-01     0.0000000000000000E+00 
    0.0000000000000000E+00     3.7500000000156092E-01     0.0000000000000000E+00 
    0.0000000000000000E+00     3.1250000000130068E-01     0.0000000000000000E+00 
    0.0000000000000000E+00     2.5000000000104050E-01     0.0000000000000000E+00 
    0.0000000000000000E+00     1.8750000000078040E-01     0.0000000000000000E+00 
    0.0000000000000000E+00     1.2500000000052031E-01     0.0000000000000000E+00 
    0.0000000000000000E+00     6.2500000000260125E-02     0.0000000000000000E+00 
    6.2499999999897131E-02     6.2500000000235922E-02     0.0000000000000000E+00 
    6.2499999999921327E-02     1.2500000000047351E-01     0.0000000000000000E+00 
    6.2499999999945530E-02     1.8750000000070621E-01     0.0000000000000000E+00 
    6.2499999999969733E-02     2.5000000000093858E-01     0.0000000000000000E+00 
    6.2499999999993928E-02     3.1250000000117117E-01     0.0000000000000000E+00 
    6.2500000000018124E-02     3.7500000000140382E-01     0.0000000000000000E+00 
    6.2500000000042327E-02     4.3750000000163619E-01     0.0000000000000000E+00 
    6.2500000000066530E-02     5.0000000000184897E-01     0.0000000000000000E+00 
    6.2500000000090733E-02     5.6250000000147260E-01     0.0000000000000000E+00 
    6.2500000000114922E-02     6.2500000000107636E-01     0.0000000000000000E+00 
    6.2500000000139125E-02     6.8750000000068034E-01     0.0000000000000000E+00 
    6.2500000000163328E-02     7.5000000000028411E-01     0.0000000000000000E+00 
    6.2500000000187531E-02     8.1249999999988787E-01     0.0000000000000000E+00 
    6.2500000000211720E-02     8.7499999999951172E-01     0.0000000000000000E+00 
    6.2500000000235922E-02     9.3749999999974565E-01     0.0000000000000000E+00 
    1.2499999999981980E-01     6.2500000000211733E-02     0.0000000000000000E+00 
    1.2499999999986650E-01     1.2500000000042691E-01     0.0000000000000000E+00 
    1.2499999999991319E-01     1.8750000000063199E-01     0.0000000000000000E+00 
    1.2499999999995989E-01     2.5000000000083678E-01     0.0000000000000000E+00 
    1.2500000000000661E-01     3.1250000000104172E-01     0.0000000000000000E+00 
    1.2500000000005329E-01     3.7500000000124661E-01     0.0000000000000000E+00 
    1.2500000000010000E-01     4.3750000000145117E-01     0.0000000000000000E+00 
    1.2500000000014669E-01     5.0000000000163858E-01     0.0000000000000000E+00 
    1.2500000000019340E-01     5.6250000000129741E-01     0.0000000000000000E+00 
    1.2500000000024011E-01     6.2500000000093847E-01     0.0000000000000000E+00 
    1.2500000000028680E-01     6.8750000000057998E-01     0.0000000000000000E+00 
    1.2500000000033351E-01     7.5000000000022127E-01     0.0000000000000000E+00 
    1.2500000000038020E-01     8.1249999999986211E-01     0.0000000000000000E+00 
    1.2500000000042691E-01     8.7499999999952238E-01     0.0000000000000000E+00 
    1.2500000000047359E-01     9.3749999999975164E-01     0.0000000000000000E+00 
    1.8749999999966760E-01     6.2500000000187531E-02     0.0000000000000000E+00 
    1.8749999999974179E-01     1.2500000000038020E-01     0.0000000000000000E+00 
    1.8749999999981601E-01     1.8750000000055780E-01     0.0000000000000000E+00 
    1.8749999999989009E-01     2.5000000000073502E-01     0.0000000000000000E+00 
    1.8749999999996431E-01     3.1250000000091221E-01     0.0000000000000000E+00 
    1.8750000000003850E-01     3.7500000000108941E-01     0.0000000000000000E+00 
    1.8750000000011269E-01     4.3750000000126649E-01     0.0000000000000000E+00 
    1.8750000000018691E-01     5.0000000000142808E-01     0.0000000000000000E+00 
    1.8750000000026110E-01     5.6250000000112244E-01     0.0000000000000000E+00 
    1.8750000000033529E-01     6.2500000000080080E-01     0.0000000000000000E+00 
    1.8750000000040951E-01     6.8750000000047962E-01     0.0000000000000000E+00 
    1.8750000000048361E-01     7.5000000000015843E-01     0.0000000000000000E+00 
    1.8750000000055780E-01     8.1249999999983680E-01     0.0000000000000000E+00 
    1.8750000000063199E-01     8.7499999999953304E-01     0.0000000000000000E+00 
    1.8750000000070621E-01     9.3749999999975764E-01     0.0000000000000000E+00 
    2.4999999999951281E-01     6.2500000000163314E-02     0.0000000000000000E+00 
    2.4999999999961461E-01     1.2500000000033351E-01     0.0000000000000000E+00 
    2.4999999999971650E-01     1.8750000000048361E-01     0.0000000000000000E+00 
    2.4999999999981831E-01     2.5000000000063310E-01     0.0000000000000000E+00 
    2.4999999999992020E-01     3.1250000000078260E-01     0.0000000000000000E+00 
    2.5000000000002198E-01     3.7500000000093209E-01     0.0000000000000000E+00 
    2.5000000000012390E-01     4.3750000000108180E-01     0.0000000000000000E+00 
    2.5000000000022571E-01     5.0000000000121769E-01     0.0000000000000000E+00 
    2.5000000000032763E-01     5.6250000000094724E-01     0.0000000000000000E+00 
    2.5000000000042938E-01     6.2500000000066314E-01     0.0000000000000000E+00 
    2.5000000000053119E-01     6.8750000000037925E-01     0.0000000000000000E+00 
[...]
CELL_DATA 256 
SCALARS Pressure double 1 
LOOKUP_TABLE default 

    7.1423141103360088E-01 
    6.6404989408884740E-01 
    6.3173232615593888E-01 
    6.0228311087901443E-01 
    5.7231287701798139E-01 
    5.4099856136532642E-01 
    5.0810173074848219E-01 
    4.7369072420982394E-01 
    4.3806201207189865E-01 
    4.0177878662914407E-01 
    3.6579264297507130E-01 
    3.3160878244933384E-01 
    3.0138685277296967E-01 
    2.7775899586799391E-01 
    2.6261747417443809E-01 
    2.5524389212564441E-01 
    7.0025709951589787E-01 
    6.6536591365362852E-01 
    6.3416834261215360E-01 
    6.0496123128484114E-01 
    5.7519181705226041E-01 
    5.4406557965503166E-01 
    5.1133914740524877E-01 
    4.7706080117662214E-01 
    4.4149733345284270E-01 
    4.0516846281122126E-01 
    3.6896456711937514E-01 
    3.3432017051241153E-01 
    3.0335288311454528E-01 
    2.7876407292997168E-01 
    2.6273376549052707E-01 
    2.5479817220623457E-01 
    6.8953169692263427E-01 
    6.6453735382421031E-01 
    6.3584607434167184E-01 
    6.0730107921709420E-01 
    5.7786899788857116E-01 
    5.4698309443163440E-01 
    5.1444703819097182E-01 
    4.8030312284859533E-01 
    4.4478747398234653E-01 
    4.0836793534539406E-01 
    3.7185899198482142E-01 
    3.3660762637437325E-01 
    3.0468545129105984E-01 
    2.7889710176051508E-01 
    2.6181884074712375E-01 
    2.5335973080568930E-01 
    6.8109700026329412E-01 
    6.6262177971334413E-01 
    6.3680605407179802E-01 
    6.0928104574141595E-01 
    5.8033906377955979E-01 
    5.4975742454621745E-01 
    5.1743629552494419E-01 
    4.8343136812418291E-01 
    4.4795250705370449E-01 
    4.1140979987811233E-01 
    3.7452696631639382E-01 
    3.3854030062875090E-01 
    3.0545491253535617E-01 
    2.7819163742475572E-01 
    2.5982151757278454E-01 
    2.5077884926040794E-01 
    6.7430826885953909E-01 
    6.6020894327677360E-01 
    6.3718054599176066E-01 
    6.1090918791317572E-01 
    5.8259919047921771E-01 
    5.5239352748574500E-01 
    5.2031930364301315E-01 
    4.8646340638709945E-01 
    4.5101729687966285E-01 
    4.1433117627750282E-01 
    3.7702446129468037E-01 
    3.4019497607033472E-01 
    3.0574332785184355E-01 
    2.7669143523128337E-01 
    2.5669047202843243E-01 
    2.4690145900728583E-01 
    6.6876941158035541E-01 
    6.5764457834771550E-01 
    6.3712073245779599E-01 
    6.1221873179450004E-01 
    5.8465443191155475E-01 
    5.5489568484804297E-01 
    5.2310702483254601E-01 
    4.8941846533806316E-01 
    4.5401028446590447E-01 
    4.1717338670426701E-01 
    3.7941230250454172E-01 
    3.4165617116858088E-01 
    3.0564658196364791E-01 
    2.7445585151324281E-01 
    2.5237256725302631E-01 
    2.4154525427276166E-01 
    6.6422218125880583E-01 
    6.5514101323016960E-01 
    6.3677699844298563E-01 
    6.1326566975467756E-01 
    5.8652546179557563E-01 
    5.5727438113807215E-01 
    5.2581030975550502E-01 
    4.9231412552941278E-01 
    4.5695970769114574E-01 
    4.1997981907046172E-01 
    3.8175573258721135E-01 
    3.4301739764785621E-01 
    3.0527795924071216E-01 
    2.7156832319131496E-01 
    2.4682243433999088E-01 
    2.3450080592977041E-01 
    6.6048301557901423E-01 
    6.5282490147116301E-01 
    6.3628220501675981E-01 
    6.1411690084761861E-01 
    5.8824378850899017E-01 
    5.5954672497800240E-01 
    5.2844237445961162E-01 
    4.9516605132860664E-01 
    4.5989056030512393E-01 
    4.2279135336796692E-01 
    3.8412145923308788E-01 
    3.4438172673994477E-01 
    3.0477365628646530E-01 
    2.6814755386569444E-01 
    2.4001639828241694E-01 
    2.2552581692673762E-01 
    6.5742117822932333E-01 
    6.5076906845400595E-01 
    6.3574511826918789E-01 
    6.1484131237344974E-01 
    5.8984586106977355E-01 
    5.6173352753547012E-01 
    5.3101788559976026E-01 
    4.9798848895828768E-01 
    4.6282200457417078E-01 
    4.2564139344491508E-01 
    3.8657135238499757E-01 
    3.4585788486102909E-01 
    3.0429628973675577E-01 
    2.6435900192900696E-01 
    2.3195675389626932E-01 
    2.1431078667298029E-01 
    6.5494111123016063E-01 
    6.4901099499742176E-01 
    6.3524795562738179E-01 
    6.1550244461337233E-01 
    5.9137103363212196E-01 
    5.6385880589082027E-01 
    5.3355311275053741E-01 
    5.0079518581338811E-01 
    4.6576964404835208E-01 
    4.2855553774051036E-01 
    3.8915796785661544E-01 
    3.4755333511884900E-01 
    3.0403325101639322E-01 
    2.6043122472451397E-01 
    2.2269384078198598E-01 
    2.0044042885472074E-01 
    6.5297126703273645E-01 
    6.4756964158980457E-01 
    6.3485617260211957E-01 
    6.1616050836806147E-01 
    5.9286243180875242E-01 
    5.6595172346017786E-01 
    5.3606821069341837E-01 
    5.0360214698409844E-01 
    4.6874956776044568E-01 
    4.3155570122378883E-01 
    3.9192516578963749E-01 
    3.4957034756157251E-01 
    3.0419534214091920E-01 
    2.5667575102219226E-01 
    2.1237587827260823E-01 
    1.8337297566793714E-01 
    6.5145430829535089E-01 
    6.4645617629747376E-01 
    6.3462524969998535E-01 
    6.1687327863995089E-01 
    5.9436669848984058E-01 
    5.6804744753416292E-01 
    5.3858959469386458E-01 
    5.0643008973004056E-01 
    4.7178142125377515E-01 
    4.3466313730446421E-01 
    3.9490846554899228E-01 
    3.5199963487185709E-01 
    3.0501152747316390E-01 
    2.5350213660148341E-01 
    2.0130236781857164E-01 
    1.6234843460180923E-01 
    6.5035654624143124E-01 
    6.4568833976227291E-01 
    6.3460889342085436E-01 
    6.1769995818088497E-01 
    5.9593474852918771E-01 
    5.7018634554215952E-01 
    5.4114802100002435E-01 
    5.0930289995573241E-01 
    4.7488428037626046E-01 
    4.3789346640080534E-01 
    3.9812926227564860E-01 
    3.5490607892788878E-01 
    3.0670371006167696E-01 
    2.5145223912377485E-01 
    1.9010276570851953E-01 
    1.3626348782867564E-01 
    6.4964172712367196E-01 
    6.4527568587712758E-01 
    6.3485069856551535E-01 
    6.1869369758123216E-01 
    5.9761458015449875E-01 
    5.7240408024623668E-01 
    5.4376685060444629E-01 
    5.1222809413815473E-01 
    4.7803939916050897E-01 
    4.4120314576256603E-01 
    4.0152672898567898E-01 
    3.5823427944428715E-01 
    3.0935062288712184E-01 
    2.5106309831260559E-01 
    1.7990745249137441E-01 
    1.0343544968918889E-01 
    6.4914422850297426E-01 
    6.4509226166281364E-01 
    6.3527989436750043E-01 
    6.1980915201127695E-01 
    5.9935577107353699E-01 
    5.7464968256300142E-01 
    5.4639601850517849E-01 
    5.1515416453190732E-01 
    4.8118597516714168E-01 
    4.4452804855696554E-01 
    4.0502257312100742E-01 
    3.6186759800297252E-01 
    3.1284512057144698E-01 
    2.5265279519734846E-01 
    1.7236344258784961E-01 
    6.0701760837998060E-02 
    6.4896643519736608E-01 
    6.4524374453394706E-01 
    6.3599799373585908E-01 
    6.2113256181944121E-01 
    6.0122388792669945E-01 
    5.7697865084958166E-01 
    5.4910011202500886E-01 
    5.1816242137192914E-01 
    4.8444855539339476E-01 
    4.4803078495237475E-01 
    4.0878037705373577E-01 
    3.6593954206809121E-01 
    3.1739542180957397E-01 
    2.5719033379809281E-01 
    1.7179024004611149E-01 
    0.0000000000000000E+00 

SCALARS Saturarion double 1 
LOOKUP_TABLE default 

    1.0000000000000004E+00 
    9.7526587202422677E-01 
    9.3037307152898185E-01 
    8.7147793200354517E-01 
    8.2195578256929247E-01 
    7.7866570211350217E-01 
    7.4137147775662227E-01 
    7.0925940705753177E-01 
    6.8108920712053744E-01 
    6.5558089393033347E-01 
    6.3146173007066064E-01 
    6.0729868148829469E-01 
    5.8103796921126483E-01 
    5.4990053244808501E-01 
    4.8603127478198205E-01 
    1.7015484960882538E-01 
    9.9057562431703050E-01 
    9.6714323045862582E-01 
    9.2011725776840103E-01 
    8.6411908650516112E-01 
    8.1655579107752252E-01 
    7.7503369198512972E-01 
    7.3880910854767834E-01 
    7.0718375185673787E-01 
    6.7930270642437818E-01 
    6.5410252509537237E-01 
    6.3055792230039154E-01 
    6.0733260367379138E-01 
    5.8223421371673811E-01 
    5.5204832756512479E-01 
    4.9161501229571497E-01 
    2.0367258641968000E-01 
    9.7571558900305555E-01 
    9.5234901236492653E-01 
    9.0522095788298174E-01 
    8.5119755157454735E-01 
    8.0596418187648189E-01 
    7.6738308484406992E-01 
    7.3341744940145770E-01 
    7.0292225716356449E-01 
    6.7548236410802598E-01 
    6.5058554638738408E-01 
    6.2766018652002820E-01 
    6.0563788366559335E-01 
    5.8248870604727832E-01 
    5.5454199274620886E-01 
    4.9921267817297127E-01 
    2.3564621404496008E-01 
    9.4976146608810486E-01 
    9.3015101892557173E-01 
    8.8713403727515883E-01 
    8.3727900052437398E-01 
    7.9294402448821333E-01 
    7.5595599858452101E-01 
    7.2410539738187718E-01 
    6.9573356005297848E-01 
    6.6985995055975800E-01 
    6.4622202591217071E-01 
    6.2429317026383147E-01 
    6.0340700689697513E-01 
    5.8201502766496238E-01 
    5.5662950382417165E-01 
    5.0675478922585238E-01 
    2.6672946240215267E-01 
    9.1827447921140892E-01 
    9.0116845820472746E-01 
    8.6305490905555537E-01 
    8.1821445534265957E-01 
    7.7626238204533005E-01 
    7.4050352878840364E-01 
    7.1034266708240434E-01 
    6.8416787706831683E-01 
    6.6082514064642073E-01 
    6.3959988009691704E-01 
    6.1993054119866076E-01 
    6.0097556612855096E-01 
    5.8132707101930681E-01 
    5.5817986810791065E-01 
    5.1389898402355805E-01 
    2.9118466355857109E-01 
    8.8357056061923100E-01 
    8.6941006650233699E-01 
    8.3642057787021240E-01 
    7.9617805080047444E-01 
    7.5764403770062638E-01 
    7.2377679183820320E-01 
    6.9462543005371369E-01 
    6.6983139776295608E-01 
    6.4852213172381035E-01 
    6.2978933404545645E-01 
    6.1288385133839407E-01 
    5.9699894708401646E-01 
    5.8023510926072797E-01 
    5.5940471252609747E-01 
    5.2010109065512489E-01 
    3.1275560185237500E-01 
    8.4633519455901463E-01 
    8.3568376139576983E-01 
    8.0819145513744373E-01 
    7.7264435383965679E-01 
    7.3776838771449516E-01 
    7.0637606334651626E-01 
    6.7894257574305938E-01 
    6.5508505492903590E-01 
    6.3481591164994933E-01 
    6.1775739986383027E-01 
    6.0331102173573936E-01 
    5.9054949756114239E-01 
    5.7768187532161064E-01 
    5.6041496949508418E-01 
    5.2574977261056410E-01 
    3.3365787505085059E-01 
    8.0641191669684831E-01 
    7.9970339533549906E-01 
    7.7842706184029553E-01 
    7.4804092595358673E-01 
    7.1647960779940867E-01 
    6.8743124690908664E-01 
    6.6164386277028409E-01 
    6.3928418007948606E-01 
    6.2014789562033024E-01 
    6.0427130959849285E-01 
    5.9153835940266430E-01 
    5.8161912305482522E-01 
    5.7282963877262538E-01 
    5.6052776782370484E-01 
    5.3130072832924025E-01 
    3.5464549631702619E-01 
    7.6404835722485809E-01 
    7.6110813563107949E-01 
    7.4580468177423298E-01 
    7.2087176928562657E-01 
    6.9316777727875989E-01 
    6.6654089172630693E-01 
    6.4258379987175585E-01 
    6.2152595270122768E-01 
    6.0340868557287308E-01 
    5.8841267732253211E-01 
    5.7706921658171129E-01 
    5.6970064655974983E-01 
    5.6518714237262502E-01 
    5.5874978598809866E-01 
    5.3603175868549169E-01 
    3.7422144145348646E-01 
    7.1924040768388531E-01 
    7.1977239287663808E-01 
    7.0997371537380871E-01 
    6.9018490693886958E-01 
    6.6664957335029451E-01 
    6.4304666559138557E-01 
    6.2106537867482736E-01 
    6.0162118813641685E-01 
    5.8472094415590259E-01 
    5.7051219773941320E-01 
    5.5980707605482338E-01 
    5.5411326457098253E-01 
    5.5375615442076120E-01 
    5.5419288923712340E-01 
    5.3957443986375409E-01 
    3.9326842021992092E-01 
    6.7162422962425239E-01 
    6.7533431731370486E-01 
    6.7059855594392914E-01 
    6.5558820084218272E-01 
    6.3630606211503360E-01 
    6.1635646575307046E-01 
    5.9740549021020095E-01 
    5.7984345186783848E-01 
    5.6433823006734662E-01 
    5.5132792763228067E-01 
    5.4144646914706807E-01 
    5.3613761155214945E-01 
    5.3788223590554063E-01 
    5.4545772631777478E-01 
    5.4085781384735487E-01 
    4.1240525378206483E-01 
    6.2027315818011897E-01 
    6.2688696780288322E-01 
    6.2723983353237367E-01 
    6.1716892611887675E-01 
    6.0209033764545850E-01 
    5.8572754464339294E-01 
    5.6976096982646784E-01 
    5.5495290495898475E-01 
    5.4176350778210636E-01 
    5.3073681072716672E-01 
    5.2222352851401799E-01 
    5.1745668185023574E-01 
    5.1916330067177707E-01 
    5.3106713464063793E-01 
    5.3676232045508265E-01 
    4.3069388256404345E-01 
    5.6831014345660114E-01 
    5.7650689814264666E-01 
    5.8080159997070857E-01 
    5.7561505361955634E-01 
    5.6497932273548002E-01 
    5.5186427859266884E-01 
    5.3874903618845538E-01 
    5.2632806187556236E-01 
    5.1481121830849108E-01 
    5.0437101097345238E-01 
    4.9689955532913338E-01 
    4.9417306945905820E-01 
    4.9747598057062442E-01 
    5.1120324486016699E-01 
    5.2906031109887142E-01 
    4.4644859749547794E-01 
    5.0198715940465632E-01 
    5.1643876594675020E-01 
    5.2515514495358395E-01 
    5.2572745451848846E-01 
    5.1754120419127614E-01 
    5.0602450068706228E-01 
    4.9249121292059433E-01 
    4.7990376311591204E-01 
    4.6185870841173526E-01 
    4.3671606414684222E-01 
    4.1757142895111299E-01 
    4.0862929506908918E-01 
    4.2190512783314738E-01 
    4.6581283529564638E-01 
    5.1128817916171887E-01 
    4.5753760009207828E-01 
    2.2345305073633071E-01 
    3.0734516750833607E-01 
    3.5616994196795460E-01 
    3.6420721475517387E-01 
    3.4479091790949062E-01 
    2.9380378481034031E-01 
    2.6188384952891181E-01 
    2.0904420430685486E-01 
    1.6928577595754998E-01 
    1.1300783999672843E-01 
    6.5581266066332550E-02 
    6.8840305938938931E-02 
    1.0883380142128936E-01 
    2.5596831342417170E-01 
    4.4816873525716744E-01 
    4.5966518157164554E-01 
    1.2183357984995168E-05 
    4.3873215578470546E-03 
    1.0726226151652066E-02 
    9.7547620152916171E-03 
    9.0534184518168484E-03 
    9.2614624415002613E-04 
    7.4952809838129590E-04 
    2.3439334821459468E-05 
    4.0372393225483451E-05 
    1.2943763713219335E-05 
    5.5022171586610501E-06 
    7.1360368399163180E-06 
    9.9814227736983043E-05 
    6.6041822611687728E-02 
    2.7475350729692904E-01 
    4.1061214724542300E-01 
