# vtk DataFile Version 2.0
Pressure Field Data 
ASCII 
DATASET UNSTRUCTURED_GRID 

POINTS 289 double 

    0.0000000000000000E+00     0.0000000000000000E+00     0.0000000000000000E+00 
    1.0000000000000000E+00     0.0000000000000000E+00     0.0000000000000000E+00 
    1.0000000000000000E+00     1.0000000000000000E+00     0.0000000000000000E+00 
    0.0000000000000000E+00     1.0000000000000000E+00     0.0000000000000000E+00 
    6.2499999999872928E-02     0.0000000000000000E+00     0.0000000000000000E+00 
    1.2499999999977310E-01     0.0000000000000000E+00     0.0000000000000000E+00 
    1.8749999999959341E-01     0.0000000000000000E+00     0.0000000000000000E+00 
    2.4999999999941089E-01     0.0000000000000000E+00     0.0000000000000000E+00 
    3.1249999999922851E-01     0.0000000000000000E+00     0.0000000000000000E+00 
    3.7499999999904610E-01     0.0000000000000000E+00     0.0000000000000000E+00 
    4.3749999999886358E-01     0.0000000000000000E+00     0.0000000000000000E+00 
    4.9999999999869210E-01     0.0000000000000000E+00     0.0000000000000000E+00 
    5.6249999999884603E-01     0.0000000000000000E+00     0.0000000000000000E+00 
    6.2499999999901090E-01     0.0000000000000000E+00     0.0000000000000000E+00 
    6.8749999999917577E-01     0.0000000000000000E+00     0.0000000000000000E+00 
    7.4999999999934064E-01     0.0000000000000000E+00     0.0000000000000000E+00 
    8.1249999999950551E-01     0.0000000000000000E+00     0.0000000000000000E+00 
    8.7499999999967026E-01     0.0000000000000000E+00     0.0000000000000000E+00 
    9.3749999999983513E-01     0.0000000000000000E+00     0.0000000000000000E+00 
    1.0000000000000000E+00     6.2499999999872928E-02     0.0000000000000000E+00 
    1.0000000000000000E+00     1.2499999999977310E-01     0.0000000000000000E+00 
    1.0000000000000000E+00     1.8749999999959341E-01     0.0000000000000000E+00 
    1.0000000000000000E+00     2.4999999999941089E-01     0.0000000000000000E+00 
    1.0000000000000000E+00     3.1249999999922851E-01     0.0000000000000000E+00 
    1.0000000000000000E+00     3.7499999999904610E-01     0.0000000000000000E+00 
    1.0000000000000000E+00     4.3749999999886358E-01     0.0000000000000000E+00 
    1.0000000000000000E+00     4.9999999999869210E-01     0.0000000000000000E+00 
    1.0000000000000000E+00     5.6249999999884603E-01     0.0000000000000000E+00 
    1.0000000000000000E+00     6.2499999999901090E-01     0.0000000000000000E+00 
    1.0000000000000000E+00     6.8749999999917577E-01     0.0000000000000000E+00 
    1.0000000000000000E+00     7.4999999999934064E-01     0.0000000000000000E+00 
    1.0000000000000000E+00     8.1249999999950551E-01     0.0000000000000000E+00 
    1.0000000000000000E+00     8.7499999999967026E-01     0.0000000000000000E+00 
    1.0000000000000000E+00     9.3749999999983513E-01     0.0000000000000000E+00 
    9.3749999999973976E-01     1.0000000000000000E+00     0.0000000000000000E+00 
    8.7499999999950118E-01     1.0000000000000000E+00     0.0000000000000000E+00 
    8.1249999999991318E-01     1.0000000000000000E+00     0.0000000000000000E+00 
    7.5000000000034706E-01     1.0000000000000000E+00     0.0000000000000000E+00 
    6.8750000000078049E-01     1.0000000000000000E+00     0.0000000000000000E+00 
    6.2500000000121403E-01     1.0000000000000000E+00     0.0000000000000000E+00 
    5.6250000000164757E-01     1.0000000000000000E+00     0.0000000000000000E+00 
    5.0000000000205946E-01     1.0000000000000000E+00     0.0000000000000000E+00 
    4.3750000000182099E-01     1.0000000000000000E+00     0.0000000000000000E+00 
    3.7500000000156092E-01     1.0000000000000000E+00     0.0000000000000000E+00 
    3.1250000000130068E-01     1.0000000000000000E+00     0.0000000000000000E+00 
    2.5000000000104050E-01     1.0000000000000000E+00     0.0000000000000000E+00 
    1.8750000000078040E-01     1.0000000000000000E+00     0.0000000000000000E+00 
    1.2500000000052031E-01     1.0000000000000000E+00     0.0000000000000000E+00 
    6.2500000000260125E-02     1.0000000000000000E+00     0.0000000000000000E+00 
    0.0000000000000000E+00     9.3749999999973976E-01     0.0000000000000000E+00 
    0.0000000000000000E+00     8.7499999999950118E-01     0.0000000000000000E+00 
    0.0000000000000000E+00     8.1249999999991318E-01     0.0000000000000000E+00 
    0.0000000000000000E+00     7.5000000000034706E-01     0.0000000000000000E+00 
    0.0000000000000000E+00     6.8750000000078049E-01     0.0000000000000000E+00 
    0.0000000000000000E+00     6.2500000000121403E-01     0.0000000000000000E+00 
    0.0000000000000000E+00     5.6250000000164757E-01     0.0000000000000000E+00 
    0.0000000000000000E+00     5.0000000000205946E-01     0.0000000000000000E+00 
    0.0000000000000000E+00     4.3750000000182099E-01     0.0000000000000000E+00 
    0.0000000000000000E+00     3.7500000000156092E-01     0.0000000000000000E+00 
    0.0000000000000000E+00     3.1250000000130068E-01     0.0000000000000000E+00 
    0.0000000000000000E+00     2.5000000000104050E-01     0.0000000000000000E+00 
    0.0000000000000000E+00     1.8750000000078040E-01     0.0000000000000000E+00 
    0.0000000000000000E+00     1.2500000000052031E-01     0.0000000000000000E+00 
    0.0000000000000000E+00     6.2500000000260125E-02     0.0000000000000000E+00 
    6.2499999999897131E-02     6.2500000000235922E-02     0.0000000000000000E+00 
    6.2499999999921327E-02     1.2500000000047351E-01     0.0000000000000000E+00 
    6.2499999999945530E-02     1.8750000000070621E-01     0.0000000000000000E+00 
    6.2499999999969733E-02     2.5000000000093858E-01     0.0000000000000000E+00 
    6.2499999999993928E-02     3.1250000000117117E-01     0.0000000000000000E+00 
    6.2500000000018124E-02     3.7500000000140382E-01     0.0000000000000000E+00 
    6.2500000000042327E-02     4.3750000000163619E-01     0.0000000000000000E+00 
    6.2500000000066530E-02     5.0000000000184897E-01     0.0000000000000000E+00 
    6.2500000000090733E-02     5.6250000000147260E-01     0.0000000000000000E+00 
    6.2500000000114922E-02     6.2500000000107636E-01     0.0000000000000000E+00 
    6.2500000000139125E-02     6.8750000000068034E-01     0.0000000000000000E+00 
    6.2500000000163328E-02     7.5000000000028411E-01     0.0000000000000000E+00 
    6.2500000000187531E-02     8.1249999999988787E-01     0.0000000000000000E+00 
    6.2500000000211720E-02     8.7499999999951172E-01     0.0000000000000000E+00 
    6.2500000000235922E-02     9.3749999999974565E-01     0.0000000000000000E+00 
    1.2499999999981980E-01     6.2500000000211733E-02     0.0000000000000000E+00 
    1.2499999999986650E-01     1.2500000000042691E-01     0.0000000000000000E+00 
    1.2499999999991319E-01     1.8750000000063199E-01     0.0000000000000000E+00 
    1.2499999999995989E-01     2.5000000000083678E-01     0.0000000000000000E+00 
    1.2500000000000661E-01     3.1250000000104172E-01     0.0000000000000000E+00 
    1.2500000000005329E-01     3.7500000000124661E-01     0.0000000000000000E+00 
    1.2500000000010000E-01     4.3750000000145117E-01     0.0000000000000000E+00 
    1.2500000000014669E-01     5.0000000000163858E-01     0.0000000000000000E+00 
    1.2500000000019340E-01     5.6250000000129741E-01     0.0000000000000000E+00 
    1.2500000000024011E-01     6.2500000000093847E-01     0.0000000000000000E+00 
    1.2500000000028680E-01     6.8750000000057998E-01     0.0000000000000000E+00 
    1.2500000000033351E-01     7.5000000000022127E-01     0.0000000000000000E+00 
    1.2500000000038020E-01     8.1249999999986211E-01     0.0000000000000000E+00 
    1.2500000000042691E-01     8.7499999999952238E-01     0.0000000000000000E+00 
    1.2500000000047359E-01     9.3749999999975164E-01     0.0000000000000000E+00 
    1.8749999999966760E-01     6.2500000000187531E-02     0.0000000000000000E+00 
    1.8749999999974179E-01     1.2500000000038020E-01     0.0000000000000000E+00 
    1.8749999999981601E-01     1.8750000000055780E-01     0.0000000000000000E+00 
    1.8749999999989009E-01     2.5000000000073502E-01     0.0000000000000000E+00 
    1.8749999999996431E-01     3.1250000000091221E-01     0.0000000000000000E+00 
    1.8750000000003850E-01     3.7500000000108941E-01     0.0000000000000000E+00 
    1.8750000000011269E-01     4.3750000000126649E-01     0.0000000000000000E+00 
    1.8750000000018691E-01     5.0000000000142808E-01     0.0000000000000000E+00 
    1.8750000000026110E-01     5.6250000000112244E-01     0.0000000000000000E+00 
    1.8750000000033529E-01     6.2500000000080080E-01     0.0000000000000000E+00 
    1.8750000000040951E-01     6.8750000000047962E-01     0.0000000000000000E+00 
    1.8750000000048361E-01     7.5000000000015843E-01     0.0000000000000000E+00 
    1.8750000000055780E-01     8.1249999999983680E-01     0.0000000000000000E+00 
    1.8750000000063199E-01     8.7499999999953304E-01     0.0000000000000000E+00 
    1.8750000000070621E-01     9.3749999999975764E-01     0.0000000000000000E+00 
    2.4999999999951281E-01     6.2500000000163314E-02     0.0000000000000000E+00 
    2.4999999999961461E-01     1.2500000000033351E-01     0.0000000000000000E+00 
    2.4999999999971650E-01     1.8750000000048361E-01     0.0000000000000000E+00 
    2.4999999999981831E-01     2.5000000000063310E-01     0.0000000000000000E+00 
    2.4999999999992020E-01     3.1250000000078260E-01     0.0000000000000000E+00 
    2.5000000000002198E-01     3.7500000000093209E-01     0.0000000000000000E+00 
    2.5000000000012390E-01     4.3750000000108180E-01     0.0000000000000000E+00 
    2.5000000000022571E-01     5.0000000000121769E-01     0.0000000000000000E+00 
    2.5000000000032763E-01     5.6250000000094724E-01     0.0000000000000000E+00 
    2.5000000000042938E-01     6.2500000000066314E-01     0.0000000000000000E+00 
    2.5000000000053119E-01     6.8750000000037925E-01     0.0000000000000000E+00 
[...]
CELL_DATA 256 
SCALARS Pressure double 1 
LOOKUP_TABLE default 

    6.5568730713035528E-01 
    6.0619024800600663E-01 
    5.7495842126390706E-01 
    5.4695819096526632E-01 
    5.1875586806540031E-01 
    4.8948408579293962E-01 
    4.5886591179117725E-01 
    4.2692839518337694E-01 
    3.9392372872469289E-01 
    3.6035889589336101E-01 
    3.2710112645698058E-01 
    2.9552211685897639E-01 
    2.6758115396199794E-01 
    2.4563238186658390E-01 
    2.3165765160445165E-01 
    2.2498163242540828E-01 
    6.4169257553565107E-01 
    6.0742972779320970E-01 
    5.7728294210957309E-01 
    5.4949550361900767E-01 
    5.2146695077389393E-01 
    4.9235720591323379E-01 
    4.6188574746405142E-01 
    4.3006209889441122E-01 
    3.9711130444944509E-01 
    3.6350058972337190E-01 
    3.3004148031467484E-01 
    2.9804155202221000E-01 
    2.6942217915217542E-01 
    2.4659403694487231E-01 
    2.3177925980525257E-01 
    2.2458470300637381E-01 
    6.3095511541020677E-01 
    6.0654449992349779E-01 
    5.7886874878559591E-01 
    5.5171407942768869E-01 
    5.2399695152321268E-01 
    4.9510235801101254E-01 
    4.6479712330548739E-01 
    4.3308803843660948E-01 
    4.0017347584301394E-01 
    3.6647426737254640E-01 
    3.3273385582725684E-01 
    3.0018096267530547E-01 
    2.7069510172454697E-01 
    2.4677815113172125E-01 
    2.3098291510778379E-01 
    2.2331632907451973E-01 
    6.2253579081817123E-01 
    6.0459678281446338E-01 
    5.7975891898313980E-01 
    5.5359108143562819E-01 
    5.2633659026128188E-01 
    4.9772230067085133E-01 
    4.6760949675724051E-01 
    4.3602016603217869E-01 
    4.0313056854407120E-01 
    3.6931083781015661E-01 
    3.3522429851901536E-01 
    3.0200156764622893E-01 
    2.7146259512691362E-01 
    2.4621475820303004E-01 
    2.2922680047437363E-01 
    2.2104813519085648E-01 
    6.1579774369778895E-01 
    6.0218203996958686E-01 
    5.8008778796068816E-01 
    5.5513535861544183E-01 
    5.2848134226163346E-01 
    5.0021816727592927E-01 
    4.7033149557378406E-01 
    4.3887387433119890E-01 
    4.0600568517065416E-01 
    3.7204472758150203E-01 
    3.3756326856236613E-01 
    3.0357104605476554E-01 
    2.7179673421415729E-01 
    2.4494120478844750E-01 
    2.2646404246032723E-01 
    2.1764213565325441E-01 
    6.1033462151357609E-01 
    5.9964336674438234E-01 
    5.8000604075712747E-01 
    5.5637991971736611E-01 
    5.3043502198715387E-01 
    5.0259102767650343E-01 
    4.7296946408480778E-01 
    4.4166352840619877E-01 
    4.0882279889179723E-01 
    3.7471281985269633E-01 
    3.3980569201454680E-01 
    3.0496463054610551E-01 
    2.7178167020187227E-01 
    2.4300803634200724E-01 
    2.2264501622054342E-01 
    2.1293516556703695E-01 
    6.0587699564101316E-01 
    5.9718588620101853E-01 
    5.7965974594828362E-01 
    5.5737734684728435E-01 
    5.3221567263345515E-01 
    5.0484896748925323E-01 
    4.7553100005495491E-01 
    4.4440208169395984E-01 
    4.1160450386569680E-01 
    3.7735239161731599E-01 
    3.4201004375928262E-01 
    3.0626657227326071E-01 
    2.7151783964466603E-01 
    2.4048782741629562E-01 
    2.1772892872980784E-01 
    2.0674232160932146E-01 
    6.0223446404415881E-01 
    5.9492917201893003E-01 
    5.7917614726629685E-01 
    5.5819031013032716E-01 
    5.3385193475157522E-01 
    5.0700716112305699E-01 
    4.7802728337407135E-01 
    4.4710218951224540E-01 
    4.1437100876717409E-01 
    3.7999778717823263E-01 
    3.4423490198115886E-01 
    3.0756954937753411E-01 
    2.7112720871833007E-01 
    2.3748420872965509E-01 
    2.1169116404938573E-01 
    1.9884610321462440E-01 
    5.9927016662383104E-01 
    5.9293958205494146E-01 
    5.7865880137028458E-01 
    5.5888377857775551E-01 
    5.3537733856334324E-01 
    5.0908413779145467E-01 
    4.8047124225436089E-01 
    4.4977668114599356E-01 
    4.1713927302796960E-01 
    3.8267762976169556E-01 
    3.4653359743107187E-01 
    3.0896957244523382E-01 
    2.7075527509959407E-01 
    2.3414337256137779E-01 
    2.0452957907572442E-01 
    1.8896818340116386E-01 
    5.9688375935557625E-01 
    5.9124985580416578E-01 
    5.7818619333947385E-01 
    5.5951792203609418E-01 
    5.3682768642501599E-01 
    5.1110058114353196E-01 
    4.8287687281238784E-01 
    4.5243870181836432E-01 
    4.1992485356840181E-01 
    3.8541543710202492E-01 
    3.4895153489175235E-01 
    3.1055952742381421E-01 
    2.7056813870221536E-01 
    2.3066820888608483E-01 
    1.9628580499400855E-01 
    1.7674050340621983E-01 
    5.9500009786883667E-01 
    5.8987520830759488E-01 
    5.7782018792971190E-01 
    5.6014900866249695E-01 
    5.3824117518918158E-01 
    5.1308063678576243E-01 
    4.8526064612279290E-01 
    4.5510309847116243E-01 
    4.2274407637958938E-01 
    3.8823220467667380E-01 
    3.5152682566367738E-01 
    3.1242550811729108E-01 
    2.7074909662144936E-01 
    2.2733401533062944E-01 
    1.8708576334737431E-01 
    1.6167725381057696E-01 
    5.9355807409647465E-01 
    5.8882226571769036E-01 
    5.7761177164904853E-01 
    5.6082951101719081E-01 
    5.3965722774099634E-01 
    5.1505189896147086E-01 
    4.8764305755447407E-01 
    4.5778789181100149E-01 
    4.2561529039072155E-01 
    3.9114744394521678E-01 
    3.5429068020327453E-01 
    3.1464282395117849E-01 
    2.7149282065623204E-01 
    2.2451002149030241E-01 
    1.7720982049376563E-01 
    1.4310382864606958E-01 
    5.9251248688425917E-01 
    5.8809699412564753E-01 
    5.7760508192457571E-01 
    5.6160950947645250E-01 
    5.4111657511300848E-01 
    5.1704518987356141E-01 
    4.9004762710081690E-01 
    4.6051435366462773E-01 
    4.2855843933923854E-01 
    3.9417905247484392E-01 
    3.5726704345670529E-01 
    3.1726988242345400E-01 
    2.7298906646278259E-01 
    2.2267075628027380E-01 
    1.6720542869470181E-01 
    1.2001503863302510E-01 
    5.9183723354815687E-01 
    5.8771371228583524E-01 
    5.7784538220144654E-01 
    5.6254168225524970E-01 
    5.4266463000055665E-01 
    5.1909425059292791E-01 
    4.9249754774204185E-01 
    4.6330255313258506E-01 
    4.3159193478375579E-01 
    3.9733525148485355E-01 
    3.6045914906667081E-01 
    3.2032873097615605E-01 
    2.7538351461451199E-01 
    2.2238285027980784E-01 
    1.5815442843486568E-01 
    9.0901708588560823E-02 
    5.9143283046951467E-01 
    5.8762217343083256E-01 
    5.7833134696584587E-01 
    5.6364404099748033E-01 
    5.4431524403703724E-01 
    5.2119628588272349E-01 
    4.9496695650065575E-01 
    4.6610335880255266E-01 
    4.3465728171018814E-01 
    4.0055396011451655E-01 
    3.6377735980207321E-01 
    3.2369759514737761E-01 
    2.7860614860632288E-01 
    2.2400944702063225E-01 
    1.5182951370516568E-01 
    5.3316426659126788E-02 
    5.9129476859659924E-01 
    5.8781580457234206E-01 
    5.7906411023385707E-01 
    5.6493084105548452E-01 
    5.4608849072640853E-01 
    5.2337251848851751E-01 
    4.9746812058917150E-01 
    4.6890507471056991E-01 
    4.3773658158903150E-01 
    4.0386659560791649E-01 
    3.6730003161914992E-01 
    3.2747480190600392E-01 
    2.8278569524462643E-01 
    2.2797111905861966E-01 
    1.5128928357162330E-01 
    0.0000000000000000E+00 

SCALARS Saturarion double 1 
LOOKUP_TABLE default 

    1.0000000000000002E+00 
    9.7882039758111139E-01 
    9.3988725964324571E-01 
    8.8614496893560024E-01 
    8.4129024357914028E-01 
    8.0167191287286954E-01 
    7.6685252042412932E-01 
    7.3633721465767921E-01 
    7.0925255955045452E-01 
    6.8463194452327636E-01 
    6.6147387249509504E-01 
    6.3855160083113660E-01 
    6.1390854316610233E-01 
    5.8380754962315085E-01 
    5.3806557943494548E-01 
    3.1452197143427335E-01 
    9.9219828758408990E-01 
    9.7216934853399939E-01 
    9.3132420579307407E-01 
    8.8002327554444204E-01 
    8.3625608538228868E-01 
    7.9791928204066531E-01 
    7.6413383872287888E-01 
    7.3426934100572894E-01 
    7.0764483114091603E-01 
    6.8340764064157167E-01 
    6.6075971114540855E-01 
    6.3861943238823948E-01 
    6.1502205101038931E-01 
    5.8593535412382614E-01 
    5.4206891647338629E-01 
    3.3593545781786899E-01 
    9.7985365945613212E-01 
    9.5970536860127298E-01 
    9.1856396914252691E-01 
    8.6883359158777251E-01 
    8.2631183832662780E-01 
    7.9011031306293511E-01 
    7.5844380915792053E-01 
    7.3000579446542702E-01 
    7.0422084421546793E-01 
    6.8054494946666111E-01 
    6.5847399996343170E-01 
    6.3719952495923748E-01 
    6.1516238672461399E-01 
    5.8835392413661058E-01 
    5.4753193003438083E-01 
    3.5581410263486146E-01 
    9.5834139570459187E-01 
    9.4130409667553194E-01 
    9.0282959524349138E-01 
    8.5703539419422969E-01 
    8.1522825896551643E-01 
    7.7982583449867293E-01 
    7.4944872424103470E-01 
    7.2269792106885633E-01 
    6.9845822445512318E-01 
    6.7622460348949742E-01 
    6.5535713992439115E-01 
    6.3521114705558923E-01 
    6.1459836939543810E-01 
    5.9023282289602430E-01 
    5.5293596348602947E-01 
    3.7523460013881216E-01 
    9.3172171272384929E-01 
    9.1644340229442667E-01 
    8.8181098618902809E-01 
    8.4049558794166490E-01 
    8.0069845512660487E-01 
    7.6598852323599542E-01 
    7.3652746268585945E-01 
    7.1118425390482665E-01 
    6.8889637746455168E-01 
    6.6884966609582996E-01 
    6.5036783668378606E-01 
    6.3248848972103466E-01 
    6.1376940668732449E-01 
    5.9155656725165273E-01 
    5.5755129796955827E-01 
    3.9156888732292344E-01 
    9.0131146243791449E-01 
    8.8844420154495785E-01 
    8.5817939337405813E-01 
    8.2057141235761677E-01 
    7.8363729099388812E-01 
    7.5059563331310875E-01 
    7.2192954910005258E-01 
    6.9746836572542759E-01 
    6.7650273002129591E-01 
    6.5830759945297901E-01 
    6.4228481196092313E-01 
    6.2762059309450713E-01 
    6.1219850720761115E-01 
    5.9255489432598130E-01 
    5.6163545066460330E-01 
    4.0648640231621802E-01 
    8.6802563995410564E-01 
    8.5817884525132249E-01 
    8.3254217695236221E-01 
    7.9880041282205982E-01 
    7.6507602722409873E-01 
    7.3438567317108761E-01 
    7.0736475686161493E-01 
    6.8366310593171498E-01 
    6.6332966057478104E-01 
    6.4619773172373507E-01 
    6.3200674857984640E-01 
    6.2015333769864955E-01 
    6.0881617660004395E-01 
    5.9317319515976985E-01 
    5.6566542898321737E-01 
    4.2121421986045138E-01 
    8.3170168899533492E-01 
    8.2530056097524962E-01 
    8.0501600310119092E-01 
    7.7578136788968510E-01 
    7.4510386442459253E-01 
    7.1663403249613666E-01 
    6.9113406646662212E-01 
    6.6878426675196134E-01 
    6.4945275343167586E-01 
    6.3324733667138977E-01 
    6.2022338839588742E-01 
    6.1052032343817153E-01 
    6.0298895343171666E-01 
    5.9264181512249636E-01 
    5.6949038162516641E-01 
    4.3608287243438815E-01 
    7.9240779397401861E-01 
    7.8944529617690695E-01 
    7.7452301481653096E-01 
    7.5020863114647818E-01 
    7.2307786412617336E-01 
    6.9680119627859749E-01 
    6.7294264178070162E-01 
    6.5183385274866068E-01 
    6.3358486939240355E-01 
    6.1830437771700997E-01 
    6.0642892526173620E-01 
    5.9853156154173870E-01 
    5.9445522724620459E-01 
    5.8998748728679895E-01 
    5.7275454572571105E-01 
    4.5032611216336937E-01 
    7.5019136517805840E-01 
    7.5050924442852285E-01 
    7.4069783222123642E-01 
    7.2112094395522830E-01 
    6.9778843780506861E-01 
    6.7418898964033358E-01 
    6.5203001463679100E-01 
    6.3243266108009499E-01 
    6.1553534312191660E-01 
    6.0130136385122090E-01 
    5.9018274805225401E-01 
    5.8357884948703243E-01 
    5.8258762810418274E-01 
    5.8436142949333902E-01 
    5.7467426332313931E-01 
    4.6448683428550142E-01 
    7.0471911278896626E-01 
    7.0813150198196217E-01 
    7.0313961868641317E-01 
    6.8799370620611466E-01 
    6.6849587938479149E-01 
    6.4809442857357580E-01 
    6.2858439725041082E-01 
    6.1067484721193477E-01 
    5.9513136258136701E-01 
    5.8215113855943978E-01 
    5.7205709971895202E-01 
    5.6604709579883172E-01 
    5.6675239726572557E-01 
    5.7457502547633854E-01 
    5.7411790346764802E-01 
    4.7883745376813941E-01 
    6.5458184064337332E-01 
    6.6105183378655352E-01 
    6.6104072092549926E-01 
    6.5044527704896282E-01 
    6.3456907903051596E-01 
    6.1716994925915214E-01 
    6.0028734665246886E-01 
    5.8496751184699047E-01 
    5.7149367817220176E-01 
    5.6014576969107921E-01 
    5.5143317135609693E-01 
    5.4657448316477231E-01 
    5.4782166133908206E-01 
    5.5935191229871772E-01 
    5.7024989625681632E-01 
    4.9225798039462115E-01 
    5.9974669813213599E-01 
    6.0859994735523615E-01 
    6.1300233794000358E-01 
    6.0714780625899611E-01 
    5.9563816982372009E-01 
    5.8172874120722906E-01 
    5.6790139211332402E-01 
    5.5490803278597101E-01 
    5.4338874998648123E-01 
    5.3370320306439478E-01 
    5.2675158247519960E-01 
    5.2352830186019150E-01 
    5.2606775266581407E-01 
    5.3896556017201669E-01 
    5.5969938068123126E-01 
    5.0309621562351747E-01 
    5.4275527437169679E-01 
    5.5364999043038166E-01 
    5.6107069634235895E-01 
    5.5949409931258121E-01 
    5.5178820667280037E-01 
    5.4062767993083205E-01 
    5.2807254563048667E-01 
    5.1615595656543356E-01 
    5.0507236749390261E-01 
    4.9592224504357746E-01 
    4.8726871754494100E-01 
    4.8464623637073118E-01 
    4.9216028164303000E-01 
    5.1128171952929702E-01 
    5.4392925154139704E-01 
    5.0991058231737840E-01 
    3.8568853438786871E-01 
    4.2576566739842525E-01 
    4.5210427065003334E-01 
    4.5987453173366916E-01 
    4.5472742017799733E-01 
    4.4064316939139936E-01 
    4.1751749169966723E-01 
    3.8411422486608726E-01 
    3.2531529639545725E-01 
    2.7506246970437964E-01 
    2.7761808782154013E-01 
    2.8310798325844611E-01 
    3.2612966255051556E-01 
    4.0331888307302022E-01 
    5.0193041824167950E-01 
    5.1169465955346316E-01 
    1.3316412354700493E-02 
    6.1560278174584475E-02 
    8.7053070984472583E-02 
    1.0371415897491411E-01 
    7.3264434928286590E-02 
    5.8666015841227021E-02 
    3.1670801519981959E-02 
    1.1811658421779126E-02 
    5.3587048590850268E-03 
    5.0149744736439775E-04 
    1.6904493787284534E-03 
    6.7364161344968818E-04 
    9.2594705466952677E-03 
    1.6361421249672817E-01 
    3.2840603292354825E-01 
    4.6060153221575567E-01 
