# vtk DataFile Version 2.0
Pressure Field Data 
ASCII 
DATASET UNSTRUCTURED_GRID 

POINTS 289 double 

    0.0000000000000000E+00     0.0000000000000000E+00     0.0000000000000000E+00 
    1.0000000000000000E+00     0.0000000000000000E+00     0.0000000000000000E+00 
    1.0000000000000000E+00     1.0000000000000000E+00     0.0000000000000000E+00 
    0.0000000000000000E+00     1.0000000000000000E+00     0.0000000000000000E+00 
    6.2499999999872928E-02     0.0000000000000000E+00     0.0000000000000000E+00 
    1.2499999999977310E-01     0.0000000000000000E+00     0.0000000000000000E+00 
    1.8749999999959341E-01     0.0000000000000000E+00     0.0000000000000000E+00 
    2.4999999999941089E-01     0.0000000000000000E+00     0.0000000000000000E+00 
    3.1249999999922851E-01     0.0000000000000000E+00     0.0000000000000000E+00 
    3.7499999999904610E-01     0.0000000000000000E+00     0.0000000000000000E+00 
    4.3749999999886358E-01     0.0000000000000000E+00     0.0000000000000000E+00 
    4.9999999999869210E-01     0.0000000000000000E+00     0.0000000000000000E+00 
    5.6249999999884603E-01     0.0000000000000000E+00     0.0000000000000000E+00 
    6.2499999999901090E-01     0.0000000000000000E+00     0.0000000000000000E+00 
    6.8749999999917577E-01     0.0000000000000000E+00     0.0000000000000000E+00 
    7.4999999999934064E-01     0.0000000000000000E+00     0.0000000000000000E+00 
    8.1249999999950551E-01     0.0000000000000000E+00     0.0000000000000000E+00 
    8.7499999999967026E-01     0.0000000000000000E+00     0.0000000000000000E+00 
    9.3749999999983513E-01     0.0000000000000000E+00     0.0000000000000000E+00 
    1.0000000000000000E+00     6.2499999999872928E-02     0.0000000000000000E+00 
    1.0000000000000000E+00     1.2499999999977310E-01     0.0000000000000000E+00 
    1.0000000000000000E+00     1.8749999999959341E-01     0.0000000000000000E+00 
    1.0000000000000000E+00     2.4999999999941089E-01     0.0000000000000000E+00 
    1.0000000000000000E+00     3.1249999999922851E-01     0.0000000000000000E+00 
    1.0000000000000000E+00     3.7499999999904610E-01     0.0000000000000000E+00 
    1.0000000000000000E+00     4.3749999999886358E-01     0.0000000000000000E+00 
    1.0000000000000000E+00     4.9999999999869210E-01     0.0000000000000000E+00 
    1.0000000000000000E+00     5.6249999999884603E-01     0.0000000000000000E+00 
    1.0000000000000000E+00     6.2499999999901090E-01     0.0000000000000000E+00 
    1.0000000000000000E+00     6.8749999999917577E-01     0.0000000000000000E+00 
    1.0000000000000000E+00     7.4999999999934064E-01     0.0000000000000000E+00 
    1.0000000000000000E+00     8.1249999999950551E-01     0.0000000000000000E+00 
    1.0000000000000000E+00     8.7499999999967026E-01     0.0000000000000000E+00 
    1.0000000000000000E+00     9.3749999999983513E-01     0.0000000000000000E+00 
    9.3749999999973976E-01     1.0000000000000000E+00     0.0000000000000000E+00 
    8.7499999999950118E-01     1.0000000000000000E+00     0.0000000000000000E+00 
    8.1249999999991318E-01     1.0000000000000000E+00     0.0000000000000000E+00 
    7.5000000000034706E-01     1.0000000000000000E+00     0.0000000000000000E+00 
    6.8750000000078049E-01     1.0000000000000000E+00     0.0000000000000000E+00 
    6.2500000000121403E-01     1.0000000000000000E+00     0.0000000000000000E+00 
    5.6250000000164757E-01     1.0000000000000000E+00     0.0000000000000000E+00 
    5.0000000000205946E-01     1.0000000000000000E+00     0.0000000000000000E+00 
    4.3750000000182099E-01     1.0000000000000000E+00     0.0000000000000000E+00 
    3.7500000000156092E-01     1.0000000000000000E+00     0.0000000000000000E+00 
    3.1250000000130068E-01     1.0000000000000000E+00     0.0000000000000000E+00 
    2.5000000000104050E-01     1.0000000000000000E+00     0.0000000000000000E+00 
    1.8750000000078040E-01     1.0000000000000000E+00     0.0000000000000000E+00 
    1.2500000000052031E-01     1.0000000000000000E+00     0.0000000000000000E+00 
    6.2500000000260125E-02     1.0000000000000000E+00     0.0000000000000000E+00 
    0.0000000000000000E+00     9.3749999999973976E-01     0.0000000000000000E+00 
    0.0000000000000000E+00     8.7499999999950118E-01     0.0000000000000000E+00 
    0.0000000000000000E+00     8.1249999999991318E-01     0.0000000000000000E+00 
    0.0000000000000000E+00     7.5000000000034706E-01     0.0000000000000000E+00 
    0.0000000000000000E+00     6.8750000000078049E-01     0.0000000000000000E+00 
    0.0000000000000000E+00     6.2500000000121403E-01     0.0000000000000000E+00 
    0.0000000000000000E+00     5.6250000000164757E-01     0.0000000000000000E+00 
    0.0000000000000000E+00     5.0000000000205946E-01     0.0000000000000000E+00 
    0.0000000000000000E+00     4.3750000000182099E-01     0.0000000000000000E+00 
    0.0000000000000000E+00     3.7500000000156092E-01     0.0000000000000000E+00 
    0.0000000000000000E+00     3.1250000000130068E-01     0.0000000000000000E+00 
    0.0000000000000000E+00     2.5000000000104050E-01     0.0000000000000000E+00 
    0.0000000000000000E+00     1.8750000000078040E-01     0.0000000000000000E+00 
    0.0000000000000000E+00     1.2500000000052031E-01     0.0000000000000000E+00 
    0.0000000000000000E+00     6.2500000000260125E-02     0.0000000000000000E+00 
    6.2499999999897131E-02     6.2500000000235922E-02     0.0000000000000000E+00 
    6.2499999999921327E-02     1.2500000000047351E-01     0.0000000000000000E+00 
    6.2499999999945530E-02     1.8750000000070621E-01     0.0000000000000000E+00 
    6.2499999999969733E-02     2.5000000000093858E-01     0.0000000000000000E+00 
    6.2499999999993928E-02     3.1250000000117117E-01     0.0000000000000000E+00 
    6.2500000000018124E-02     3.7500000000140382E-01     0.0000000000000000E+00 
    6.2500000000042327E-02     4.3750000000163619E-01     0.0000000000000000E+00 
    6.2500000000066530E-02     5.0000000000184897E-01     0.0000000000000000E+00 
    6.2500000000090733E-02     5.6250000000147260E-01     0.0000000000000000E+00 
    6.2500000000114922E-02     6.2500000000107636E-01     0.0000000000000000E+00 
    6.2500000000139125E-02     6.8750000000068034E-01     0.0000000000000000E+00 
    6.2500000000163328E-02     7.5000000000028411E-01     0.0000000000000000E+00 
    6.2500000000187531E-02     8.1249999999988787E-01     0.0000000000000000E+00 
    6.2500000000211720E-02     8.7499999999951172E-01     0.0000000000000000E+00 
    6.2500000000235922E-02     9.3749999999974565E-01     0.0000000000000000E+00 
    1.2499999999981980E-01     6.2500000000211733E-02     0.0000000000000000E+00 
    1.2499999999986650E-01     1.2500000000042691E-01     0.0000000000000000E+00 
    1.2499999999991319E-01     1.8750000000063199E-01     0.0000000000000000E+00 
    1.2499999999995989E-01     2.5000000000083678E-01     0.0000000000000000E+00 
    1.2500000000000661E-01     3.1250000000104172E-01     0.0000000000000000E+00 
    1.2500000000005329E-01     3.7500000000124661E-01     0.0000000000000000E+00 
    1.2500000000010000E-01     4.3750000000145117E-01     0.0000000000000000E+00 
    1.2500000000014669E-01     5.0000000000163858E-01     0.0000000000000000E+00 
    1.2500000000019340E-01     5.6250000000129741E-01     0.0000000000000000E+00 
    1.2500000000024011E-01     6.2500000000093847E-01     0.0000000000000000E+00 
    1.2500000000028680E-01     6.8750000000057998E-01     0.0000000000000000E+00 
    1.2500000000033351E-01     7.5000000000022127E-01     0.0000000000000000E+00 
    1.2500000000038020E-01     8.1249999999986211E-01     0.0000000000000000E+00 
    1.2500000000042691E-01     8.7499999999952238E-01     0.0000000000000000E+00 
    1.2500000000047359E-01     9.3749999999975164E-01     0.0000000000000000E+00 
    1.8749999999966760E-01     6.2500000000187531E-02     0.0000000000000000E+00 
    1.8749999999974179E-01     1.2500000000038020E-01     0.0000000000000000E+00 
    1.8749999999981601E-01     1.8750000000055780E-01     0.0000000000000000E+00 
    1.8749999999989009E-01     2.5000000000073502E-01     0.0000000000000000E+00 
    1.8749999999996431E-01     3.1250000000091221E-01     0.0000000000000000E+00 
    1.8750000000003850E-01     3.7500000000108941E-01     0.0000000000000000E+00 
    1.8750000000011269E-01     4.3750000000126649E-01     0.0000000000000000E+00 
    1.8750000000018691E-01     5.0000000000142808E-01     0.0000000000000000E+00 
    1.8750000000026110E-01     5.6250000000112244E-01     0.0000000000000000E+00 
    1.8750000000033529E-01     6.2500000000080080E-01     0.0000000000000000E+00 
    1.8750000000040951E-01     6.8750000000047962E-01     0.0000000000000000E+00 
    1.8750000000048361E-01     7.5000000000015843E-01     0.0000000000000000E+00 
    1.8750000000055780E-01     8.1249999999983680E-01     0.0000000000000000E+00 
    1.8750000000063199E-01     8.7499999999953304E-01     0.0000000000000000E+00 
    1.8750000000070621E-01     9.3749999999975764E-01     0.0000000000000000E+00 
    2.4999999999951281E-01     6.2500000000163314E-02     0.0000000000000000E+00 
    2.4999999999961461E-01     1.2500000000033351E-01     0.0000000000000000E+00 
    2.4999999999971650E-01     1.8750000000048361E-01     0.0000000000000000E+00 
    2.4999999999981831E-01     2.5000000000063310E-01     0.0000000000000000E+00 
    2.4999999999992020E-01     3.1250000000078260E-01     0.0000000000000000E+00 
    2.5000000000002198E-01     3.7500000000093209E-01     0.0000000000000000E+00 
    2.5000000000012390E-01     4.3750000000108180E-01     0.0000000000000000E+00 
    2.5000000000022571E-01     5.0000000000121769E-01     0.0000000000000000E+00 
    2.5000000000032763E-01     5.6250000000094724E-01     0.0000000000000000E+00 
    2.5000000000042938E-01     6.2500000000066314E-01     0.0000000000000000E+00 
    2.5000000000053119E-01     6.8750000000037925E-01     0.0000000000000000E+00 
[...]
CELL_DATA 256 
SCALARS Pressure double 1 
LOOKUP_TABLE default 

    6.9812562237785136E-01 
    6.4813911115455614E-01 
    6.1612916810944374E-01 
    5.8708807985129874E-01 
    5.5761241416194152E-01 
    5.2686525721621025E-01 
    4.9459613288180643E-01 
    4.6086158440030256E-01 
    4.2594547060413152E-01 
    3.9039485538635332E-01 
    3.5513875282752949E-01 
    3.2164798196815275E-01 
    2.9202876116180027E-01 
    2.6883405720465542E-01 
    2.5403230036417790E-01 
    2.4684310420310049E-01 
    6.8414554154197094E-01 
    6.4943350972001279E-01 
    6.1853401767537630E-01 
    5.8972729536625057E-01 
    5.6044532091638100E-01 
    5.2987929613748652E-01 
    4.9777430823964414E-01 
    4.6416767140317000E-01 
    4.2931431937467512E-01 
    3.9371865835876518E-01 
    3.5824969617583802E-01 
    3.2430927497786316E-01 
    2.9396289372846013E-01 
    2.6982788517824940E-01 
    2.5414587719869774E-01 
    2.4640558615987695E-01 
    6.7341690364558859E-01 
    6.4858911027371702E-01 
    6.2018633341920626E-01 
    5.9203417428146410E-01 
    5.6308292523033809E-01 
    5.3275052486346097E-01 
    5.0082934254732114E-01 
    4.6735193545714110E-01 
    4.3254385921862420E-01 
    3.9685884559383089E-01 
    3.6109172444221249E-01 
    3.2655905169500249E-01 
    2.9528166933662992E-01 
    2.6997634328307230E-01 
    2.5325921411261459E-01 
    2.4500815210308322E-01 
    6.6498705602460595E-01 
    6.4666482755663490E-01 
    6.2112732629630385E-01 
    5.9398663069552571E-01 
    5.6551868978147335E-01 
    5.3548436313982295E-01 
    5.0377191716139591E-01 
    4.7042827411808191E-01 
    4.3565427602398382E-01 
    3.9984748032737438E-01 
    3.6371437257016953E-01 
    3.2846421953030763E-01 
    2.9605342654260003E-01 
    2.6931221229566688E-01 
    2.5132512879817515E-01 
    2.4250959115198295E-01 
    6.5821326256408130E-01 
    6.4425198625818059E-01 
    6.2148984264990104E-01 
    5.9559288915721365E-01 
    5.6774918650122508E-01 
    5.3808465347194190E-01 
    5.0661343577483275E-01 
    4.7341395409730203E-01 
    4.3867001289051294E-01 
    4.0272095091306265E-01 
    3.6617199995873018E-01 
    3.3009895952976381E-01 
    2.9635753038959878E-01 
    2.6787737996316668E-01 
    2.4829378493309787E-01 
    2.3876095708653022E-01 
    6.5269616742614689E-01 
    6.4169535066522376E-01 
    6.2142479755241675E-01 
    5.9688601124636331E-01 
    5.6977900641502954E-01 
    5.4055469291389502E-01 
    5.0936351277331970E-01 
    4.7632679571267672E-01 
    4.4161831871962842E-01 
    4.0551951141124332E-01 
    3.6852390524415929E-01 
    3.3154521496754047E-01 
    2.9628665736223292E-01 
    2.6572892894943656E-01 
    2.4411340331664377E-01 
    2.3358541327656257E-01 
    6.4817429111911229E-01 
    6.3920503980835353E-01 
    6.2108115761896709E-01 
    5.9792089339976673E-01 
    5.7162806822270418E-01 
    5.4290433238040137E-01 
    5.1203202756141497E-01 
    4.7918289175470463E-01 
    4.4452579930621566E-01 
    4.0828507516288182E-01 
    3.7083374384191564E-01 
    3.3289408201514109E-01 
    2.9595054053696368E-01 
    2.6294726273186175E-01 
    2.3874006106358772E-01 
    2.2678109879829794E-01 
    6.4446207012997325E-01 
    6.3690554077990336E-01 
    6.2059001833508809E-01 
    5.9876315157213200E-01 
    5.7332711004611492E-01 
    5.4515028244922004E-01 
    5.1463166682491379E-01 
    4.8199683344952526E-01 
    4.4741592989644130E-01 
    4.1105683522678865E-01 
    3.7316624082794847E-01 
    3.3424597843617698E-01 
    2.9548141733363736E-01 
    2.5964674148085437E-01 
    2.3214965031357174E-01 
    2.1811291122013726E-01 
    6.4142695447992093E-01 
    6.3486768636459734E-01 
    6.2005852721551069E-01 
    5.9948046387046028E-01 
    5.7491173733112377E-01 
    5.4731291034078566E-01 
    5.1717682044208835E-01 
    4.8478231947760692E-01 
    4.5030704487111822E-01 
    4.1386689742780780E-01 
    3.7558096290469578E-01 
    3.3570625083424244E-01 
    2.9503711222880935E-01 
    2.5598712263812878E-01 
    2.2434324147043117E-01 
    2.0728065074977139E-01 
    6.3897204275129960E-01 
    6.3312750143294105E-01 
    6.1956769312336502E-01 
    6.0013523372841526E-01 
    5.7642016861399503E-01 
    5.4941555123276042E-01 
    5.1968354714349796E-01 
    4.8755284974363622E-01 
    4.5321452597467721E-01 
    4.1674031226181824E-01 
    3.7812824297864711E-01 
    3.3737815712866137E-01 
    2.9479902241864148E-01 
    2.5218931923649718E-01 
    2.1536845224829579E-01 
    1.9388239810467994E-01 
    6.3702478446638222E-01 
    6.3170273260603194E-01 
    6.1918171952234791E-01 
    6.0078623303457468E-01 
    5.7789383040347397E-01 
    5.5148628397565225E-01 
    5.2217167085977367E-01 
    4.9032397471151085E-01 
    4.5615414395103154E-01 
    4.1969882680829140E-01 
    3.8084984995534638E-01 
    3.3935882854838584E-01 
    2.9497003264762195E-01 
    2.4855414834915726E-01 
    2.0536699468172362E-01 
    1.7739271160476039E-01 
    6.3552658783336136E-01 
    6.3060282576529336E-01 
    6.1895431739996576E-01 
    6.0148913413036420E-01 
    5.7937670819553033E-01 
    5.5355861926139882E-01 
    5.2466715131657260E-01 
    4.9311531348480897E-01 
    4.5914432062886218E-01 
    4.2276365880463773E-01 
    3.8378006525521002E-01 
    3.4173425304382288E-01 
    2.9576962372104570E-01 
    2.4547712138940533E-01 
    1.9462658770207575E-01 
    1.5707047193942458E-01 
    6.3444029870071839E-01 
    6.2984135326289636E-01 
    6.1893567692205520E-01 
    6.0229988631108189E-01 
    5.8091610488346113E-01 
    5.5567110550284426E-01 
    5.2720091367480859E-01 
    4.9594984449639751E-01 
    4.6220368086461017E-01 
    4.2595299152392707E-01 
    3.8694200164426851E-01 
    3.4456774181386063E-01 
    2.9741172404116939E-01 
    2.4348346643756455E-01 
    1.8375689773020096E-01 
    1.3183820948855493E-01 
    6.3373621091269772E-01 
    6.2943172896167299E-01 
    6.1917132112932050E-01 
    6.0327235529059398E-01 
    5.8255897969911508E-01 
    5.5786051961626593E-01 
    5.2980113220229130E-01 
    4.9884276839635622E-01 
    4.6532876767927067E-01 
    4.2924832622724296E-01 
    3.9030691910761939E-01 
    3.4783978885472139E-01 
    3.0000980931209953E-01 
    2.4314102440775623E-01 
    1.7390313353807552E-01 
    1.0008373165883341E-01 
    6.3326150538653792E-01 
    6.2927153056225982E-01 
    6.1961602967778295E-01 
    6.0438341093875003E-01 
    5.8427303135981112E-01 
    5.6008068177910375E-01 
    5.3241863052331573E-01 
    5.0174647798598104E-01 
    4.6845854465077724E-01 
    4.3257075981053972E-01 
    3.9377514982035206E-01 
    3.5139408957787904E-01 
    3.0341118524969224E-01 
    2.4471048627043218E-01 
    1.6667823803321768E-01 
    5.8783764619182319E-02 
    6.3309197913238369E-01 
    6.2943304586988402E-01 
    6.2033852446445736E-01 
    6.0569531856248182E-01 
    5.8610899969221264E-01 
    5.6236468278421026E-01 
    5.3508289516377305E-01 
    5.0471278061151215E-01 
    4.7167512797147304E-01 
    4.3602533389147852E-01 
    3.9747698567736112E-01 
    3.5537774940731326E-01 
    3.0785066398157201E-01 
    2.4905820231075726E-01 
    1.6604532450353474E-01 
    0.0000000000000000E+00 

SCALARS Saturarion double 1 
LOOKUP_TABLE default 

    1.0000000000000007E+00 
    9.7627358112332308E-01 
    9.3303012653581829E-01 
    8.7556958837669419E-01 
    8.2736137874217208E-01 
    7.8506397444286402E-01 
    7.4840766326562513E-01 
    7.1669103958849845E-01 
    6.8878951581607140E-01 
    6.6352046132361575E-01 
    6.3968874600557979E-01 
    6.1590353460138014E-01 
    5.9008874640647790E-01 
    5.5905810803510703E-01 
    5.0216065052081182E-01 
    2.1438036141178754E-01 
    9.9104279110706639E-01 
    9.6857387666907835E-01 
    9.2326335267662984E-01 
    8.6854351458206180E-01 
    8.2203382584970641E-01 
    7.8138492502473555E-01 
    7.4580926479305687E-01 
    7.1463655691382266E-01 
    6.8707237041143487E-01 
    6.6212258044033101E-01 
    6.3883399810147845E-01 
    6.1593848460352463E-01 
    5.9126411317042293E-01 
    5.6120664987952440E-01 
    5.0734601081859276E-01 
    2.4504548361471346E-01 
    9.7690646853935892E-01 
    9.5444287787349902E-01 
    9.0897022055095777E-01 
    8.5608467638346286E-01 
    8.1158097949807995E-01 
    7.7366951311517573E-01 
    7.4035018365924177E-01 
    7.1041566925685340E-01 
    6.8340649785256846E-01 
    6.5881081906991845E-01 
    6.3609282082720675E-01 
    6.1428016524186879E-01 
    5.9146482409939372E-01 
    5.6369969652138341E-01 
    5.1416083025467563E-01 
    2.7307121355388375E-01 
    9.5223570127015877E-01 
    9.3332714890755031E-01 
    8.9155132047118435E-01 
    8.4278493144999389E-01 
    7.9909589848790130E-01 
    7.6251963011448998E-01 
    7.3108652720391076E-01 
    7.0317983016571950E-01 
    6.7775272153690935E-01 
    6.5447163269191500E-01 
    6.3279293099287071E-01 
    6.1208506878312019E-01 
    5.9092782386201970E-01 
    5.6574424122687861E-01 
    5.2083394900128954E-01 
    3.0014339029472081E-01 
    9.2210698627088583E-01 
    9.0548949884375807E-01 
    8.6833011319644926E-01 
    8.2442337197858695E-01 
    7.8299432216171216E-01 
    7.4747466478995817E-01 
    7.1749839743546961E-01 
    6.9156789494871262E-01 
    6.6852661271055558E-01 
    6.4761994934100620E-01 
    6.2825524342677908E-01 
    6.0956886513385322E-01 
    5.9017746957634731E-01 
    5.6723931796772509E-01 
    5.2699968713244827E-01 
    3.2192324318148241E-01 
    8.8857381465453944E-01 
    8.7476474468720267E-01 
    8.4250884932497661E-01 
    8.0293872331246041E-01 
    7.6478376099363854E-01 
    7.3110350670468272E-01 
    7.0206285322799378E-01 
    6.7734464157166041E-01 
    6.5612457530273582E-01 
    6.3755065856652726E-01 
    6.2090582720507725E-01 
    6.0535900380789287E-01 
    5.8895604941805291E-01 
    5.6840944858750220E-01 
    5.3248900808477406E-01 
    3.4137645186591981E-01 
    8.5241287810783284E-01 
    8.4197279215772414E-01 
    8.1495918735545847E-01 
    7.7985804126316915E-01 
    7.4525758618830362E-01 
    7.1403094838040448E-01 
    6.8667966251446422E-01 
    6.6282505559758376E-01 
    6.4250708669272050E-01 
    6.2542846367037075E-01 
    6.1109175776566105E-01 
    5.9863151186240360E-01 
    5.8619940636430523E-01 
    5.6932718681680172E-01 
    5.3745503174501597E-01 
    3.6031662356647243E-01 
    8.1344258951910287E-01 
    8.0680879148513496E-01 
    7.8577527043665107E-01 
    7.5566754084079757E-01 
    7.2432070246542457E-01 
    6.9540524987148311E-01 
    6.6966183270054791E-01 
    6.4726436178684477E-01 
    6.2803641404437605E-01 
    6.1204610807347148E-01 
    5.9924643093750962E-01 
    5.8945732762752023E-01 
    5.8108989530365773E-01 
    5.6929340343024215E-01 
    5.4237645889453256E-01 
    3.7937083111923109E-01 
    7.7187597443611378E-01 
    7.6892511854152112E-01 
    7.5370418245885307E-01 
    7.2891205230932721E-01 
    7.0133868175858816E-01 
    6.7477883822506013E-01 
    6.5082155884868165E-01 
    6.2972718727010291E-01 
    6.1154920924630363E-01 
    5.9643945158572165E-01 
    5.8491321822573450E-01 
    5.7742289008721603E-01 
    5.7315079486589560E-01 
    5.6730566767103396E-01 
    5.4652535330472651E-01 
    3.9726572554531436E-01 
    7.2773211634109980E-01 
    7.2820584336406002E-01 
    7.1838710896592828E-01 
    6.9862762028802505E-01 
    6.7511395194597656E-01 
    6.5148030142681346E-01 
    6.2943655930442266E-01 
    6.0995680072367897E-01 
    5.9305606043995085E-01 
    5.7879796782825765E-01 
    5.6788553328103419E-01 
    5.6188157526603000E-01 
    5.6146229723622110E-01 
    5.6244328533303656E-01 
    5.4952531056051401E-01 
    4.1474830303351007E-01 
    6.8064331680107759E-01 
    6.8428173757005617E-01 
    6.7946067267920351E-01 
    6.6437139971844761E-01 
    6.4497749528980386E-01 
    6.2486816670193623E-01 
    6.0577618563800950E-01 
    5.8815590170572407E-01 
    5.7263834534208546E-01 
    5.5957358330308815E-01 
    5.4951098148281163E-01 
    5.4387194959992036E-01 
    5.4537478835544395E-01 
    5.5330655829617881E-01 
    5.5022491351517155E-01 
    4.3235807044147306E-01 
    6.2945537957375586E-01 
    6.3607710634449666E-01 
    6.3632617626930921E-01 
    6.2604125205693817E-01 
    6.1066180054738151E-01 
    5.9401255285402577E-01 
    5.7789831444647188E-01 
    5.6301558751520220E-01 
    5.4966990584070441E-01 
    5.3846455606229671E-01 
    5.2987606302724111E-01 
    5.2498749743730244E-01 
    5.2647187383772898E-01 
    5.3847384730327308E-01 
    5.4557127633396618E-01 
    4.4898213969389605E-01 
    5.7644313585236429E-01 
    5.8484990466306574E-01 
    5.8916887460760292E-01 
    5.8378958156722738E-01 
    5.7293227610745789E-01 
    5.5970524138726163E-01 
    5.4655826430520049E-01 
    5.3408338037055825E-01 
    5.2267968910390716E-01 
    5.1264191383020508E-01 
    5.0527184737868147E-01 
    5.0206524697551635E-01 
    5.0496798302837331E-01 
    5.1834287233699528E-01 
    5.3737112299769352E-01 
    4.6311316957554860E-01 
    5.1461547908900629E-01 
    5.2786086425160506E-01 
    5.3560138575944927E-01 
    5.3534115352091260E-01 
    5.2717781615151493E-01 
    5.1578883296257361E-01 
    5.0274769186250812E-01 
    4.9117778244901061E-01 
    4.7779042904634772E-01 
    4.5897004914972112E-01 
    4.4469089029728187E-01 
    4.4053476316768703E-01 
    4.4886978279412637E-01 
    4.8114054760777242E-01 
    5.2098583652567543E-01 
    4.7295479089262582E-01 
    2.6827555010100923E-01 
    3.4833324899011131E-01 
    3.9071521964957512E-01 
    3.9906583733557333E-01 
    3.8329813542876884E-01 
    3.4680648336974884E-01 
    2.9678832629398538E-01 
    2.4615109110486083E-01 
    2.2074370889859060E-01 
    1.6894792540456763E-01 
    1.3831111032681720E-01 
    1.2058077083135219E-01 
    1.5587330396088869E-01 
    2.9893244825275594E-01 
    4.6039461151306538E-01 
    4.7396236602312564E-01 
    2.0258807487914492E-04 
    1.2045988071402549E-02 
    2.5423999430803191E-02 
    2.5205614640995671E-02 
    2.0446057178577781E-02 
    4.9909098374271519E-03 
    2.5439570231693505E-03 
    1.1942612501208715E-04 
    2.1075389947185783E-04 
    1.3290476374349278E-05 
    1.7003953427141913E-05 
    1.2901073740718139E-05 
    2.6487737742842462E-04 
    8.6181870436327773E-02 
    2.8725406982315110E-01 
    4.2375780160400750E-01 
