# vtk DataFile Version 2.0
Pressure Field Data 
ASCII 
DATASET UNSTRUCTURED_GRID 

POINTS 289 double 

    0.0000000000000000E+00     0.0000000000000000E+00     0.0000000000000000E+00 
    1.0000000000000000E+00     0.0000000000000000E+00     0.0000000000000000E+00 
    1.0000000000000000E+00     1.0000000000000000E+00     0.0000000000000000E+00 
    0.0000000000000000E+00     1.0000000000000000E+00     0.0000000000000000E+00 
    6.2499999999872928E-02     0.0000000000000000E+00     0.0000000000000000E+00 
    1.2499999999977310E-01     0.0000000000000000E+00     0.0000000000000000E+00 
    1.8749999999959341E-01     0.0000000000000000E+00     0.0000000000000000E+00 
    2.4999999999941089E-01     0.0000000000000000E+00     0.0000000000000000E+00 
    3.1249999999922851E-01     0.0000000000000000E+00     0.0000000000000000E+00 
    3.7499999999904610E-01     0.0000000000000000E+00     0.0000000000000000E+00 
    4.3749999999886358E-01     0.0000000000000000E+00     0.0000000000000000E+00 
    4.9999999999869210E-01     0.0000000000000000E+00     0.0000000000000000E+00 
    5.6249999999884603E-01     0.0000000000000000E+00     0.0000000000000000E+00 
    6.2499999999901090E-01     0.0000000000000000E+00     0.0000000000000000E+00 
    6.8749999999917577E-01     0.0000000000000000E+00     0.0000000000000000E+00 
    7.4999999999934064E-01     0.0000000000000000E+00     0.0000000000000000E+00 
    8.1249999999950551E-01     0.0000000000000000E+00     0.0000000000000000E+00 
    8.7499999999967026E-01     0.0000000000000000E+00     0.0000000000000000E+00 
    9.3749999999983513E-01     0.0000000000000000E+00     0.0000000000000000E+00 
    1.0000000000000000E+00     6.2499999999872928E-02     0.0000000000000000E+00 
    1.0000000000000000E+00     1.2499999999977310E-01     0.0000000000000000E+00 
    1.0000000000000000E+00     1.8749999999959341E-01     0.0000000000000000E+00 
    1.0000000000000000E+00     2.4999999999941089E-01     0.0000000000000000E+00 
    1.0000000000000000E+00     3.1249999999922851E-01     0.0000000000000000E+00 
    1.0000000000000000E+00     3.7499999999904610E-01     0.0000000000000000E+00 
    1.0000000000000000E+00     4.3749999999886358E-01     0.0000000000000000E+00 
    1.0000000000000000E+00     4.9999999999869210E-01     0.0000000000000000E+00 
    1.0000000000000000E+00     5.6249999999884603E-01     0.0000000000000000E+00 
    1.0000000000000000E+00     6.2499999999901090E-01     0.0000000000000000E+00 
    1.0000000000000000E+00     6.8749999999917577E-01     0.0000000000000000E+00 
    1.0000000000000000E+00     7.4999999999934064E-01     0.0000000000000000E+00 
    1.0000000000000000E+00     8.1249999999950551E-01     0.0000000000000000E+00 
    1.0000000000000000E+00     8.7499999999967026E-01     0.0000000000000000E+00 
    1.0000000000000000E+00     9.3749999999983513E-01     0.0000000000000000E+00 
    9.3749999999973976E-01     1.0000000000000000E+00     0.0000000000000000E+00 
    8.7499999999950118E-01     1.0000000000000000E+00     0.0000000000000000E+00 
    8.1249999999991318E-01     1.0000000000000000E+00     0.0000000000000000E+00 
    7.5000000000034706E-01     1.0000000000000000E+00     0.0000000000000000E+00 
    6.8750000000078049E-01     1.0000000000000000E+00     0.0000000000000000E+00 
    6.2500000000121403E-01     1.0000000000000000E+00     0.0000000000000000E+00 
    5.6250000000164757E-01     1.0000000000000000E+00     0.0000000000000000E+00 
    5.0000000000205946E-01     1.0000000000000000E+00     0.0000000000000000E+00 
    4.3750000000182099E-01     1.0000000000000000E+00     0.0000000000000000E+00 
    3.7500000000156092E-01     1.0000000000000000E+00     0.0000000000000000E+00 
    3.1250000000130068E-01     1.0000000000000000E+00     0.0000000000000000E+00 
    2.5000000000104050E-01     1.0000000000000000E+00     0.0000000000000000E+00 
    1.8750000000078040E-01     1.0000000000000000E+00     0.0000000000000000E+00 
    1.2500000000052031E-01     1.0000000000000000E+00     0.0000000000000000E+00 
    6.2500000000260125E-02     1.0000000000000000E+00     0.0000000000000000E+00 
    0.0000000000000000E+00     9.3749999999973976E-01     0.0000000000000000E+00 
    0.0000000000000000E+00     8.7499999999950118E-01     0.0000000000000000E+00 
    0.0000000000000000E+00     8.1249999999991318E-01     0.0000000000000000E+00 
    0.0000000000000000E+00     7.5000000000034706E-01     0.0000000000000000E+00 
    0.0000000000000000E+00     6.8750000000078049E-01     0.0000000000000000E+00 
    0.0000000000000000E+00     6.2500000000121403E-01     0.0000000000000000E+00 
    0.0000000000000000E+00     5.6250000000164757E-01     0.0000000000000000E+00 
    0.0000000000000000E+00     5.0000000000205946E-01     0.0000000000000000E+00 
    0.0000000000000000E+00     4.3750000000182099E-01     0.0000000000000000E+00 
    0.0000000000000000E+00     3.7500000000156092E-01     0.0000000000000000E+00 
    0.0000000000000000E+00     3.1250000000130068E-01     0.0000000000000000E+00 
    0.0000000000000000E+00     2.5000000000104050E-01     0.0000000000000000E+00 
    0.0000000000000000E+00     1.8750000000078040E-01     0.0000000000000000E+00 
    0.0000000000000000E+00     1.2500000000052031E-01     0.0000000000000000E+00 
    0.0000000000000000E+00     6.2500000000260125E-02     0.0000000000000000E+00 
    6.2499999999897131E-02     6.2500000000235922E-02     0.0000000000000000E+00 
    6.2499999999921327E-02     1.2500000000047351E-01     0.0000000000000000E+00 
    6.2499999999945530E-02     1.8750000000070621E-01     0.0000000000000000E+00 
    6.2499999999969733E-02     2.5000000000093858E-01     0.0000000000000000E+00 
    6.2499999999993928E-02     3.1250000000117117E-01     0.0000000000000000E+00 
    6.2500000000018124E-02     3.7500000000140382E-01     0.0000000000000000E+00 
    6.2500000000042327E-02     4.3750000000163619E-01     0.0000000000000000E+00 
    6.2500000000066530E-02     5.0000000000184897E-01     0.0000000000000000E+00 
    6.2500000000090733E-02     5.6250000000147260E-01     0.0000000000000000E+00 
    6.2500000000114922E-02     6.2500000000107636E-01     0.0000000000000000E+00 
    6.2500000000139125E-02     6.8750000000068034E-01     0.0000000000000000E+00 
    6.2500000000163328E-02     7.5000000000028411E-01     0.0000000000000000E+00 
    6.2500000000187531E-02     8.1249999999988787E-01     0.0000000000000000E+00 
    6.2500000000211720E-02     8.7499999999951172E-01     0.0000000000000000E+00 
    6.2500000000235922E-02     9.3749999999974565E-01     0.0000000000000000E+00 
    1.2499999999981980E-01     6.2500000000211733E-02     0.0000000000000000E+00 
    1.2499999999986650E-01     1.2500000000042691E-01     0.0000000000000000E+00 
    1.2499999999991319E-01     1.8750000000063199E-01     0.0000000000000000E+00 
    1.2499999999995989E-01     2.5000000000083678E-01     0.0000000000000000E+00 
    1.2500000000000661E-01     3.1250000000104172E-01     0.0000000000000000E+00 
    1.2500000000005329E-01     3.7500000000124661E-01     0.0000000000000000E+00 
    1.2500000000010000E-01     4.3750000000145117E-01     0.0000000000000000E+00 
    1.2500000000014669E-01     5.0000000000163858E-01     0.0000000000000000E+00 
    1.2500000000019340E-01     5.6250000000129741E-01     0.0000000000000000E+00 
    1.2500000000024011E-01     6.2500000000093847E-01     0.0000000000000000E+00 
    1.2500000000028680E-01     6.8750000000057998E-01     0.0000000000000000E+00 
    1.2500000000033351E-01     7.5000000000022127E-01     0.0000000000000000E+00 
    1.2500000000038020E-01     8.1249999999986211E-01     0.0000000000000000E+00 
    1.2500000000042691E-01     8.7499999999952238E-01     0.0000000000000000E+00 
    1.2500000000047359E-01     9.3749999999975164E-01     0.0000000000000000E+00 
    1.8749999999966760E-01     6.2500000000187531E-02     0.0000000000000000E+00 
    1.8749999999974179E-01     1.2500000000038020E-01     0.0000000000000000E+00 
    1.8749999999981601E-01     1.8750000000055780E-01     0.0000000000000000E+00 
    1.8749999999989009E-01     2.5000000000073502E-01     0.0000000000000000E+00 
    1.8749999999996431E-01     3.1250000000091221E-01     0.0000000000000000E+00 
    1.8750000000003850E-01     3.7500000000108941E-01     0.0000000000000000E+00 
    1.8750000000011269E-01     4.3750000000126649E-01     0.0000000000000000E+00 
    1.8750000000018691E-01     5.0000000000142808E-01     0.0000000000000000E+00 
    1.8750000000026110E-01     5.6250000000112244E-01     0.0000000000000000E+00 
    1.8750000000033529E-01     6.2500000000080080E-01     0.0000000000000000E+00 
    1.8750000000040951E-01     6.8750000000047962E-01     0.0000000000000000E+00 
    1.8750000000048361E-01     7.5000000000015843E-01     0.0000000000000000E+00 
    1.8750000000055780E-01     8.1249999999983680E-01     0.0000000000000000E+00 
    1.8750000000063199E-01     8.7499999999953304E-01     0.0000000000000000E+00 
    1.8750000000070621E-01     9.3749999999975764E-01     0.0000000000000000E+00 
    2.4999999999951281E-01     6.2500000000163314E-02     0.0000000000000000E+00 
    2.4999999999961461E-01     1.2500000000033351E-01     0.0000000000000000E+00 
    2.4999999999971650E-01     1.8750000000048361E-01     0.0000000000000000E+00 
    2.4999999999981831E-01     2.5000000000063310E-01     0.0000000000000000E+00 
    2.4999999999992020E-01     3.1250000000078260E-01     0.0000000000000000E+00 
    2.5000000000002198E-01     3.7500000000093209E-01     0.0000000000000000E+00 
    2.5000000000012390E-01     4.3750000000108180E-01     0.0000000000000000E+00 
    2.5000000000022571E-01     5.0000000000121769E-01     0.0000000000000000E+00 
    2.5000000000032763E-01     5.6250000000094724E-01     0.0000000000000000E+00 
    2.5000000000042938E-01     6.2500000000066314E-01     0.0000000000000000E+00 
    2.5000000000053119E-01     6.8750000000037925E-01     0.0000000000000000E+00 
[...]
CELL_DATA 256 
SCALARS Pressure double 1 
LOOKUP_TABLE default 

    7.5363255446803490E-01 
    7.0300583311172771E-01 
    6.6999044787311102E-01 
    6.3961948381281908E-01 
    6.0853472080320992E-01 
    5.7594124002010927E-01 
    5.4162456393206160E-01 
    5.0567629945475856E-01 
    4.6842014039636987E-01 
    4.3045877772424412E-01 
    3.9280308593549967E-01 
    3.5704469352823437E-01 
    3.2547202689830806E-01 
    3.0087359872332758E-01 
    2.8472626313886179E-01 
    2.7692858248645907E-01 
    7.3967045205027238E-01 
    7.0437028560252557E-01 
    6.7249588719950126E-01 
    6.4238388494159948E-01 
    6.1151642097346359E-01 
    5.7912797174571973E-01 
    5.4499716236043760E-01 
    5.0919320243207900E-01 
    4.7200794031463722E-01 
    4.3399843377269620E-01 
    3.9611227491695761E-01 
    3.5986767376214435E-01 
    3.2750864129429313E-01 
    3.0191201594960898E-01 
    2.8487589953621861E-01 
    2.7649216711520502E-01 
    7.2895030897161295E-01 
    7.0357605745852436E-01 
    6.7422906422438766E-01 
    6.4479537625828587E-01 
    6.1428060700879195E-01 
    5.8214961364743723E-01 
    5.4822617936485252E-01 
    5.1256982274596974E-01 
    4.7543801171946715E-01 
    4.3733265474447353E-01 
    3.9912293858615466E-01 
    3.6223684645142196E-01 
    3.2886926900991592E-01 
    3.0201507539493322E-01 
    2.8393231784477402E-01 
    2.7501119940769309E-01 
    7.2050071702381024E-01 
    7.0167740870344963E-01 
    6.7522894223023489E-01 
    6.4683365168132456E-01 
    6.1682462113546421E-01 
    5.8501412473937531E-01 
    5.5132247780108701E-01 
    5.1581919576682600E-01 
    4.7873067527794017E-01 
    4.4049614262024200E-01 
    4.0189011956648435E-01 
    3.6422625470242176E-01 
    3.2962834796611784E-01 
    3.0121816478032643E-01 
    2.8182514301916173E-01 
    2.7228973227160330E-01 
    7.1367306805095543E-01 
    6.9926048935482077E-01 
    6.7562629923087902E-01 
    6.4850640511887103E-01 
    6.1914725655580927E-01 
    5.8772907694878185E-01 
    5.5430050038028034E-01 
    5.1896049662701849E-01 
    4.8191217790679491E-01 
    4.4352843376644630E-01 
    4.0447393429924888E-01 
    3.6591840644829432E-01 
    3.2987366435167326E-01 
    2.9956826298982026E-01 
    2.7849096908519783E-01 
    2.6814404071560288E-01 
    7.0807968205811556E-01 
    6.9667383204719158E-01 
    6.7557317987113219E-01 
    6.4984733349779555E-01 
    6.2125480714772086E-01 
    5.9030131461854407E-01 
    5.5717453412904516E-01 
    5.2201632557756883E-01 
    4.8501397726864343E-01 
    4.4647357901627210E-01 
    4.0693862926418184E-01 
    3.6740331512449231E-01 
    3.2970803953351630E-01 
    2.9712870886494214E-01 
    2.7387087652282510E-01 
    2.6237866757652539E-01 
    7.0346988034247615E-01 
    6.9413526758690836E-01 
    6.7522363384438278E-01 
    6.5091492958919928E-01 
    6.2316940430077938E-01 
    5.9274286059017944E-01 
    5.5995806468865295E-01 
    5.2500808868436255E-01 
    4.8806852474185158E-01 
    4.4937854647910735E-01 
    4.0935249527215528E-01 
    3.6877922087650783E-01 
    3.2925267333084257E-01 
    2.9399036936058026E-01 
    2.6791741722093027E-01 
    2.5476657488304699E-01 
    6.9966495263030304E-01 
    6.9177684705184295E-01 
    6.7471484646704682E-01 
    6.5177876934254764E-01 
    6.2492377704985191E-01 
    5.9507163024143372E-01 
    5.6266580482449391E-01 
    5.2795434984447309E-01 
    4.9110529384053686E-01 
    4.5228904245546941E-01 
    4.1178628647110477E-01 
    3.7015409266885613E-01 
    3.2865273547431861E-01 
    2.9028385708179477E-01 
    2.6061129297221963E-01 
    2.4504950196319103E-01 
    6.9653848978710009E-01 
    6.8967630851192274E-01 
    6.7415950731892482E-01 
    6.5251025601221102E-01 
    6.2655573444178692E-01 
    5.9730923737199559E-01 
    5.6531300178995836E-01 
    5.3087065330731575E-01 
    4.9414680135892397E-01 
    4.5524377642295855E-01 
    4.1430739422070051E-01 
    3.7164280631919222E-01 
    3.2808129902409322E-01 
    2.8619023918084585E-01 
    2.5196093506300909E-01 
    2.3289644831813239E-01 
    6.9399796878844988E-01 
    6.8787472825216212E-01 
    6.7364297412962093E-01 
    6.5317542166265818E-01 
    6.2810653949721018E-01 
    5.9948093606327335E-01 
    5.6791608282703909E-01 
    5.3377074259141821E-01 
    4.9721087874875125E-01 
    4.5827375372188939E-01 
    4.1697514085495435E-01 
    3.7336060089623818E-01 
    3.2773790196996416E-01 
    2.8195789673013189E-01 
    2.4202499710761616E-01 
    2.1785861489834815E-01 
    6.9197427241719978E-01 
    6.8639440979144206E-01 
    6.7323446933459397E-01 
    6.5383798054153452E-01 
    6.2962225320827581E-01 
    6.0161796306445769E-01 
    5.7049571113500419E-01 
    5.3667064545615262E-01 
    5.0031624573609434E-01 
    4.6140712931114358E-01 
    4.1984078894604104E-01 
    3.7541878560372322E-01 
    3.2784785052668591E-01 
    2.7792708044233166E-01 
    2.3097337503741155E-01 
    1.9935061337751925E-01 
    6.9041392916942579E-01 
    6.8525214120505973E-01 
    6.7299568255352527E-01 
    6.5456140449041333E-01 
    6.3115391845961732E-01 
    6.0375844872626816E-01 
    5.7307969797168334E-01 
    5.3959229206555703E-01 
    5.0348633684234911E-01 
    4.6467086826671594E-01 
    4.2294350710591988E-01 
    3.7791269674735634E-01 
    3.2865344648303685E-01 
    2.7454233998040473E-01 
    2.1914527540785386E-01 
    1.7656732226617486E-01 
    6.8929013966302799E-01 
    6.8447607874976002E-01 
    6.7299034237436617E-01 
    6.5541241706414921E-01 
    6.3275650921020721E-01 
    6.0594454677774889E-01 
    5.7569835263420865E-01 
    5.4255668149780101E-01 
    5.0673923439807733E-01 
    4.6808182327410580E-01 
    4.2629688074278355E-01 
    3.8089388005467506E-01 
    3.3037379467204125E-01 
    2.7237304182978556E-01 
    2.0721978635194471E-01 
    1.4833640440768789E-01 
    6.8853958657026804E-01 
    6.8405810850274484E-01 
    6.7325352563809815E-01 
    6.5643831806345276E-01 
    6.3446992344358033E-01 
    6.0820004992163446E-01 
    5.7834940968047333E-01 
    5.4551765917837025E-01 
    5.0997810450864711E-01 
    4.7151748741789251E-01 
    4.2976675378003076E-01 
    3.8421767275997398E-01 
    3.3298978386630806E-01 
    2.7186959909393599E-01 
    1.9625556720977744E-01 
    1.1273334733359486E-01 
    6.8800122922062779E-01 
    6.8383888715541141E-01 
    6.7366424056410557E-01 
    6.5755368108419310E-01 
    6.3622512106547702E-01 
    6.1046731982239655E-01 
    5.8098942348469662E-01 
    5.4843608219515172E-01 
    5.1314867814380649E-01 
    4.7494033457617035E-01 
    4.3340233779837778E-01 
    3.8797955381375510E-01 
    3.3659495945971390E-01 
    2.7355559824001763E-01 
    1.8799372359560199E-01 
    6.6043758486920234E-02 
    6.8781610549566252E-01 
    6.8398502027230768E-01 
    6.7438908575626400E-01 
    6.5890636884445819E-01 
    6.3814849518555594E-01 
    6.1286827312933523E-01 
    5.8377057717650271E-01 
    5.5151688654034225E-01 
    5.1649645685057177E-01 
    4.7858191955795232E-01 
    4.3737306424216921E-01 
    3.9229477129967000E-01 
    3.4135055544410919E-01 
    2.7851779516790731E-01 
    1.8775068209532519E-01 
    0.0000000000000000E+00 

SCALARS Saturarion double 1 
LOOKUP_TABLE default 

    1.0000000000000009E+00 
    9.7294160160098031E-01 
    9.2436300386370407E-01 
    8.6220862116560515E-01 
    8.0969770027486965E-01 
    7.6428277690685797E-01 
    7.2570739371610760E-01 
    6.9283447925328556E-01 
    6.6412088153922266E-01 
    6.3804830362369924E-01 
    6.1319968808779257E-01 
    5.8813946271868212E-01 
    5.6109862912906538E-01 
    5.2936580969921876E-01 
    4.3943105695885321E-01 
    7.0700001446543051E-02 
    9.8947761655657585E-01 
    9.6382830706854439E-01 
    9.1295752497657667E-01 
    8.5414583530560106E-01 
    8.0421161282652331E-01 
    7.6077334299458932E-01 
    7.2318610259692451E-01 
    6.9064911028792786E-01 
    6.6213076390009507E-01 
    6.3638324540408442E-01 
    6.1221414832420085E-01 
    5.8819016183464667E-01 
    5.6230880704743424E-01 
    5.3161917166985551E-01 
    4.4663557349127642E-01 
    1.0059299809540929E-01 
    9.7291644958885481E-01 
    9.4749902962063715E-01 
    8.9668008593093596E-01 
    8.4024560327723818E-01 
    7.9341222560877256E-01 
    7.5329118500203263E-01 
    7.1786670341672354E-01 
    6.8616750743854793E-01 
    6.5786436595882225E-01 
    6.3240403689137914E-01 
    6.0907073305035064E-01 
    5.8653807603112196E-01 
    5.6268279889801576E-01 
    5.3415961335840867E-01 
    4.5820305168283471E-01 
    1.3774412903501679E-01 
    9.4393527059739701E-01 
    9.2279669961773214E-01 
    8.7703433103529382E-01 
    8.2485205104704740E-01 
    7.7922489693428021E-01 
    7.4136338285196623E-01 
    7.0853311628009541E-01 
    6.7909776432261326E-01 
    6.5228821958054439E-01 
    6.2797520426996201E-01 
    6.0560197271411198E-01 
    5.8433586637954193E-01 
    5.6239210011934415E-01 
    5.3647393042420033E-01 
    4.6889015198519918E-01 
    1.7865715040768382E-01 
    9.0940587789361249E-01 
    8.9124127206938109E-01 
    8.5100873818988443E-01 
    8.0422116941604238E-01 
    7.6130564819308522E-01 
    7.2512217484635799E-01 
    6.9454529715721769E-01 
    6.6779224520415204E-01 
    6.4378045912159299E-01 
    6.2189204536027887E-01 
    6.0161673594096021E-01 
    5.8211106669739876E-01 
    5.6187141789403849E-01 
    5.3826533766212159E-01 
    4.7888454956473125E-01 
    2.0981626542144843E-01 
    8.7212551233590585E-01 
    8.5719136542077445E-01 
    8.2262566495182954E-01 
    7.8104256811655570E-01 
    7.4182086692437366E-01 
    7.0763378179130154E-01 
    6.7830590078273445E-01 
    6.5339303913578717E-01 
    6.3188415137136777E-01 
    6.1274266476879358E-01 
    5.9520573333443827E-01 
    5.7857684846972202E-01 
    5.6104506261221943E-01 
    5.3967005028619852E-01 
    4.8724201265785011E-01 
    2.3726981845092016E-01 
    8.3255026270509391E-01 
    8.2145668369404334E-01 
    7.9298515255599133E-01 
    7.5657055429224895E-01 
    7.2117551348235820E-01 
    6.8950222071632672E-01 
    6.6200849628944336E-01 
    6.3826595144984377E-01 
    6.1815295167512740E-01 
    6.0106911679494524E-01 
    5.8621850672782372E-01 
    5.7266775579308316E-01 
    5.5885418862098601E-01 
    5.4093612308887984E-01 
    4.9529036242210894E-01 
    2.6417918564799936E-01 
    7.9062779909010050E-01 
    7.8377202694477421E-01 
    7.6201952959726649E-01 
    7.3109098027996178E-01 
    6.9912162259945421E-01 
    6.6987812164925487E-01 
    6.4412580098747874E-01 
    6.2197138026049004E-01 
    6.0312192525666852E-01 
    5.8751168881672067E-01 
    5.7480106046652657E-01 
    5.6435302087224004E-01 
    5.5450634361468221E-01 
    5.4135428146370901E-01 
    5.0314532622796981E-01 
    2.9101336882949419E-01 
    7.4662465730446326E-01 
    7.4371378891513584E-01 
    7.2826007413135097E-01 
    7.0306159708980076E-01 
    6.7513807746597287E-01 
    6.4846432781107488E-01 
    6.2460374872858060E-01 
    6.0369305416087815E-01 
    5.8579194473554597E-01 
    5.7117980619761410E-01 
    5.6028963108731455E-01 
    5.5296995323994425E-01 
    5.4759045621128022E-01 
    5.3994941106052885E-01 
    5.1002616098435849E-01 
    3.1559627979505611E-01 
    7.0048643190360205E-01 
    7.0114261586951865E-01 
    6.9139840800886199E-01 
    6.7158550191777189E-01 
    6.4808118357494604E-01 
    6.2463752458169886E-01 
    6.0284074652433617E-01 
    5.8347273952486634E-01 
    5.6665880366606491E-01 
    5.5285317675471923E-01 
    5.4289826236189498E-01 
    5.3777069687171897E-01 
    5.3703719499120961E-01 
    5.3601100510919741E-01 
    5.1525437090703596E-01 
    3.3911560199013790E-01 
    6.5192458789071173E-01 
    6.5576752191109500E-01 
    6.5121879580527675E-01 
    6.3644594821655209E-01 
    6.1750282412408830E-01 
    5.9794655127017771E-01 
    5.7927932400970195E-01 
    5.6185491165704760E-01 
    5.4655865406095017E-01 
    5.3402468297554917E-01 
    5.2487177137771102E-01 
    5.2023859097734970E-01 
    5.2208239086489061E-01 
    5.2829150592525198E-01 
    5.1852520014387593E-01 
    3.6249698712351136E-01 
    6.0085296293628054E-01 
    6.0734355723662536E-01 
    6.0787165699571111E-01 
    5.9834602364606326E-01 
    5.8390099042935473E-01 
    5.6791641275065430E-01 
    5.5216535860245264E-01 
    5.3779559605313265E-01 
    5.2520479459823488E-01 
    5.1444917225177700E-01 
    5.0593395336845448E-01 
    5.0132859448851164E-01 
    5.0355407543882391E-01 
    5.1511632980169542E-01 
    5.1619819683558699E-01 
    3.8542319313503082E-01 
    5.5121094213232047E-01 
    5.5921540454598906E-01 
    5.6340294818528369E-01 
    5.5841375466958687E-01 
    5.4790262275314505E-01 
    5.3454632023055104E-01 
    5.2127872072265913E-01 
    5.0882487863230474E-01 
    4.9627935671201318E-01 
    4.8541534206183140E-01 
    4.7783493400822963E-01 
    4.7372536525748005E-01 
    4.7763090805218655E-01 
    4.9450224415387012E-01 
    5.0978657918881709E-01 
    4.0553607302430578E-01 
    4.6816017396628318E-01 
    4.8706269427807092E-01 
    5.0013220186238372E-01 
    5.0228332970849277E-01 
    4.9412798773194688E-01 
    4.8081332474059252E-01 
    4.6329252736518495E-01 
    4.3921585788924039E-01 
    3.9643204962415257E-01 
    3.3196408128821553E-01 
    2.8878504732457100E-01 
    3.1100392028841678E-01 
    3.5311885958754607E-01 
    4.2730987266847276E-01 
    4.8608570375807075E-01 
    4.1928696154678130E-01 
    1.3289353180535057E-01 
    2.1144074089140871E-01 
    2.5573943551869532E-01 
    2.6713261293173873E-01 
    2.5341382583761418E-01 
    2.0522834716773250E-01 
    1.6199362972585735E-01 
    8.6957360358206504E-02 
    3.7833233241758107E-02 
    1.2146494898118081E-02 
    2.1312495387459654E-03 
    4.8379974270215138E-03 
    4.6451739827498437E-02 
    1.7874696389776618E-01 
    4.0647806166946260E-01 
    4.2299130357492981E-01 
    1.0020659585213872E-06 
    3.0008186674351718E-04 
    6.2296334924735839E-04 
    2.1179113371066281E-04 
    6.7336681872569976E-04 
    3.5763059259918481E-05 
    4.0935089798024533E-05 
    5.4520123545395729E-06 
    4.2636792281945423E-06 
    2.3089661078934853E-06 
    1.0055729392952083E-06 
    1.0724784724845608E-06 
    9.6185490413691090E-05 
    2.0788954921064438E-02 
    2.3775051626339441E-01 
    3.7587701062603063E-01 
