# vtk DataFile Version 2.0
Pressure Field Data 
ASCII 
DATASET UNSTRUCTURED_GRID 

POINTS 289 double 

    0.0000000000000000E+00     0.0000000000000000E+00     0.0000000000000000E+00 
    1.0000000000000000E+00     0.0000000000000000E+00     0.0000000000000000E+00 
    1.0000000000000000E+00     1.0000000000000000E+00     0.0000000000000000E+00 
    0.0000000000000000E+00     1.0000000000000000E+00     0.0000000000000000E+00 
    6.2499999999872928E-02     0.0000000000000000E+00     0.0000000000000000E+00 
    1.2499999999977310E-01     0.0000000000000000E+00     0.0000000000000000E+00 
    1.8749999999959341E-01     0.0000000000000000E+00     0.0000000000000000E+00 
    2.4999999999941089E-01     0.0000000000000000E+00     0.0000000000000000E+00 
    3.1249999999922851E-01     0.0000000000000000E+00     0.0000000000000000E+00 
    3.7499999999904610E-01     0.0000000000000000E+00     0.0000000000000000E+00 
    4.3749999999886358E-01     0.0000000000000000E+00     0.0000000000000000E+00 
    4.9999999999869210E-01     0.0000000000000000E+00     0.0000000000000000E+00 
    5.6249999999884603E-01     0.0000000000000000E+00     0.0000000000000000E+00 
    6.2499999999901090E-01     0.0000000000000000E+00     0.0000000000000000E+00 
    6.8749999999917577E-01     0.0000000000000000E+00     0.0000000000000000E+00 
    7.4999999999934064E-01     0.0000000000000000E+00     0.0000000000000000E+00 
    8.1249999999950551E-01     0.0000000000000000E+00     0.0000000000000000E+00 
    8.7499999999967026E-01     0.0000000000000000E+00     0.0000000000000000E+00 
    9.3749999999983513E-01     0.0000000000000000E+00     0.0000000000000000E+00 
    1.0000000000000000E+00     6.2499999999872928E-02     0.0000000000000000E+00 
    1.0000000000000000E+00     1.2499999999977310E-01     0.0000000000000000E+00 
    1.0000000000000000E+00     1.8749999999959341E-01     0.0000000000000000E+00 
    1.0000000000000000E+00     2.4999999999941089E-01     0.0000000000000000E+00 
    1.0000000000000000E+00     3.1249999999922851E-01     0.0000000000000000E+00 
    1.0000000000000000E+00     3.7499999999904610E-01     0.0000000000000000E+00 
    1.0000000000000000E+00     4.3749999999886358E-01     0.0000000000000000E+00 
    1.0000000000000000E+00     4.9999999999869210E-01     0.0000000000000000E+00 
    1.0000000000000000E+00     5.6249999999884603E-01     0.0000000000000000E+00 
    1.0000000000000000E+00     6.2499999999901090E-01     0.0000000000000000E+00 
    1.0000000000000000E+00     6.8749999999917577E-01     0.0000000000000000E+00 
    1.0000000000000000E+00     7.4999999999934064E-01     0.0000000000000000E+00 
    1.0000000000000000E+00     8.1249999999950551E-01     0.0000000000000000E+00 
    1.0000000000000000E+00     8.7499999999967026E-01     0.0000000000000000E+00 
    1.0000000000000000E+00     9.3749999999983513E-01     0.0000000000000000E+00 
    9.3749999999973976E-01     1.0000000000000000E+00     0.0000000000000000E+00 
    8.7499999999950118E-01     1.0000000000000000E+00     0.0000000000000000E+00 
    8.1249999999991318E-01     1.0000000000000000E+00     0.0000000000000000E+00 
    7.5000000000034706E-01     1.0000000000000000E+00     0.0000000000000000E+00 
    6.8750000000078049E-01     1.0000000000000000E+00     0.0000000000000000E+00 
    6.2500000000121403E-01     1.0000000000000000E+00     0.0000000000000000E+00 
    5.6250000000164757E-01     1.0000000000000000E+00     0.0000000000000000E+00 
    5.0000000000205946E-01     1.0000000000000000E+00     0.0000000000000000E+00 
    4.3750000000182099E-01     1.0000000000000000E+00     0.0000000000000000E+00 
    3.7500000000156092E-01     1.0000000000000000E+00     0.0000000000000000E+00 
    3.1250000000130068E-01     1.0000000000000000E+00     0.0000000000000000E+00 
    2.5000000000104050E-01     1.0000000000000000E+00     0.0000000000000000E+00 
    1.8750000000078040E-01     1.0000000000000000E+00     0.0000000000000000E+00 
    1.2500000000052031E-01     1.0000000000000000E+00     0.0000000000000000E+00 
    6.2500000000260125E-02     1.0000000000000000E+00     0.0000000000000000E+00 
    0.0000000000000000E+00     9.3749999999973976E-01     0.0000000000000000E+00 
    0.0000000000000000E+00     8.7499999999950118E-01     0.0000000000000000E+00 
    0.0000000000000000E+00     8.1249999999991318E-01     0.0000000000000000E+00 
    0.0000000000000000E+00     7.5000000000034706E-01     0.0000000000000000E+00 
    0.0000000000000000E+00     6.8750000000078049E-01     0.0000000000000000E+00 
    0.0000000000000000E+00     6.2500000000121403E-01     0.0000000000000000E+00 
    0.0000000000000000E+00     5.6250000000164757E-01     0.0000000000000000E+00 
    0.0000000000000000E+00     5.0000000000205946E-01     0.0000000000000000E+00 
    0.0000000000000000E+00     4.3750000000182099E-01     0.0000000000000000E+00 
    0.0000000000000000E+00     3.7500000000156092E-01     0.0000000000000000E+00 
    0.0000000000000000E+00     3.1250000000130068E-01     0.0000000000000000E+00 
    0.0000000000000000E+00     2.5000000000104050E-01     0.0000000000000000E+00 
    0.0000000000000000E+00     1.8750000000078040E-01     0.0000000000000000E+00 
    0.0000000000000000E+00     1.2500000000052031E-01     0.0000000000000000E+00 
    0.0000000000000000E+00     6.2500000000260125E-02     0.0000000000000000E+00 
    6.2499999999897131E-02     6.2500000000235922E-02     0.0000000000000000E+00 
    6.2499999999921327E-02     1.2500000000047351E-01     0.0000000000000000E+00 
    6.2499999999945530E-02     1.8750000000070621E-01     0.0000000000000000E+00 
    6.2499999999969733E-02     2.5000000000093858E-01     0.0000000000000000E+00 
    6.2499999999993928E-02     3.1250000000117117E-01     0.0000000000000000E+00 
    6.2500000000018124E-02     3.7500000000140382E-01     0.0000000000000000E+00 
    6.2500000000042327E-02     4.3750000000163619E-01     0.0000000000000000E+00 
    6.2500000000066530E-02     5.0000000000184897E-01     0.0000000000000000E+00 
    6.2500000000090733E-02     5.6250000000147260E-01     0.0000000000000000E+00 
    6.2500000000114922E-02     6.2500000000107636E-01     0.0000000000000000E+00 
    6.2500000000139125E-02     6.8750000000068034E-01     0.0000000000000000E+00 
    6.2500000000163328E-02     7.5000000000028411E-01     0.0000000000000000E+00 
    6.2500000000187531E-02     8.1249999999988787E-01     0.0000000000000000E+00 
    6.2500000000211720E-02     8.7499999999951172E-01     0.0000000000000000E+00 
    6.2500000000235922E-02     9.3749999999974565E-01     0.0000000000000000E+00 
    1.2499999999981980E-01     6.2500000000211733E-02     0.0000000000000000E+00 
    1.2499999999986650E-01     1.2500000000042691E-01     0.0000000000000000E+00 
    1.2499999999991319E-01     1.8750000000063199E-01     0.0000000000000000E+00 
    1.2499999999995989E-01     2.5000000000083678E-01     0.0000000000000000E+00 
    1.2500000000000661E-01     3.1250000000104172E-01     0.0000000000000000E+00 
    1.2500000000005329E-01     3.7500000000124661E-01     0.0000000000000000E+00 
    1.2500000000010000E-01     4.3750000000145117E-01     0.0000000000000000E+00 
    1.2500000000014669E-01     5.0000000000163858E-01     0.0000000000000000E+00 
    1.2500000000019340E-01     5.6250000000129741E-01     0.0000000000000000E+00 
    1.2500000000024011E-01     6.2500000000093847E-01     0.0000000000000000E+00 
    1.2500000000028680E-01     6.8750000000057998E-01     0.0000000000000000E+00 
    1.2500000000033351E-01     7.5000000000022127E-01     0.0000000000000000E+00 
    1.2500000000038020E-01     8.1249999999986211E-01     0.0000000000000000E+00 
    1.2500000000042691E-01     8.7499999999952238E-01     0.0000000000000000E+00 
    1.2500000000047359E-01     9.3749999999975164E-01     0.0000000000000000E+00 
    1.8749999999966760E-01     6.2500000000187531E-02     0.0000000000000000E+00 
    1.8749999999974179E-01     1.2500000000038020E-01     0.0000000000000000E+00 
    1.8749999999981601E-01     1.8750000000055780E-01     0.0000000000000000E+00 
    1.8749999999989009E-01     2.5000000000073502E-01     0.0000000000000000E+00 
    1.8749999999996431E-01     3.1250000000091221E-01     0.0000000000000000E+00 
    1.8750000000003850E-01     3.7500000000108941E-01     0.0000000000000000E+00 
    1.8750000000011269E-01     4.3750000000126649E-01     0.0000000000000000E+00 
    1.8750000000018691E-01     5.0000000000142808E-01     0.0000000000000000E+00 
    1.8750000000026110E-01     5.6250000000112244E-01     0.0000000000000000E+00 
    1.8750000000033529E-01     6.2500000000080080E-01     0.0000000000000000E+00 
    1.8750000000040951E-01     6.8750000000047962E-01     0.0000000000000000E+00 
    1.8750000000048361E-01     7.5000000000015843E-01     0.0000000000000000E+00 
    1.8750000000055780E-01     8.1249999999983680E-01     0.0000000000000000E+00 
    1.8750000000063199E-01     8.7499999999953304E-01     0.0000000000000000E+00 
    1.8750000000070621E-01     9.3749999999975764E-01     0.0000000000000000E+00 
    2.4999999999951281E-01     6.2500000000163314E-02     0.0000000000000000E+00 
    2.4999999999961461E-01     1.2500000000033351E-01     0.0000000000000000E+00 
    2.4999999999971650E-01     1.8750000000048361E-01     0.0000000000000000E+00 
    2.4999999999981831E-01     2.5000000000063310E-01     0.0000000000000000E+00 
    2.4999999999992020E-01     3.1250000000078260E-01     0.0000000000000000E+00 
    2.5000000000002198E-01     3.7500000000093209E-01     0.0000000000000000E+00 
    2.5000000000012390E-01     4.3750000000108180E-01     0.0000000000000000E+00 
    2.5000000000022571E-01     5.0000000000121769E-01     0.0000000000000000E+00 
    2.5000000000032763E-01     5.6250000000094724E-01     0.0000000000000000E+00 
    2.5000000000042938E-01     6.2500000000066314E-01     0.0000000000000000E+00 
    2.5000000000053119E-01     6.8750000000037925E-01     0.0000000000000000E+00 
[...]
CELL_DATA 256 
SCALARS Pressure double 1 
LOOKUP_TABLE default 

    9.9292887531682783E-01 
    9.3841485518357048E-01 
    8.9952787491631137E-01 
    8.6146228288241911E-01 
    8.2101612149418035E-01 
    7.7776342669545939E-01 
    7.3184852144104429E-01 
    6.8349316189877263E-01 
    6.3280467720645805E-01 
    5.7909374708454930E-01 
    5.1696869913787868E-01 
    4.5175023354640920E-01 
    3.9846435481411752E-01 
    3.5816694205069999E-01 
    3.3288802294200409E-01 
    3.2277368982882798E-01 
    9.7902277386835790E-01 
    9.4015759702100998E-01 
    9.0256276675118330E-01 
    8.6489165020563352E-01 
    8.2483310160429368E-01 
    7.8193145996863134E-01 
    7.3630268424830947E-01 
    6.8818527789105799E-01 
    6.3772440585308554E-01 
    5.8435295215564909E-01 
    5.2249668153725215E-01 
    4.5669555718539467E-01 
    4.0209492554640708E-01 
    3.6017800334765421E-01 
    3.3334048093749252E-01 
    3.2231858586641143E-01 
    9.6822326752338095E-01 
    9.3957491109129443E-01 
    9.0466517068263730E-01 
    8.6779220388680234E-01 
    8.2825943423751869E-01 
    7.8578532648652077E-01 
    7.4048545330759252E-01 
    6.9261415454460207E-01 
    6.4233858835817437E-01 
    5.8914098880760835E-01 
    5.2726691400321546E-01 
    4.6079464656439767E-01 
    4.0480900979891682E-01 
    3.6102116998431927E-01 
    3.3246064792038316E-01 
    3.2068399024981220E-01 
    9.5942826435725448E-01 
    9.3767266650663050E-01 
    9.0586026807897047E-01 
    8.7016742666698732E-01 
    8.3130541635842192E-01 
    7.8932969974134659E-01 
    7.4440713733206698E-01 
    6.9679962342901169E-01 
    6.4667436327679839E-01 
    5.9350874744749960E-01 
    5.3138416808744171E-01 
    4.6416423569903198E-01 
    4.0668927400820137E-01 
    3.6073030042046594E-01 
    3.3016441308085320E-01 
    3.1764400082849370E-01 
    9.5199265925416998E-01 
    9.3500536596214823E-01 
    9.0626654120578776E-01 
    8.7204251084973949E-01 
    8.3400276340413348E-01 
    7.9259572619892860E-01 
    7.4809434359166138E-01 
    7.0077059499578065E-01 
    6.5076940947897655E-01 
    5.9750541568398341E-01 
    5.3493351435666259E-01 
    4.6692652352950886E-01 
    4.0784551781602046E-01 
    3.5935536024847603E-01 
    3.2636447152408704E-01 
    3.1296226451732506E-01 
    9.4564296647249069E-01 
    9.3198162660344497E-01 
    9.0606755398008088E-01 
    8.7347857714940080E-01 
    8.3639920671853030E-01 
    7.9562904108288612E-01 
    7.5158187599015513E-01 
    7.0455879039693614E-01 
    6.5466175869442633E-01 
    6.0113510809354209E-01 
    5.3796513115288180E-01 
    4.6922966414208001E-01 
    4.0841938864399413E-01 
    3.5697598973747696E-01 
    3.2098015836402183E-01 
    3.0638520864302909E-01 
    9.4020686468418169E-01 
    9.2888638412227709E-01 
    9.0546187980916182E-01 
    8.7456097712893144E-01 
    8.3854685341693447E-01 
    7.9847724097519290E-01 
    7.5490967788154961E-01 
    7.0819800380768683E-01 
    6.5838961940327723E-01 
    6.0435464040569031E-01 
    5.4051774406877973E-01 
    4.7128883003398320E-01 
    4.0858213719965575E-01 
    3.5371102815052757E-01 
    3.1394222941292810E-01 
    2.9761752512963724E-01 
    9.3555989180400967E-01 
    9.2590834327443716E-01 
    9.0462729708324663E-01 
    8.7538372053896263E-01 
    8.4049916035352623E-01 
    8.0118751318696324E-01 
    7.5812418328310671E-01 
    7.1172552597094718E-01 
    6.6197424821130668E-01 
    6.0712939626129314E-01 
    5.4269002083934625E-01 
    4.7338127125238083E-01 
    4.0854111032203788E-01 
    3.4973161330559926E-01 
    3.0520314702899826E-01 
    2.8630148150981460E-01 
    9.3162100388221813E-01 
    9.2317647199621089E-01 
    9.0371937305932060E-01 
    8.7604820115849824E-01 
    8.4231616832639633E-01 
    8.0380819411517324E-01 
    7.6127265584526338E-01 
    7.1517407193101812E-01 
    6.6533883032804808E-01 
    6.0949259181714543E-01 
    5.4475269346045740E-01 
    4.7574117337360222E-01 
    4.0854140661527816E-01 
    3.4527946039713442E-01 
    2.9475998234681250E-01 
    2.7198703125794033E-01 
    9.2835068816823707E-01 
    9.2078941673963655E-01 
    9.0287281425400445E-01 
    8.7665742799987834E-01 
    8.4406636608574126E-01 
    8.0638632553061207E-01 
    7.6438180475226314E-01 
    7.1850264648344442E-01 
    6.6826734913997632E-01 
    6.1154334445286940E-01 
    5.4710213858400869E-01 
    4.7844351213754371E-01 
    4.0885280679643859E-01 
    3.4069290454516715E-01 
    2.8269969568835634E-01 
    2.5409114280156259E-01 
    9.2573032681241230E-01 
    9.1882824389529660E-01 
    9.0220628279532344E-01 
    8.7731174372307019E-01 
    8.4581124787159923E-01 
    8.0892962943098601E-01 
    7.6734003278784868E-01 
    7.2145375406650247E-01 
    6.7071631337403681E-01 
    6.1375127163953969E-01 
    5.5010267692075576E-01 
    4.8152331363177392E-01 
    4.0975418655724183E-01 
    3.3642613240546099E-01 
    2.6926628822019028E-01 
    2.3184065967903753E-01 
    9.2361670260997564E-01 
    9.1726029480398763E-01 
    9.0174928870662574E-01 
    8.7801347530509022E-01 
    8.4742349904320036E-01 
    8.1119161800993289E-01 
    7.6992102517486016E-01 
    7.2401463132302468E-01 
    6.7325469095557944E-01 
    6.1668461631746330E-01 
    5.5376614138815938E-01 
    4.8512354751826436E-01 
    4.1152753995402142E-01 
    3.3306337221374516E-01 
    2.5497362357883319E-01 
    2.0418984487325759E-01 
    9.2157448900193240E-01 
    9.1568328723466863E-01 
    9.0116393557244434E-01 
    8.7849001017246531E-01 
    8.4873929024559569E-01 
    8.1314467006766478E-01 
    7.7240125130024684E-01 
    7.2684755728766148E-01 
    6.7644352987472389E-01 
    6.2035975200916760E-01 
    5.5795031523160799E-01 
    4.8937674984428559E-01 
    4.1443457578347620E-01 
    3.3131939812003980E-01 
    2.4080161624398264E-01 
    1.6969574849603292E-01 
    9.2000780436297824E-01 
    9.1441009854146249E-01 
    9.0073050963021140E-01 
    8.7904292541701956E-01 
    8.5020996462145892E-01 
    8.1538431789674504E-01 
    7.7530608324171424E-01 
    7.3025677992467819E-01 
    6.8022204058383029E-01 
    6.2457204653967036E-01 
    5.6268360820640584E-01 
    4.9435490846989966E-01 
    4.1867332658379341E-01 
    3.3199452493007331E-01 
    2.2852774593936362E-01 
    1.2632628385787226E-01 
    9.1922785306511823E-01 
    9.1396847107760271E-01 
    9.0104176460695695E-01 
    8.8023711206741073E-01 
    8.5225424321397236E-01 
    8.1813204575858112E-01 
    7.7862695620199940E-01 
    7.3407469661965685E-01 
    6.8447567997744330E-01 
    6.2930802821996978E-01 
    5.6797317665723313E-01 
    5.0007565906727314E-01 
    4.2432257001809487E-01 
    3.3581964641937401E-01 
    2.2127905666760764E-01 
    7.1171259361400632E-02 
    9.1901165561625664E-01 
    9.1417788471429262E-01 
    9.0198205760131667E-01 
    8.8198605485679293E-01 
    8.5476507710432637E-01 
    8.2129354526857368E-01 
    7.8234520964517384E-01 
    7.3830018934406283E-01 
    6.8918838609001742E-01 
    6.3455224387842890E-01 
    5.7381067045353173E-01 
    5.0650755762379385E-01 
    4.3130040122779256E-01 
    3.4308369778125231E-01 
    2.2445783868175143E-01 
    0.0000000000000000E+00 

SCALARS Saturarion double 1 
LOOKUP_TABLE default 

    1.0000000000000873E+00 
    9.5200268216865380E-01 
    8.7645841387029322E-01 
    7.8482709046636889E-01 
    7.1211755113667163E-01 
    6.5780183478276866E-01 
    6.1409008090095962E-01 
    5.7530028432851510E-01 
    5.3799270152895384E-01 
    4.9086644181484401E-01 
    3.6095886342224565E-01 
    2.6136193320655924E-02 
    1.0000000286165456E-06 
    1.0000000000000129E-06 
    9.9999999999999995E-07 
    9.9999999999999995E-07 
    9.7848824544756463E-01 
    9.3343470480210333E-01 
    8.5490988426375603E-01 
    7.7479339995856555E-01 
    7.0720635635972662E-01 
    6.5323892355006208E-01 
    6.0956862323722383E-01 
    5.7165307507414265E-01 
    5.3533472194079157E-01 
    4.8865624470830604E-01 
    3.5738996420318131E-01 
    2.5017103854479045E-02 
    1.0856928332713934E-06 
    1.0000000102852822E-06 
    1.0000000000000014E-06 
    9.9999999999999995E-07 
    9.4406913092475997E-01 
    9.0342910462191095E-01 
    8.2688742510103419E-01 
    7.5678636348834072E-01 
    6.9631535909387399E-01 
    6.4396791344834226E-01 
    6.0108703665472529E-01 
    5.6482297894970313E-01 
    5.3013052235948166E-01 
    4.8453311446810537E-01 
    3.5279524509865123E-01 
    2.2744581707367421E-02 
    1.1774237421294214E-06 
    1.0000000232171866E-06 
    1.0000000000000014E-06 
    9.9999999999999995E-07 
    8.8699873606821855E-01 
    8.5619940381232984E-01 
    7.9122595473487556E-01 
    7.2964714526767971E-01 
    6.7823887174599995E-01 
    6.3278530609493144E-01 
    5.9344737988642271E-01 
    5.5927059494998399E-01 
    5.2590001763329686E-01 
    4.8161459952471780E-01 
    3.5061497272968556E-01 
    2.2754746539321011E-02 
    1.0095419433156750E-06 
    1.0000000042617598E-06 
    9.9999999999999974E-07 
    9.9999999999999995E-07 
    8.3074614100134692E-01 
    8.0518434947101225E-01 
    7.5252229695524364E-01 
    7.0012950578099808E-01 
    6.5595814830956545E-01 
    6.1773735146100250E-01 
    5.8347540132369247E-01 
    5.5190605407630156E-01 
    5.2027895684045267E-01 
    4.7665238923854264E-01 
    3.4116737548650139E-01 
    1.8906530270873290E-02 
    1.8118686915363618E-06 
    1.0000001182425726E-06 
    1.0000000000000209E-06 
    9.9999999999999995E-07 
    7.7609000808683781E-01 
    7.5688033952697398E-01 
    7.1553229851144040E-01 
    6.7087898658580292E-01 
    6.3225342893421799E-01 
    5.9949482190900483E-01 
    5.6956179404265217E-01 
    5.4101976418102626E-01 
    5.1164450242142279E-01 
    4.6720769689843011E-01 
    3.0994777155254588E-01 
    9.6130354445194896E-03 
    2.1695000711272803E-06 
    1.0000002324340234E-06 
    1.0000000000000033E-06 
    9.9999999999999995E-07 
    7.2326809803211323E-01 
    7.1044570682509733E-01 
    6.7887145090087075E-01 
    6.4131766637026366E-01 
    6.0767003524140983E-01 
    5.7907537760785044E-01 
    5.5358668137373968E-01 
    5.2816715714619311E-01 
    4.9956220916467398E-01 
    4.5258911710699951E-01 
    2.5583754963561689E-01 
    2.4181089797199289E-03 
    1.1475815478170824E-06 
    1.0000000330863039E-06 
    9.9999999999999995E-07 
    9.9999999999999995E-07 
    6.7162870053887214E-01 
    6.6467173403037250E-01 
    6.4252481068946699E-01 
    6.1227818060274819E-01 
    5.8254306121490107E-01 
    5.5668782003420703E-01 
    5.3476163963460777E-01 
    5.1355044518533466E-01 
    4.8598437086161844E-01 
    4.2619738762095710E-01 
    1.6668322001620955E-01 
    2.2072586352424314E-04 
    1.0077036535819651E-06 
    1.0000000005245272E-06 
    9.9999999999999974E-07 
    9.9999999999999995E-07 
    6.2173920129234139E-01 
    6.1960521218629927E-01 
    6.0572238949622215E-01 
    5.8268819953865836E-01 
    5.5728510582972945E-01 
    5.3430634874028582E-01 
    5.1492864659001225E-01 
    4.9511820940774764E-01 
    4.6410982025679814E-01 
    3.6140694299648135E-01 
    5.6227324013121784E-02 
    1.0972228747762785E-04 
    1.0019314225167631E-06 
    1.0000000000000027E-06 
    9.9999999999999995E-07 
    9.9999999999999995E-07 
    5.7598269054413442E-01 
    5.7742325206532685E-01 
    5.6986644239939288E-01 
    5.5245437995561719E-01 
    5.3217006312273296E-01 
    5.1242224465275532E-01 
    4.9200551149963384E-01 
    4.6705703883581740E-01 
    4.0801067549971076E-01 
    1.9051835392743172E-01 
    2.3490105579737986E-03 
    1.2209095921261053E-06 
    1.0000000662665587E-06 
    1.0000000000000025E-06 
    9.9999999999999995E-07 
    9.9999999999999995E-07 
    5.3444159488403686E-01 
    5.3816387391147491E-01 
    5.3353049446790790E-01 
    5.2059441697605113E-01 
    5.0475318450405693E-01 
    4.8249545929805931E-01 
    4.5017279886100336E-01 
    3.7998359470537235E-01 
    1.9617677276336343E-01 
    1.3490732688810623E-02 
    7.5613270753973135E-06 
    1.0000049695877834E-06 
    1.0000000000000277E-06 
    9.9999999999999995E-07 
    9.9999999999999995E-07 
    9.9999999999999995E-07 
    4.6388538867924534E-01 
    4.7626957363789085E-01 
    4.8007301478284303E-01 
    4.6851400632739448E-01 
    4.3765136106369773E-01 
    3.5577340517436257E-01 
    2.2812396600478813E-01 
    8.6223935415445568E-02 
    1.7761917605827033E-03 
    4.4316104909236918E-06 
    1.0000040699999863E-06 
    1.0000000000007132E-06 
    9.9999999999999995E-07 
    9.9999999999999995E-07 
    9.9999999999999995E-07 
    9.9999999999999995E-07 
    1.7413094833861739E-01 
    2.5879051457615582E-01 
    2.8011216473193568E-01 
    2.2658559871054262E-01 
    1.4498618618224693E-01 
    3.2913093009427574E-02 
    8.6881967020057251E-04 
    1.4535206198015803E-04 
    1.0617840196114061E-06 
    1.0000006673716244E-06 
    1.0000000000001715E-06 
    9.9999999999999995E-07 
    9.9999999999999995E-07 
    9.9999999999999995E-07 
    9.9999999999999995E-07 
    9.9999999999999995E-07 
    1.5867314965029507E-06 
    1.6573015225198866E-03 
    2.0575178724757479E-03 
    4.0137525171059381E-04 
    1.0172873838801223E-04 
    2.3188352817123965E-05 
    1.0140553194089740E-06 
    1.0016342838198837E-06 
    1.0000000064686968E-06 
    1.0000000000000095E-06 
    9.9999999999999995E-07 
    9.9999999999999995E-07 
    9.9999999999999995E-07 
    9.9999999999999995E-07 
    9.9999999999999995E-07 
    9.9999999999999995E-07 
    1.0000000017911949E-06 
    1.0358736338875640E-06 
    1.0017803339561914E-06 
    1.0029748011991558E-06 
    1.0018740821313400E-06 
    1.0000196612165948E-06 
    1.0000000012538582E-06 
    1.0000000000000008E-06 
    1.0000000000000002E-06 
    9.9999999999999995E-07 
    9.9999999999999995E-07 
    9.9999999999999995E-07 
    9.9999999999999995E-07 
    9.9999999999999995E-07 
    9.9999999999999995E-07 
    9.9999999999999995E-07 
    9.9999999999999995E-07 
    1.0000000008880596E-06 
    1.0000000001063197E-06 
    1.0000000001128008E-06 
    1.0000000000144042E-06 
    9.9999999999999995E-07 
    9.9999999999999995E-07 
    9.9999999999999995E-07 
    9.9999999999999995E-07 
    9.9999999999999995E-07 
    9.9999999999999995E-07 
    9.9999999999999995E-07 
    9.9999999999999995E-07 
    9.9999999999999995E-07 
    9.9999999999999995E-07 
    1.0000003549654058E-06 
