# vtk DataFile Version 2.0
Pressure Field Data 
ASCII 
DATASET UNSTRUCTURED_GRID 

POINTS 289 double 

    0.0000000000000000E+00     0.0000000000000000E+00     0.0000000000000000E+00 
    1.0000000000000000E+00     0.0000000000000000E+00     0.0000000000000000E+00 
    1.0000000000000000E+00     1.0000000000000000E+00     0.0000000000000000E+00 
    0.0000000000000000E+00     1.0000000000000000E+00     0.0000000000000000E+00 
    6.2499999999872928E-02     0.0000000000000000E+00     0.0000000000000000E+00 
    1.2499999999977310E-01     0.0000000000000000E+00     0.0000000000000000E+00 
    1.8749999999959341E-01     0.0000000000000000E+00     0.0000000000000000E+00 
    2.4999999999941089E-01     0.0000000000000000E+00     0.0000000000000000E+00 
    3.1249999999922851E-01     0.0000000000000000E+00     0.0000000000000000E+00 
    3.7499999999904610E-01     0.0000000000000000E+00     0.0000000000000000E+00 
    4.3749999999886358E-01     0.0000000000000000E+00     0.0000000000000000E+00 
    4.9999999999869210E-01     0.0000000000000000E+00     0.0000000000000000E+00 
    5.6249999999884603E-01     0.0000000000000000E+00     0.0000000000000000E+00 
    6.2499999999901090E-01     0.0000000000000000E+00     0.0000000000000000E+00 
    6.8749999999917577E-01     0.0000000000000000E+00     0.0000000000000000E+00 
    7.4999999999934064E-01     0.0000000000000000E+00     0.0000000000000000E+00 
    8.1249999999950551E-01     0.0000000000000000E+00     0.0000000000000000E+00 
    8.7499999999967026E-01     0.0000000000000000E+00     0.0000000000000000E+00 
    9.3749999999983513E-01     0.0000000000000000E+00     0.0000000000000000E+00 
    1.0000000000000000E+00     6.2499999999872928E-02     0.0000000000000000E+00 
    1.0000000000000000E+00     1.2499999999977310E-01     0.0000000000000000E+00 
    1.0000000000000000E+00     1.8749999999959341E-01     0.0000000000000000E+00 
    1.0000000000000000E+00     2.4999999999941089E-01     0.0000000000000000E+00 
    1.0000000000000000E+00     3.1249999999922851E-01     0.0000000000000000E+00 
    1.0000000000000000E+00     3.7499999999904610E-01     0.0000000000000000E+00 
    1.0000000000000000E+00     4.3749999999886358E-01     0.0000000000000000E+00 
    1.0000000000000000E+00     4.9999999999869210E-01     0.0000000000000000E+00 
    1.0000000000000000E+00     5.6249999999884603E-01     0.0000000000000000E+00 
    1.0000000000000000E+00     6.2499999999901090E-01     0.0000000000000000E+00 
    1.0000000000000000E+00     6.8749999999917577E-01     0.0000000000000000E+00 
    1.0000000000000000E+00     7.4999999999934064E-01     0.0000000000000000E+00 
    1.0000000000000000E+00     8.1249999999950551E-01     0.0000000000000000E+00 
    1.0000000000000000E+00     8.7499999999967026E-01     0.0000000000000000E+00 
    1.0000000000000000E+00     9.3749999999983513E-01     0.0000000000000000E+00 
    9.3749999999973976E-01     1.0000000000000000E+00     0.0000000000000000E+00 
    8.7499999999950118E-01     1.0000000000000000E+00     0.0000000000000000E+00 
    8.1249999999991318E-01     1.0000000000000000E+00     0.0000000000000000E+00 
    7.5000000000034706E-01     1.0000000000000000E+00     0.0000000000000000E+00 
    6.8750000000078049E-01     1.0000000000000000E+00     0.0000000000000000E+00 
    6.2500000000121403E-01     1.0000000000000000E+00     0.0000000000000000E+00 
    5.6250000000164757E-01     1.0000000000000000E+00     0.0000000000000000E+00 
    5.0000000000205946E-01     1.0000000000000000E+00     0.0000000000000000E+00 
    4.3750000000182099E-01     1.0000000000000000E+00     0.0000000000000000E+00 
    3.7500000000156092E-01     1.0000000000000000E+00     0.0000000000000000E+00 
    3.1250000000130068E-01     1.0000000000000000E+00     0.0000000000000000E+00 
    2.5000000000104050E-01     1.0000000000000000E+00     0.0000000000000000E+00 
    1.8750000000078040E-01     1.0000000000000000E+00     0.0000000000000000E+00 
    1.2500000000052031E-01     1.0000000000000000E+00     0.0000000000000000E+00 
    6.2500000000260125E-02     1.0000000000000000E+00     0.0000000000000000E+00 
    0.0000000000000000E+00     9.3749999999973976E-01     0.0000000000000000E+00 
    0.0000000000000000E+00     8.7499999999950118E-01     0.0000000000000000E+00 
    0.0000000000000000E+00     8.1249999999991318E-01     0.0000000000000000E+00 
    0.0000000000000000E+00     7.5000000000034706E-01     0.0000000000000000E+00 
    0.0000000000000000E+00     6.8750000000078049E-01     0.0000000000000000E+00 
    0.0000000000000000E+00     6.2500000000121403E-01     0.0000000000000000E+00 
    0.0000000000000000E+00     5.6250000000164757E-01     0.0000000000000000E+00 
    0.0000000000000000E+00     5.0000000000205946E-01     0.0000000000000000E+00 
    0.0000000000000000E+00     4.3750000000182099E-01     0.0000000000000000E+00 
    0.0000000000000000E+00     3.7500000000156092E-01     0.0000000000000000E+00 
    0.0000000000000000E+00     3.1250000000130068E-01     0.0000000000000000E+00 
    0.0000000000000000E+00     2.5000000000104050E-01     0.0000000000000000E+00 
    0.0000000000000000E+00     1.8750000000078040E-01     0.0000000000000000E+00 
    0.0000000000000000E+00     1.2500000000052031E-01     0.0000000000000000E+00 
    0.0000000000000000E+00     6.2500000000260125E-02     0.0000000000000000E+00 
    6.2499999999897131E-02     6.2500000000235922E-02     0.0000000000000000E+00 
    6.2499999999921327E-02     1.2500000000047351E-01     0.0000000000000000E+00 
    6.2499999999945530E-02     1.8750000000070621E-01     0.0000000000000000E+00 
    6.2499999999969733E-02     2.5000000000093858E-01     0.0000000000000000E+00 
    6.2499999999993928E-02     3.1250000000117117E-01     0.0000000000000000E+00 
    6.2500000000018124E-02     3.7500000000140382E-01     0.0000000000000000E+00 
    6.2500000000042327E-02     4.3750000000163619E-01     0.0000000000000000E+00 
    6.2500000000066530E-02     5.0000000000184897E-01     0.0000000000000000E+00 
    6.2500000000090733E-02     5.6250000000147260E-01     0.0000000000000000E+00 
    6.2500000000114922E-02     6.2500000000107636E-01     0.0000000000000000E+00 
    6.2500000000139125E-02     6.8750000000068034E-01     0.0000000000000000E+00 
    6.2500000000163328E-02     7.5000000000028411E-01     0.0000000000000000E+00 
    6.2500000000187531E-02     8.1249999999988787E-01     0.0000000000000000E+00 
    6.2500000000211720E-02     8.7499999999951172E-01     0.0000000000000000E+00 
    6.2500000000235922E-02     9.3749999999974565E-01     0.0000000000000000E+00 
    1.2499999999981980E-01     6.2500000000211733E-02     0.0000000000000000E+00 
    1.2499999999986650E-01     1.2500000000042691E-01     0.0000000000000000E+00 
    1.2499999999991319E-01     1.8750000000063199E-01     0.0000000000000000E+00 
    1.2499999999995989E-01     2.5000000000083678E-01     0.0000000000000000E+00 
    1.2500000000000661E-01     3.1250000000104172E-01     0.0000000000000000E+00 
    1.2500000000005329E-01     3.7500000000124661E-01     0.0000000000000000E+00 
    1.2500000000010000E-01     4.3750000000145117E-01     0.0000000000000000E+00 
    1.2500000000014669E-01     5.0000000000163858E-01     0.0000000000000000E+00 
    1.2500000000019340E-01     5.6250000000129741E-01     0.0000000000000000E+00 
    1.2500000000024011E-01     6.2500000000093847E-01     0.0000000000000000E+00 
    1.2500000000028680E-01     6.8750000000057998E-01     0.0000000000000000E+00 
    1.2500000000033351E-01     7.5000000000022127E-01     0.0000000000000000E+00 
    1.2500000000038020E-01     8.1249999999986211E-01     0.0000000000000000E+00 
    1.2500000000042691E-01     8.7499999999952238E-01     0.0000000000000000E+00 
    1.2500000000047359E-01     9.3749999999975164E-01     0.0000000000000000E+00 
    1.8749999999966760E-01     6.2500000000187531E-02     0.0000000000000000E+00 
    1.8749999999974179E-01     1.2500000000038020E-01     0.0000000000000000E+00 
    1.8749999999981601E-01     1.8750000000055780E-01     0.0000000000000000E+00 
    1.8749999999989009E-01     2.5000000000073502E-01     0.0000000000000000E+00 
    1.8749999999996431E-01     3.1250000000091221E-01     0.0000000000000000E+00 
    1.8750000000003850E-01     3.7500000000108941E-01     0.0000000000000000E+00 
    1.8750000000011269E-01     4.3750000000126649E-01     0.0000000000000000E+00 
    1.8750000000018691E-01     5.0000000000142808E-01     0.0000000000000000E+00 
    1.8750000000026110E-01     5.6250000000112244E-01     0.0000000000000000E+00 
    1.8750000000033529E-01     6.2500000000080080E-01     0.0000000000000000E+00 
    1.8750000000040951E-01     6.8750000000047962E-01     0.0000000000000000E+00 
    1.8750000000048361E-01     7.5000000000015843E-01     0.0000000000000000E+00 
    1.8750000000055780E-01     8.1249999999983680E-01     0.0000000000000000E+00 
    1.8750000000063199E-01     8.7499999999953304E-01     0.0000000000000000E+00 
    1.8750000000070621E-01     9.3749999999975764E-01     0.0000000000000000E+00 
    2.4999999999951281E-01     6.2500000000163314E-02     0.0000000000000000E+00 
    2.4999999999961461E-01     1.2500000000033351E-01     0.0000000000000000E+00 
    2.4999999999971650E-01     1.8750000000048361E-01     0.0000000000000000E+00 
    2.4999999999981831E-01     2.5000000000063310E-01     0.0000000000000000E+00 
    2.4999999999992020E-01     3.1250000000078260E-01     0.0000000000000000E+00 
    2.5000000000002198E-01     3.7500000000093209E-01     0.0000000000000000E+00 
    2.5000000000012390E-01     4.3750000000108180E-01     0.0000000000000000E+00 
    2.5000000000022571E-01     5.0000000000121769E-01     0.0000000000000000E+00 
    2.5000000000032763E-01     5.6250000000094724E-01     0.0000000000000000E+00 
    2.5000000000042938E-01     6.2500000000066314E-01     0.0000000000000000E+00 
    2.5000000000053119E-01     6.8750000000037925E-01     0.0000000000000000E+00 
[...]
CELL_DATA 256 
SCALARS Pressure double 1 
LOOKUP_TABLE default 

    6.9032971104302776E-01 
    6.4043463311728033E-01 
    6.0856946148606339E-01 
    5.7972119026987723E-01 
    5.5048013301801135E-01 
    5.2000305988737261E-01 
    4.8803405200413025E-01 
    4.5462433395329110E-01 
    4.2005224156143067E-01 
    3.8485760821242648E-01 
    3.4995874698896201E-01 
    3.1680978304518492E-01 
    2.8749108194282336E-01 
    2.6451712100323549E-01 
    2.4987394263556170E-01 
    2.4277772931057623E-01 
    6.7634689623555666E-01 
    6.4171882591722107E-01 
    6.1095950466753590E-01 
    5.8234180176063077E-01 
    5.5329095802030182E-01 
    5.2299165894847355E-01 
    4.9118371157241963E-01 
    4.5789945684888972E-01 
    4.2338867128328950E-01 
    3.8814898368251721E-01 
    3.5303935228676753E-01 
    3.1944581203335798E-01 
    2.8940873019366492E-01 
    2.6550521513732050E-01 
    2.4998780183722499E-01 
    2.4234623611480952E-01 
    6.6561665984920682E-01 
    6.4086688459968910E-01 
    6.1259964378478482E-01 
    5.8463274137097920E-01 
    5.5590935498621508E-01 
    5.2584045631998666E-01 
    4.9421313435401792E-01 
    4.6105545546947713E-01 
    4.2658843527549267E-01 
    3.9125969381729259E-01 
    3.5585491845536849E-01 
    3.2167604770701036E-01 
    2.9071959623277416E-01 
    2.6566061924869139E-01 
    2.4911669639600920E-01 
    2.4097125618806206E-01 
    6.5718891832211768E-01 
    6.3893834947823680E-01 
    6.1353141757506202E-01 
    5.8657172770863963E-01 
    5.5832824207086229E-01 
    5.2855441945878123E-01 
    4.9713285850719446E-01 
    4.6410630160265931E-01 
    4.2967177292135678E-01 
    3.9422158352582787E-01 
    3.5845429948051000E-01 
    3.2356630223895011E-01 
    2.9149095801980640E-01 
    2.6501566073132943E-01 
    2.4721485503686946E-01 
    2.3851460710769767E-01 
    6.5042194635960615E-01 
    6.3652529760064480E-01 
    6.1388794411980208E-01 
    5.8816707273710744E-01 
    5.6054393384609813E-01 
    5.3113687805296306E-01 
    4.9995381479785173E-01 
    4.6706895791855924E-01 
    4.3266291411791286E-01 
    3.9707070600246130E-01 
    3.6089112197429790E-01 
    3.2518949642462874E-01 
    2.9180078466829162E-01 
    2.6361134948125059E-01 
    2.4423305686438365E-01 
    2.3482949629173241E-01 
    6.4491495139828536E-01 
    6.3397210128643811E-01 
    6.1382004615213193E-01 
    5.8945177864380516E-01 
    5.6256082415564301E-01 
    5.3359069395880832E-01 
    5.0268501307407465E-01 
    4.6996059418408848E-01 
    4.3558852110175700E-01 
    3.9984677288001930E-01 
    3.6322394631951094E-01 
    3.2662630749521931E-01 
    2.9174009391034106E-01 
    2.6150353099603352E-01 
    2.4011996065070798E-01 
    2.2974160143679470E-01 
    6.4040495468362846E-01 
    6.3148789213934431E-01 
    6.1347607620952183E-01 
    5.9048024497354334E-01 
    5.6439846028269536E-01 
    5.3592541866453702E-01 
    5.0533592210570000E-01 
    4.7279665684324301E-01 
    4.3847442312720897E-01 
    4.0259093954858233E-01 
    3.6551562334463633E-01 
    3.2796660648005899E-01 
    2.9141677775665220E-01 
    2.5877103642444721E-01 
    2.3483223119890712E-01 
    2.2305241685201849E-01 
    6.3670547703763469E-01 
    6.2919619168831509E-01 
    6.1298634731858881E-01 
    5.9131748539534101E-01 
    5.6608717700096933E-01 
    5.3815754631719159E-01 
    5.0791901450197041E-01 
    4.7559130253432758E-01 
    4.4134339893843044E-01 
    4.0534156724982556E-01 
    3.6782991566845719E-01 
    3.2930946834305547E-01 
    2.9096099863796065E-01 
    2.5552615396586581E-01 
    2.2834586197577372E-01 
    2.1453036589857638E-01 
    6.3368313966429868E-01 
    6.2716694987582278E-01 
    6.1245729022698814E-01 
    5.9203061214702568E-01 
    5.6766214233466517E-01 
    5.4030718705566405E-01 
    5.1044855858384564E-01 
    4.7835802835215568E-01 
    4.4421341193221769E-01 
    4.0813014823344279E-01 
    3.7022537599762156E-01 
    3.3075860411578722E-01 
    2.9052803379215086E-01 
    2.5192584241744193E-01 
    2.2066147191667312E-01 
    2.0387963980420842E-01 
    6.3124040787656477E-01 
    6.2543555454711097E-01 
    6.1196940369806729E-01 
    5.9268151716291917E-01 
    5.6916100246359114E-01 
    5.4239727907394975E-01 
    5.1294049678266285E-01 
    4.8111026749875357E-01 
    4.4709973798191383E-01 
    4.1098148020696479E-01 
    3.7275152162025121E-01 
    3.3241539651389096E-01 
    2.9029604806516091E-01 
    2.4818724262854736E-01 
    2.1182561538920219E-01 
    1.9070469677749097E-01 
    6.2930425844334437E-01 
    6.2401925129360980E-01 
    6.1158640304987932E-01 
    5.9332835812190832E-01 
    5.7062434837509479E-01 
    5.4445527025584228E-01 
    5.1541446195781815E-01 
    4.8386344995996111E-01 
    4.5001800674477266E-01 
    4.1391719654604575E-01 
    3.7544952912514640E-01 
    3.3437491905924099E-01 
    2.9046362186369273E-01 
    2.4460586338653437E-01 
    2.0197747673504282E-01 
    1.7448787882274217E-01 
    6.2781556523817961E-01 
    6.2292684140313404E-01 
    6.1136137436641291E-01 
    5.9402596811085451E-01 
    5.7209488454469970E-01 
    5.4651367084802094E-01 
    5.1789612832435084E-01 
    4.8663689817261396E-01 
    4.5298611883985629E-01 
    4.1695823114847008E-01 
    3.7835340646551474E-01 
    3.3672145525626707E-01 
    2.9124476753466949E-01 
    2.4156984644630208E-01 
    1.9140000897191808E-01 
    1.5449722811819616E-01 
    6.2673553553074257E-01 
    6.2217017644165973E-01 
    6.1134314989559901E-01 
    5.9482892759956496E-01 
    5.7361808451558904E-01 
    5.4860973334088059E-01 
    5.2041630974337072E-01 
    4.8945340229384487E-01 
    4.5602231055479869E-01 
    4.2012313868083839E-01 
    3.8148729348369553E-01 
    3.3951848004899388E-01 
    2.9284823387177350E-01 
    2.3959508717331460E-01 
    1.8069466066621009E-01 
    1.2966819260691131E-01 
    6.2603641330089022E-01 
    6.2176376776341158E-01 
    6.1157787139285280E-01 
    5.9579125295805446E-01 
    5.7524000731649005E-01 
    5.5077981899276862E-01 
    5.2300460679905370E-01 
    4.9233056466740416E-01 
    4.5912818790399457E-01 
    4.2340053661692706E-01 
    3.8483323044561701E-01 
    3.4276104199909185E-01 
    2.9539929359464234E-01 
    2.3926049346565662E-01 
    1.7101583807548545E-01 
    9.8425101213186983E-02 
    6.2557379781028644E-01 
    6.2161614618668604E-01 
    6.1203100463123805E-01 
    5.9689972456632967E-01 
    5.7693843618274521E-01 
    5.5298197771371971E-01 
    5.2561179005523762E-01 
    4.9522228320060130E-01 
    4.6224450088172980E-01 
    4.2671068559697667E-01 
    3.8828545596640412E-01 
    3.4628480203259610E-01 
    2.9875070495808853E-01 
    2.4083396449455274E-01 
    1.6399491675143144E-01 
    5.7834207209444474E-02 
    6.2540933571112722E-01 
    6.2178362535949949E-01 
    6.1275639801021442E-01 
    5.9820647041426855E-01 
    5.7875903748082569E-01 
    5.5524287004384731E-01 
    5.2825263135413814E-01 
    4.9816670677824965E-01 
    4.6543810613071007E-01 
    4.3013990158325766E-01 
    3.9195767992903197E-01 
    3.5023174501927284E-01 
    3.0314167742034331E-01 
    2.4509701710388138E-01 
    1.6337433969105791E-01 
    0.0000000000000000E+00 

SCALARS Saturarion double 1 
LOOKUP_TABLE default 

    1.0000000000000007E+00 
    9.7674663823314589E-01 
    9.3428832809629114E-01 
    8.7750734772536876E-01 
    8.2991884050520570E-01 
    7.8810137450954709E-01 
    7.5176206720631378E-01 
    7.2024627059993074E-01 
    6.9248046077336756E-01 
    6.6732553140081585E-01 
    6.4362348289528304E-01 
    6.2000928433392843E-01 
    5.9441314639955511E-01 
    5.6347771037714400E-01 
    5.0927944704448946E-01 
    2.3444365716200719E-01 
    9.9126018643236236E-01 
    9.6924398505155351E-01 
    9.2474882096313060E-01 
    8.7064272955683619E-01 
    8.2463341819936875E-01 
    7.8440285818670019E-01 
    7.4914379891244842E-01 
    7.1819626845819462E-01 
    6.9079100517223746E-01 
    6.6596383900081024E-01 
    6.4279376444938507E-01 
    6.2004709467542396E-01 
    5.9557719086503536E-01 
    5.6562751891095620E-01 
    5.1425144273900392E-01 
    2.6337999593006345E-01 
    9.7746072861589550E-01 
    9.5542370477064076E-01 
    9.1073960545820121E-01 
    8.5840896643943121E-01 
    8.1425721488420510E-01 
    7.7666099617709383E-01 
    7.4364709911364735E-01 
    7.1398277472005944E-01 
    6.8718698201742801E-01 
    6.6274516380785697E-01 
    6.4013321925786681E-01 
    6.1841811635893640E-01 
    5.9575665914110321E-01 
    5.6811612799090960E-01 
    5.2076646633185242E-01 
    2.8966002080954883E-01 
    9.5338599525958923E-01 
    9.3481478092221948E-01 
    8.9363353194541673E-01 
    8.4539493825772227E-01 
    8.0202791050543154E-01 
    7.6565399804075562E-01 
    7.3441624267130545E-01 
    7.0672711774899377E-01 
    6.8151578163395343E-01 
    6.5841481070947594E-01 
    6.3686743458971484E-01 
    6.1624995823154116E-01 
    5.9519846716022384E-01 
    5.7013620115113073E-01 
    5.2713037329595847E-01 
    3.1504893938284717E-01 
    9.2390174855277940E-01 
    9.0752102994029993E-01 
    8.7081773990391220E-01 
    8.2736742172455513E-01 
    7.8620715277595976E-01 
    7.5081400264562848E-01 
    7.2092691814231114E-01 
    6.9510893091684844E-01 
    6.7220973492401548E-01 
    6.5145831371711549E-01 
    6.3224619515209868E-01 
    6.1369489683498857E-01 
    5.9442404504495006E-01 
    5.7160261686381941E-01 
    5.3292939547383467E-01 
    3.3565590730339701E-01 
    8.9093043512191783E-01 
    8.7729007351983956E-01 
    8.4538903982547953E-01 
    8.0615439658564858E-01 
    7.6819624169715961E-01 
    7.3461524354697383E-01 
    7.0563370911392620E-01 
    6.8095636901237189E-01 
    6.5978004925727063E-01 
    6.4127861761579985E-01 
    6.2475391730343666E-01 
    6.0936870703506552E-01 
    5.9313967091556097E-01 
    5.7274453044454254E-01 
    5.3809753805373328E-01 
    3.5416727011587956E-01 
    8.5528622584204472E-01 
    8.4494977602887045E-01 
    8.1817327139555629E-01 
    7.8329809780366222E-01 
    7.4883910476576354E-01 
    7.1769870327123109E-01 
    6.9039645921337212E-01 
    6.6655501512769089E-01 
    6.4622112038304824E-01 
    6.2913083758782540E-01 
    6.1483461475042500E-01 
    6.0250499121462708E-01 
    5.9027809363048078E-01 
    5.7361398184129109E-01 
    5.4279672922067868E-01 
    3.7224836703819736E-01 
    8.1678178145685032E-01 
    8.1018602150502073E-01 
    7.8927591337282532E-01 
    7.5931028434584080E-01 
    7.2807236196812042E-01 
    6.9922752079681616E-01 
    6.7351611021022473E-01 
    6.5111260842165997E-01 
    6.3185028803076593E-01 
    6.1581044223024350E-01 
    6.0297373636778218E-01 
    5.9322631614699062E-01 
    5.8504108501376562E-01 
    5.7350102785344359E-01 
    5.4748303008697108E-01 
    3.9045414378461346E-01 
    7.7560863834525706E-01 
    7.7265364369210277E-01 
    7.5747728996586916E-01 
    7.3275897638392207E-01 
    7.0525400739617172E-01 
    6.7873347759863978E-01 
    6.5478462841672380E-01 
    6.3368004865725835E-01 
    6.1547897984934563E-01 
    6.0032476400884782E-01 
    5.8872250778120361E-01 
    5.8116523038078016E-01 
    5.7697283457271831E-01 
    5.7140247797661492E-01 
    5.5139343811676478E-01 
    4.0762038123679728E-01 
    7.3179546298244069E-01 
    7.3224100289734451E-01 
    7.2241620157771747E-01 
    7.0267731764870245E-01 
    6.7918130654041564E-01 
    6.5553916797794098E-01 
    6.3346989446342594E-01 
    6.1397346899527294E-01 
    5.9707287268717035E-01 
    5.8280582370735734E-01 
    5.7182723881939124E-01 
    5.6569056444686716E-01 
    5.6520094879431682E-01 
    5.6639379402434242E-01 
    5.5416603342122939E-01 
    4.2443053477815296E-01 
    6.8497704370384926E-01 
    6.8857833790719203E-01 
    6.8371962229665129E-01 
    6.6860303409774491E-01 
    6.4916682076746024E-01 
    6.2898412938876247E-01 
    6.0982076917304906E-01 
    5.9216881921060760E-01 
    5.7664905350236451E-01 
    5.6357838555753337E-01 
    5.5347297862852329E-01 
    5.4771662698610279E-01 
    5.4907817790732594E-01 
    5.5709167439182328E-01 
    5.5461605289214444E-01 
    4.4138145118513061E-01 
    6.3391980917681157E-01 
    6.4053241285832152E-01 
    6.4073150928911504E-01 
    6.3036248967545505E-01 
    6.1485329022791202E-01 
    5.9804753554897450E-01 
    5.8183257163616220E-01 
    5.6692060455581683E-01 
    5.5353032230077936E-01 
    5.4224689329223419E-01 
    5.3362385106829124E-01 
    5.2871574379502340E-01 
    5.3011518991298578E-01 
    5.4209363294849677E-01 
    5.4972036199208463E-01 
    4.5728721691625035E-01 
    5.8045938960071519E-01 
    5.8896902018851582E-01 
    5.9330121061419405E-01 
    5.8782535976406558E-01 
    5.7684441833173861E-01 
    5.6350856580014019E-01 
    5.5030183581005054E-01 
    5.3780542067177295E-01 
    5.2640680405183271E-01 
    5.1647524984148996E-01 
    5.0921552505820644E-01 
    5.0591524000507460E-01 
    5.0864014065955754E-01 
    5.2187385641741879E-01 
    5.4132813384922240E-01 
    4.7071687549662888E-01 
    5.2020557710891746E-01 
    5.3293545519549512E-01 
    5.4043135916230878E-01 
    5.3981776319672070E-01 
    5.3171082397639169E-01 
    5.2030310945016645E-01 
    5.0737468423496090E-01 
    4.9602345501834438E-01 
    4.8385075959816304E-01 
    4.6754328226716407E-01 
    4.5423794434782727E-01 
    4.5178645370536752E-01 
    4.5928568953555443E-01 
    4.8829195397560726E-01 
    5.2581941937633847E-01 
    4.8007559821089796E-01 
    2.9060716059827962E-01 
    3.6564390756117970E-01 
    4.0432170152480351E-01 
    4.1311485801119546E-01 
    3.9965212234788222E-01 
    3.7070614524685264E-01 
    3.1747872484778450E-01 
    2.6404754523967094E-01 
    2.4077286099990691E-01 
    1.9041099072250176E-01 
    1.7058711020455475E-01 
    1.5143557382854306E-01 
    1.8392468697384173E-01 
    3.2729026124282368E-01 
    4.6792057199584552E-01 
    4.8081336597587215E-01 
    5.1347668834923624E-04 
    1.7782356123881755E-02 
    3.4722262245628716E-02 
    3.5873397676357631E-02 
    2.7778074857938730E-02 
    9.4620274635102905E-03 
    4.4071672963142830E-03 
    2.9364885886490403E-04 
    3.9657689867999619E-04 
    1.4586686587479288E-05 
    5.2439291651590144E-05 
    2.0872608411493552E-05 
    5.1246730921779521E-04 
    9.7217948934069473E-02 
    2.9319386613948351E-01 
    4.2988607922771904E-01 
