# vtk DataFile Version 2.0
Pressure Field Data 
ASCII 
DATASET UNSTRUCTURED_GRID 

POINTS 289 double 

    0.0000000000000000E+00     0.0000000000000000E+00     0.0000000000000000E+00 
    1.0000000000000000E+00     0.0000000000000000E+00     0.0000000000000000E+00 
    1.0000000000000000E+00     1.0000000000000000E+00     0.0000000000000000E+00 
    0.0000000000000000E+00     1.0000000000000000E+00     0.0000000000000000E+00 
    6.2499999999872928E-02     0.0000000000000000E+00     0.0000000000000000E+00 
    1.2499999999977310E-01     0.0000000000000000E+00     0.0000000000000000E+00 
    1.8749999999959341E-01     0.0000000000000000E+00     0.0000000000000000E+00 
    2.4999999999941089E-01     0.0000000000000000E+00     0.0000000000000000E+00 
    3.1249999999922851E-01     0.0000000000000000E+00     0.0000000000000000E+00 
    3.7499999999904610E-01     0.0000000000000000E+00     0.0000000000000000E+00 
    4.3749999999886358E-01     0.0000000000000000E+00     0.0000000000000000E+00 
    4.9999999999869210E-01     0.0000000000000000E+00     0.0000000000000000E+00 
    5.6249999999884603E-01     0.0000000000000000E+00     0.0000000000000000E+00 
    6.2499999999901090E-01     0.0000000000000000E+00     0.0000000000000000E+00 
    6.8749999999917577E-01     0.0000000000000000E+00     0.0000000000000000E+00 
    7.4999999999934064E-01     0.0000000000000000E+00     0.0000000000000000E+00 
    8.1249999999950551E-01     0.0000000000000000E+00     0.0000000000000000E+00 
    8.7499999999967026E-01     0.0000000000000000E+00     0.0000000000000000E+00 
    9.3749999999983513E-01     0.0000000000000000E+00     0.0000000000000000E+00 
    1.0000000000000000E+00     6.2499999999872928E-02     0.0000000000000000E+00 
    1.0000000000000000E+00     1.2499999999977310E-01     0.0000000000000000E+00 
    1.0000000000000000E+00     1.8749999999959341E-01     0.0000000000000000E+00 
    1.0000000000000000E+00     2.4999999999941089E-01     0.0000000000000000E+00 
    1.0000000000000000E+00     3.1249999999922851E-01     0.0000000000000000E+00 
    1.0000000000000000E+00     3.7499999999904610E-01     0.0000000000000000E+00 
    1.0000000000000000E+00     4.3749999999886358E-01     0.0000000000000000E+00 
    1.0000000000000000E+00     4.9999999999869210E-01     0.0000000000000000E+00 
    1.0000000000000000E+00     5.6249999999884603E-01     0.0000000000000000E+00 
    1.0000000000000000E+00     6.2499999999901090E-01     0.0000000000000000E+00 
    1.0000000000000000E+00     6.8749999999917577E-01     0.0000000000000000E+00 
    1.0000000000000000E+00     7.4999999999934064E-01     0.0000000000000000E+00 
    1.0000000000000000E+00     8.1249999999950551E-01     0.0000000000000000E+00 
    1.0000000000000000E+00     8.7499999999967026E-01     0.0000000000000000E+00 
    1.0000000000000000E+00     9.3749999999983513E-01     0.0000000000000000E+00 
    9.3749999999973976E-01     1.0000000000000000E+00     0.0000000000000000E+00 
    8.7499999999950118E-01     1.0000000000000000E+00     0.0000000000000000E+00 
    8.1249999999991318E-01     1.0000000000000000E+00     0.0000000000000000E+00 
    7.5000000000034706E-01     1.0000000000000000E+00     0.0000000000000000E+00 
    6.8750000000078049E-01     1.0000000000000000E+00     0.0000000000000000E+00 
    6.2500000000121403E-01     1.0000000000000000E+00     0.0000000000000000E+00 
    5.6250000000164757E-01     1.0000000000000000E+00     0.0000000000000000E+00 
    5.0000000000205946E-01     1.0000000000000000E+00     0.0000000000000000E+00 
    4.3750000000182099E-01     1.0000000000000000E+00     0.0000000000000000E+00 
    3.7500000000156092E-01     1.0000000000000000E+00     0.0000000000000000E+00 
    3.1250000000130068E-01     1.0000000000000000E+00     0.0000000000000000E+00 
    2.5000000000104050E-01     1.0000000000000000E+00     0.0000000000000000E+00 
    1.8750000000078040E-01     1.0000000000000000E+00     0.0000000000000000E+00 
    1.2500000000052031E-01     1.0000000000000000E+00     0.0000000000000000E+00 
    6.2500000000260125E-02     1.0000000000000000E+00     0.0000000000000000E+00 
    0.0000000000000000E+00     9.3749999999973976E-01     0.0000000000000000E+00 
    0.0000000000000000E+00     8.7499999999950118E-01     0.0000000000000000E+00 
    0.0000000000000000E+00     8.1249999999991318E-01     0.0000000000000000E+00 
    0.0000000000000000E+00     7.5000000000034706E-01     0.0000000000000000E+00 
    0.0000000000000000E+00     6.8750000000078049E-01     0.0000000000000000E+00 
    0.0000000000000000E+00     6.2500000000121403E-01     0.0000000000000000E+00 
    0.0000000000000000E+00     5.6250000000164757E-01     0.0000000000000000E+00 
    0.0000000000000000E+00     5.0000000000205946E-01     0.0000000000000000E+00 
    0.0000000000000000E+00     4.3750000000182099E-01     0.0000000000000000E+00 
    0.0000000000000000E+00     3.7500000000156092E-01     0.0000000000000000E+00 
    0.0000000000000000E+00     3.1250000000130068E-01     0.0000000000000000E+00 
    0.0000000000000000E+00     2.5000000000104050E-01     0.0000000000000000E+00 
    0.0000000000000000E+00     1.8750000000078040E-01     0.0000000000000000E+00 
    0.0000000000000000E+00     1.2500000000052031E-01     0.0000000000000000E+00 
    0.0000000000000000E+00     6.2500000000260125E-02     0.0000000000000000E+00 
    6.2499999999897131E-02     6.2500000000235922E-02     0.0000000000000000E+00 
    6.2499999999921327E-02     1.2500000000047351E-01     0.0000000000000000E+00 
    6.2499999999945530E-02     1.8750000000070621E-01     0.0000000000000000E+00 
    6.2499999999969733E-02     2.5000000000093858E-01     0.0000000000000000E+00 
    6.2499999999993928E-02     3.1250000000117117E-01     0.0000000000000000E+00 
    6.2500000000018124E-02     3.7500000000140382E-01     0.0000000000000000E+00 
    6.2500000000042327E-02     4.3750000000163619E-01     0.0000000000000000E+00 
    6.2500000000066530E-02     5.0000000000184897E-01     0.0000000000000000E+00 
    6.2500000000090733E-02     5.6250000000147260E-01     0.0000000000000000E+00 
    6.2500000000114922E-02     6.2500000000107636E-01     0.0000000000000000E+00 
    6.2500000000139125E-02     6.8750000000068034E-01     0.0000000000000000E+00 
    6.2500000000163328E-02     7.5000000000028411E-01     0.0000000000000000E+00 
    6.2500000000187531E-02     8.1249999999988787E-01     0.0000000000000000E+00 
    6.2500000000211720E-02     8.7499999999951172E-01     0.0000000000000000E+00 
    6.2500000000235922E-02     9.3749999999974565E-01     0.0000000000000000E+00 
    1.2499999999981980E-01     6.2500000000211733E-02     0.0000000000000000E+00 
    1.2499999999986650E-01     1.2500000000042691E-01     0.0000000000000000E+00 
    1.2499999999991319E-01     1.8750000000063199E-01     0.0000000000000000E+00 
    1.2499999999995989E-01     2.5000000000083678E-01     0.0000000000000000E+00 
    1.2500000000000661E-01     3.1250000000104172E-01     0.0000000000000000E+00 
    1.2500000000005329E-01     3.7500000000124661E-01     0.0000000000000000E+00 
    1.2500000000010000E-01     4.3750000000145117E-01     0.0000000000000000E+00 
    1.2500000000014669E-01     5.0000000000163858E-01     0.0000000000000000E+00 
    1.2500000000019340E-01     5.6250000000129741E-01     0.0000000000000000E+00 
    1.2500000000024011E-01     6.2500000000093847E-01     0.0000000000000000E+00 
    1.2500000000028680E-01     6.8750000000057998E-01     0.0000000000000000E+00 
    1.2500000000033351E-01     7.5000000000022127E-01     0.0000000000000000E+00 
    1.2500000000038020E-01     8.1249999999986211E-01     0.0000000000000000E+00 
    1.2500000000042691E-01     8.7499999999952238E-01     0.0000000000000000E+00 
    1.2500000000047359E-01     9.3749999999975164E-01     0.0000000000000000E+00 
    1.8749999999966760E-01     6.2500000000187531E-02     0.0000000000000000E+00 
    1.8749999999974179E-01     1.2500000000038020E-01     0.0000000000000000E+00 
    1.8749999999981601E-01     1.8750000000055780E-01     0.0000000000000000E+00 
    1.8749999999989009E-01     2.5000000000073502E-01     0.0000000000000000E+00 
    1.8749999999996431E-01     3.1250000000091221E-01     0.0000000000000000E+00 
    1.8750000000003850E-01     3.7500000000108941E-01     0.0000000000000000E+00 
    1.8750000000011269E-01     4.3750000000126649E-01     0.0000000000000000E+00 
    1.8750000000018691E-01     5.0000000000142808E-01     0.0000000000000000E+00 
    1.8750000000026110E-01     5.6250000000112244E-01     0.0000000000000000E+00 
    1.8750000000033529E-01     6.2500000000080080E-01     0.0000000000000000E+00 
    1.8750000000040951E-01     6.8750000000047962E-01     0.0000000000000000E+00 
    1.8750000000048361E-01     7.5000000000015843E-01     0.0000000000000000E+00 
    1.8750000000055780E-01     8.1249999999983680E-01     0.0000000000000000E+00 
    1.8750000000063199E-01     8.7499999999953304E-01     0.0000000000000000E+00 
    1.8750000000070621E-01     9.3749999999975764E-01     0.0000000000000000E+00 
    2.4999999999951281E-01     6.2500000000163314E-02     0.0000000000000000E+00 
    2.4999999999961461E-01     1.2500000000033351E-01     0.0000000000000000E+00 
    2.4999999999971650E-01     1.8750000000048361E-01     0.0000000000000000E+00 
    2.4999999999981831E-01     2.5000000000063310E-01     0.0000000000000000E+00 
    2.4999999999992020E-01     3.1250000000078260E-01     0.0000000000000000E+00 
    2.5000000000002198E-01     3.7500000000093209E-01     0.0000000000000000E+00 
    2.5000000000012390E-01     4.3750000000108180E-01     0.0000000000000000E+00 
    2.5000000000022571E-01     5.0000000000121769E-01     0.0000000000000000E+00 
    2.5000000000032763E-01     5.6250000000094724E-01     0.0000000000000000E+00 
    2.5000000000042938E-01     6.2500000000066314E-01     0.0000000000000000E+00 
    2.5000000000053119E-01     6.8750000000037925E-01     0.0000000000000000E+00 
[...]
CELL_DATA 256 
SCALARS Pressure double 1 
LOOKUP_TABLE default 

    8.6704147735285264E-01 
    8.1530966755475287E-01 
    7.8057951824568095E-01 
    7.4794023878616656E-01 
    7.1408972800681314E-01 
    6.7829716571842769E-01 
    6.4042515665410404E-01 
    6.0064485390724875E-01 
    5.5935830832914502E-01 
    5.1725299563213833E-01 
    4.7546375293538068E-01 
    4.3580787232786772E-01 
    4.0083557210066412E-01 
    3.7243379624211487E-01 
    3.5018809372040088E-01 
    3.3993020558357151E-01 
    8.5310215816836388E-01 
    8.1678924065985348E-01 
    7.8325061306883270E-01 
    7.5091231408466763E-01 
    7.1732525522073498E-01 
    6.8178475804068295E-01 
    6.4413646761430676E-01 
    6.0452453953683549E-01 
    5.6331852151122719E-01 
    5.2115938357631764E-01 
    4.7911166935381133E-01 
    4.3891063588219431E-01 
    4.0309922993315123E-01 
    3.7379541597933874E-01 
    3.5056272149613832E-01 
    3.3950136748679260E-01 
    8.4237868258605719E-01 
    8.1606924245241630E-01 
    7.8511072835447049E-01 
    7.5349093460297556E-01 
    7.2030074453562887E-01 
    6.8506732364903866E-01 
    6.4766923737515691E-01 
    6.0823203138728310E-01 
    5.6708785865678568E-01 
    5.2482025279903899E-01 
    4.8240723151913739E-01 
    4.4148013211886034E-01 
    4.0455475300968685E-01 
    3.7404142726785278E-01 
    3.4964220820376835E-01 
    3.3792904339607366E-01 
    8.3386252368450586E-01 
    8.1419300674991035E-01 
    7.8619423803602684E-01 
    7.5566056727133046E-01 
    7.2302026609711778E-01 
    6.8815468826326753E-01 
    6.5103230599686868E-01 
    6.1177909913564665E-01 
    5.7068976134749694E-01 
    5.2827827438844954E-01 
    4.8541616851410696E-01 
    4.4360119362884604E-01 
    4.0528637370550968E-01 
    3.7318786797212178E-01 
    3.4735923976201610E-01 
    3.3501905407368121E-01 
    8.2689959553295100E-01 
    8.1173699110296393E-01 
    7.8662731474062264E-01 
    7.5742954756685699E-01 
    7.2548955528985648E-01 
    6.9106218164770639E-01 
    6.5424478462989955E-01 
    6.1518757830265958E-01 
    5.7415414786320851E-01 
    5.3158060265584728E-01 
    4.8821051233246177E-01 
    4.4537148722878994E-01 
    4.0539856005334018E-01 
    3.7127428895027953E-01 
    3.4365496144349744E-01 
    3.3057801216869231E-01 
    8.2112833097896099E-01 
    8.0906009005033774E-01 
    7.8656601368838197E-01 
    7.5883484002144352E-01 
    7.2772168471522680E-01 
    6.9380697152475612E-01 
    6.5733133158554091E-01 
    6.1848761117880402E-01 
    5.7751718234979321E-01 
    5.3477652645181195E-01 
    4.9086429886869964E-01 
    4.4689744441456553E-01 
    4.0501469532633411E-01 
    3.6837851466159832E-01 
    3.3849438104432317E-01 
    3.2439621576290223E-01 
    8.1631750266706993E-01 
    8.0639559291184060E-01 
    7.8617488522990187E-01 
    7.5994150091350787E-01 
    7.2974378347953228E-01 
    6.9640872212191096E-01 
    6.6031613432438285E-01 
    6.2171064899710049E-01 
    5.8081799172860304E-01 
    5.3791755273644404E-01 
    4.9345349540089806E-01 
    4.4829255886536923E-01 
    4.0427814455577982E-01 
    3.6461648746592984E-01 
    3.3183408390525931E-01 
    3.1617812660149180E-01 
    8.1230242892567506E-01 
    8.0388968653823722E-01 
    7.8560134509752932E-01 
    7.6082488593938280E-01 
    7.3159222989686168E-01 
    6.9889042172087590E-01 
    6.6322141740966012E-01 
    6.2488441293820707E-01 
    5.8409474866388800E-01 
    5.4105743616558555E-01 
    4.9605863347298290E-01 
    4.4968174896031088E-01 
    4.0336223825671924E-01 
    3.6014491990285546E-01 
    3.2357077082412039E-01 
    3.0539931756730809E-01 
    8.0896691270068977E-01 
    8.0163094295019477E-01 
    7.8496634738473781E-01 
    7.6156232164423432E-01 
    7.3330995900974028E-01 
    7.0127798697793875E-01 
    6.6606660732930933E-01 
    6.2803108294457399E-01 
    5.8738088874607786E-01 
    5.4424839716659579E-01 
    4.9876135942004074E-01 
    4.5119859824271419E-01 
    4.0247432201416289E-01 
    3.5518409714304056E-01 
    3.1361612136234079E-01 
    2.9133714173401165E-01 
    8.0622630696012776E-01 
    7.9966918563976708E-01 
    7.8436312106238326E-01 
    7.6222739172029463E-01 
    7.3494565815788593E-01 
    7.0360184033906392E-01 
    6.6887134900412881E-01 
    6.3117033898469255E-01 
    5.9070653481855351E-01 
    5.4753876888164343E-01 
    5.0163999741108045E-01 
    4.5298057615346432E-01 
    4.0185479279336400E-01 
    3.5003896376791366E-01 
    3.0199886782076096E-01 
    2.7328106702945387E-01 
    8.0402194620132195E-01 
    7.9803797657329190E-01 
    7.8387187232838773E-01 
    7.6289444099484238E-01 
    7.3655584856074030E-01 
    7.0590174253263482E-01 
    6.7166228193305988E-01 
    6.3432387705528204E-01 
    5.9409804671477229E-01 
    5.5096713999646951E-01 
    5.0476011884678451E-01 
    4.5515921039038387E-01 
    4.0177084396422930E-01 
    3.4513024087614441E-01 
    2.8893659902593088E-01 
    2.5051402276141410E-01 
    8.0232059581489379E-01 
    7.9677522993698047E-01 
    7.8357226404597169E-01 
    7.6364021168938478E-01 
    7.3820338074929082E-01 
    7.0822795428823992E-01 
    6.7447514750701631E-01 
    6.3751083499864070E-01 
    5.9756432896085176E-01 
    5.5453964182832094E-01 
    5.0814176715431725E-01 
    4.5781749718117831E-01 
    4.0247044301346785E-01 
    3.4098761630169500E-01 
    2.7490855842235401E-01 
    2.2214593501836466E-01 
    8.0108567556224086E-01 
    7.9590857261228987E-01 
    7.8353077721344566E-01 
    7.6453039831470226E-01 
    7.3994082704996356E-01 
    7.1062090425539304E-01 
    6.7732713593187177E-01 
    6.4068345233347879E-01 
    6.0096748954781132E-01 
    5.5807059386553237E-01 
    5.1157224190622308E-01 
    4.6077873783639689E-01 
    4.0397373351993388E-01 
    3.3802435026683675E-01 
    2.6051057847381109E-01 
    1.8672320670225562E-01 
    8.0009815757302516E-01 
    7.9530655909033732E-01 
    7.8369139208293048E-01 
    7.6551593373330684E-01 
    7.4167416603561720E-01 
    7.1296786203167606E-01 
    6.8011295912040026E-01 
    6.4374849042420779E-01 
    6.0421766021769496E-01 
    5.6151250535699493E-01 
    5.1512403131460838E-01 
    4.6419107065720466E-01 
    4.0645693484438722E-01 
    3.3665871285791182E-01 
    2.4643608825289676E-01 
    1.4137192918035607E-01 
    7.9943019091711887E-01 
    7.9496433330977923E-01 
    7.8403231014807662E-01 
    7.6659546293722725E-01 
    7.4341380575520011E-01 
    7.1528832653736107E-01 
    6.8291066416988799E-01 
    6.4690044998645635E-01 
    6.0764475590898914E-01 
    5.6521590059443083E-01 
    5.1910433129825040E-01 
    4.6832868736899191E-01 
    4.1041652528401990E-01 
    3.3863799622798441E-01 
    2.3603497120348704E-01 
    8.1301944619979305E-02 
    7.9924654190761169E-01 
    7.9514441369832645E-01 
    7.8482577451434288E-01 
    7.6805076063415423E-01 
    7.4547137596589985E-01 
    7.1788161743507917E-01 
    6.8597314211384930E-01 
    6.5034908908521427E-01 
    6.1142420011122589E-01 
    5.6929538162791893E-01 
    5.2350898086112663E-01 
    4.7309526491524784E-01 
    4.1564926928790602E-01 
    3.4453533692660165E-01 
    2.3727632015399600E-01 
    0.0000000000000000E+00 

SCALARS Saturarion double 1 
LOOKUP_TABLE default 

    1.0000000000000013E+00 
    9.6695771769321126E-01 
    9.0961239127860660E-01 
    8.3916778457853725E-01 
    7.7939176605644234E-01 
    7.2962439659508138E-01 
    6.8880733546382411E-01 
    6.5458448432122263E-01 
    6.2448572443482064E-01 
    5.9660529849249089E-01 
    5.6972251993220346E-01 
    5.4303109288269724E-01 
    5.1348746834049719E-01 
    4.4464574176977756E-01 
    1.3057282136910259E-01 
    1.0000019610744305E-06 
    9.8652655903399378E-01 
    9.5521519473970451E-01 
    8.9517266208793633E-01 
    8.2976413668900273E-01 
    7.7405885904711169E-01 
    7.2634414036143768E-01 
    6.8605074480592609E-01 
    6.5180694709125619E-01 
    6.2192092426734580E-01 
    5.9466309853930954E-01 
    5.6871374351584603E-01 
    5.4301792607513466E-01 
    5.1455506240987037E-01 
    4.4978223743736467E-01 
    1.5342536085537972E-01 
    5.2251904323670122E-06 
    9.6536803375856040E-01 
    9.3492157432625245E-01 
    8.7541992395855217E-01 
    8.1391100248279580E-01 
    7.6321929870194916E-01 
    7.1912568160698576E-01 
    6.8027660420072744E-01 
    6.4618078884767571E-01 
    6.1648821126001319E-01 
    5.9013455722512520E-01 
    5.6574502396536908E-01 
    5.4172655481429843E-01 
    5.1513449639069886E-01 
    4.5757355395952504E-01 
    1.8223151344682831E-01 
    3.6563940436617973E-05 
    9.2825235258221761E-01 
    9.0377336128810704E-01 
    8.5154024846673992E-01 
    7.9458258606253185E-01 
    7.4667262772185372E-01 
    7.0669404023042792E-01 
    6.7122121947104152E-01 
    6.3941246576277011E-01 
    6.1100942891089516E-01 
    5.8573143906400826E-01 
    5.6246839176000596E-01 
    5.3992837509878666E-01 
    5.1573527739457481E-01 
    4.6504927970470483E-01 
    2.1823913151004584E-01 
    2.7173059120538009E-04 
    8.8657626878078388E-01 
    8.6596003402926225E-01 
    8.2082382092578432E-01 
    7.7042922426624394E-01 
    7.2628084626616318E-01 
    6.8939477511577463E-01 
    6.5768676503099566E-01 
    6.2948970176354324E-01 
    6.0402921349958016E-01 
    5.8081468989000307E-01 
    5.5924265217227154E-01 
    5.3834477955361593E-01 
    5.1613948008835753E-01 
    4.7196851350581087E-01 
    2.5824293664312992E-01 
    1.0256809550877126E-03 
    8.4327850272043270E-01 
    8.2661642148437831E-01 
    7.8880073961640840E-01 
    7.4498808987810672E-01 
    7.0489516439461009E-01 
    6.7046743598129854E-01 
    6.4113120659077694E-01 
    6.1600501195673130E-01 
    5.9365959681157421E-01 
    5.7306184292125706E-01 
    5.5377105080177969E-01 
    5.3534984186385315E-01 
    5.1599964652848407E-01 
    4.7756083562828944E-01 
    3.0120271425744255E-01 
    4.5595087754579213E-03 
    7.9856677897958039E-01 
    7.8661091454668375E-01 
    7.5634638492645057E-01 
    7.1852599260907857E-01 
    6.8246640899634825E-01 
    6.5085074991665037E-01 
    6.2394860719745338E-01 
    6.0080942720235464E-01 
    5.8073585671695305E-01 
    5.6272488888791272E-01 
    5.4609183514381920E-01 
    5.3031205628833733E-01 
    5.1424566018116102E-01 
    4.8243066728002909E-01 
    3.3797827609973224E-01 
    1.6819340535710582E-02 
    7.5255130022859196E-01 
    7.4546380142399560E-01 
    7.2293346117885604E-01 
    6.9116058967396499E-01 
    6.5885617544989505E-01 
    6.2996679263730060E-01 
    6.0497993808019923E-01 
    5.8370262234126846E-01 
    5.6563252862707081E-01 
    5.5018264370916192E-01 
    5.3633371852012568E-01 
    5.2349223515824894E-01 
    5.1077315492359665E-01 
    4.8636069142911764E-01 
    3.6806457254492442E-01 
    4.9268748804732414E-02 
    7.0532470810756409E-01 
    7.0253886577521019E-01 
    6.8692546942052168E-01 
    6.6150907962434280E-01 
    6.3379509981952831E-01 
    6.0769950887654123E-01 
    5.8438650666178926E-01 
    5.6415392415215615E-01 
    5.4759383823245644E-01 
    5.3442201287207280E-01 
    5.2371540079614765E-01 
    5.1430557583569758E-01 
    5.0531300214629515E-01 
    4.8818508301441077E-01 
    3.9363442973103296E-01 
    9.3968447985540771E-02 
    6.5688549573518085E-01 
    6.5782210707780275E-01 
    6.4834280127164845E-01 
    6.2893406932097218E-01 
    6.0626903501526164E-01 
    5.8374367892037404E-01 
    5.6242245142602543E-01 
    5.4360159507432282E-01 
    5.2852467559332916E-01 
    5.1701106420395426E-01 
    5.0813226785808741E-01 
    5.0194677490279460E-01 
    4.9744479269959513E-01 
    4.8766805774614991E-01 
    4.1328204316532519E-01 
    1.4034092430310016E-01 
    6.0786261484250403E-01 
    6.1182833987646468E-01 
    6.0781409527829211E-01 
    5.9407660217939551E-01 
    5.7636047027207915E-01 
    5.5796608286959370E-01 
    5.4024018129273033E-01 
    5.2366897878350416E-01 
    5.0944052844353216E-01 
    4.9792711679156793E-01 
    4.8919299353288320E-01 
    4.8474872295953236E-01 
    4.8524578881980984E-01 
    4.8376103062095471E-01 
    4.2933543018137538E-01 
    1.8431159600670952E-01 
    5.6102859854603182E-01 
    5.6693996170419614E-01 
    5.6752396965949159E-01 
    5.5858415799410532E-01 
    5.4445308927452440E-01 
    5.2968084286554484E-01 
    5.1580407037264830E-01 
    5.0134697095374847E-01 
    4.8557349723139620E-01 
    4.7054518338275553E-01 
    4.5778491284048878E-01 
    4.5324254967516620E-01 
    4.5998368708384002E-01 
    4.7177659879606132E-01 
    4.4126468092227322E-01 
    2.2528585019329231E-01 
    5.0631467478754599E-01 
    5.1707893171803354E-01 
    5.2171187592753254E-01 
    5.1754965319233892E-01 
    5.0507249228325946E-01 
    4.9050057438409578E-01 
    4.7563897186533582E-01 
    4.5518118367869509E-01 
    4.0661275096433969E-01 
    3.3168705551140515E-01 
    2.7959322315080870E-01 
    2.7699983489371116E-01 
    3.4987693677449416E-01 
    4.2601225172395357E-01 
    4.3433247846010115E-01 
    2.6269495082142802E-01 
    3.0561685605378242E-01 
    3.7940146551133991E-01 
    4.1286647342214738E-01 
    4.1416731213839098E-01 
    3.8219476153756915E-01 
    3.0578487050129566E-01 
    2.4520409059207526E-01 
    1.7128676896975845E-01 
    6.3493474301104358E-02 
    1.1159072271521797E-02 
    2.2962776991298866E-03 
    2.1959773424695709E-03 
    7.2040294628611223E-02 
    2.4300565178743191E-01 
    3.8900717393920375E-01 
    2.8466159971003885E-01 
    2.2852306366293903E-03 
    3.8219931412875732E-02 
    6.1066030582885199E-02 
    5.6593776025974839E-02 
    2.9483256215787210E-02 
    4.2670943988860517E-03 
    5.8287674012218529E-04 
    5.0642953215276840E-05 
    2.1470642998648052E-05 
    2.5898171786158493E-06 
    1.0359082739052537E-06 
    1.0620691727364873E-06 
    3.8983660174581557E-04 
    5.0810751081643818E-02 
    2.8853839038201623E-01 
    2.9251953342823989E-01 
    1.0000090043172719E-06 
    1.3581510832387647E-05 
    2.8031692530221074E-06 
    3.2604889498130415E-06 
    6.6002239427901138E-06 
    1.1732191857490828E-06 
    1.0038536205821358E-06 
    1.0001557716780172E-06 
    1.0000151198857018E-06 
    1.0000001346659462E-06 
    1.0000000028902542E-06 
    1.0000000054731396E-06 
    1.0240876930368847E-06 
    3.8650368183472186E-05 
    1.5380680339160568E-01 
    2.6146490466977856E-01 
