# vtk DataFile Version 2.0
Pressure Field Data 
ASCII 
DATASET UNSTRUCTURED_GRID 

POINTS 289 double 

    0.0000000000000000E+00     0.0000000000000000E+00     0.0000000000000000E+00 
    1.0000000000000000E+00     0.0000000000000000E+00     0.0000000000000000E+00 
    1.0000000000000000E+00     1.0000000000000000E+00     0.0000000000000000E+00 
    0.0000000000000000E+00     1.0000000000000000E+00     0.0000000000000000E+00 
    6.2499999999872928E-02     0.0000000000000000E+00     0.0000000000000000E+00 
    1.2499999999977310E-01     0.0000000000000000E+00     0.0000000000000000E+00 
    1.8749999999959341E-01     0.0000000000000000E+00     0.0000000000000000E+00 
    2.4999999999941089E-01     0.0000000000000000E+00     0.0000000000000000E+00 
    3.1249999999922851E-01     0.0000000000000000E+00     0.0000000000000000E+00 
    3.7499999999904610E-01     0.0000000000000000E+00     0.0000000000000000E+00 
    4.3749999999886358E-01     0.0000000000000000E+00     0.0000000000000000E+00 
    4.9999999999869210E-01     0.0000000000000000E+00     0.0000000000000000E+00 
    5.6249999999884603E-01     0.0000000000000000E+00     0.0000000000000000E+00 
    6.2499999999901090E-01     0.0000000000000000E+00     0.0000000000000000E+00 
    6.8749999999917577E-01     0.0000000000000000E+00     0.0000000000000000E+00 
    7.4999999999934064E-01     0.0000000000000000E+00     0.0000000000000000E+00 
    8.1249999999950551E-01     0.0000000000000000E+00     0.0000000000000000E+00 
    8.7499999999967026E-01     0.0000000000000000E+00     0.0000000000000000E+00 
    9.3749999999983513E-01     0.0000000000000000E+00     0.0000000000000000E+00 
    1.0000000000000000E+00     6.2499999999872928E-02     0.0000000000000000E+00 
    1.0000000000000000E+00     1.2499999999977310E-01     0.0000000000000000E+00 
    1.0000000000000000E+00     1.8749999999959341E-01     0.0000000000000000E+00 
    1.0000000000000000E+00     2.4999999999941089E-01     0.0000000000000000E+00 
    1.0000000000000000E+00     3.1249999999922851E-01     0.0000000000000000E+00 
    1.0000000000000000E+00     3.7499999999904610E-01     0.0000000000000000E+00 
    1.0000000000000000E+00     4.3749999999886358E-01     0.0000000000000000E+00 
    1.0000000000000000E+00     4.9999999999869210E-01     0.0000000000000000E+00 
    1.0000000000000000E+00     5.6249999999884603E-01     0.0000000000000000E+00 
    1.0000000000000000E+00     6.2499999999901090E-01     0.0000000000000000E+00 
    1.0000000000000000E+00     6.8749999999917577E-01     0.0000000000000000E+00 
    1.0000000000000000E+00     7.4999999999934064E-01     0.0000000000000000E+00 
    1.0000000000000000E+00     8.1249999999950551E-01     0.0000000000000000E+00 
    1.0000000000000000E+00     8.7499999999967026E-01     0.0000000000000000E+00 
    1.0000000000000000E+00     9.3749999999983513E-01     0.0000000000000000E+00 
    9.3749999999973976E-01     1.0000000000000000E+00     0.0000000000000000E+00 
    8.7499999999950118E-01     1.0000000000000000E+00     0.0000000000000000E+00 
    8.1249999999991318E-01     1.0000000000000000E+00     0.0000000000000000E+00 
    7.5000000000034706E-01     1.0000000000000000E+00     0.0000000000000000E+00 
    6.8750000000078049E-01     1.0000000000000000E+00     0.0000000000000000E+00 
    6.2500000000121403E-01     1.0000000000000000E+00     0.0000000000000000E+00 
    5.6250000000164757E-01     1.0000000000000000E+00     0.0000000000000000E+00 
    5.0000000000205946E-01     1.0000000000000000E+00     0.0000000000000000E+00 
    4.3750000000182099E-01     1.0000000000000000E+00     0.0000000000000000E+00 
    3.7500000000156092E-01     1.0000000000000000E+00     0.0000000000000000E+00 
    3.1250000000130068E-01     1.0000000000000000E+00     0.0000000000000000E+00 
    2.5000000000104050E-01     1.0000000000000000E+00     0.0000000000000000E+00 
    1.8750000000078040E-01     1.0000000000000000E+00     0.0000000000000000E+00 
    1.2500000000052031E-01     1.0000000000000000E+00     0.0000000000000000E+00 
    6.2500000000260125E-02     1.0000000000000000E+00     0.0000000000000000E+00 
    0.0000000000000000E+00     9.3749999999973976E-01     0.0000000000000000E+00 
    0.0000000000000000E+00     8.7499999999950118E-01     0.0000000000000000E+00 
    0.0000000000000000E+00     8.1249999999991318E-01     0.0000000000000000E+00 
    0.0000000000000000E+00     7.5000000000034706E-01     0.0000000000000000E+00 
    0.0000000000000000E+00     6.8750000000078049E-01     0.0000000000000000E+00 
    0.0000000000000000E+00     6.2500000000121403E-01     0.0000000000000000E+00 
    0.0000000000000000E+00     5.6250000000164757E-01     0.0000000000000000E+00 
    0.0000000000000000E+00     5.0000000000205946E-01     0.0000000000000000E+00 
    0.0000000000000000E+00     4.3750000000182099E-01     0.0000000000000000E+00 
    0.0000000000000000E+00     3.7500000000156092E-01     0.0000000000000000E+00 
    0.0000000000000000E+00     3.1250000000130068E-01     0.0000000000000000E+00 
    0.0000000000000000E+00     2.5000000000104050E-01     0.0000000000000000E+00 
    0.0000000000000000E+00     1.8750000000078040E-01     0.0000000000000000E+00 
    0.0000000000000000E+00     1.2500000000052031E-01     0.0000000000000000E+00 
    0.0000000000000000E+00     6.2500000000260125E-02     0.0000000000000000E+00 
    6.2499999999897131E-02     6.2500000000235922E-02     0.0000000000000000E+00 
    6.2499999999921327E-02     1.2500000000047351E-01     0.0000000000000000E+00 
    6.2499999999945530E-02     1.8750000000070621E-01     0.0000000000000000E+00 
    6.2499999999969733E-02     2.5000000000093858E-01     0.0000000000000000E+00 
    6.2499999999993928E-02     3.1250000000117117E-01     0.0000000000000000E+00 
    6.2500000000018124E-02     3.7500000000140382E-01     0.0000000000000000E+00 
    6.2500000000042327E-02     4.3750000000163619E-01     0.0000000000000000E+00 
    6.2500000000066530E-02     5.0000000000184897E-01     0.0000000000000000E+00 
    6.2500000000090733E-02     5.6250000000147260E-01     0.0000000000000000E+00 
    6.2500000000114922E-02     6.2500000000107636E-01     0.0000000000000000E+00 
    6.2500000000139125E-02     6.8750000000068034E-01     0.0000000000000000E+00 
    6.2500000000163328E-02     7.5000000000028411E-01     0.0000000000000000E+00 
    6.2500000000187531E-02     8.1249999999988787E-01     0.0000000000000000E+00 
    6.2500000000211720E-02     8.7499999999951172E-01     0.0000000000000000E+00 
    6.2500000000235922E-02     9.3749999999974565E-01     0.0000000000000000E+00 
    1.2499999999981980E-01     6.2500000000211733E-02     0.0000000000000000E+00 
    1.2499999999986650E-01     1.2500000000042691E-01     0.0000000000000000E+00 
    1.2499999999991319E-01     1.8750000000063199E-01     0.0000000000000000E+00 
    1.2499999999995989E-01     2.5000000000083678E-01     0.0000000000000000E+00 
    1.2500000000000661E-01     3.1250000000104172E-01     0.0000000000000000E+00 
    1.2500000000005329E-01     3.7500000000124661E-01     0.0000000000000000E+00 
    1.2500000000010000E-01     4.3750000000145117E-01     0.0000000000000000E+00 
    1.2500000000014669E-01     5.0000000000163858E-01     0.0000000000000000E+00 
    1.2500000000019340E-01     5.6250000000129741E-01     0.0000000000000000E+00 
    1.2500000000024011E-01     6.2500000000093847E-01     0.0000000000000000E+00 
    1.2500000000028680E-01     6.8750000000057998E-01     0.0000000000000000E+00 
    1.2500000000033351E-01     7.5000000000022127E-01     0.0000000000000000E+00 
    1.2500000000038020E-01     8.1249999999986211E-01     0.0000000000000000E+00 
    1.2500000000042691E-01     8.7499999999952238E-01     0.0000000000000000E+00 
    1.2500000000047359E-01     9.3749999999975164E-01     0.0000000000000000E+00 
    1.8749999999966760E-01     6.2500000000187531E-02     0.0000000000000000E+00 
    1.8749999999974179E-01     1.2500000000038020E-01     0.0000000000000000E+00 
    1.8749999999981601E-01     1.8750000000055780E-01     0.0000000000000000E+00 
    1.8749999999989009E-01     2.5000000000073502E-01     0.0000000000000000E+00 
    1.8749999999996431E-01     3.1250000000091221E-01     0.0000000000000000E+00 
    1.8750000000003850E-01     3.7500000000108941E-01     0.0000000000000000E+00 
    1.8750000000011269E-01     4.3750000000126649E-01     0.0000000000000000E+00 
    1.8750000000018691E-01     5.0000000000142808E-01     0.0000000000000000E+00 
    1.8750000000026110E-01     5.6250000000112244E-01     0.0000000000000000E+00 
    1.8750000000033529E-01     6.2500000000080080E-01     0.0000000000000000E+00 
    1.8750000000040951E-01     6.8750000000047962E-01     0.0000000000000000E+00 
    1.8750000000048361E-01     7.5000000000015843E-01     0.0000000000000000E+00 
    1.8750000000055780E-01     8.1249999999983680E-01     0.0000000000000000E+00 
    1.8750000000063199E-01     8.7499999999953304E-01     0.0000000000000000E+00 
    1.8750000000070621E-01     9.3749999999975764E-01     0.0000000000000000E+00 
    2.4999999999951281E-01     6.2500000000163314E-02     0.0000000000000000E+00 
    2.4999999999961461E-01     1.2500000000033351E-01     0.0000000000000000E+00 
    2.4999999999971650E-01     1.8750000000048361E-01     0.0000000000000000E+00 
    2.4999999999981831E-01     2.5000000000063310E-01     0.0000000000000000E+00 
    2.4999999999992020E-01     3.1250000000078260E-01     0.0000000000000000E+00 
    2.5000000000002198E-01     3.7500000000093209E-01     0.0000000000000000E+00 
    2.5000000000012390E-01     4.3750000000108180E-01     0.0000000000000000E+00 
    2.5000000000022571E-01     5.0000000000121769E-01     0.0000000000000000E+00 
    2.5000000000032763E-01     5.6250000000094724E-01     0.0000000000000000E+00 
    2.5000000000042938E-01     6.2500000000066314E-01     0.0000000000000000E+00 
    2.5000000000053119E-01     6.8750000000037925E-01     0.0000000000000000E+00 
[...]
CELL_DATA 256 
SCALARS Pressure double 1 
LOOKUP_TABLE default 

    6.2595007596220631E-01 
    5.7681060147976460E-01 
    5.4614999315986179E-01 
    5.1891573839087424E-01 
    4.9165284124454323E-01 
    4.6347461574805926E-01 
    4.3409168750109972E-01 
    4.0351355581905973E-01 
    3.7196561748730178E-01 
    3.3991455927062952E-01 
    3.0817089781866824E-01 
    2.7802857060607261E-01 
    2.5134277564970808E-01 
    2.3034219429179578E-01 
    2.1693105237790986E-01 
    2.1062088772576579E-01 
    6.1194436309006162E-01 
    5.7800964482845762E-01 
    5.4841503541523706E-01 
    5.2137697976452224E-01 
    4.9427241748880069E-01 
    4.6624127542187566E-01 
    4.3699102022477521E-01 
    4.0651552400562529E-01 
    3.7501503965747390E-01 
    3.4291841224827585E-01 
    3.1098284183796726E-01 
    2.8044118378667687E-01 
    2.5311248718746143E-01 
    2.3127832910210810E-01 
    2.1706267996078449E-01 
    2.1025782720048589E-01 
    6.0119951221710621E-01 
    5.7709389459886351E-01 
    5.4995127667603227E-01 
    5.2352902442236182E-01 
    4.9672033349506112E-01 
    4.6888940334622975E-01 
    4.3979112284002070E-01 
    4.0941898752147488E-01 
    3.7794927711439846E-01 
    3.4576672983830548E-01 
    3.1356338748365953E-01 
    2.8249741004162371E-01 
    2.5434839625697991E-01 
    2.3148404099947190E-01 
    2.1633357797932742E-01 
    2.0908439392377270E-01 
    5.9278580466894915E-01 
    5.7512781973926619E-01 
    5.5080323723660407E-01 
    5.2534893882941447E-01 
    4.9898580153110272E-01 
    4.7141981709481029E-01 
    4.4249997939211910E-01 
    4.1223708585370311E-01 
    3.8078816439451946E-01 
    3.4848963985119175E-01 
    3.1595671592307412E-01 
    2.8425512520794238E-01 
    2.5510935645646238E-01 
    2.3098710118618740E-01 
    2.1470400964169664E-01 
    2.0697867361697930E-01 
    5.8607118515052159E-01 
    5.7270992205114968E-01 
    5.5110626351574421E-01 
    5.2684619260450116E-01 
    5.0106409306285293E-01 
    4.7383216975517767E-01 
    4.4512404187389226E-01 
    4.1498309688480528E-01 
    3.8355312230715305E-01 
    3.5112004225622195E-01 
    3.1821106630219120E-01 
    2.8577824133974078E-01 
    2.5546270026795870E-01 
    2.2982224412125615E-01 
    2.1212964241266555E-01 
    2.0381002580082053E-01 
    5.8064528491322986E-01 
    5.7018259411262895E-01 
    5.5101109728958897E-01 
    5.2805407790978975E-01 
    5.0295908540226120E-01 
    4.7612659843446181E-01 
    4.4766749923858001E-01 
    4.1766840767557423E-01 
    3.8626506961660001E-01 
    3.5369205624261046E-01 
    3.2037842389793358E-01 
    2.8713786273833042E-01 
    2.5548698593814373E-01 
    2.2803621167462879E-01 
    2.0856352635033601E-01 
    1.9942540774608605E-01 
    5.7623304975878498E-01 
    5.6774763353620272E-01 
    5.5066210531932591E-01 
    5.2902397376021537E-01 
    5.0468791587778450E-01 
    4.7831034401341516E-01 
    4.5013649247273696E-01 
    4.2030338718909538E-01 
    3.8894320359126616E-01 
    3.5623935432927767E-01 
    3.2251349765186627E-01 
    2.8841367334634171E-01 
    2.5527643419782953E-01 
    2.2569554048963023E-01 
    2.0396516021710512E-01 
    1.9364971659480354E-01 
    5.7264051286377904E-01 
    5.6552122038032937E-01 
    5.5018402205003580E-01 
    5.2981671609986403E-01 
    5.0627804743402849E-01 
    4.8039784007573327E-01 
    4.5254120979968104E-01 
    4.2289875507540464E-01 
    3.9160484205931950E-01 
    3.5879282395539591E-01 
    3.2467065855127331E-01 
    2.8969307294127911E-01 
    2.5494607571124983E-01 
    2.2289654441307558E-01 
    1.9830936855746922E-01 
    1.8627645175294677E-01 
    5.6972790169984278E-01 
    5.6356664382954957E-01 
    5.4967785957085280E-01 
    5.3049550019782710E-01 
    5.0776202782212143E-01 
    4.8240695609903167E-01 
    4.5489360352710750E-01 
    4.2546550416273815E-01 
    3.9426469932269476E-01 
    3.6137870402614214E-01 
    3.2689965562590995E-01 
    2.9106622801445797E-01 
    2.5463306848599521E-01 
    2.1977680572831643E-01 
    1.9159325988283329E-01 
    1.7704322752604124E-01 
    5.6739235094786689E-01 
    5.6191412392729834E-01 
    5.4922007037602083E-01 
    5.3111908471006608E-01 
    5.0917479486032824E-01 
    4.8435762315061792E-01 
    4.5720643455100740E-01 
    4.2801448496041905E-01 
    3.9693601440000686E-01 
    3.6401921277416849E-01 
    3.2924393427367321E-01 
    2.9262066559609901E-01 
    2.5449322966313243E-01 
    2.1652773353967045E-01 
    1.8385493526658475E-01 
    1.6560334180562764E-01 
    5.6555678073665927E-01 
    5.6057678539218569E-01 
    5.4887054264469959E-01 
    5.3174226940909997E-01 
    5.1055355286583270E-01 
    4.8627299602149981E-01 
    4.5949456779944114E-01 
    4.3055729199202730E-01 
    3.9963178529165894E-01 
    3.6673429058508450E-01 
    3.3174116316694591E-01 
    2.9443856136033492E-01 
    2.5469780281024179E-01 
    2.1340193088766879E-01 
    1.7520080806111640E-01 
    1.5149313514355611E-01 
    5.6415877421248783E-01 
    5.5955940274259031E-01 
    5.4867819136960883E-01 
    5.3241587746075969E-01 
    5.1193652155807745E-01 
    4.8817928468945915E-01 
    4.6177635000106887E-01 
    4.3310719337384979E-01 
    4.0236505710687015E-01 
    3.6954169985545621E-01 
    3.3442279190095853E-01 
    2.9659296473129987E-01 
    2.5542841641286967E-01 
    2.1074512184993241E-01 
    1.6589737122414192E-01 
    1.3407178618372645E-01 
    5.6314942091854292E-01 
    5.5886432259513596E-01 
    5.4868366860932072E-01 
    5.3318691732432444E-01 
    5.1336208556241447E-01 
    4.9010519225492377E-01 
    4.6407306397377557E-01 
    4.3567913452707874E-01 
    4.0514768410926899E-01 
    3.7245645226140123E-01 
    3.3731350727793030E-01 
    2.9914233464518375E-01 
    2.5686137018846072E-01 
    2.0901074616802856E-01 
    1.5649870135101829E-01 
    1.1242604922134990E-01 
    5.6249854825545575E-01 
    5.5850063432257235E-01 
    5.4892688546615265E-01 
    5.3410372983088261E-01 
    5.1487369572646313E-01 
    4.9208466395133771E-01 
    4.6641008658611238E-01 
    4.3828838440873141E-01 
    4.0798783783985387E-01 
    3.7548816823544567E-01 
    3.4042861972089128E-01 
    3.0212282040738608E-01 
    2.5914050083724327E-01 
    2.0871904510852002E-01 
    1.4798729333314098E-01 
    8.5112857347109452E-02 
    5.6213917282686587E-01 
    5.5844272197660128E-01 
    5.4942193664449857E-01 
    5.3519814249795672E-01 
    5.1650198472402542E-01 
    4.9413559664034212E-01 
    4.6879340564377975E-01 
    4.4092639674848255E-01 
    4.1085384191478752E-01 
    3.7858600452679458E-01 
    3.4369975067771458E-01 
    3.0546266115601955E-01 
    2.6225415790075318E-01 
    2.1028634585006784E-01 
    1.4213812524351405E-01 
    4.9857443250498762E-02 
    5.6202036657268661E-01 
    5.5864661776163860E-01 
    5.5014349182019617E-01 
    5.3646306364717578E-01 
    5.1824836930608720E-01 
    4.9626391820959476E-01 
    4.7122846949554692E-01 
    4.4360500960883781E-01 
    4.1374685194676097E-01 
    3.8172892909352585E-01 
    3.4709886946683943E-01 
    3.0915487540670311E-01 
    2.6622948635796279E-01 
    2.1392717400941297E-01 
    1.4167366564973746E-01 
    0.0000000000000000E+00 

SCALARS Saturarion double 1 
LOOKUP_TABLE default 

    1.0000000000000004E+00 
    9.8069339671889133E-01 
    9.4506289820962652E-01 
    8.9417758323882879E-01 
    8.5181586177445090E-01 
    8.1430121333977701E-01 
    7.8103196963589583E-01 
    7.5159594356716952E-01 
    7.2527051879775983E-01 
    7.0122146846107214E-01 
    6.7856800674428419E-01 
    6.5621219500489403E-01 
    6.3235877868187784E-01 
    6.0339095285686217E-01 
    5.6154354311205790E-01 
    3.7593122525851203E-01 
    9.9302382322628957E-01 
    9.7479255710546653E-01 
    9.3734950273230377E-01 
    8.8876608192580508E-01 
    8.4710772946106849E-01 
    8.1056429640216598E-01 
    7.7822327091025734E-01 
    7.4946918253862838E-01 
    7.2367875594998299E-01 
    7.0007667891378733E-01 
    6.7794628576577420E-01 
    6.5632185722095804E-01 
    6.3343526585849130E-01 
    6.0545171126025332E-01 
    5.6479175281024196E-01 
    3.9246613678667508E-01 
    9.8196197676347674E-01 
    9.6354336530003237E-01 
    9.2571992029732209E-01 
    8.7859349972221801E-01 
    8.3770062152820690E-01 
    8.0279739937200445E-01 
    7.7235461818997486E-01 
    7.4506402882294942E-01 
    7.2028070584020931E-01 
    6.9742098961913801E-01 
    6.7596623685217838E-01 
    6.5515671146812149E-01 
    6.3362806005613581E-01 
    6.0775804279088974E-01 
    5.6961096962316016E-01 
    4.0822312085508888E-01 
    9.6269190803227933E-01 
    9.4710749289893736E-01 
    9.1123441687947015E-01 
    8.6784356227832471E-01 
    8.2766653510054677E-01 
    7.9329234052074638E-01 
    7.6372633157317582E-01 
    7.3779422398418948E-01 
    7.1443170043709348E-01 
    6.9305667235818591E-01 
    6.7294363747927810E-01 
    6.5337015188507153E-01 
    6.3318185876071087E-01 
    6.0951456266093162E-01 
    5.7439413858033483E-01 
    4.2381718385455752E-01 
    9.3869137320756613E-01 
    9.2450972089092309E-01 
    8.9186872744386658E-01 
    8.5266513020495005E-01 
    8.1437253056885106E-01 
    7.8050280709178477E-01 
    7.5151950587445193E-01 
    7.2658776539433323E-01 
    7.0480378929824672E-01 
    6.8538655125941605E-01 
    6.6762752341826537E-01 
    6.5048316223466152E-01 
    6.3236571583550938E-01 
    6.1074870433787609E-01 
    5.7864692133948115E-01 
    4.3720406903810194E-01 
    9.1073789676502703E-01 
    8.9862714540228583E-01 
    8.6995523163189736E-01 
    8.3403907133486010E-01 
    7.9828907607545629E-01 
    7.6592668452387247E-01 
    7.3765119837598081E-01 
    7.1343378824965775E-01 
    6.9266874779487764E-01 
    6.7472751547703869E-01 
    6.5911928650366614E-01 
    6.4511519864784117E-01 
    6.3051843621647330E-01 
    6.1163797774828121E-01 
    5.8228413925649491E-01 
    4.4958703402928463E-01 
    8.7971970831499302E-01 
    8.7036540556624098E-01 
    8.4590225162417321E-01 
    8.1340598284806942E-01 
    7.8054959481829922E-01 
    7.5040590410097086E-01 
    7.2373953561650906E-01 
    7.0025965954232960E-01 
    6.8000966814075503E-01 
    6.6287226226032547E-01 
    6.4871445472181555E-01 
    6.3716239396690422E-01 
    6.2660351036732898E-01 
    6.1199971743475789E-01 
    5.8576876162525093E-01 
    4.6186379451326409E-01 
    8.4555674270099856E-01 
    8.3937633773550790E-01 
    8.1978809746893744E-01 
    7.9139274244744917E-01 
    7.6137864767742391E-01 
    7.3337159296555043E-01 
    7.0817672127577924E-01 
    6.8597414533797652E-01 
    6.6665914644215907E-01 
    6.5037132459853031E-01 
    6.3718990297524791E-01 
    6.2738771009060834E-01 
    6.2024139941219270E-01 
    6.1100851411125501E-01 
    5.8923514829075407E-01 
    4.7432357216238946E-01 
    8.0819479135382322E-01 
    8.0524630284889209E-01 
    7.9064530834852242E-01 
    7.6682871456856938E-01 
    7.4017153170854244E-01 
    7.1425826748881815E-01 
    6.9060604261399550E-01 
    6.6955700701014431E-01 
    6.5127585580856462E-01 
    6.3591553622369512E-01 
    6.2387209702833590E-01 
    6.1566465646951662E-01 
    6.1144549567492834E-01 
    6.0778283804992761E-01 
    5.9216035034416126E-01 
    4.8639516264118809E-01 
    7.6764555865948247E-01 
    7.6784807328958826E-01 
    7.5810643729379146E-01 
    7.3877823828392475E-01 
    7.1573528679976817E-01 
    6.9235627412291689E-01 
    6.7026311921619408E-01 
    6.5058319146042398E-01 
    6.3357469162105517E-01 
    6.1931039652787900E-01 
    6.0816933729421752E-01 
    6.0129882570419158E-01 
    5.9976513913900265E-01 
    6.0166235366556942E-01 
    5.9361255924539980E-01 
    4.9851244859043775E-01 
    7.2361336715910951E-01 
    7.2683236127280781E-01 
    7.2175370490845081E-01 
    7.0667752538502537E-01 
    6.8730005050659149E-01 
    6.6695547481706419E-01 
    6.4732709866845839E-01 
    6.2913864439719214E-01 
    6.1331553258221372E-01 
    6.0026060503081780E-01 
    5.9028551504615467E-01 
    5.8429904821270728E-01 
    5.8452893550899554E-01 
    5.9172529315718603E-01 
    5.9082301994518716E-01 
    5.1109875659648463E-01 
    6.7469421067261559E-01 
    6.8093672219533596E-01 
    6.8073012341060812E-01 
    6.7004898835762738E-01 
    6.5411444567600407E-01 
    6.3656412199675283E-01 
    6.1930171695349534E-01 
    6.0342217406595322E-01 
    5.8941653380362058E-01 
    5.7785162147215174E-01 
    5.6925919987508544E-01 
    5.6464024233435828E-01 
    5.6595989817683257E-01 
    5.7684466219762742E-01 
    5.8697327523567755E-01 
    5.2227638321441050E-01 
    6.1964741485253205E-01 
    6.2858886934199232E-01 
    6.3297371428579663E-01 
    6.2684046224621504E-01 
    6.1496640725026408E-01 
    6.0067867626585747E-01 
    5.8646335135086336E-01 
    5.7290310111124543E-01 
    5.6059337141422572E-01 
    5.5035200239989590E-01 
    5.4343972909633464E-01 
    5.4054143620205652E-01 
    5.4348410785930901E-01 
    5.5659080360986679E-01 
    5.7901320092600328E-01 
    5.3143779529426716E-01 
    5.6185675606771046E-01 
    5.7198692225534398E-01 
    5.7975781522002989E-01 
    5.7795739681223901E-01 
    5.7035851996213716E-01 
    5.5962948396028078E-01 
    5.4803193368488401E-01 
    5.3657086048348990E-01 
    5.2476935425819082E-01 
    5.1450160360079966E-01 
    5.0814787449046994E-01 
    5.0704115778448666E-01 
    5.1262651356469413E-01 
    5.2946659940558960E-01 
    5.6068226137243671E-01 
    5.3609458236515251E-01 
    4.4608970400957759E-01 
    4.6807851133577150E-01 
    4.8572633781902608E-01 
    4.9260373675969316E-01 
    4.8948000104201511E-01 
    4.7959783855105337E-01 
    4.6491400248692955E-01 
    4.4892677637437284E-01 
    4.3223937562809384E-01 
    4.0458149184502185E-01 
    3.7513711112251324E-01 
    3.5914688670069722E-01 
    3.8889859802670496E-01 
    4.4967813803805362E-01 
    5.2734348991056001E-01 
    5.3642373168980417E-01 
    5.5605854527897132E-02 
    1.2422802897164614E-01 
    1.4253207313302896E-01 
    1.7108089818369993E-01 
    1.3357671067384175E-01 
    1.3392980167569379E-01 
    8.5217448110937066E-02 
    7.5214249916932763E-02 
    3.4507593818085797E-02 
    1.9643137120251966E-02 
    1.4154563568538215E-02 
    1.9020360060823211E-02 
    5.5606284333937668E-02 
    2.0415444895208712E-01 
    3.5871518366976501E-01 
    4.8629828608494186E-01 
