# vtk DataFile Version 2.0
Pressure Field Data 
ASCII 
DATASET UNSTRUCTURED_GRID 

POINTS 289 double 

    0.0000000000000000E+00     0.0000000000000000E+00     0.0000000000000000E+00 
    1.0000000000000000E+00     0.0000000000000000E+00     0.0000000000000000E+00 
    1.0000000000000000E+00     1.0000000000000000E+00     0.0000000000000000E+00 
    0.0000000000000000E+00     1.0000000000000000E+00     0.0000000000000000E+00 
    6.2499999999872928E-02     0.0000000000000000E+00     0.0000000000000000E+00 
    1.2499999999977310E-01     0.0000000000000000E+00     0.0000000000000000E+00 
    1.8749999999959341E-01     0.0000000000000000E+00     0.0000000000000000E+00 
    2.4999999999941089E-01     0.0000000000000000E+00     0.0000000000000000E+00 
    3.1249999999922851E-01     0.0000000000000000E+00     0.0000000000000000E+00 
    3.7499999999904610E-01     0.0000000000000000E+00     0.0000000000000000E+00 
    4.3749999999886358E-01     0.0000000000000000E+00     0.0000000000000000E+00 
    4.9999999999869210E-01     0.0000000000000000E+00     0.0000000000000000E+00 
    5.6249999999884603E-01     0.0000000000000000E+00     0.0000000000000000E+00 
    6.2499999999901090E-01     0.0000000000000000E+00     0.0000000000000000E+00 
    6.8749999999917577E-01     0.0000000000000000E+00     0.0000000000000000E+00 
    7.4999999999934064E-01     0.0000000000000000E+00     0.0000000000000000E+00 
    8.1249999999950551E-01     0.0000000000000000E+00     0.0000000000000000E+00 
    8.7499999999967026E-01     0.0000000000000000E+00     0.0000000000000000E+00 
    9.3749999999983513E-01     0.0000000000000000E+00     0.0000000000000000E+00 
    1.0000000000000000E+00     6.2499999999872928E-02     0.0000000000000000E+00 
    1.0000000000000000E+00     1.2499999999977310E-01     0.0000000000000000E+00 
    1.0000000000000000E+00     1.8749999999959341E-01     0.0000000000000000E+00 
    1.0000000000000000E+00     2.4999999999941089E-01     0.0000000000000000E+00 
    1.0000000000000000E+00     3.1249999999922851E-01     0.0000000000000000E+00 
    1.0000000000000000E+00     3.7499999999904610E-01     0.0000000000000000E+00 
    1.0000000000000000E+00     4.3749999999886358E-01     0.0000000000000000E+00 
    1.0000000000000000E+00     4.9999999999869210E-01     0.0000000000000000E+00 
    1.0000000000000000E+00     5.6249999999884603E-01     0.0000000000000000E+00 
    1.0000000000000000E+00     6.2499999999901090E-01     0.0000000000000000E+00 
    1.0000000000000000E+00     6.8749999999917577E-01     0.0000000000000000E+00 
    1.0000000000000000E+00     7.4999999999934064E-01     0.0000000000000000E+00 
    1.0000000000000000E+00     8.1249999999950551E-01     0.0000000000000000E+00 
    1.0000000000000000E+00     8.7499999999967026E-01     0.0000000000000000E+00 
    1.0000000000000000E+00     9.3749999999983513E-01     0.0000000000000000E+00 
    9.3749999999973976E-01     1.0000000000000000E+00     0.0000000000000000E+00 
    8.7499999999950118E-01     1.0000000000000000E+00     0.0000000000000000E+00 
    8.1249999999991318E-01     1.0000000000000000E+00     0.0000000000000000E+00 
    7.5000000000034706E-01     1.0000000000000000E+00     0.0000000000000000E+00 
    6.8750000000078049E-01     1.0000000000000000E+00     0.0000000000000000E+00 
    6.2500000000121403E-01     1.0000000000000000E+00     0.0000000000000000E+00 
    5.6250000000164757E-01     1.0000000000000000E+00     0.0000000000000000E+00 
    5.0000000000205946E-01     1.0000000000000000E+00     0.0000000000000000E+00 
    4.3750000000182099E-01     1.0000000000000000E+00     0.0000000000000000E+00 
    3.7500000000156092E-01     1.0000000000000000E+00     0.0000000000000000E+00 
    3.1250000000130068E-01     1.0000000000000000E+00     0.0000000000000000E+00 
    2.5000000000104050E-01     1.0000000000000000E+00     0.0000000000000000E+00 
    1.8750000000078040E-01     1.0000000000000000E+00     0.0000000000000000E+00 
    1.2500000000052031E-01     1.0000000000000000E+00     0.0000000000000000E+00 
    6.2500000000260125E-02     1.0000000000000000E+00     0.0000000000000000E+00 
    0.0000000000000000E+00     9.3749999999973976E-01     0.0000000000000000E+00 
    0.0000000000000000E+00     8.7499999999950118E-01     0.0000000000000000E+00 
    0.0000000000000000E+00     8.1249999999991318E-01     0.0000000000000000E+00 
    0.0000000000000000E+00     7.5000000000034706E-01     0.0000000000000000E+00 
    0.0000000000000000E+00     6.8750000000078049E-01     0.0000000000000000E+00 
    0.0000000000000000E+00     6.2500000000121403E-01     0.0000000000000000E+00 
    0.0000000000000000E+00     5.6250000000164757E-01     0.0000000000000000E+00 
    0.0000000000000000E+00     5.0000000000205946E-01     0.0000000000000000E+00 
    0.0000000000000000E+00     4.3750000000182099E-01     0.0000000000000000E+00 
    0.0000000000000000E+00     3.7500000000156092E-01     0.0000000000000000E+00 
    0.0000000000000000E+00     3.1250000000130068E-01     0.0000000000000000E+00 
    0.0000000000000000E+00     2.5000000000104050E-01     0.0000000000000000E+00 
    0.0000000000000000E+00     1.8750000000078040E-01     0.0000000000000000E+00 
    0.0000000000000000E+00     1.2500000000052031E-01     0.0000000000000000E+00 
    0.0000000000000000E+00     6.2500000000260125E-02     0.0000000000000000E+00 
    6.2499999999897131E-02     6.2500000000235922E-02     0.0000000000000000E+00 
    6.2499999999921327E-02     1.2500000000047351E-01     0.0000000000000000E+00 
    6.2499999999945530E-02     1.8750000000070621E-01     0.0000000000000000E+00 
    6.2499999999969733E-02     2.5000000000093858E-01     0.0000000000000000E+00 
    6.2499999999993928E-02     3.1250000000117117E-01     0.0000000000000000E+00 
    6.2500000000018124E-02     3.7500000000140382E-01     0.0000000000000000E+00 
    6.2500000000042327E-02     4.3750000000163619E-01     0.0000000000000000E+00 
    6.2500000000066530E-02     5.0000000000184897E-01     0.0000000000000000E+00 
    6.2500000000090733E-02     5.6250000000147260E-01     0.0000000000000000E+00 
    6.2500000000114922E-02     6.2500000000107636E-01     0.0000000000000000E+00 
    6.2500000000139125E-02     6.8750000000068034E-01     0.0000000000000000E+00 
    6.2500000000163328E-02     7.5000000000028411E-01     0.0000000000000000E+00 
    6.2500000000187531E-02     8.1249999999988787E-01     0.0000000000000000E+00 
    6.2500000000211720E-02     8.7499999999951172E-01     0.0000000000000000E+00 
    6.2500000000235922E-02     9.3749999999974565E-01     0.0000000000000000E+00 
    1.2499999999981980E-01     6.2500000000211733E-02     0.0000000000000000E+00 
    1.2499999999986650E-01     1.2500000000042691E-01     0.0000000000000000E+00 
    1.2499999999991319E-01     1.8750000000063199E-01     0.0000000000000000E+00 
    1.2499999999995989E-01     2.5000000000083678E-01     0.0000000000000000E+00 
    1.2500000000000661E-01     3.1250000000104172E-01     0.0000000000000000E+00 
    1.2500000000005329E-01     3.7500000000124661E-01     0.0000000000000000E+00 
    1.2500000000010000E-01     4.3750000000145117E-01     0.0000000000000000E+00 
    1.2500000000014669E-01     5.0000000000163858E-01     0.0000000000000000E+00 
    1.2500000000019340E-01     5.6250000000129741E-01     0.0000000000000000E+00 
    1.2500000000024011E-01     6.2500000000093847E-01     0.0000000000000000E+00 
    1.2500000000028680E-01     6.8750000000057998E-01     0.0000000000000000E+00 
    1.2500000000033351E-01     7.5000000000022127E-01     0.0000000000000000E+00 
    1.2500000000038020E-01     8.1249999999986211E-01     0.0000000000000000E+00 
    1.2500000000042691E-01     8.7499999999952238E-01     0.0000000000000000E+00 
    1.2500000000047359E-01     9.3749999999975164E-01     0.0000000000000000E+00 
    1.8749999999966760E-01     6.2500000000187531E-02     0.0000000000000000E+00 
    1.8749999999974179E-01     1.2500000000038020E-01     0.0000000000000000E+00 
    1.8749999999981601E-01     1.8750000000055780E-01     0.0000000000000000E+00 
    1.8749999999989009E-01     2.5000000000073502E-01     0.0000000000000000E+00 
    1.8749999999996431E-01     3.1250000000091221E-01     0.0000000000000000E+00 
    1.8750000000003850E-01     3.7500000000108941E-01     0.0000000000000000E+00 
    1.8750000000011269E-01     4.3750000000126649E-01     0.0000000000000000E+00 
    1.8750000000018691E-01     5.0000000000142808E-01     0.0000000000000000E+00 
    1.8750000000026110E-01     5.6250000000112244E-01     0.0000000000000000E+00 
    1.8750000000033529E-01     6.2500000000080080E-01     0.0000000000000000E+00 
    1.8750000000040951E-01     6.8750000000047962E-01     0.0000000000000000E+00 
    1.8750000000048361E-01     7.5000000000015843E-01     0.0000000000000000E+00 
    1.8750000000055780E-01     8.1249999999983680E-01     0.0000000000000000E+00 
    1.8750000000063199E-01     8.7499999999953304E-01     0.0000000000000000E+00 
    1.8750000000070621E-01     9.3749999999975764E-01     0.0000000000000000E+00 
    2.4999999999951281E-01     6.2500000000163314E-02     0.0000000000000000E+00 
    2.4999999999961461E-01     1.2500000000033351E-01     0.0000000000000000E+00 
    2.4999999999971650E-01     1.8750000000048361E-01     0.0000000000000000E+00 
    2.4999999999981831E-01     2.5000000000063310E-01     0.0000000000000000E+00 
    2.4999999999992020E-01     3.1250000000078260E-01     0.0000000000000000E+00 
    2.5000000000002198E-01     3.7500000000093209E-01     0.0000000000000000E+00 
    2.5000000000012390E-01     4.3750000000108180E-01     0.0000000000000000E+00 
    2.5000000000022571E-01     5.0000000000121769E-01     0.0000000000000000E+00 
    2.5000000000032763E-01     5.6250000000094724E-01     0.0000000000000000E+00 
    2.5000000000042938E-01     6.2500000000066314E-01     0.0000000000000000E+00 
    2.5000000000053119E-01     6.8750000000037925E-01     0.0000000000000000E+00 
[...]
CELL_DATA 256 
SCALARS Pressure double 1 
LOOKUP_TABLE default 

    8.9768277056040113E-01 
    8.4565877335812178E-01 
    8.1048059377426562E-01 
    7.7725145102981319E-01 
    7.4268275215802992E-01 
    7.0606336861483321E-01 
    6.6727935642754221E-01 
    6.2652245952750640E-01 
    5.8421514248717210E-01 
    5.4107072611121743E-01 
    4.9826090317664168E-01 
    4.5763751226540544E-01 
    4.2156064998432896E-01 
    3.9073779044654633E-01 
    3.6672587627567899E-01 
    3.5621240794080267E-01 
    8.8374885428975036E-01 
    8.4716804466870488E-01 
    8.1319372912002663E-01 
    7.8027594315714566E-01 
    7.4598319608859154E-01 
    7.0962834372670835E-01 
    6.7107713668949198E-01 
    6.3049326884755186E-01 
    5.8826709932045718E-01 
    5.4506614822036681E-01 
    5.0199197467153189E-01 
    4.6082295720453764E-01 
    4.2395381533166970E-01 
    3.9232039768359517E-01 
    3.6717335447517713E-01 
    3.5575526947016511E-01 
    8.7302272426215022E-01 
    8.4646634853406388E-01 
    8.1508501847745674E-01 
    7.8289511605023632E-01 
    7.4901126020076036E-01 
    7.1297735728985390E-01 
    6.7468735554115966E-01 
    6.3428348687444724E-01 
    5.9211841418379219E-01 
    5.4880353208041466E-01 
    5.0535429321204839E-01 
    4.6345050851855180E-01 
    4.2549980484996541E-01 
    3.9278982222140335E-01 
    3.6630597294460188E-01 
    3.5409415797069155E-01 
    8.6448565331756977E-01 
    8.4459374987820302E-01 
    8.1618770902347915E-01 
    7.8509510597106869E-01 
    7.5177251136232925E-01 
    7.1612002026798405E-01 
    6.7811822192213922E-01 
    6.3790545194307902E-01 
    5.9579444577613783E-01 
    5.5232770105350426E-01 
    5.0841492850666092E-01 
    4.6560565237653273E-01 
    4.2628401975167868E-01 
    3.9215396212932047E-01 
    3.6403404476077528E-01 
    3.5100917417506827E-01 
    8.5748311398181387E-01 
    8.4212414254410151E-01 
    8.1662679573236285E-01 
    7.8688497194334284E-01 
    7.5427492245708472E-01 
    7.1907349598351455E-01 
    6.8138992033177737E-01 
    6.4138211971310555E-01 
    5.9932675710301186E-01 
    5.5568794009536626E-01 
    5.1124819584126313E-01 
    4.6738775513183933E-01 
    4.2641012891723545E-01 
    3.9043252710649040E-01 
    3.6026156659870823E-01 
    3.4627407864135173E-01 
    8.5166132885059553E-01 
    8.3942008726409134E-01 
    8.1656009725839229E-01 
    7.8830316346281659E-01 
    7.5653397228199182E-01 
    7.2185796769857424E-01 
    6.8452974107496878E-01 
    6.4474535841200420E-01 
    6.0275248919679303E-01 
    5.5893463150808709E-01 
    5.1393007363027454E-01 
    4.6890509198493840E-01 
    4.2599774379165550E-01 
    3.8766228447518841E-01 
    3.5489814630911848E-01 
    3.3965002758963786E-01 
    8.4679444204585874E-01 
    8.3671950853078270E-01 
    8.1615541426840021E-01 
    7.8941665540202244E-01 
    7.5857836994563055E-01 
    7.2449551102502985E-01 
    6.8756486016974183E-01 
    6.4802917406063532E-01 
    6.0611212567365302E-01 
    5.6212008380508105E-01 
    5.1653822546677686E-01 
    4.7027387237995266E-01 
    4.2518963933729792E-01 
    3.8391653490476257E-01 
    3.4787574467069060E-01 
    3.3087084443021203E-01 
    8.4272178945166554E-01 
    8.3417257528512279E-01 
    8.1556294845560362E-01 
    7.9030252142152524E-01 
    7.6044564372289414E-01 
    7.2701046249196077E-01 
    6.9051980288143078E-01 
    6.5126475642282233E-01 
    6.0944683633753793E-01 
    5.6529976852937269E-01 
    5.1915536873854540E-01 
    4.7162306647270463E-01 
    4.2416508800195546E-01 
    3.7935024617261554E-01 
    3.3920608576723721E-01 
    3.1962964700248336E-01 
    8.3932984565087965E-01 
    8.3187068836900890E-01 
    8.1490605821584294E-01 
    7.9104034362466347E-01 
    7.6218022513787553E-01 
    7.2942909477634121E-01 
    6.9341515986587354E-01 
    6.5447854483225509E-01 
    6.1279538105259390E-01 
    5.6852919293401549E-01 
    5.2186601770078700E-01 
    4.7309096673135470E-01 
    4.2314021885426073E-01 
    3.7422117529344590E-01 
    3.2896776787125975E-01 
    3.0548591845295953E-01 
    8.3653640278825592E-01 
    8.2986637289953968E-01 
    8.1428077913743635E-01 
    7.9170697270177259E-01 
    7.6383296336414441E-01 
    7.3178181439677259E-01 
    6.9627108934078052E-01 
    6.5769519097866647E-01 
    6.1619457445432224E-01 
    5.7186041912324681E-01 
    5.2475145179071780E-01 
    4.7482009210548098E-01 
    4.2236290160821693E-01 
    3.6885000617462516E-01 
    3.1714602290754990E-01 
    2.8756673627800339E-01 
    8.3428707131235524E-01 
    8.2819770037227525E-01 
    8.1377160902783574E-01 
    7.9238135754764494E-01 
    7.6546370376930595E-01 
    7.3410902675173029E-01 
    6.9911394110878566E-01 
    6.6093956896923456E-01 
    6.1967483038656490E-01 
    5.7533217227012468E-01 
    5.2787744618989996E-01 
    4.7694343537075906E-01 
    4.2210151633257387E-01 
    3.6366022908680906E-01 
    3.0377924512827376E-01 
    2.6452495141159438E-01 
    8.3255420175824535E-01 
    8.2690878716592386E-01 
    8.1346259278890487E-01 
    7.9314460045840951E-01 
    7.6713921715714928E-01 
    7.3646107996811161E-01 
    7.0197357662802096E-01 
    6.6422504699229157E-01 
    6.2323542494049666E-01 
    5.7892950935993515E-01 
    5.3123485968097128E-01 
    4.7950935918454229E-01 
    4.2256555320112982E-01 
    3.5915860051350057E-01 
    2.8924828235603656E-01 
    2.3500416316646580E-01 
    8.3128538694516096E-01 
    8.2601526110544243E-01 
    8.1341184527738930E-01 
    7.9405851435764241E-01 
    7.6890871626001445E-01 
    7.3886544318095593E-01 
    7.0481817923862433E-01 
    6.6741336374804539E-01 
    6.2668608562049610E-01 
    5.8244739027620407E-01 
    5.3457582683584759E-01 
    4.8224553532088477E-01 
    4.2365518901971655E-01 
    3.5560404156448971E-01 
    2.7395872330529863E-01 
    1.9734543764088996E-01 
    8.3021828572049583E-01 
    8.2533179251577182E-01 
    8.1350908019157586E-01 
    7.9501829782069544E-01 
    7.7064559113241737E-01 
    7.4120179194158209E-01 
    7.0755346139716080E-01 
    6.7041763330368997E-01 
    6.2996931087206165E-01 
    5.8596844545019589E-01 
    5.3813472262982909E-01 
    4.8553977561995082E-01 
    4.2582577508446873E-01 
    3.5362632942964894E-01 
    2.5864130055309092E-01 
    1.4849376122959015E-01 
    8.2950681437449592E-01 
    8.2494051497346177E-01 
    8.1381389129314974E-01 
    7.9608236386888942E-01 
    7.7240706119304281E-01 
    7.4356100301054417E-01 
    7.1037841910306843E-01 
    6.7358584760627505E-01 
    6.3346811375485068E-01 
    5.8981912840277761E-01 
    5.4223744477988911E-01 
    4.8975185411718464E-01 
    4.2974147054331036E-01 
    3.5529480263689800E-01 
    2.4754172628660953E-01 
    8.3896482850325665E-02 
    8.2931946479940732E-01 
    8.2512672910727847E-01 
    8.1462709569898384E-01 
    7.9756868019973737E-01 
    7.7452201802847442E-01 
    7.4623663391675432E-01 
    7.1352482913156412E-01 
    6.7711021037723818E-01 
    6.3732128847171343E-01 
    5.9400837045152632E-01 
    5.4677723052174787E-01 
    4.9466776638864951E-01 
    4.3509705497158269E-01 
    3.6106956909382842E-01 
    2.4950536124177278E-01 
    0.0000000000000000E+00 

SCALARS Saturarion double 1 
LOOKUP_TABLE default 

    1.0000000000000018E+00 
    9.6537813833595143E-01 
    9.0587964995067738E-01 
    8.3323367639000878E-01 
    7.7168870710366688E-01 
    7.2104608520181568E-01 
    6.7984183636518591E-01 
    6.4531377217908359E-01 
    6.1477102473880152E-01 
    5.8635273015673539E-01 
    5.5902001515291588E-01 
    5.3187822062248247E-01 
    4.9751521479158828E-01 
    3.9080688548746312E-01 
    4.2599436196285048E-02 
    1.0000004698211735E-06 
    9.8571964107059318E-01 
    9.5292702172569210E-01 
    8.9063768717287017E-01 
    8.2359501098950905E-01 
    7.6644526491675913E-01 
    7.1776930879240075E-01 
    6.7693773870484053E-01 
    6.4234513529410331E-01 
    6.1210011752309001E-01 
    5.8440003865336199E-01 
    5.5800266796427356E-01 
    5.3178734442397646E-01 
    4.9864430076137667E-01 
    4.0105418259268172E-01 
    6.1040155424598883E-02 
    2.9414024400310597E-06 
    9.6329053424532152E-01 
    9.3158953923586640E-01 
    8.6998759546595616E-01 
    8.0735407483089550E-01 
    7.5565623751660793E-01 
    7.1052410618327211E-01 
    6.7089760356055994E-01 
    6.3637402965189904E-01 
    6.0648629735588533E-01 
    5.7992258433287669E-01 
    5.5516053633307838E-01 
    5.3053977391168083E-01 
    4.9994119050950087E-01 
    4.1345501481271402E-01 
    8.5308864898742384E-02 
    5.3283160538742049E-06 
    9.2397953955793855E-01 
    8.9874583150618170E-01 
    8.4492536568418841E-01 
    7.8700684995535342E-01 
    7.3866958368082447E-01 
    6.9809998016405173E-01 
    6.6195181483977561E-01 
    6.2968928322320006E-01 
    6.0106290032754106E-01 
    5.7559965387099721E-01 
    5.5201185535083175E-01 
    5.2892457803909765E-01 
    5.0139290385230217E-01 
    4.2591669285798567E-01 
    1.1499646684794015E-01 
    1.1430253223450118E-05 
    8.8058106975609352E-01 
    8.5935831526305706E-01 
    8.1308476218647785E-01 
    7.6206931352721097E-01 
    7.1779553347076419E-01 
    6.8074273708676503E-01 
    6.4873621476545129E-01 
    6.2020691784198057E-01 
    5.9442869539955334E-01 
    5.7089337558725650E-01 
    5.4893455116856571E-01 
    5.2757540000099135E-01 
    5.0245080156014765E-01 
    4.3756018622065629E-01 
    1.4598559224493549E-01 
    2.6162878382550030E-05 
    8.3582189542875174E-01 
    8.1877619913101374E-01 
    7.8030381403139037E-01 
    7.3614553514005543E-01 
    6.9597321555450331E-01 
    6.6160280069938737E-01 
    6.3233220294152437E-01 
    6.0709855193160889E-01 
    5.8441557116378728E-01 
    5.6335861235714535E-01 
    5.4356226296898014E-01 
    5.2455907561776172E-01 
    5.0287058769137871E-01 
    4.4648467734619046E-01 
    1.7826559437014980E-01 
    1.2369861244417306E-04 
    7.8996259170473193E-01 
    7.7783818730320387E-01 
    7.4725672476946103E-01 
    7.0922273444592732E-01 
    6.7314611805034186E-01 
    6.4172173824215006E-01 
    6.1507667497148355E-01 
    5.9206299177588384E-01 
    5.7183079790792812E-01 
    5.5337881387192711E-01 
    5.3618088646421369E-01 
    5.1966403260751215E-01 
    5.0154021697901141E-01 
    4.5477353477632854E-01 
    2.1813199478179171E-01 
    6.3537104206125685E-04 
    7.4306930995928200E-01 
    7.3595348903030688E-01 
    7.1331583231815054E-01 
    6.8146221447002764E-01 
    6.4925482650542909E-01 
    6.2059973478899955E-01 
    5.9588136084840049E-01 
    5.7488540680926115E-01 
    5.5699198032980646E-01 
    5.4133222896293720E-01 
    5.2681796762352051E-01 
    5.1307164572361763E-01 
    4.9850488357534195E-01 
    4.6154299564820306E-01 
    2.7012390981699580E-01 
    3.2927073515494161E-03 
    6.9519209995144804E-01 
    6.9244845960648693E-01 
    6.7686963104560827E-01 
    6.5155883074585275E-01 
    6.2407137609933461E-01 
    5.9815499865115862E-01 
    5.7499671326955526E-01 
    5.5517764539513070E-01 
    5.3922588527339921E-01 
    5.2623786648190785E-01 
    5.1497786304594706E-01 
    5.0442540225028243E-01 
    4.9355946167295983E-01 
    4.6600268566801822E-01 
    3.2033192064357963E-01 
    1.5228377575296638E-02 
    6.4642028802956175E-01 
    6.4741164248679095E-01 
    6.3808845418564675E-01 
    6.1896585843401253E-01 
    5.9664386449208040E-01 
    5.7428226424432682E-01 
    5.5308664740757107E-01 
    5.3477907895202614E-01 
    5.2048384115136093E-01 
    5.0918759101482003E-01 
    4.9989760677053352E-01 
    4.9271902641085491E-01 
    4.8639307647639807E-01 
    4.6758270605754887E-01 
    3.5279060193403550E-01 
    4.7454428389366213E-02 
    5.9783361219487752E-01 
    6.0175129988505927E-01 
    5.9794389619494337E-01 
    5.8456049273195920E-01 
    5.6711426839032963E-01 
    5.4897599185355928E-01 
    5.3150524245264219E-01 
    5.1506090423212036E-01 
    5.0083914579204536E-01 
    4.8903354378339015E-01 
    4.8000906128313864E-01 
    4.7499616436940312E-01 
    4.7410741889380459E-01 
    4.6533128572530713E-01 
    3.7994251609881780E-01 
    9.7620554366761314E-02 
    5.5234274892901447E-01 
    5.5814545011726335E-01 
    5.5861953435418354E-01 
    5.4954126336985942E-01 
    5.3552878211478938E-01 
    5.2130137906094853E-01 
    5.0706178254022061E-01 
    4.9069076651894783E-01 
    4.7246368531324318E-01 
    4.5315507607040817E-01 
    4.3709434020340304E-01 
    4.3011737828678742E-01 
    4.3998934187039185E-01 
    4.5225700006696307E-01 
    3.9910364146083432E-01 
    1.4866305367138757E-01 
    4.9150663779281062E-01 
    5.0367172688631223E-01 
    5.0970009191655075E-01 
    5.0598727080044514E-01 
    4.9300587095107368E-01 
    4.7733947745248934E-01 
    4.5733280194263948E-01 
    4.1311537868981668E-01 
    3.1407767160075784E-01 
    2.3598975362970834E-01 
    1.8622934797990970E-01 
    1.7980652987325724E-01 
    2.8181876071823736E-01 
    3.9181460705086923E-01 
    3.8717881062795295E-01 
    1.9566514453464698E-01 
    2.4189072356530078E-01 
    3.3304228725261104E-01 
    3.7513433962635656E-01 
    3.7093731799995500E-01 
    3.1909885768751378E-01 
    2.4126287875261629E-01 
    1.8252498982252044E-01 
    6.8542673961681427E-02 
    7.5652419883198499E-03 
    7.2523217156891307E-04 
    9.9902749605237088E-05 
    9.6430524569087329E-05 
    2.2228028681207490E-02 
    1.8138638166562132E-01 
    3.3100143888098488E-01 
    2.1696052306309574E-01 
    1.9008865338793703E-04 
    1.3487290129785938E-02 
    2.6310873422692380E-02 
    1.9523467689352744E-02 
    7.0845035217758342E-03 
    5.1016576114482851E-04 
    1.0687497345581416E-04 
    2.9131616032252190E-05 
    1.5064637077912605E-06 
    1.0090579899146801E-06 
    1.0004529794301468E-06 
    1.0006079283405529E-06 
    3.0212952162337865E-05 
    5.9545899206297067E-03 
    2.2220553350132893E-01 
    2.1908076690523942E-01 
    1.0000002330447924E-06 
    2.7799618315451155E-06 
    1.4553553339820713E-06 
    1.7551587791125847E-06 
    1.4304018404984679E-06 
    1.0038242021866790E-06 
    1.0003591323724429E-06 
    1.0000205215986377E-06 
    1.0000000338995115E-06 
    1.0000000006060887E-06 
    1.0000000000007928E-06 
    1.0000000000005421E-06 
    1.0000456617826568E-06 
    1.7011438143869293E-06 
    1.9613151849753634E-02 
    1.8225607916447017E-01 
