# vtk DataFile Version 2.0
Pressure Field Data 
ASCII 
DATASET UNSTRUCTURED_GRID 

POINTS 289 double 

    0.0000000000000000E+00     0.0000000000000000E+00     0.0000000000000000E+00 
    1.0000000000000000E+00     0.0000000000000000E+00     0.0000000000000000E+00 
    1.0000000000000000E+00     1.0000000000000000E+00     0.0000000000000000E+00 
    0.0000000000000000E+00     1.0000000000000000E+00     0.0000000000000000E+00 
    6.2499999999872928E-02     0.0000000000000000E+00     0.0000000000000000E+00 
    1.2499999999977310E-01     0.0000000000000000E+00     0.0000000000000000E+00 
    1.8749999999959341E-01     0.0000000000000000E+00     0.0000000000000000E+00 
    2.4999999999941089E-01     0.0000000000000000E+00     0.0000000000000000E+00 
    3.1249999999922851E-01     0.0000000000000000E+00     0.0000000000000000E+00 
    3.7499999999904610E-01     0.0000000000000000E+00     0.0000000000000000E+00 
    4.3749999999886358E-01     0.0000000000000000E+00     0.0000000000000000E+00 
    4.9999999999869210E-01     0.0000000000000000E+00     0.0000000000000000E+00 
    5.6249999999884603E-01     0.0000000000000000E+00     0.0000000000000000E+00 
    6.2499999999901090E-01     0.0000000000000000E+00     0.0000000000000000E+00 
    6.8749999999917577E-01     0.0000000000000000E+00     0.0000000000000000E+00 
    7.4999999999934064E-01     0.0000000000000000E+00     0.0000000000000000E+00 
    8.1249999999950551E-01     0.0000000000000000E+00     0.0000000000000000E+00 
    8.7499999999967026E-01     0.0000000000000000E+00     0.0000000000000000E+00 
    9.3749999999983513E-01     0.0000000000000000E+00     0.0000000000000000E+00 
    1.0000000000000000E+00     6.2499999999872928E-02     0.0000000000000000E+00 
    1.0000000000000000E+00     1.2499999999977310E-01     0.0000000000000000E+00 
    1.0000000000000000E+00     1.8749999999959341E-01     0.0000000000000000E+00 
    1.0000000000000000E+00     2.4999999999941089E-01     0.0000000000000000E+00 
    1.0000000000000000E+00     3.1249999999922851E-01     0.0000000000000000E+00 
    1.0000000000000000E+00     3.7499999999904610E-01     0.0000000000000000E+00 
    1.0000000000000000E+00     4.3749999999886358E-01     0.0000000000000000E+00 
    1.0000000000000000E+00     4.9999999999869210E-01     0.0000000000000000E+00 
    1.0000000000000000E+00     5.6249999999884603E-01     0.0000000000000000E+00 
    1.0000000000000000E+00     6.2499999999901090E-01     0.0000000000000000E+00 
    1.0000000000000000E+00     6.8749999999917577E-01     0.0000000000000000E+00 
    1.0000000000000000E+00     7.4999999999934064E-01     0.0000000000000000E+00 
    1.0000000000000000E+00     8.1249999999950551E-01     0.0000000000000000E+00 
    1.0000000000000000E+00     8.7499999999967026E-01     0.0000000000000000E+00 
    1.0000000000000000E+00     9.3749999999983513E-01     0.0000000000000000E+00 
    9.3749999999973976E-01     1.0000000000000000E+00     0.0000000000000000E+00 
    8.7499999999950118E-01     1.0000000000000000E+00     0.0000000000000000E+00 
    8.1249999999991318E-01     1.0000000000000000E+00     0.0000000000000000E+00 
    7.5000000000034706E-01     1.0000000000000000E+00     0.0000000000000000E+00 
    6.8750000000078049E-01     1.0000000000000000E+00     0.0000000000000000E+00 
    6.2500000000121403E-01     1.0000000000000000E+00     0.0000000000000000E+00 
    5.6250000000164757E-01     1.0000000000000000E+00     0.0000000000000000E+00 
    5.0000000000205946E-01     1.0000000000000000E+00     0.0000000000000000E+00 
    4.3750000000182099E-01     1.0000000000000000E+00     0.0000000000000000E+00 
    3.7500000000156092E-01     1.0000000000000000E+00     0.0000000000000000E+00 
    3.1250000000130068E-01     1.0000000000000000E+00     0.0000000000000000E+00 
    2.5000000000104050E-01     1.0000000000000000E+00     0.0000000000000000E+00 
    1.8750000000078040E-01     1.0000000000000000E+00     0.0000000000000000E+00 
    1.2500000000052031E-01     1.0000000000000000E+00     0.0000000000000000E+00 
    6.2500000000260125E-02     1.0000000000000000E+00     0.0000000000000000E+00 
    0.0000000000000000E+00     9.3749999999973976E-01     0.0000000000000000E+00 
    0.0000000000000000E+00     8.7499999999950118E-01     0.0000000000000000E+00 
    0.0000000000000000E+00     8.1249999999991318E-01     0.0000000000000000E+00 
    0.0000000000000000E+00     7.5000000000034706E-01     0.0000000000000000E+00 
    0.0000000000000000E+00     6.8750000000078049E-01     0.0000000000000000E+00 
    0.0000000000000000E+00     6.2500000000121403E-01     0.0000000000000000E+00 
    0.0000000000000000E+00     5.6250000000164757E-01     0.0000000000000000E+00 
    0.0000000000000000E+00     5.0000000000205946E-01     0.0000000000000000E+00 
    0.0000000000000000E+00     4.3750000000182099E-01     0.0000000000000000E+00 
    0.0000000000000000E+00     3.7500000000156092E-01     0.0000000000000000E+00 
    0.0000000000000000E+00     3.1250000000130068E-01     0.0000000000000000E+00 
    0.0000000000000000E+00     2.5000000000104050E-01     0.0000000000000000E+00 
    0.0000000000000000E+00     1.8750000000078040E-01     0.0000000000000000E+00 
    0.0000000000000000E+00     1.2500000000052031E-01     0.0000000000000000E+00 
    0.0000000000000000E+00     6.2500000000260125E-02     0.0000000000000000E+00 
    6.2499999999897131E-02     6.2500000000235922E-02     0.0000000000000000E+00 
    6.2499999999921327E-02     1.2500000000047351E-01     0.0000000000000000E+00 
    6.2499999999945530E-02     1.8750000000070621E-01     0.0000000000000000E+00 
    6.2499999999969733E-02     2.5000000000093858E-01     0.0000000000000000E+00 
    6.2499999999993928E-02     3.1250000000117117E-01     0.0000000000000000E+00 
    6.2500000000018124E-02     3.7500000000140382E-01     0.0000000000000000E+00 
    6.2500000000042327E-02     4.3750000000163619E-01     0.0000000000000000E+00 
    6.2500000000066530E-02     5.0000000000184897E-01     0.0000000000000000E+00 
    6.2500000000090733E-02     5.6250000000147260E-01     0.0000000000000000E+00 
    6.2500000000114922E-02     6.2500000000107636E-01     0.0000000000000000E+00 
    6.2500000000139125E-02     6.8750000000068034E-01     0.0000000000000000E+00 
    6.2500000000163328E-02     7.5000000000028411E-01     0.0000000000000000E+00 
    6.2500000000187531E-02     8.1249999999988787E-01     0.0000000000000000E+00 
    6.2500000000211720E-02     8.7499999999951172E-01     0.0000000000000000E+00 
    6.2500000000235922E-02     9.3749999999974565E-01     0.0000000000000000E+00 
    1.2499999999981980E-01     6.2500000000211733E-02     0.0000000000000000E+00 
    1.2499999999986650E-01     1.2500000000042691E-01     0.0000000000000000E+00 
    1.2499999999991319E-01     1.8750000000063199E-01     0.0000000000000000E+00 
    1.2499999999995989E-01     2.5000000000083678E-01     0.0000000000000000E+00 
    1.2500000000000661E-01     3.1250000000104172E-01     0.0000000000000000E+00 
    1.2500000000005329E-01     3.7500000000124661E-01     0.0000000000000000E+00 
    1.2500000000010000E-01     4.3750000000145117E-01     0.0000000000000000E+00 
    1.2500000000014669E-01     5.0000000000163858E-01     0.0000000000000000E+00 
    1.2500000000019340E-01     5.6250000000129741E-01     0.0000000000000000E+00 
    1.2500000000024011E-01     6.2500000000093847E-01     0.0000000000000000E+00 
    1.2500000000028680E-01     6.8750000000057998E-01     0.0000000000000000E+00 
    1.2500000000033351E-01     7.5000000000022127E-01     0.0000000000000000E+00 
    1.2500000000038020E-01     8.1249999999986211E-01     0.0000000000000000E+00 
    1.2500000000042691E-01     8.7499999999952238E-01     0.0000000000000000E+00 
    1.2500000000047359E-01     9.3749999999975164E-01     0.0000000000000000E+00 
    1.8749999999966760E-01     6.2500000000187531E-02     0.0000000000000000E+00 
    1.8749999999974179E-01     1.2500000000038020E-01     0.0000000000000000E+00 
    1.8749999999981601E-01     1.8750000000055780E-01     0.0000000000000000E+00 
    1.8749999999989009E-01     2.5000000000073502E-01     0.0000000000000000E+00 
    1.8749999999996431E-01     3.1250000000091221E-01     0.0000000000000000E+00 
    1.8750000000003850E-01     3.7500000000108941E-01     0.0000000000000000E+00 
    1.8750000000011269E-01     4.3750000000126649E-01     0.0000000000000000E+00 
    1.8750000000018691E-01     5.0000000000142808E-01     0.0000000000000000E+00 
    1.8750000000026110E-01     5.6250000000112244E-01     0.0000000000000000E+00 
    1.8750000000033529E-01     6.2500000000080080E-01     0.0000000000000000E+00 
    1.8750000000040951E-01     6.8750000000047962E-01     0.0000000000000000E+00 
    1.8750000000048361E-01     7.5000000000015843E-01     0.0000000000000000E+00 
    1.8750000000055780E-01     8.1249999999983680E-01     0.0000000000000000E+00 
    1.8750000000063199E-01     8.7499999999953304E-01     0.0000000000000000E+00 
    1.8750000000070621E-01     9.3749999999975764E-01     0.0000000000000000E+00 
    2.4999999999951281E-01     6.2500000000163314E-02     0.0000000000000000E+00 
    2.4999999999961461E-01     1.2500000000033351E-01     0.0000000000000000E+00 
    2.4999999999971650E-01     1.8750000000048361E-01     0.0000000000000000E+00 
    2.4999999999981831E-01     2.5000000000063310E-01     0.0000000000000000E+00 
    2.4999999999992020E-01     3.1250000000078260E-01     0.0000000000000000E+00 
    2.5000000000002198E-01     3.7500000000093209E-01     0.0000000000000000E+00 
    2.5000000000012390E-01     4.3750000000108180E-01     0.0000000000000000E+00 
    2.5000000000022571E-01     5.0000000000121769E-01     0.0000000000000000E+00 
    2.5000000000032763E-01     5.6250000000094724E-01     0.0000000000000000E+00 
    2.5000000000042938E-01     6.2500000000066314E-01     0.0000000000000000E+00 
    2.5000000000053119E-01     6.8750000000037925E-01     0.0000000000000000E+00 
[...]
CELL_DATA 256 
SCALARS Pressure double 1 
LOOKUP_TABLE default 

    6.6514489169229174E-01 
    6.1553673592034275E-01 
    5.8412772664541401E-01 
    5.5588976034920856E-01 
    5.2739543825016588E-01 
    4.9778350736773441E-01 
    4.6678218086377044E-01 
    4.3442530808151919E-01 
    4.0097327045758363E-01 
    3.6694335075732426E-01 
    3.3321820084396819E-01 
    3.0119390730318829E-01 
    2.7286431210669593E-01 
    2.5062599416987269E-01 
    2.3647177729429933E-01 
    2.2967995131755983E-01 
    6.5115349611660933E-01 
    6.1678873241527299E-01 
    5.8647066550093530E-01 
    5.5845061488871661E-01 
    5.3013484418521528E-01 
    5.0068953768786617E-01 
    4.6983910008570628E-01 
    4.3759941672215036E-01 
    4.0420333017735588E-01 
    3.7012768844931637E-01 
    3.3619836587978597E-01 
    3.0374624877073153E-01 
    2.7472688913853710E-01 
    2.5159495490794248E-01 
    2.3659047046666726E-01 
    2.2927269415108753E-01 
    6.4041811314642905E-01 
    6.1591286102429221E-01 
    5.8807179343452121E-01 
    5.6068975788551312E-01 
    5.3269016674103753E-01 
    5.0346451154410310E-01 
    4.7278445364200289E-01 
    4.4066266241222468E-01 
    4.0730480438459643E-01 
    3.7314037526275295E-01 
    3.3892562693256245E-01 
    3.0591115926493750E-01 
    2.7601038494488667E-01 
    2.5177114292915354E-01 
    2.3577284129746662E-01 
    2.2797435205894884E-01 
    6.3199659330690205E-01 
    6.1397060350299137E-01 
    5.8897374201407815E-01 
    5.6258445366839793E-01 
    5.3505269458927907E-01 
    5.0611182881437866E-01 
    4.7562808575606630E-01 
    4.4362908859284755E-01 
    4.1029803836440237E-01 
    3.7601258072032911E-01 
    3.4144676895494241E-01 
    3.0775106463411711E-01 
    2.7677870199866256E-01 
    2.5118524707333623E-01 
    2.3397620828704641E-01 
    2.2565420135221026E-01 
    6.2525065387455792E-01 
    6.1155646743356107E-01 
    5.8931050519036443E-01 
    5.6414337307689322E-01 
    5.3721807620962814E-01 
    5.0863321212858403E-01 
    4.7837931800167854E-01 
    4.4651460110885666E-01 
    4.1320649764367617E-01 
    3.7877920734191006E-01 
    3.4381311114164603E-01 
    3.0933501546630754E-01 
    2.7710547053195311E-01 
    2.4987542922707087E-01 
    2.3115289707014244E-01 
    2.2217188168799459E-01 
    6.1977538077712568E-01 
    6.0901384313468521E-01 
    5.8923277049913958E-01 
    5.6539947586564165E-01 
    5.3919022261652561E-01 
    5.1103019168305319E-01 
    4.8104526085362631E-01 
    4.4933439025020178E-01 
    4.1605493818656625E-01 
    3.8147798298061242E-01 
    3.4608063547185375E-01 
    3.1073969819380887E-01 
    2.7707664542192140E-01 
    2.4789382938023702E-01 
    2.2725310067682453E-01 
    2.1736128074009728E-01 
    6.1530313226503075E-01 
    6.0654893409721644E-01 
    5.8888718803121687E-01 
    5.6640578653817841E-01 
    5.4098754910863822E-01 
    5.1331125407708256E-01 
    4.8363407295076194E-01 
    4.5210212432376917E-01 
    4.1886684331281393E-01 
    3.8414732169839577E-01 
    3.4830914547525588E-01 
    3.1205091587290312E-01 
    2.7679458226669956E-01 
    2.4531462485353348E-01 
    2.2223534716052193E-01 
    2.1103397341140750E-01 
    6.1164459928552950E-01 
    6.0428238783270993E-01 
    5.8840181371113809E-01 
    5.6722557696134968E-01 
    5.4263912362320743E-01 
    5.1549194683605615E-01 
    4.8615737771798501E-01 
    4.5483092045334572E-01 
    4.2166308174390404E-01 
    3.8682270192522616E-01 
    3.5055879467686002E-01 
    3.1336314860575326E-01 
    2.7638334238883461E-01 
    2.4224330506783273E-01 
    2.1607424637170630E-01 
    2.0296799594488557E-01 
    6.0866386977069653E-01 
    6.0228153784793392E-01 
    5.8788098405780265E-01 
    5.6792436222907872E-01 
    5.4417885170012847E-01 
    5.1759122012432912E-01 
    4.8862862341766755E-01 
    4.5753392210387728E-01 
    4.2446083402466422E-01 
    3.8953351854619256E-01 
    3.5288448496069075E-01 
    3.1477455494621975E-01 
    2.7599091760472677E-01 
    2.3882920029799729E-01 
    2.0876952808632743E-01 
    1.9288132524366719E-01 
    6.0626138738470126E-01 
    6.0057986783364492E-01 
    5.8740374756621661E-01 
    5.6856272345591152E-01 
    5.4564290439499286E-01 
    5.1963031449309816E-01 
    4.9106257346159282E-01 
    4.6022460693776984E-01 
    4.2727552797918322E-01 
    3.9230359142670895E-01 
    3.5533288822281311E-01 
    3.1638032436929170E-01 
    2.7578641433283185E-01 
    2.3527857679219563E-01 
    2.0036396432580422E-01 
    1.8039914555367506E-01 
    6.0436260342113601E-01 
    5.9919317334859135E-01 
    5.8703249390390966E-01 
    5.6919735547170625E-01 
    5.4706991161428975E-01 
    5.2163413133837988E-01 
    4.9347689522161342E-01 
    4.6291839136677054E-01 
    4.3012319687332840E-01 
    3.9515396663024077E-01 
    3.5794314747839201E-01 
    3.1826889163865668E-01 
    2.7595684153320066E-01 
    2.3187147288334059E-01 
    1.9098591530256412E-01 
    1.6502610451127819E-01 
    6.0290689816965837E-01 
    5.9812864262878707E-01 
    5.8681877937087179E-01 
    5.6988123034200078E-01 
    5.4849983448903750E-01 
    5.2363130461191865E-01 
    4.9589398830500414E-01 
    4.6563431744566697E-01 
    4.3302181495854364E-01 
    3.9810423554333668E-01 
    3.6074764246063712E-01 
    3.2051800849753653E-01 
    2.7670139641919428E-01 
    2.2898372496956432E-01 
    1.8092075651991701E-01 
    1.4607525934870449E-01 
    6.0185065156426787E-01 
    5.9739365806376743E-01 
    5.8680794259926050E-01 
    5.7066547896565378E-01 
    5.4997426471233224E-01 
    5.2565391184808274E-01 
    4.9834009779749466E-01 
    4.6839524503370306E-01 
    4.3599056771941802E-01 
    4.0117211357938348E-01 
    3.6377143732916328E-01 
    3.2318811111185686E-01 
    2.7821423295256259E-01 
    2.2709861640175114E-01 
    1.7072453142995747E-01 
    1.2252138780492015E-01 
    6.0116819377452047E-01 
    5.9700335247102876E-01 
    5.8704616212453620E-01 
    5.7160350966226747E-01 
    5.5153857972012676E-01 
    5.2773551668758323E-01 
    5.0084116442286053E-01 
    4.7122314271994314E-01 
    4.3904458027862414E-01 
    4.0436045416646993E-01 
    3.6701461062100388E-01 
    3.2629804770638443E-01 
    2.8063728158589696E-01 
    2.2678618541041953E-01 
    1.6149524347939523E-01 
    9.2826907029604472E-02 
    6.0074745822788933E-01 
    5.9689728673714249E-01 
    5.8752492282739399E-01 
    5.7270668655916712E-01 
    5.5319830267793901E-01 
    5.2986255072913113E-01 
    5.0335837075511991E-01 
    4.7406727772105123E-01 
    4.4212818349676697E-01 
    4.0760163231755753E-01 
    3.7037569648682961E-01 
    3.2970722261172397E-01 
    2.8388031482947462E-01 
    2.2839640352502111E-01 
    1.5500805503650397E-01 
    5.4460488919420874E-02 
    6.0060198779303320E-01 
    5.9708460542284969E-01 
    5.8825763018014909E-01 
    5.7399877656099940E-01 
    5.5498101159445112E-01 
    5.3205841155793066E-01 
    5.0589741191166404E-01 
    4.7691748951974272E-01 
    4.4524880019265517E-01 
    4.1094741488254261E-01 
    3.7393974263010110E-01 
    3.3353088109309864E-01 
    2.8811868980474908E-01 
    2.3243612230987429E-01 
    1.5445187215596079E-01 
    0.0000000000000000E+00 

SCALARS Saturarion double 1 
LOOKUP_TABLE default 

    1.0000000000000004E+00 
    9.7823946400166795E-01 
    9.3830500418082863E-01 
    8.8370028692896341E-01 
    8.3807715087323598E-01 
    7.9782804633669568E-01 
    7.6256174078242533E-01 
    7.3174597012237352E-01 
    7.0445502538484617E-01 
    6.7967700421034571E-01 
    6.5636836553316347E-01 
    6.3326118686546629E-01 
    6.0835654985198295E-01 
    5.7795913373459473E-01 
    5.3033123695519391E-01 
    2.9345395740326485E-01 
    9.9193798607254891E-01 
    9.7135194975518968E-01 
    9.2947189405785247E-01 
    8.7736515908924806E-01 
    8.3296125859861680E-01 
    7.9408435589809945E-01 
    7.5987246341336645E-01 
    7.2968886399382860E-01 
    7.0283113242096351E-01 
    6.7841855641576254E-01 
    6.5562193013416514E-01 
    6.3331813906205037E-01 
    6.0948366616127092E-01 
    5.8009903194279444E-01 
    5.3462855084096295E-01 
    3.1678802073750445E-01 
    9.7918943175278095E-01 
    9.5850908247091871E-01 
    9.1636121504887302E-01 
    8.6587381017071341E-01 
    8.2287947540632600E-01 
    7.8628437746224300E-01 
    7.5423955980860902E-01 
    7.2545215235640603E-01 
    6.9937241696599772E-01 
    6.7546709426391560E-01 
    6.5323101097996616E-01 
    6.3182848020118687E-01 
    6.0962480105865491E-01 
    5.8254542934524878E-01 
    5.4034443465264637E-01 
    3.3824728176805902E-01 
    9.5696773594229489E-01 
    9.3949212580341113E-01 
    9.0024199174369313E-01 
    8.5374101450704720E-01 
    8.1147187857155745E-01 
    7.7578188236806656E-01 
    7.4516191603605220E-01 
    7.1815150737507571E-01 
    6.9363724327184728E-01 
    6.7114946747352000E-01 
    6.5007460301469733E-01 
    6.2978174246864782E-01 
    6.0904720259107636E-01 
    5.8446728154271665E-01 
    5.4598824118831835E-01 
    3.5912252763832536E-01 
    9.2954030533880583E-01 
    9.1394191161629434E-01 
    8.7871661239879062E-01 
    8.3678132670420768E-01 
    7.9657110819616539E-01 
    7.6164655328332098E-01 
    7.3205864978308899E-01 
    7.0658557279669776E-01 
    6.8412990433956855E-01 
    6.6388358128506852E-01 
    6.4518823461880936E-01 
    6.2710645378803820E-01 
    6.0822504531722388E-01 
    5.8583071731718872E-01 
    5.5079547948938001E-01 
    3.7654349319796970E-01 
    8.9839609322144121E-01 
    8.8530620233055235E-01 
    8.5456967248654714E-01 
    8.1647993505473748E-01 
    7.7923059355062230E-01 
    7.4601865316245031E-01 
    7.1725438172701217E-01 
    6.9272725676006863E-01 
    6.7169975471966004E-01 
    6.5342032358295365E-01 
    6.3726152288084459E-01 
    6.2239404273100229E-01 
    6.0673621909755915E-01 
    5.8687026763888217E-01 
    5.5527104167474872E-01 
    3.9235788461297649E-01 
    8.6443411968600825E-01 
    8.5444425418087744E-01 
    8.2847137644182278E-01 
    7.9438720637763316E-01 
    7.6043579654988613E-01 
    7.2960597487377488E-01 
    7.0249608213830139E-01 
    6.7874339836534447E-01 
    6.5839799869440763E-01 
    6.4127386234265482E-01 
    6.2706375963885408E-01 
    6.1509380614146014E-01 
    6.0350920913747186E-01 
    5.8756425325986583E-01 
    5.5936480948615697E-01 
    4.0793632570869309E-01 
    8.2747676325936093E-01 
    8.2101611715658562E-01 
    8.0054150292417459E-01 
    7.7108252687756207E-01 
    7.4023202220945150E-01 
    7.1164504182570731E-01 
    6.8607481355005462E-01 
    6.6369886945160317E-01 
    6.4437386086617821E-01 
    6.2820429780108167E-01 
    6.1523483753182906E-01 
    6.0554145057658648E-01 
    5.9785144026162718E-01 
    5.8716130008150114E-01 
    5.6331326273394433E-01 
    4.2366632831873191E-01 
    7.8763022019808870E-01 
    7.8466771768674670E-01 
    7.6966379758512726E-01 
    7.4522147157271235E-01 
    7.1797137176030845E-01 
    6.9161221035427378E-01 
    6.6771899456745709E-01 
    6.4660742656515957E-01 
    6.2836504798183634E-01 
    6.1310794514481270E-01 
    6.0129964856938412E-01 
    5.9350499501545040E-01 
    5.8943186054869456E-01 
    5.8467341247796456E-01 
    5.6684527536214857E-01 
    4.3869610499519546E-01 
    7.4494167794282484E-01 
    7.4529569556277253E-01 
    7.3547342265975957E-01 
    7.1583852133589232E-01 
    6.9244344830697924E-01 
    6.6881394974146136E-01 
    6.4667320191879141E-01 
    6.2711290570845657E-01 
    6.1021962738086100E-01 
    5.9596577488077351E-01 
    5.8486726494791330E-01 
    5.7838038997220087E-01 
    5.7755401916564075E-01 
    5.7921592152089407E-01 
    5.6888667315640873E-01 
    4.5356600491719862E-01 
    6.9906649252639874E-01 
    7.0253557160980895E-01 
    6.9757577620315991E-01 
    6.8242374938962480E-01 
    6.6291981299279490E-01 
    6.4255286283942503E-01 
    6.2313600747072240E-01 
    6.0532629186692388E-01 
    5.8980602069529575E-01 
    5.7678342683916828E-01 
    5.6665942441308881E-01 
    5.6069177417488680E-01 
    5.6158235397855161E-01 
    5.6953077116491124E-01 
    5.6857828386536369E-01 
    4.6860207225472311E-01 
    6.4862027845636061E-01 
    6.5514566362123117E-01 
    6.5519221832043728E-01 
    6.4463959363173307E-01 
    6.2882764140549696E-01 
    6.1155543865173156E-01 
    5.9487193867730392E-01 
    5.7973592595221424E-01 
    5.6630793468191043E-01 
    5.5492192768684445E-01 
    5.4620209779358186E-01 
    5.4132697819212683E-01 
    5.4259837857261872E-01 
    5.5429815537883120E-01 
    5.6483659691288812E-01 
    4.8265723636017710E-01 
    5.9405722334487532E-01 
    6.0283946456851112E-01 
    6.0722420819377343E-01 
    6.0146594649591267E-01 
    5.9009122886619259E-01 
    5.7632969067247186E-01 
    5.6269585913716458E-01 
    5.4993833497977918E-01 
    5.3852391464143046E-01 
    5.2876233616410129E-01 
    5.2173627225002084E-01 
    5.1848506672597694E-01 
    5.2101153739088801E-01 
    5.3394676366407923E-01 
    5.5426556156661810E-01 
    4.9414842079651372E-01 
    5.3669104923240851E-01 
    5.4801311501452932E-01 
    5.5535479270546784E-01 
    5.5394641927302757E-01 
    5.4613279864318776E-01 
    5.3481837603080373E-01 
    5.2206172410583662E-01 
    5.1046223977869321E-01 
    4.9961564608656955E-01 
    4.8933142225833826E-01 
    4.7885920991846187E-01 
    4.7678065296998440E-01 
    4.8463354453004287E-01 
    5.0514459107490317E-01 
    5.3835042968617941E-01 
    5.0156283887629083E-01 
    3.6132046897103071E-01 
    4.1116291865721150E-01 
    4.3988005839059313E-01 
    4.4868057729914207E-01 
    4.4172887295187191E-01 
    4.2520223659294015E-01 
    3.9558230752581519E-01 
    3.4642928742018914E-01 
    2.9325931029919855E-01 
    2.5068425788191667E-01 
    2.5206994896505081E-01 
    2.4445499887081462E-01 
    2.9464927706298588E-01 
    3.8833960672830298E-01 
    4.9456405442696139E-01 
    5.0335681399596910E-01 
    6.6404171331931258E-03 
    4.5999639256156730E-02 
    7.1146473258235518E-02 
    8.2398284041620931E-02 
    5.8347151133872732E-02 
    3.9929653286890646E-02 
    2.0645334078067484E-02 
    4.5349660469122732E-03 
    2.6166242838001298E-03 
    1.4998039636767230E-04 
    7.6538588325725351E-04 
    1.1443682152083415E-04 
    3.5801531692900416E-03 
    1.4581280115274808E-01 
    3.1936010075994409E-01 
    4.5231662779451792E-01 
