# vtk DataFile Version 2.0
Pressure Field Data 
ASCII 
DATASET UNSTRUCTURED_GRID 

POINTS 289 double 

    0.0000000000000000E+00     0.0000000000000000E+00     0.0000000000000000E+00 
    1.0000000000000000E+00     0.0000000000000000E+00     0.0000000000000000E+00 
    1.0000000000000000E+00     1.0000000000000000E+00     0.0000000000000000E+00 
    0.0000000000000000E+00     1.0000000000000000E+00     0.0000000000000000E+00 
    6.2499999999872928E-02     0.0000000000000000E+00     0.0000000000000000E+00 
    1.2499999999977310E-01     0.0000000000000000E+00     0.0000000000000000E+00 
    1.8749999999959341E-01     0.0000000000000000E+00     0.0000000000000000E+00 
    2.4999999999941089E-01     0.0000000000000000E+00     0.0000000000000000E+00 
    3.1249999999922851E-01     0.0000000000000000E+00     0.0000000000000000E+00 
    3.7499999999904610E-01     0.0000000000000000E+00     0.0000000000000000E+00 
    4.3749999999886358E-01     0.0000000000000000E+00     0.0000000000000000E+00 
    4.9999999999869210E-01     0.0000000000000000E+00     0.0000000000000000E+00 
    5.6249999999884603E-01     0.0000000000000000E+00     0.0000000000000000E+00 
    6.2499999999901090E-01     0.0000000000000000E+00     0.0000000000000000E+00 
    6.8749999999917577E-01     0.0000000000000000E+00     0.0000000000000000E+00 
    7.4999999999934064E-01     0.0000000000000000E+00     0.0000000000000000E+00 
    8.1249999999950551E-01     0.0000000000000000E+00     0.0000000000000000E+00 
    8.7499999999967026E-01     0.0000000000000000E+00     0.0000000000000000E+00 
    9.3749999999983513E-01     0.0000000000000000E+00     0.0000000000000000E+00 
    1.0000000000000000E+00     6.2499999999872928E-02     0.0000000000000000E+00 
    1.0000000000000000E+00     1.2499999999977310E-01     0.0000000000000000E+00 
    1.0000000000000000E+00     1.8749999999959341E-01     0.0000000000000000E+00 
    1.0000000000000000E+00     2.4999999999941089E-01     0.0000000000000000E+00 
    1.0000000000000000E+00     3.1249999999922851E-01     0.0000000000000000E+00 
    1.0000000000000000E+00     3.7499999999904610E-01     0.0000000000000000E+00 
    1.0000000000000000E+00     4.3749999999886358E-01     0.0000000000000000E+00 
    1.0000000000000000E+00     4.9999999999869210E-01     0.0000000000000000E+00 
    1.0000000000000000E+00     5.6249999999884603E-01     0.0000000000000000E+00 
    1.0000000000000000E+00     6.2499999999901090E-01     0.0000000000000000E+00 
    1.0000000000000000E+00     6.8749999999917577E-01     0.0000000000000000E+00 
    1.0000000000000000E+00     7.4999999999934064E-01     0.0000000000000000E+00 
    1.0000000000000000E+00     8.1249999999950551E-01     0.0000000000000000E+00 
    1.0000000000000000E+00     8.7499999999967026E-01     0.0000000000000000E+00 
    1.0000000000000000E+00     9.3749999999983513E-01     0.0000000000000000E+00 
    9.3749999999973976E-01     1.0000000000000000E+00     0.0000000000000000E+00 
    8.7499999999950118E-01     1.0000000000000000E+00     0.0000000000000000E+00 
    8.1249999999991318E-01     1.0000000000000000E+00     0.0000000000000000E+00 
    7.5000000000034706E-01     1.0000000000000000E+00     0.0000000000000000E+00 
    6.8750000000078049E-01     1.0000000000000000E+00     0.0000000000000000E+00 
    6.2500000000121403E-01     1.0000000000000000E+00     0.0000000000000000E+00 
    5.6250000000164757E-01     1.0000000000000000E+00     0.0000000000000000E+00 
    5.0000000000205946E-01     1.0000000000000000E+00     0.0000000000000000E+00 
    4.3750000000182099E-01     1.0000000000000000E+00     0.0000000000000000E+00 
    3.7500000000156092E-01     1.0000000000000000E+00     0.0000000000000000E+00 
    3.1250000000130068E-01     1.0000000000000000E+00     0.0000000000000000E+00 
    2.5000000000104050E-01     1.0000000000000000E+00     0.0000000000000000E+00 
    1.8750000000078040E-01     1.0000000000000000E+00     0.0000000000000000E+00 
    1.2500000000052031E-01     1.0000000000000000E+00     0.0000000000000000E+00 
    6.2500000000260125E-02     1.0000000000000000E+00     0.0000000000000000E+00 
    0.0000000000000000E+00     9.3749999999973976E-01     0.0000000000000000E+00 
    0.0000000000000000E+00     8.7499999999950118E-01     0.0000000000000000E+00 
    0.0000000000000000E+00     8.1249999999991318E-01     0.0000000000000000E+00 
    0.0000000000000000E+00     7.5000000000034706E-01     0.0000000000000000E+00 
    0.0000000000000000E+00     6.8750000000078049E-01     0.0000000000000000E+00 
    0.0000000000000000E+00     6.2500000000121403E-01     0.0000000000000000E+00 
    0.0000000000000000E+00     5.6250000000164757E-01     0.0000000000000000E+00 
    0.0000000000000000E+00     5.0000000000205946E-01     0.0000000000000000E+00 
    0.0000000000000000E+00     4.3750000000182099E-01     0.0000000000000000E+00 
    0.0000000000000000E+00     3.7500000000156092E-01     0.0000000000000000E+00 
    0.0000000000000000E+00     3.1250000000130068E-01     0.0000000000000000E+00 
    0.0000000000000000E+00     2.5000000000104050E-01     0.0000000000000000E+00 
    0.0000000000000000E+00     1.8750000000078040E-01     0.0000000000000000E+00 
    0.0000000000000000E+00     1.2500000000052031E-01     0.0000000000000000E+00 
    0.0000000000000000E+00     6.2500000000260125E-02     0.0000000000000000E+00 
    6.2499999999897131E-02     6.2500000000235922E-02     0.0000000000000000E+00 
    6.2499999999921327E-02     1.2500000000047351E-01     0.0000000000000000E+00 
    6.2499999999945530E-02     1.8750000000070621E-01     0.0000000000000000E+00 
    6.2499999999969733E-02     2.5000000000093858E-01     0.0000000000000000E+00 
    6.2499999999993928E-02     3.1250000000117117E-01     0.0000000000000000E+00 
    6.2500000000018124E-02     3.7500000000140382E-01     0.0000000000000000E+00 
    6.2500000000042327E-02     4.3750000000163619E-01     0.0000000000000000E+00 
    6.2500000000066530E-02     5.0000000000184897E-01     0.0000000000000000E+00 
    6.2500000000090733E-02     5.6250000000147260E-01     0.0000000000000000E+00 
    6.2500000000114922E-02     6.2500000000107636E-01     0.0000000000000000E+00 
    6.2500000000139125E-02     6.8750000000068034E-01     0.0000000000000000E+00 
    6.2500000000163328E-02     7.5000000000028411E-01     0.0000000000000000E+00 
    6.2500000000187531E-02     8.1249999999988787E-01     0.0000000000000000E+00 
    6.2500000000211720E-02     8.7499999999951172E-01     0.0000000000000000E+00 
    6.2500000000235922E-02     9.3749999999974565E-01     0.0000000000000000E+00 
    1.2499999999981980E-01     6.2500000000211733E-02     0.0000000000000000E+00 
    1.2499999999986650E-01     1.2500000000042691E-01     0.0000000000000000E+00 
    1.2499999999991319E-01     1.8750000000063199E-01     0.0000000000000000E+00 
    1.2499999999995989E-01     2.5000000000083678E-01     0.0000000000000000E+00 
    1.2500000000000661E-01     3.1250000000104172E-01     0.0000000000000000E+00 
    1.2500000000005329E-01     3.7500000000124661E-01     0.0000000000000000E+00 
    1.2500000000010000E-01     4.3750000000145117E-01     0.0000000000000000E+00 
    1.2500000000014669E-01     5.0000000000163858E-01     0.0000000000000000E+00 
    1.2500000000019340E-01     5.6250000000129741E-01     0.0000000000000000E+00 
    1.2500000000024011E-01     6.2500000000093847E-01     0.0000000000000000E+00 
    1.2500000000028680E-01     6.8750000000057998E-01     0.0000000000000000E+00 
    1.2500000000033351E-01     7.5000000000022127E-01     0.0000000000000000E+00 
    1.2500000000038020E-01     8.1249999999986211E-01     0.0000000000000000E+00 
    1.2500000000042691E-01     8.7499999999952238E-01     0.0000000000000000E+00 
    1.2500000000047359E-01     9.3749999999975164E-01     0.0000000000000000E+00 
    1.8749999999966760E-01     6.2500000000187531E-02     0.0000000000000000E+00 
    1.8749999999974179E-01     1.2500000000038020E-01     0.0000000000000000E+00 
    1.8749999999981601E-01     1.8750000000055780E-01     0.0000000000000000E+00 
    1.8749999999989009E-01     2.5000000000073502E-01     0.0000000000000000E+00 
    1.8749999999996431E-01     3.1250000000091221E-01     0.0000000000000000E+00 
    1.8750000000003850E-01     3.7500000000108941E-01     0.0000000000000000E+00 
    1.8750000000011269E-01     4.3750000000126649E-01     0.0000000000000000E+00 
    1.8750000000018691E-01     5.0000000000142808E-01     0.0000000000000000E+00 
    1.8750000000026110E-01     5.6250000000112244E-01     0.0000000000000000E+00 
    1.8750000000033529E-01     6.2500000000080080E-01     0.0000000000000000E+00 
    1.8750000000040951E-01     6.8750000000047962E-01     0.0000000000000000E+00 
    1.8750000000048361E-01     7.5000000000015843E-01     0.0000000000000000E+00 
    1.8750000000055780E-01     8.1249999999983680E-01     0.0000000000000000E+00 
    1.8750000000063199E-01     8.7499999999953304E-01     0.0000000000000000E+00 
    1.8750000000070621E-01     9.3749999999975764E-01     0.0000000000000000E+00 
    2.4999999999951281E-01     6.2500000000163314E-02     0.0000000000000000E+00 
    2.4999999999961461E-01     1.2500000000033351E-01     0.0000000000000000E+00 
    2.4999999999971650E-01     1.8750000000048361E-01     0.0000000000000000E+00 
    2.4999999999981831E-01     2.5000000000063310E-01     0.0000000000000000E+00 
    2.4999999999992020E-01     3.1250000000078260E-01     0.0000000000000000E+00 
    2.5000000000002198E-01     3.7500000000093209E-01     0.0000000000000000E+00 
    2.5000000000012390E-01     4.3750000000108180E-01     0.0000000000000000E+00 
    2.5000000000022571E-01     5.0000000000121769E-01     0.0000000000000000E+00 
    2.5000000000032763E-01     5.6250000000094724E-01     0.0000000000000000E+00 
    2.5000000000042938E-01     6.2500000000066314E-01     0.0000000000000000E+00 
    2.5000000000053119E-01     6.8750000000037925E-01     0.0000000000000000E+00 
[...]
CELL_DATA 256 
SCALARS Pressure double 1 
LOOKUP_TABLE default 

    6.2835149906234566E-01 
    5.7918210500089418E-01 
    5.4847365271123383E-01 
    5.2117529915874905E-01 
    4.9383397461417977E-01 
    4.6556476085488901E-01 
    4.3607927819651016E-01 
    4.0538826666837663E-01 
    3.7371907420395800E-01 
    3.4154168726851186E-01 
    3.0967169911462139E-01 
    2.7940991657814329E-01 
    2.5262002232539343E-01 
    2.3154036890378196E-01 
    2.1808300787210935E-01 
    2.1174291494653469E-01 
    6.1434673038195720E-01 
    5.8038454627809277E-01 
    5.5074368317030797E-01 
    5.2364290842939920E-01 
    4.9646118130679229E-01 
    4.6834026152592595E-01 
    4.3898861127475786E-01 
    4.0840119744329656E-01 
    3.7678002589393961E-01 
    3.4455703424395345E-01 
    3.1249430879963636E-01 
    2.8183139821532355E-01 
    2.5439571434619018E-01 
    2.3247873943269176E-01 
    2.1821382886325946E-01 
    2.1137707607410833E-01 
    6.0360255963868281E-01 
    5.7947138807492971E-01 
    5.5228409197986117E-01 
    5.2580052379814979E-01 
    4.9891594028728886E-01 
    4.7099644082068531E-01 
    4.4179794841350045E-01 
    4.1131487259188088E-01 
    3.7972496972409231E-01 
    3.4741580580537806E-01 
    3.1508409871559401E-01 
    2.8389450462767840E-01 
    2.5563479718821125E-01 
    2.3268288885088978E-01 
    2.1747929206930702E-01 
    2.1019593505775325E-01 
    5.9518849918934724E-01 
    5.7750691983885027E-01 
    5.5313928111824551E-01 
    5.2762521077804458E-01 
    5.0118757452720675E-01 
    4.7353426932960013E-01 
    4.4451539862239803E-01 
    4.1414251371061334E-01 
    3.8257380542146824E-01 
    3.5014821077784503E-01 
    3.1748538798531489E-01 
    2.8565735144973348E-01 
    2.5639642091772030E-01 
    2.3218076600195287E-01 
    2.1583951130710280E-01 
    2.0807709271177680E-01 
    5.8847208272505724E-01 
    5.7508939295624362E-01 
    5.5344451963709962E-01 
    5.2912638986839500E-01 
    5.0327135858375849E-01 
    4.7595349938163317E-01 
    4.4714757715469772E-01 
    4.1689757779845465E-01 
    3.8534812110310773E-01 
    3.5278730276830983E-01 
    3.1974658436482961E-01 
    2.8718411504879027E-01 
    2.5674828078090772E-01 
    2.3100732734440116E-01 
    2.1324996527667253E-01 
    2.0488932460562670E-01 
    5.8304323933033653E-01 
    5.7256124493499871E-01 
    5.5335054369805325E-01 
    5.3033732882313145E-01 
    5.0517115142271307E-01 
    4.7825431679650321E-01 
    4.4969881848810833E-01 
    4.1959168427158822E-01 
    3.8806911313728432E-01 
    3.5536747109857830E-01 
    3.2191991072342219E-01 
    2.8854619284563543E-01 
    2.5676936333042327E-01 
    2.2920961782831037E-01 
    2.0966347419712730E-01 
    2.0047876786903351E-01 
    5.7862737433525568E-01 
    5.7012454214492947E-01 
    5.5300185488655729E-01 
    5.3130950036596292E-01 
    5.0690415899507246E-01 
    4.8044401423062572E-01 
    4.5217535083316290E-01 
    4.2223538755315598E-01 
    3.9075627621646231E-01 
    3.5792273871849162E-01 
    3.2406038761847450E-01 
    2.8982359573001076E-01 
    2.5655437216859645E-01 
    2.2685461530477724E-01 
    2.0503940518563366E-01 
    1.9466944141647535E-01 
    5.7503082231166069E-01 
    5.6789574509826668E-01 
    5.5252339183478838E-01 
    5.3210389307184769E-01 
    5.0849794443920471E-01 
    4.8253707417161895E-01 
    4.5458740835980133E-01 
    4.2483952909341949E-01 
    3.9342718162308032E-01 
    3.6048434959873837E-01 
    3.2622273141720326E-01 
    2.9110409121934500E-01 
    2.5621888945461824E-01 
    2.2403925566110391E-01 
    1.9935270326777677E-01 
    1.8725401600279851E-01 
    5.7211404656254594E-01 
    5.6593839453817740E-01 
    5.5201638002174125E-01 
    5.3278385768414005E-01 
    5.0998514335123901E-01 
    4.8455140368152400E-01 
    4.5694697676974272E-01 
    4.2741520391752952E-01 
    3.9609675735704875E-01 
    3.6307885964550879E-01 
    3.2845698315899979E-01 
    2.9247821022024573E-01 
    2.5590073528493212E-01 
    2.2090190851920646E-01 
    1.9260071649973146E-01 
    1.7796899669882058E-01 
    5.6977439029046806E-01 
    5.6428292595673490E-01 
    5.5155745178127225E-01 
    5.3340828321334310E-01 
    5.1140077225819924E-01 
    4.8650697151637001E-01 
    4.5926685436163783E-01 
    4.2997337868066082E-01 
    3.9877847416989576E-01 
    3.6572880669930374E-01 
    3.3080676755842842E-01 
    2.9403372014243356E-01 
    2.5575652349819561E-01 
    2.1763497409790769E-01 
    1.8482182373176423E-01 
    1.6646595552679774E-01 
    5.6793493740578971E-01 
    5.6294265140075628E-01 
    5.5120667340327101E-01 
    5.3403210528858447E-01 
    5.1278212779933863E-01 
    4.8842698427380066E-01 
    4.6156194933991057E-01 
    4.3252579185964213E-01 
    4.0148562870594851E-01 
    3.6845456385063036E-01 
    3.3330986126064233E-01 
    2.9585279076774390E-01 
    2.5595840615694215E-01 
    2.1449246441444383E-01 
    1.7612313631540530E-01 
    1.5227923066656077E-01 
    5.6653337073168120E-01 
    5.6192250763168239E-01 
    5.5101314126654943E-01 
    5.3470629412993820E-01 
    5.1416754200963433E-01 
    4.9033772694376782E-01 
    4.6385065996080271E-01 
    4.3508589332559794E-01 
    4.0423166583519993E-01 
    3.7127457956991855E-01 
    3.3599786119752739E-01 
    2.9800813640258006E-01 
    2.5668881070886646E-01 
    2.1182543764052933E-01 
    1.6677963186713615E-01 
    1.3477134110056926E-01 
    5.6552101584839898E-01 
    5.6122510036521345E-01 
    5.5101776659673640E-01 
    5.3547809416416825E-01 
    5.1559561306825330E-01 
    4.9226805265000789E-01 
    4.6615431292652676E-01 
    4.3766881313530520E-01 
    4.0702892182926986E-01 
    3.7420498887934839E-01 
    3.3889579833125050E-01 
    3.0055744694287512E-01 
    2.5812480626905804E-01 
    2.1007894007947461E-01 
    1.5731968260559329E-01 
    1.1299934151895487E-01 
    5.6486813909866818E-01 
    5.6086005749587631E-01 
    5.5126097863018086E-01 
    5.3639627326488193E-01 
    5.1711010947490932E-01 
    4.9425201133766611E-01 
    4.6849803071055118E-01 
    4.4028961198236016E-01 
    4.0988583059630435E-01 
    3.7725711751949403E-01 
    3.4201936106507519E-01 
    3.0353468127627370E-01 
    2.6041092868360205E-01 
    2.0978775769946215E-01 
    1.4876167765755755E-01 
    8.5527477343896513E-02 
    5.6450558040052223E-01 
    5.6080014433569891E-01 
    5.5175595469536776E-01 
    5.3749188250054292E-01 
    5.1874073595152936E-01 
    4.9630634719545919E-01 
    4.7088588502747863E-01 
    4.4293734866054618E-01 
    4.1276670490786921E-01 
    3.8037502020958130E-01 
    3.4529997667503232E-01 
    3.0686738161368210E-01 
    2.6353270491528058E-01 
    2.1136792879043398E-01 
    1.4289186602169834E-01 
    5.0125570459214237E-02 
    5.6438548460664772E-01 
    5.6100375180135564E-01 
    5.5247892334901094E-01 
    5.3875906441365495E-01 
    5.2048990580885313E-01 
    4.9843825694332416E-01 
    4.7332452733276342E-01 
    4.4562399144525239E-01 
    4.1567121147558583E-01 
    3.8353357561299750E-01 
    3.4871641483380544E-01 
    3.1056602881568618E-01 
    2.6752364556394631E-01 
    2.1503913889251802E-01 
    1.4242405125308386E-01 
    0.0000000000000000E+00 

SCALARS Saturarion double 1 
LOOKUP_TABLE default 

    1.0000000000000004E+00 
    9.8053699476326972E-01 
    9.4462634878103291E-01 
    8.9349736073974051E-01 
    8.5092635659479965E-01 
    8.1323214014285605E-01 
    7.7982709448283039E-01 
    7.5029434336078971E-01 
    7.2389968194914289E-01 
    6.9979847133951578E-01 
    6.7710072614590966E-01 
    6.5469845221217426E-01 
    6.3078244248149740E-01 
    6.0171541273107454E-01 
    5.5964601730335850E-01 
    3.7115248175505239E-01 
    9.9295570476857131E-01 
    9.7457425874076986E-01 
    9.3684332174608698E-01 
    8.8802550991917151E-01 
    8.4618734386852079E-01 
    8.0949095245139979E-01 
    7.7702521369348632E-01 
    7.4817362893900952E-01 
    7.2230862915782501E-01 
    6.9864900787408024E-01 
    6.7647231506300842E-01 
    6.5480448580927297E-01 
    6.3186157181982661E-01 
    6.0378296435326118E-01 
    5.6293656678513648E-01 
    3.8802659631606740E-01 
    9.8178789283093559E-01 
    9.6322406346771239E-01 
    9.2511936480361345E-01 
    8.7776558491424728E-01 
    8.3672977979177643E-01 
    8.0171578143946476E-01 
    7.7117038200693422E-01 
    7.4378293761715331E-01 
    7.1891332977920730E-01 
    6.9598118956898591E-01 
    6.7446979756795000E-01 
    6.5361747477708132E-01 
    6.3204708088622796E-01 
    6.0609899775219389E-01 
    5.6780289853446753E-01 
    4.0407917885409989E-01 
    9.6233321992448029E-01 
    9.4662539226062581E-01 
    9.1052895359867636E-01 
    8.6692981518983292E-01 
    8.2660819036174682E-01 
    7.9214155486954840E-01 
    7.6250531339658623E-01 
    7.3650555975665011E-01 
    7.1307076628071964E-01 
    6.9162261429478811E-01 
    6.7144195801967266E-01 
    6.5181435657783771E-01 
    6.3158737536231802E-01 
    6.0786361696967062E-01 
    5.7262132860077419E-01 
    4.1995072181850385E-01 
    9.3811355722565015E-01 
    9.2383644997818815E-01 
    8.9102403597388968E-01 
    8.5163756505824517E-01 
    8.1320912722833061E-01 
    7.7925978604710766E-01 
    7.5023135633443372E-01 
    7.2526480256584547E-01 
    7.0344111730455650E-01 
    6.8397323134593568E-01 
    6.6615269906986940E-01 
    6.4894209915690726E-01 
    6.3076872747884372E-01 
    6.0910208348770944E-01 
    5.7690389581490087E-01 
    4.3355576883087660E-01 
    9.0994961652582618E-01 
    8.9777317984845928E-01 
    8.6896396085157079E-01 
    8.3289854174625300E-01 
    7.9703944851829867E-01 
    7.6461179624761577E-01 
    7.3629832123946026E-01 
    7.1205802582606759E-01 
    6.9127614782666491E-01 
    6.7331543559438345E-01 
    6.5767453605993709E-01 
    6.4361508944293455E-01 
    6.2894526565122855E-01 
    6.0999841704269275E-01 
    5.8055725747507791E-01 
    4.4612595118608689E-01 
    8.7873665766593589E-01 
    8.6933941128496550E-01 
    8.4477310692579366E-01 
    8.1216439502238147E-01 
    7.7922698434849391E-01 
    7.4903115584705382E-01 
    7.2233044639914645E-01 
    6.9882817069475178E-01 
    6.7856855612185984E-01 
    6.6143099858763510E-01 
    6.4727208489395593E-01 
    6.3569834394686886E-01 
    6.2507574076556094E-01 
    6.1038177964995677E-01 
    5.8405911163909074E-01 
    4.5858593362835670E-01 
    8.4438628534331794E-01 
    8.3818573474687263E-01 
    8.1853436345504482E-01 
    7.9006186752301699E-01 
    7.5998575832342574E-01 
    7.3193463356878830E-01 
    7.0670895983737803E-01 
    6.8448928169850376E-01 
    6.6517031652182712E-01 
    6.4888876662713069E-01 
    6.3572018622928372E-01 
    6.2592819620771400E-01 
    6.1875608083375333E-01 
    6.0943097773151433E-01 
    5.8755442428961357E-01 
    4.7123175085576430E-01 
    8.0685381338473128E-01 
    8.0390327128105765E-01 
    7.8927199638902745E-01 
    7.6540873098328732E-01 
    7.3870681644838887E-01 
    7.1275748245725001E-01 
    6.8908138716454659E-01 
    6.6802196860146068E-01 
    6.4974267101247518E-01 
    6.3439181986153081E-01 
    6.2236287196067563E-01 
    6.1417801651801762E-01 
    6.0997505514387618E-01 
    6.0625378862189716E-01 
    5.9051597601254835E-01 
    4.8347120835273150E-01 
    7.6615622652292747E-01 
    7.6636825186699675E-01 
    7.5661887872028633E-01 
    7.3726652791825142E-01 
    7.1419497640436602E-01 
    6.9079087404200212E-01 
    6.6868335929679412E-01 
    6.4900356595567310E-01 
    6.3200608991787355E-01 
    6.1775411547999648E-01 
    6.0662061225406361E-01 
    5.9976512409274663E-01 
    5.9827136083955657E-01 
    6.0017036163820447E-01 
    5.9200686871760755E-01 
    4.9574478698511376E-01 
    7.2199507763876702E-01 
    7.2523061403712596E-01 
    7.2015856205793183E-01 
    7.0507436444001115E-01 
    6.8568270874479986E-01 
    6.6532536526226904E-01 
    6.4569446229754512E-01 
    6.2751846308503889E-01 
    6.1172163922230760E-01 
    5.9869176937887814E-01 
    5.8872244125420825E-01 
    5.8272622203873203E-01 
    5.8298020191434652E-01 
    5.9023582185905965E-01 
    5.8927843720758610E-01 
    5.0850014190214810E-01 
    6.7296232171510251E-01 
    6.7922566002322571E-01 
    6.7903638781710141E-01 
    6.6836068671365834E-01 
    6.5242574204496984E-01 
    6.3487654714996811E-01 
    6.1762795528615722E-01 
    6.0177863508390361E-01 
    5.8782028734099889E-01 
    5.7630451113210335E-01 
    5.6773186552763399E-01 
    5.6308378752960475E-01 
    5.6437344957924440E-01 
    5.7531208288052327E-01 
    5.8620396233930350E-01 
    5.1995524506882373E-01 
    6.1789453407345929E-01 
    6.2683612680737932E-01 
    6.3122849383906177E-01 
    6.2511698264997018E-01 
    6.1327074171528395E-01 
    5.9901176593229355E-01 
    5.8481794543513432E-01 
    5.7128017473865289E-01 
    5.5901936044575040E-01 
    5.4886683417789428E-01 
    5.4202593977680003E-01 
    5.3909905401285774E-01 
    5.4195610819329609E-01 
    5.5502860371305696E-01 
    5.7564451893031532E-01 
    5.2881786060869218E-01 
    5.6025422503171918E-01 
    5.7041185000581696E-01 
    5.7815492099611898E-01 
    5.7636419868904187E-01 
    5.6877260593364198E-01 
    5.5802803961445957E-01 
    5.4636274760018355E-01 
    5.3480280455741236E-01 
    5.2292781897617457E-01 
    5.1282389556011176E-01 
    5.0666549240098235E-01 
    5.0547689473520396E-01 
    5.1098190917510722E-01 
    5.2791505483773160E-01 
    5.6033438678857361E-01 
    5.3402234331111242E-01 
    4.4196381669619234E-01 
    4.6473935341724598E-01 
    4.8312893050015943E-01 
    4.9004819996521964E-01 
    4.8688699215286929E-01 
    4.7666428577304137E-01 
    4.6170866331442334E-01 
    4.4498097547522480E-01 
    4.2709288706389265E-01 
    3.9625938177984732E-01 
    3.6147679836654045E-01 
    3.5323284933528715E-01 
    3.8687910254097918E-01 
    4.4643412136259636E-01 
    5.2575816696246269E-01 
    5.3458513025880350E-01 
    5.0939004700443040E-02 
    1.1850528459383668E-01 
    1.3768806575185735E-01 
    1.6577832083382416E-01 
    1.2792497528118271E-01 
    1.2736135049827063E-01 
    7.9502167231375792E-02 
    6.8071407602115941E-02 
    3.0978797882658466E-02 
    1.5550142054276852E-02 
    1.1895566789687775E-02 
    1.6484532532075501E-02 
    5.0956005973549282E-02 
    2.0076025571172881E-01 
    3.5581445626761277E-01 
    4.8411637767412380E-01 
