# vtk DataFile Version 2.0
Pressure Field Data 
ASCII 
DATASET UNSTRUCTURED_GRID 

POINTS 289 double 

    0.0000000000000000E+00     0.0000000000000000E+00     0.0000000000000000E+00 
    1.0000000000000000E+00     0.0000000000000000E+00     0.0000000000000000E+00 
    1.0000000000000000E+00     1.0000000000000000E+00     0.0000000000000000E+00 
    0.0000000000000000E+00     1.0000000000000000E+00     0.0000000000000000E+00 
    6.2499999999872928E-02     0.0000000000000000E+00     0.0000000000000000E+00 
    1.2499999999977310E-01     0.0000000000000000E+00     0.0000000000000000E+00 
    1.8749999999959341E-01     0.0000000000000000E+00     0.0000000000000000E+00 
    2.4999999999941089E-01     0.0000000000000000E+00     0.0000000000000000E+00 
    3.1249999999922851E-01     0.0000000000000000E+00     0.0000000000000000E+00 
    3.7499999999904610E-01     0.0000000000000000E+00     0.0000000000000000E+00 
    4.3749999999886358E-01     0.0000000000000000E+00     0.0000000000000000E+00 
    4.9999999999869210E-01     0.0000000000000000E+00     0.0000000000000000E+00 
    5.6249999999884603E-01     0.0000000000000000E+00     0.0000000000000000E+00 
    6.2499999999901090E-01     0.0000000000000000E+00     0.0000000000000000E+00 
    6.8749999999917577E-01     0.0000000000000000E+00     0.0000000000000000E+00 
    7.4999999999934064E-01     0.0000000000000000E+00     0.0000000000000000E+00 
    8.1249999999950551E-01     0.0000000000000000E+00     0.0000000000000000E+00 
    8.7499999999967026E-01     0.0000000000000000E+00     0.0000000000000000E+00 
    9.3749999999983513E-01     0.0000000000000000E+00     0.0000000000000000E+00 
    1.0000000000000000E+00     6.2499999999872928E-02     0.0000000000000000E+00 
    1.0000000000000000E+00     1.2499999999977310E-01     0.0000000000000000E+00 
    1.0000000000000000E+00     1.8749999999959341E-01     0.0000000000000000E+00 
    1.0000000000000000E+00     2.4999999999941089E-01     0.0000000000000000E+00 
    1.0000000000000000E+00     3.1249999999922851E-01     0.0000000000000000E+00 
    1.0000000000000000E+00     3.7499999999904610E-01     0.0000000000000000E+00 
    1.0000000000000000E+00     4.3749999999886358E-01     0.0000000000000000E+00 
    1.0000000000000000E+00     4.9999999999869210E-01     0.0000000000000000E+00 
    1.0000000000000000E+00     5.6249999999884603E-01     0.0000000000000000E+00 
    1.0000000000000000E+00     6.2499999999901090E-01     0.0000000000000000E+00 
    1.0000000000000000E+00     6.8749999999917577E-01     0.0000000000000000E+00 
    1.0000000000000000E+00     7.4999999999934064E-01     0.0000000000000000E+00 
    1.0000000000000000E+00     8.1249999999950551E-01     0.0000000000000000E+00 
    1.0000000000000000E+00     8.7499999999967026E-01     0.0000000000000000E+00 
    1.0000000000000000E+00     9.3749999999983513E-01     0.0000000000000000E+00 
    9.3749999999973976E-01     1.0000000000000000E+00     0.0000000000000000E+00 
    8.7499999999950118E-01     1.0000000000000000E+00     0.0000000000000000E+00 
    8.1249999999991318E-01     1.0000000000000000E+00     0.0000000000000000E+00 
    7.5000000000034706E-01     1.0000000000000000E+00     0.0000000000000000E+00 
    6.8750000000078049E-01     1.0000000000000000E+00     0.0000000000000000E+00 
    6.2500000000121403E-01     1.0000000000000000E+00     0.0000000000000000E+00 
    5.6250000000164757E-01     1.0000000000000000E+00     0.0000000000000000E+00 
    5.0000000000205946E-01     1.0000000000000000E+00     0.0000000000000000E+00 
    4.3750000000182099E-01     1.0000000000000000E+00     0.0000000000000000E+00 
    3.7500000000156092E-01     1.0000000000000000E+00     0.0000000000000000E+00 
    3.1250000000130068E-01     1.0000000000000000E+00     0.0000000000000000E+00 
    2.5000000000104050E-01     1.0000000000000000E+00     0.0000000000000000E+00 
    1.8750000000078040E-01     1.0000000000000000E+00     0.0000000000000000E+00 
    1.2500000000052031E-01     1.0000000000000000E+00     0.0000000000000000E+00 
    6.2500000000260125E-02     1.0000000000000000E+00     0.0000000000000000E+00 
    0.0000000000000000E+00     9.3749999999973976E-01     0.0000000000000000E+00 
    0.0000000000000000E+00     8.7499999999950118E-01     0.0000000000000000E+00 
    0.0000000000000000E+00     8.1249999999991318E-01     0.0000000000000000E+00 
    0.0000000000000000E+00     7.5000000000034706E-01     0.0000000000000000E+00 
    0.0000000000000000E+00     6.8750000000078049E-01     0.0000000000000000E+00 
    0.0000000000000000E+00     6.2500000000121403E-01     0.0000000000000000E+00 
    0.0000000000000000E+00     5.6250000000164757E-01     0.0000000000000000E+00 
    0.0000000000000000E+00     5.0000000000205946E-01     0.0000000000000000E+00 
    0.0000000000000000E+00     4.3750000000182099E-01     0.0000000000000000E+00 
    0.0000000000000000E+00     3.7500000000156092E-01     0.0000000000000000E+00 
    0.0000000000000000E+00     3.1250000000130068E-01     0.0000000000000000E+00 
    0.0000000000000000E+00     2.5000000000104050E-01     0.0000000000000000E+00 
    0.0000000000000000E+00     1.8750000000078040E-01     0.0000000000000000E+00 
    0.0000000000000000E+00     1.2500000000052031E-01     0.0000000000000000E+00 
    0.0000000000000000E+00     6.2500000000260125E-02     0.0000000000000000E+00 
    6.2499999999897131E-02     6.2500000000235922E-02     0.0000000000000000E+00 
    6.2499999999921327E-02     1.2500000000047351E-01     0.0000000000000000E+00 
    6.2499999999945530E-02     1.8750000000070621E-01     0.0000000000000000E+00 
    6.2499999999969733E-02     2.5000000000093858E-01     0.0000000000000000E+00 
    6.2499999999993928E-02     3.1250000000117117E-01     0.0000000000000000E+00 
    6.2500000000018124E-02     3.7500000000140382E-01     0.0000000000000000E+00 
    6.2500000000042327E-02     4.3750000000163619E-01     0.0000000000000000E+00 
    6.2500000000066530E-02     5.0000000000184897E-01     0.0000000000000000E+00 
    6.2500000000090733E-02     5.6250000000147260E-01     0.0000000000000000E+00 
    6.2500000000114922E-02     6.2500000000107636E-01     0.0000000000000000E+00 
    6.2500000000139125E-02     6.8750000000068034E-01     0.0000000000000000E+00 
    6.2500000000163328E-02     7.5000000000028411E-01     0.0000000000000000E+00 
    6.2500000000187531E-02     8.1249999999988787E-01     0.0000000000000000E+00 
    6.2500000000211720E-02     8.7499999999951172E-01     0.0000000000000000E+00 
    6.2500000000235922E-02     9.3749999999974565E-01     0.0000000000000000E+00 
    1.2499999999981980E-01     6.2500000000211733E-02     0.0000000000000000E+00 
    1.2499999999986650E-01     1.2500000000042691E-01     0.0000000000000000E+00 
    1.2499999999991319E-01     1.8750000000063199E-01     0.0000000000000000E+00 
    1.2499999999995989E-01     2.5000000000083678E-01     0.0000000000000000E+00 
    1.2500000000000661E-01     3.1250000000104172E-01     0.0000000000000000E+00 
    1.2500000000005329E-01     3.7500000000124661E-01     0.0000000000000000E+00 
    1.2500000000010000E-01     4.3750000000145117E-01     0.0000000000000000E+00 
    1.2500000000014669E-01     5.0000000000163858E-01     0.0000000000000000E+00 
    1.2500000000019340E-01     5.6250000000129741E-01     0.0000000000000000E+00 
    1.2500000000024011E-01     6.2500000000093847E-01     0.0000000000000000E+00 
    1.2500000000028680E-01     6.8750000000057998E-01     0.0000000000000000E+00 
    1.2500000000033351E-01     7.5000000000022127E-01     0.0000000000000000E+00 
    1.2500000000038020E-01     8.1249999999986211E-01     0.0000000000000000E+00 
    1.2500000000042691E-01     8.7499999999952238E-01     0.0000000000000000E+00 
    1.2500000000047359E-01     9.3749999999975164E-01     0.0000000000000000E+00 
    1.8749999999966760E-01     6.2500000000187531E-02     0.0000000000000000E+00 
    1.8749999999974179E-01     1.2500000000038020E-01     0.0000000000000000E+00 
    1.8749999999981601E-01     1.8750000000055780E-01     0.0000000000000000E+00 
    1.8749999999989009E-01     2.5000000000073502E-01     0.0000000000000000E+00 
    1.8749999999996431E-01     3.1250000000091221E-01     0.0000000000000000E+00 
    1.8750000000003850E-01     3.7500000000108941E-01     0.0000000000000000E+00 
    1.8750000000011269E-01     4.3750000000126649E-01     0.0000000000000000E+00 
    1.8750000000018691E-01     5.0000000000142808E-01     0.0000000000000000E+00 
    1.8750000000026110E-01     5.6250000000112244E-01     0.0000000000000000E+00 
    1.8750000000033529E-01     6.2500000000080080E-01     0.0000000000000000E+00 
    1.8750000000040951E-01     6.8750000000047962E-01     0.0000000000000000E+00 
    1.8750000000048361E-01     7.5000000000015843E-01     0.0000000000000000E+00 
    1.8750000000055780E-01     8.1249999999983680E-01     0.0000000000000000E+00 
    1.8750000000063199E-01     8.7499999999953304E-01     0.0000000000000000E+00 
    1.8750000000070621E-01     9.3749999999975764E-01     0.0000000000000000E+00 
    2.4999999999951281E-01     6.2500000000163314E-02     0.0000000000000000E+00 
    2.4999999999961461E-01     1.2500000000033351E-01     0.0000000000000000E+00 
    2.4999999999971650E-01     1.8750000000048361E-01     0.0000000000000000E+00 
    2.4999999999981831E-01     2.5000000000063310E-01     0.0000000000000000E+00 
    2.4999999999992020E-01     3.1250000000078260E-01     0.0000000000000000E+00 
    2.5000000000002198E-01     3.7500000000093209E-01     0.0000000000000000E+00 
    2.5000000000012390E-01     4.3750000000108180E-01     0.0000000000000000E+00 
    2.5000000000022571E-01     5.0000000000121769E-01     0.0000000000000000E+00 
    2.5000000000032763E-01     5.6250000000094724E-01     0.0000000000000000E+00 
    2.5000000000042938E-01     6.2500000000066314E-01     0.0000000000000000E+00 
    2.5000000000053119E-01     6.8750000000037925E-01     0.0000000000000000E+00 
[...]
CELL_DATA 256 
SCALARS Pressure double 1 
LOOKUP_TABLE default 

    6.3331056510307882E-01 
    5.8408086503200696E-01 
    5.5327600659777720E-01 
    5.2584845907818645E-01 
    4.9834893671413466E-01 
    4.6989594385119493E-01 
    4.4020304227867291E-01 
    4.0928353194255734E-01 
    3.7736888830702869E-01 
    3.4493590235386051E-01 
    3.1281015716412625E-01 
    2.8230567849383792E-01 
    2.5530303716724334E-01 
    2.3406093850862894E-01 
    2.2050774361796441E-01 
    2.1410572539352732E-01 
    6.1930768197142061E-01 
    5.8529014488980413E-01 
    5.5555608357503339E-01 
    5.2832890358490658E-01 
    5.0099154826970060E-01 
    4.7268933050775042E-01 
    4.4313263204997000E-01 
    4.1231866521319271E-01 
    3.8045317243758464E-01 
    3.4797453005334539E-01 
    3.1565447100099336E-01 
    2.8474534014391395E-01 
    2.5709107197699632E-01 
    2.3500395308763125E-01 
    2.2063694408415965E-01 
    2.1373416429443809E-01 
    6.0856484104786801E-01 
    5.8438218470749836E-01 
    5.5710487745819226E-01 
    5.3049774584564691E-01 
    5.0346012700829845E-01 
    4.7536181347801176E-01 
    4.4596069494516116E-01 
    4.1525303145803005E-01 
    3.8341977345479372E-01 
    3.5085447825233040E-01 
    3.1826314725860322E-01 
    2.8682270022661982E-01 
    2.5833686083354956E-01 
    2.3520497837591767E-01 
    2.1989124212099515E-01 
    2.1253710171354157E-01 
    6.0014999405392377E-01 
    5.8242090731328433E-01 
    5.5796655003891293E-01 
    5.3233205325064847E-01 
    5.0574422606762681E-01 
    4.7791467632748330E-01 
    4.4869559321316321E-01 
    4.1810001523359053E-01 
    3.8628870986035119E-01 
    3.5360609775445967E-01 
    3.2068077923175231E-01 
    2.8859639014556060E-01 
    2.5910019615911556E-01 
    2.3469235616364231E-01 
    2.1823044114396101E-01 
    2.1039110899571262E-01 
    5.9342985059545117E-01 
    5.8000405710311809E-01 
    5.5827621002025052E-01 
    5.3384114399873417E-01 
    5.0783913098130307E-01 
    4.8034788316112481E-01 
    4.5134428446669228E-01 
    4.2087344193954201E-01 
    3.8908189601177440E-01 
    3.5626272151712829E-01 
    3.2295610442840050E-01 
    2.9013116025000407E-01 
    2.5944956341430697E-01 
    2.3350152838594387E-01 
    2.1560963349678863E-01 
    2.0716373790429704E-01 
    5.8799496157118403E-01 
    5.7747416941579011E-01 
    5.5818458174491303E-01 
    5.3505823479255665E-01 
    5.0974866716699474E-01 
    4.8266173089679720E-01 
    4.5391141803505314E-01 
    4.2358542057378423E-01 
    3.9182108448858305E-01 
    3.5885924187982504E-01 
    3.2514179999263176E-01 
    2.9149904362178164E-01 
    2.5946488563907028E-01 
    2.3168018334008403E-01 
    2.1198114653044217E-01 
    2.0269939575940060E-01 
    5.8357166611527223E-01 
    5.7503385766833615E-01 
    5.5783644231430818E-01 
    5.3603498955759610E-01 
    5.1149017914230199E-01 
    4.8486362215132972E-01 
    4.5640341715247401E-01 
    4.2624691104489121E-01 
    3.9452637893451947E-01 
    3.6143033680314385E-01 
    3.2729347039594486E-01 
    2.9278075865608438E-01 
    2.5924193064404027E-01 
    2.2929626068448966E-01 
    2.0730411157650586E-01 
    1.9682028936734686E-01 
    5.7996690385605143E-01 
    5.7280014974779381E-01 
    5.5735714577876727E-01 
    5.3683270426093777E-01 
    5.1309142687510667E-01 
    4.8696813796554655E-01 
    4.5883062646584943E-01 
    4.2886904126785275E-01 
    3.9721588545726233E-01 
    3.6400790345322676E-01 
    3.2946645774545924E-01 
    2.9406487100595347E-01 
    2.5889750336975564E-01 
    2.2644806520349442E-01 
    2.0155379458343478E-01 
    1.8931740438709677E-01 
    5.7704161793010400E-01 
    5.7083709772675117E-01 
    5.5684834927347093E-01 
    5.3751503877672502E-01 
    5.1458521412114477E-01 
    4.8899326024118045E-01 
    4.6120511874412162E-01 
    4.3146316516712635E-01 
    3.9990500193446310E-01 
    3.6661904129431361E-01 
    3.3171127648559334E-01 
    2.9544272313284908E-01 
    2.5857090047520476E-01 
    2.2327565411679054E-01 
    1.9472800594882139E-01 
    1.7992486782536329E-01 
    5.7469357419697953E-01 
    5.6917556983926176E-01 
    5.5638704352451696E-01 
    5.3814113738397740E-01 
    5.1600670534958260E-01 
    4.9095903312413031E-01 
    4.6353978906394799E-01 
    4.3404055350864196E-01 
    4.0260773660022825E-01 
    3.6928679040049511E-01 
    3.3407171239029088E-01 
    2.9700267383735135E-01 
    2.5842053867125664E-01 
    2.1997350964009432E-01 
    1.8686557170117135E-01 
    1.6829044513539521E-01 
    5.7284618543620236E-01 
    5.6782924832838932E-01 
    5.5603364837829605E-01 
    5.3876620282488719E-01 
    5.1739337004166097E-01 
    4.9288876554098465E-01 
    4.6584965386985316E-01 
    4.3661333113582135E-01 
    4.0533812898978488E-01 
    3.7203220410066878E-01 
    3.3658541399155295E-01 
    2.9882702464161648E-01 
    2.5862068378621322E-01 
    2.1679891221429906E-01 
    1.7807559832115125E-01 
    1.5394454370802144E-01 
    5.7143733781016881E-01 
    5.6680339081834363E-01 
    5.5583762425266670E-01 
    5.3944149939048491E-01 
    5.1878375094596507E-01 
    4.9480889204738765E-01 
    4.6815323537556791E-01 
    4.3919544403770339E-01 
    4.0811070363763136E-01 
    3.7487487409483194E-01 
    3.3928369306961426E-01 
    3.0098798744189875E-01 
    2.5935623161694255E-01 
    2.1410477739459280E-01 
    1.6863008605435456E-01 
    1.3623861009513949E-01 
    5.7041886972231215E-01 
    5.6610114573774828E-01 
    5.5584042629228780E-01 
    5.4021476557905612E-01 
    5.2021685988539312E-01 
    4.9674855925021283E-01 
    4.7047194301708067E-01 
    4.4180254577131400E-01 
    4.1093928378807792E-01 
    3.7783291774546535E-01 
    3.4219127057410786E-01 
    3.0354183283418751E-01 
    2.6080702163388170E-01 
    2.1234597035303202E-01 
    1.5907152726527296E-01 
    1.1422548574714855E-01 
    5.6976189665695420E-01 
    5.6573318735118572E-01 
    5.5608351029833891E-01 
    5.4113561976650404E-01 
    5.2173702330191407E-01 
    4.9874194443927367E-01 
    4.7283027033348984E-01 
    4.4444940570788183E-01 
    4.1383387875644395E-01 
    3.8092076550894810E-01 
    3.4532250865499547E-01 
    3.0651797834240924E-01 
    2.6311830341042686E-01 
    2.1207330484982026E-01 
    1.5045332778262238E-01 
    8.6496684490127929E-02 
    5.6939257291333534E-01 
    5.6566880041034739E-01 
    5.5657802238536114E-01 
    5.4223333273184393E-01 
    5.2337186596051244E-01 
    5.0080320925367394E-01 
    4.7522806009454194E-01 
    4.4711934139857601E-01 
    4.1674996444865753E-01 
    3.8407555531201698E-01 
    3.4861050341950994E-01 
    3.0983932416850013E-01 
    2.6626613460209203E-01 
    2.1368466239926470E-01 
    1.4451921611174137E-01 
    5.0747767931420336E-02 
    5.6926969720587184E-01 
    5.6587153872196561E-01 
    5.5730364951266387E-01 
    5.4350480704706328E-01 
    5.2512617200769973E-01 
    5.0294229435148829E-01 
    4.7767440065320088E-01 
    4.4982338782471781E-01 
    4.1968147531543715E-01 
    3.8726747729817812E-01 
    3.5205597991656912E-01 
    3.1354628425070408E-01 
    2.7029220689568328E-01 
    2.1742197104891842E-01 
    1.4403356860889793E-01 
    0.0000000000000000E+00 

SCALARS Saturarion double 1 
LOOKUP_TABLE default 

    1.0000000000000002E+00 
    9.8022141189309264E-01 
    9.4374792141680375E-01 
    8.9213031468327086E-01 
    8.4913773016452720E-01 
    8.1108330440477827E-01 
    7.7740777985118559E-01 
    7.4768358513325417E-01 
    7.2115256029625552E-01 
    6.9694875408655943E-01 
    6.7416317466101761E-01 
    6.5166704090347294E-01 
    6.2762293465260344E-01 
    5.9835647383647139E-01 
    5.5579215534671245E-01 
    3.6132650358555979E-01 
    9.9281779924284186E-01 
    9.7413335527609934E-01 
    9.3582363316498884E-01 
    8.8653718635575784E-01 
    8.4433842452598096E-01 
    8.0733525154913321E-01 
    7.7462018595551818E-01 
    7.4557455193996514E-01 
    7.1956185160574482E-01 
    6.9578873006601960E-01 
    6.7352058143205185E-01 
    6.5176573055024456E-01 
    6.2870764732468121E-01 
    6.0043724551206590E-01 
    5.5918005611754762E-01 
    3.7891954319384724E-01 
    9.8143553133549077E-01 
    9.6257910400702362E-01 
    9.2390919886457290E-01 
    8.7610229063342904E-01 
    8.3478218985846964E-01 
    7.9954622329903280E-01 
    7.6879411128336439E-01 
    7.4121179776785229E-01 
    7.1616945765951057E-01 
    6.9309344710065557E-01 
    6.7147068258065801E-01 
    6.5053451495792947E-01 
    6.2887990512983549E-01 
    6.0277300809812429E-01 
    5.6414602367608568E-01 
    3.9559267373119239E-01 
    9.6160691966869849E-01 
    9.4565115361493957E-01 
    9.0910750249446026E-01 
    8.6509242479432136E-01 
    8.2448382538236464E-01 
    7.8983453597833764E-01 
    7.6005828703227940E-01 
    7.3392184461048360E-01 
    7.1034059826184470E-01 
    6.8874537185251394E-01 
    6.6843059453874742E-01 
    6.4869743073145458E-01 
    6.2839469382606072E-01 
    6.0455549310102130E-01 
    5.6904347524844112E-01 
    4.1204542557793816E-01 
    9.3694518995992271E-01 
    9.2247765189554332E-01 
    8.8932236265339382E-01 
    8.4957049651637906E-01 
    8.1087364169736309E-01 
    7.7676913520228519E-01 
    7.4765297000832909E-01 
    7.2261682684659045E-01 
    7.0071180714132164E-01 
    6.8114031362727501E-01 
    6.6319583440186136E-01 
    6.4585419973759040E-01 
    6.2757155046144619E-01 
    6.0580468434229628E-01 
    5.7338954204201109E-01 
    4.2610458905881804E-01 
    9.0835952864561242E-01 
    8.9605203945823697E-01 
    8.6696819745572096E-01 
    8.3060598869640412E-01 
    7.9453253395325785E-01 
    7.6197821394100285E-01 
    7.3359142389292276E-01 
    7.0930670042681321E-01 
    6.8849113152557551E-01 
    6.7049001260603491E-01 
    6.5478165722811521E-01 
    6.4061045731880850E-01 
    6.2579571484297147E-01 
    6.0671650743233352E-01 
    5.7707569950502613E-01 
    4.3906456729325105E-01 
    8.7675668988840438E-01 
    8.6727380470706905E-01 
    8.4250220092989880E-01 
    8.0967132990422352E-01 
    7.7657533865898509E-01 
    7.4627813617675898E-01 
    7.1951100145069380E-01 
    6.9596596016509282E-01 
    6.7568871069747893E-01 
    6.5855118209434271E-01 
    6.4438873627111826E-01 
    6.3276930968903899E-01 
    6.2201760593541200E-01 
    6.0714353080485628E-01 
    5.8062439244141539E-01 
    4.5190825918955557E-01 
    8.4203205103100776E-01 
    8.3579180567871458E-01 
    8.1601585049757708E-01 
    7.8739171145634979E-01 
    7.5719426259126310E-01 
    7.2905729636732686E-01 
    7.0377255150962736E-01 
    6.8152145487372806E-01 
    6.6219656093828083E-01 
    6.4592800255013605E-01 
    6.3278469325696141E-01 
    6.2301227456998887E-01 
    6.1578530518869534E-01 
    6.0627344804397298E-01 
    5.8419145204254774E-01 
    4.6494215342689482E-01 
    8.0416075862595826E-01 
    8.0120658045468651E-01 
    7.8651615182766899E-01 
    7.6256160395124395E-01 
    7.3577228206498491E-01 
    7.0975320078207726E-01 
    6.8603271339765348E-01 
    6.6495605676448288E-01 
    6.4668227671349565E-01 
    6.3134920461266497E-01 
    6.1934734297436833E-01 
    6.1120919378800276E-01 
    6.0703820359647986E-01 
    6.0319433657334387E-01 
    5.8722658241898118E-01 
    4.7753143441435125E-01 
    7.6316915714324285E-01 
    7.6340044665656337E-01 
    7.5363649332527838E-01 
    7.3423726493090713E-01 
    7.1111021234630267E-01 
    6.8765876804460768E-01 
    6.6552717458297483E-01 
    6.4585247436164162E-01 
    6.2887888288284499E-01 
    6.1464734773482943E-01 
    6.0352219559292186E-01 
    5.9669837272640758E-01 
    5.9529052488442546E-01 
    5.9718808299514092E-01 
    5.8878487355462994E-01 
    4.9012426223321648E-01 
    7.1875285409069978E-01 
    7.2202159556886714E-01 
    7.1696312990362621E-01 
    7.0186383033200905E-01 
    6.8244532589314133E-01 
    6.6206573722431683E-01 
    6.4243622350405738E-01 
    6.2429283491939225E-01 
    6.0855220028490853E-01 
    5.9556550517196549E-01 
    5.8559234126016058E-01 
    5.7957411703872430E-01 
    5.7988853780715377E-01 
    5.8726322859025304E-01 
    5.8624127208392196E-01 
    5.0323489958481049E-01 
    6.6949723378639625E-01 
    6.7580186034624201E-01 
    6.7564685136874369E-01 
    6.6498280409370170E-01 
    6.4904903775991862E-01 
    6.3150679146176347E-01 
    6.1429516844294896E-01 
    5.9851760533035459E-01 
    5.8466169661626954E-01 
    5.7323587783171015E-01 
    5.6467398530929136E-01 
    5.5995743799858722E-01 
    5.6120605775264731E-01 
    5.7226074842199848E-01 
    5.8275649827767717E-01 
    5.1489411619572223E-01 
    6.1440813483491530E-01 
    6.2334615249832981E-01 
    6.2774983582587995E-01 
    6.2168300725292147E-01 
    6.0989427832407961E-01 
    5.9569379862765981E-01 
    5.8154691841406680E-01 
    5.6806596574605939E-01 
    5.5592578281681893E-01 
    5.4595390393152032E-01 
    5.3919967497868848E-01 
    5.3618127817127204E-01 
    5.3890430374962150E-01 
    5.5191693904008254E-01 
    5.7285374968041791E-01 
    5.2418076947018499E-01 
    5.5703659672365324E-01 
    5.6726910950699783E-01 
    5.7495389802166064E-01 
    5.7318444178326766E-01 
    5.6559926705707020E-01 
    5.5480828726540365E-01 
    5.4299202519440182E-01 
    5.3123973249945877E-01 
    5.1929103745789085E-01 
    5.0960719724455739E-01 
    5.0365473210615108E-01 
    5.0210460881138119E-01 
    5.0758518397854224E-01 
    5.2484082513217156E-01 
    5.5921639647247312E-01 
    5.3029117038391860E-01 
    4.3320754179573401E-01 
    4.5790204445438859E-01 
    4.7784196946993496E-01 
    4.8478279562740567E-01 
    4.8148342751260603E-01 
    4.7065671278881327E-01 
    4.5494619154672861E-01 
    4.3663662142755433E-01 
    4.1516059455747389E-01 
    3.7549215176374551E-01 
    3.3523871848128323E-01 
    3.4592664113630234E-01 
    3.8023954043244257E-01 
    4.3871207604199114E-01 
    5.2044406183389447E-01 
    5.3084975000407564E-01 
    4.2102449611211831E-02 
    1.0714636669612652E-01 
    1.2802700050280935E-01 
    1.5486484903219097E-01 
    1.1678552487229832E-01 
    1.1410038544341980E-01 
    6.8565073186117681E-02 
    5.4533988584118287E-02 
    2.4493765561244874E-02 
    9.0289525038260536E-03 
    8.3921769031332031E-03 
    1.2021567728858283E-02 
    4.1418181982654810E-02 
    1.9370350354922097E-01 
    3.4886967034040700E-01 
    4.7955988254142301E-01 
