# vtk DataFile Version 2.0
Pressure Field Data 
ASCII 
DATASET UNSTRUCTURED_GRID 

POINTS 289 double 

    0.0000000000000000E+00     0.0000000000000000E+00     0.0000000000000000E+00 
    1.0000000000000000E+00     0.0000000000000000E+00     0.0000000000000000E+00 
    1.0000000000000000E+00     1.0000000000000000E+00     0.0000000000000000E+00 
    0.0000000000000000E+00     1.0000000000000000E+00     0.0000000000000000E+00 
    6.2499999999872928E-02     0.0000000000000000E+00     0.0000000000000000E+00 
    1.2499999999977310E-01     0.0000000000000000E+00     0.0000000000000000E+00 
    1.8749999999959341E-01     0.0000000000000000E+00     0.0000000000000000E+00 
    2.4999999999941089E-01     0.0000000000000000E+00     0.0000000000000000E+00 
    3.1249999999922851E-01     0.0000000000000000E+00     0.0000000000000000E+00 
    3.7499999999904610E-01     0.0000000000000000E+00     0.0000000000000000E+00 
    4.3749999999886358E-01     0.0000000000000000E+00     0.0000000000000000E+00 
    4.9999999999869210E-01     0.0000000000000000E+00     0.0000000000000000E+00 
    5.6249999999884603E-01     0.0000000000000000E+00     0.0000000000000000E+00 
    6.2499999999901090E-01     0.0000000000000000E+00     0.0000000000000000E+00 
    6.8749999999917577E-01     0.0000000000000000E+00     0.0000000000000000E+00 
    7.4999999999934064E-01     0.0000000000000000E+00     0.0000000000000000E+00 
    8.1249999999950551E-01     0.0000000000000000E+00     0.0000000000000000E+00 
    8.7499999999967026E-01     0.0000000000000000E+00     0.0000000000000000E+00 
    9.3749999999983513E-01     0.0000000000000000E+00     0.0000000000000000E+00 
    1.0000000000000000E+00     6.2499999999872928E-02     0.0000000000000000E+00 
    1.0000000000000000E+00     1.2499999999977310E-01     0.0000000000000000E+00 
    1.0000000000000000E+00     1.8749999999959341E-01     0.0000000000000000E+00 
    1.0000000000000000E+00     2.4999999999941089E-01     0.0000000000000000E+00 
    1.0000000000000000E+00     3.1249999999922851E-01     0.0000000000000000E+00 
    1.0000000000000000E+00     3.7499999999904610E-01     0.0000000000000000E+00 
    1.0000000000000000E+00     4.3749999999886358E-01     0.0000000000000000E+00 
    1.0000000000000000E+00     4.9999999999869210E-01     0.0000000000000000E+00 
    1.0000000000000000E+00     5.6249999999884603E-01     0.0000000000000000E+00 
    1.0000000000000000E+00     6.2499999999901090E-01     0.0000000000000000E+00 
    1.0000000000000000E+00     6.8749999999917577E-01     0.0000000000000000E+00 
    1.0000000000000000E+00     7.4999999999934064E-01     0.0000000000000000E+00 
    1.0000000000000000E+00     8.1249999999950551E-01     0.0000000000000000E+00 
    1.0000000000000000E+00     8.7499999999967026E-01     0.0000000000000000E+00 
    1.0000000000000000E+00     9.3749999999983513E-01     0.0000000000000000E+00 
    9.3749999999973976E-01     1.0000000000000000E+00     0.0000000000000000E+00 
    8.7499999999950118E-01     1.0000000000000000E+00     0.0000000000000000E+00 
    8.1249999999991318E-01     1.0000000000000000E+00     0.0000000000000000E+00 
    7.5000000000034706E-01     1.0000000000000000E+00     0.0000000000000000E+00 
    6.8750000000078049E-01     1.0000000000000000E+00     0.0000000000000000E+00 
    6.2500000000121403E-01     1.0000000000000000E+00     0.0000000000000000E+00 
    5.6250000000164757E-01     1.0000000000000000E+00     0.0000000000000000E+00 
    5.0000000000205946E-01     1.0000000000000000E+00     0.0000000000000000E+00 
    4.3750000000182099E-01     1.0000000000000000E+00     0.0000000000000000E+00 
    3.7500000000156092E-01     1.0000000000000000E+00     0.0000000000000000E+00 
    3.1250000000130068E-01     1.0000000000000000E+00     0.0000000000000000E+00 
    2.5000000000104050E-01     1.0000000000000000E+00     0.0000000000000000E+00 
    1.8750000000078040E-01     1.0000000000000000E+00     0.0000000000000000E+00 
    1.2500000000052031E-01     1.0000000000000000E+00     0.0000000000000000E+00 
    6.2500000000260125E-02     1.0000000000000000E+00     0.0000000000000000E+00 
    0.0000000000000000E+00     9.3749999999973976E-01     0.0000000000000000E+00 
    0.0000000000000000E+00     8.7499999999950118E-01     0.0000000000000000E+00 
    0.0000000000000000E+00     8.1249999999991318E-01     0.0000000000000000E+00 
    0.0000000000000000E+00     7.5000000000034706E-01     0.0000000000000000E+00 
    0.0000000000000000E+00     6.8750000000078049E-01     0.0000000000000000E+00 
    0.0000000000000000E+00     6.2500000000121403E-01     0.0000000000000000E+00 
    0.0000000000000000E+00     5.6250000000164757E-01     0.0000000000000000E+00 
    0.0000000000000000E+00     5.0000000000205946E-01     0.0000000000000000E+00 
    0.0000000000000000E+00     4.3750000000182099E-01     0.0000000000000000E+00 
    0.0000000000000000E+00     3.7500000000156092E-01     0.0000000000000000E+00 
    0.0000000000000000E+00     3.1250000000130068E-01     0.0000000000000000E+00 
    0.0000000000000000E+00     2.5000000000104050E-01     0.0000000000000000E+00 
    0.0000000000000000E+00     1.8750000000078040E-01     0.0000000000000000E+00 
    0.0000000000000000E+00     1.2500000000052031E-01     0.0000000000000000E+00 
    0.0000000000000000E+00     6.2500000000260125E-02     0.0000000000000000E+00 
    6.2499999999897131E-02     6.2500000000235922E-02     0.0000000000000000E+00 
    6.2499999999921327E-02     1.2500000000047351E-01     0.0000000000000000E+00 
    6.2499999999945530E-02     1.8750000000070621E-01     0.0000000000000000E+00 
    6.2499999999969733E-02     2.5000000000093858E-01     0.0000000000000000E+00 
    6.2499999999993928E-02     3.1250000000117117E-01     0.0000000000000000E+00 
    6.2500000000018124E-02     3.7500000000140382E-01     0.0000000000000000E+00 
    6.2500000000042327E-02     4.3750000000163619E-01     0.0000000000000000E+00 
    6.2500000000066530E-02     5.0000000000184897E-01     0.0000000000000000E+00 
    6.2500000000090733E-02     5.6250000000147260E-01     0.0000000000000000E+00 
    6.2500000000114922E-02     6.2500000000107636E-01     0.0000000000000000E+00 
    6.2500000000139125E-02     6.8750000000068034E-01     0.0000000000000000E+00 
    6.2500000000163328E-02     7.5000000000028411E-01     0.0000000000000000E+00 
    6.2500000000187531E-02     8.1249999999988787E-01     0.0000000000000000E+00 
    6.2500000000211720E-02     8.7499999999951172E-01     0.0000000000000000E+00 
    6.2500000000235922E-02     9.3749999999974565E-01     0.0000000000000000E+00 
    1.2499999999981980E-01     6.2500000000211733E-02     0.0000000000000000E+00 
    1.2499999999986650E-01     1.2500000000042691E-01     0.0000000000000000E+00 
    1.2499999999991319E-01     1.8750000000063199E-01     0.0000000000000000E+00 
    1.2499999999995989E-01     2.5000000000083678E-01     0.0000000000000000E+00 
    1.2500000000000661E-01     3.1250000000104172E-01     0.0000000000000000E+00 
    1.2500000000005329E-01     3.7500000000124661E-01     0.0000000000000000E+00 
    1.2500000000010000E-01     4.3750000000145117E-01     0.0000000000000000E+00 
    1.2500000000014669E-01     5.0000000000163858E-01     0.0000000000000000E+00 
    1.2500000000019340E-01     5.6250000000129741E-01     0.0000000000000000E+00 
    1.2500000000024011E-01     6.2500000000093847E-01     0.0000000000000000E+00 
    1.2500000000028680E-01     6.8750000000057998E-01     0.0000000000000000E+00 
    1.2500000000033351E-01     7.5000000000022127E-01     0.0000000000000000E+00 
    1.2500000000038020E-01     8.1249999999986211E-01     0.0000000000000000E+00 
    1.2500000000042691E-01     8.7499999999952238E-01     0.0000000000000000E+00 
    1.2500000000047359E-01     9.3749999999975164E-01     0.0000000000000000E+00 
    1.8749999999966760E-01     6.2500000000187531E-02     0.0000000000000000E+00 
    1.8749999999974179E-01     1.2500000000038020E-01     0.0000000000000000E+00 
    1.8749999999981601E-01     1.8750000000055780E-01     0.0000000000000000E+00 
    1.8749999999989009E-01     2.5000000000073502E-01     0.0000000000000000E+00 
    1.8749999999996431E-01     3.1250000000091221E-01     0.0000000000000000E+00 
    1.8750000000003850E-01     3.7500000000108941E-01     0.0000000000000000E+00 
    1.8750000000011269E-01     4.3750000000126649E-01     0.0000000000000000E+00 
    1.8750000000018691E-01     5.0000000000142808E-01     0.0000000000000000E+00 
    1.8750000000026110E-01     5.6250000000112244E-01     0.0000000000000000E+00 
    1.8750000000033529E-01     6.2500000000080080E-01     0.0000000000000000E+00 
    1.8750000000040951E-01     6.8750000000047962E-01     0.0000000000000000E+00 
    1.8750000000048361E-01     7.5000000000015843E-01     0.0000000000000000E+00 
    1.8750000000055780E-01     8.1249999999983680E-01     0.0000000000000000E+00 
    1.8750000000063199E-01     8.7499999999953304E-01     0.0000000000000000E+00 
    1.8750000000070621E-01     9.3749999999975764E-01     0.0000000000000000E+00 
    2.4999999999951281E-01     6.2500000000163314E-02     0.0000000000000000E+00 
    2.4999999999961461E-01     1.2500000000033351E-01     0.0000000000000000E+00 
    2.4999999999971650E-01     1.8750000000048361E-01     0.0000000000000000E+00 
    2.4999999999981831E-01     2.5000000000063310E-01     0.0000000000000000E+00 
    2.4999999999992020E-01     3.1250000000078260E-01     0.0000000000000000E+00 
    2.5000000000002198E-01     3.7500000000093209E-01     0.0000000000000000E+00 
    2.5000000000012390E-01     4.3750000000108180E-01     0.0000000000000000E+00 
    2.5000000000022571E-01     5.0000000000121769E-01     0.0000000000000000E+00 
    2.5000000000032763E-01     5.6250000000094724E-01     0.0000000000000000E+00 
    2.5000000000042938E-01     6.2500000000066314E-01     0.0000000000000000E+00 
    2.5000000000053119E-01     6.8750000000037925E-01     0.0000000000000000E+00 
[...]
CELL_DATA 256 
SCALARS Pressure double 1 
LOOKUP_TABLE default 

    6.4680626676639164E-01 
    5.9741338025207646E-01 
    5.6634783096040708E-01 
    5.3857070818706498E-01 
    5.1064241706798852E-01 
    4.8169014196894544E-01 
    4.5143289403289000E-01 
    4.1989189911461222E-01 
    3.8731123283651975E-01 
    3.5418685777640779E-01 
    3.2137067233817707E-01 
    2.9021184963671331E-01 
    2.6263819084514378E-01 
    2.4096553264165091E-01 
    2.2715826379792889E-01 
    2.2059088424639905E-01 
    6.3280838884402357E-01 
    5.9864110991978925E-01 
    5.6865505097109381E-01 
    5.4108587700077082E-01 
    5.1332681859646800E-01 
    4.8453218530695641E-01 
    4.5441759690350592E-01 
    4.2298727056159224E-01 
    3.9045859196360733E-01 
    3.5728829672991258E-01 
    3.2427343958528348E-01 
    2.9270008147988924E-01 
    2.6445853630325655E-01 
    2.4191996687914591E-01 
    2.2728276554036983E-01 
    2.2020388824307377E-01 
    6.2206891315452317E-01 
    5.9774707118090242E-01 
    5.7022645873520827E-01 
    5.4328508828714139E-01 
    5.1583289771185148E-01 
    4.8724904736314867E-01 
    4.5729660402418509E-01 
    4.2597767258941566E-01 
    3.9348355714050004E-01 
    3.6022525854923543E-01 
    3.2693293683189628E-01 
    2.9481520062210859E-01 
    2.6572094084135306E-01 
    2.4211092209650323E-01 
    2.2650639119985139E-01 
    2.1896371927758387E-01 
    6.1365149488102888E-01 
    5.9579415974513961E-01 
    5.7110555539648955E-01 
    5.4514544656009656E-01 
    5.1815088720449609E-01 
    4.8984289638579775E-01 
    4.6007896393546127E-01 
    4.2887688782059041E-01 
    3.9640638454681804E-01 
    3.6302843124390588E-01 
    3.2939458777719083E-01 
    2.9661736258384880E-01 
    2.6648692503273913E-01 
    2.4156774416130655E-01 
    2.2478800321602818E-01 
    2.1674405576316277E-01 
    6.0692064660327016E-01 
    5.9337873379676009E-01 
    5.7142698882017573E-01 
    5.4667598224182345E-01 
    5.2027615466841015E-01 
    4.9231436494146208E-01 
    4.6277263997038171E-01 
    4.3169974255218885E-01 
    3.9924977640577758E-01 
    3.6573181696085683E-01 
    3.3170811941558398E-01 
    2.9817304471418316E-01 
    2.6682712107834139E-01 
    2.4032703209480036E-01 
    2.2208153943969555E-01 
    2.1340914625378915E-01 
    6.0146874643701553E-01 
    5.9084364649233279E-01 
    5.7134145518284107E-01 
    5.4790977610258751E-01 
    5.2221248339067083E-01 
    4.9466416289704396E-01 
    4.6538327399429619E-01 
    4.3445974990244468E-01 
    4.0203691028545485E-01 
    3.6837152897321046E-01 
    3.3392751982722152E-01 
    2.9955618937187761E-01 
    2.6682398995638340E-01 
    2.3843803817208792E-01 
    2.1833792768166510E-01 
    2.0879875627038738E-01 
    5.9702470197871349E-01 
    5.8839302731476928E-01 
    5.7099450435023280E-01 
    5.4889903360551229E-01 
    5.2397761733120574E-01 
    4.9690006184648955E-01 
    4.6791795770412181E-01 
    4.3716910504159467E-01 
    4.0478948774086815E-01 
    3.7098382818302356E-01 
    3.3611006363196133E-01 
    3.0084965126544061E-01 
    2.6657614033670490E-01 
    2.3597135992757792E-01 
    2.1351619076559686E-01 
    2.0273075911089877E-01 
    5.9339708043660455E-01 
    5.8614545164330145E-01 
    5.7051263482261905E-01 
    5.4970588374096063E-01 
    5.2559983889339512E-01 
    4.9903695735515013E-01 
    4.7038748319542334E-01 
    4.3983989343383045E-01 
    4.0752701377938777E-01 
    3.7360209665298794E-01 
    3.3831292828033155E-01 
    3.0214449503671853E-01 
    2.6620356408568024E-01 
    2.3302870002617901E-01 
    2.0759229263305057E-01 
    1.9499166232489520E-01 
    5.9044815030147979E-01 
    5.8416637130013171E-01 
    5.6999866846519254E-01 
    5.5039479399276459E-01 
    5.2711238107431002E-01 
    5.0109309677531733E-01 
    4.7280434952209788E-01 
    4.4248441327539717E-01 
    4.1026605766957414E-01 
    3.7625438466694117E-01 
    3.4058810675156537E-01 
    3.0353487166126336E-01 
    2.6584940799122408E-01 
    2.2975373602844212E-01 
    2.0056400638432328E-01 
    1.8530820746833232E-01 
    5.8807682905000502E-01 
    5.8248780948313128E-01 
    5.6953053246682972E-01 
    5.5102555335121706E-01 
    5.2855077781274495E-01 
    5.0308881613176848E-01 
    4.7518196570941013E-01 
    4.4511512531693148E-01 
    4.1302194688022098E-01 
    3.7896412667432650E-01 
    3.4297999770411935E-01 
    3.0511180379233949E-01 
    2.6567691564056278E-01 
    2.2634561897196948E-01 
    1.9247099812662419E-01 
    1.7331794438736359E-01 
    5.8620741242290164E-01 
    5.8112440620644368E-01 
    5.6916955781830614E-01 
    5.5165403684428782E-01 
    5.2995292004368932E-01 
    5.0504780589312248E-01 
    4.7753597068075498E-01 
    4.4774580937737490E-01 
    4.1581069545862709E-01 
    3.8175257944942548E-01 
    3.4552595257390389E-01 
    3.0695971263143423E-01 
    2.6586599863223442E-01 
    2.2307458301346167E-01 
    1.8343626790178766E-01 
    1.5854275529138598E-01 
    5.8477837673209843E-01 
    5.8008225885243259E-01 
    5.6896615917323268E-01 
    5.5233226819318482E-01 
    5.3135785990603379E-01 
    5.0699704284488201E-01 
    4.7988565396556032E-01 
    4.5039276519680005E-01 
    4.1865004385620286E-01 
    3.8463974795654771E-01 
    3.4825628972405270E-01 
    3.0915238133962986E-01 
    2.6660771618661816E-01 
    2.2029761403396539E-01 
    1.7372395496427021E-01 
    1.4030876284496618E-01 
    5.8374322571156911E-01 
    5.7936613996843145E-01 
    5.6896338403595570E-01 
    5.5310940394443875E-01 
    5.3280564289818388E-01 
    5.0896655985675254E-01 
    4.8225306038866389E-01 
    4.5307467236404331E-01 
    4.2155892977369303E-01 
    3.8764459566244314E-01 
    3.5119384345047505E-01 
    3.1174700289620288E-01 
    2.6808904958226304E-01 
    2.1848420968098295E-01 
    1.6388623530781266E-01 
    1.1763469438646720E-01 
    5.8307501368905057E-01 
    5.7898918271688549E-01 
    5.6920521809847158E-01 
    5.5403714426538975E-01 
    5.3434149734109460E-01 
    5.1099042788914806E-01 
    4.8466093883550165E-01 
    4.5580832737337978E-01 
    4.2455485293572909E-01 
    3.9078079106313451E-01 
    3.5434439287088204E-01 
    3.1476804686139248E-01 
    2.7045814719204114E-01 
    2.1820271773887037E-01 
    1.5501856277066500E-01 
    8.9092714609767615E-02 
    5.8268515794573039E-01 
    5.7890962051497841E-01 
    5.6969593931722740E-01 
    5.5513853555430959E-01 
    5.3598570140417112E-01 
    5.1307379682112553E-01 
    4.8709494797134933E-01 
    4.5855561724404809E-01 
    4.2757734244034412E-01 
    3.9398697587809517E-01 
    3.5763285018646951E-01 
    3.1810963899325007E-01 
    2.7366297948168028E-01 
    2.1982824858715255E-01 
    1.4886523601316173E-01 
    5.2279369699299430E-02 
    5.8255353707444979E-01 
    5.7910786210821952E-01 
    5.7042701436909360E-01 
    5.5642000830987215E-01 
    5.3775168783000959E-01 
    5.1523413778562099E-01 
    4.8956896909625247E-01 
    4.6131472886800434E-01 
    4.3060140611897946E-01 
    3.9726281679647502E-01 
    3.6112391769368818E-01 
    3.2184988272420462E-01 
    2.7778911087676322E-01 
    2.2370722267720339E-01 
    1.4834673726152772E-01 
    0.0000000000000000E+00 

SCALARS Saturarion double 1 
LOOKUP_TABLE default 

    1.0000000000000002E+00 
    9.7936618004110931E-01 
    9.4138366689329323E-01 
    8.8846100983764775E-01 
    8.4433006779234854E-01 
    8.0531398918099850E-01 
    7.7092915585649913E-01 
    7.4071076441473338E-01 
    7.1383203050698640E-01 
    6.8936687841569089E-01 
    6.6635144527677781E-01 
    6.4359784847237755E-01 
    6.1919389569104677E-01 
    5.8940303086958490E-01 
    5.4511398923654386E-01 
    3.3340027032125019E-01 
    9.9244102639437071E-01 
    9.7293570708221178E-01 
    9.3307163309019636E-01 
    8.8254309623011484E-01 
    8.3938102261689884E-01 
    8.0155842320900150E-01 
    7.6818293650269820E-01 
    7.3862919272296934E-01 
    7.1223460668492233E-01 
    6.8817084443568977E-01 
    6.6566652937381088E-01 
    6.4367712978464153E-01 
    6.2029543801333298E-01 
    5.9151520668526192E-01 
    5.4884739530566595E-01 
    3.5319505452139632E-01 
    9.8047328614916163E-01 
    9.6082683286168624E-01 
    9.2064084907462573E-01 
    8.7164300883999701E-01 
    8.2957832255779895E-01 
    7.9374968476340180E-01 
    7.6243896732750516E-01 
    7.3433234967423400E-01 
    7.0883169221585440E-01 
    6.8538175689419578E-01 
    6.6347666785868764E-01 
    6.4232822609565465E-01 
    6.2044265965263812E-01 
    5.9390333760276504E-01 
    5.5410512514706145E-01 
    3.7172959209922840E-01 
    9.5962149539903630E-01 
    9.4300159276538065E-01 
    9.0526891243145224E-01 
    8.6015499225886349E-01 
    8.1880034580892402E-01 
    7.8368070229086684E-01 
    7.5353444251500989E-01 
    7.2702481917260264E-01 
    7.0304283774246679E-01 
    6.8105429197175094E-01 
    6.6039345763707646E-01 
    6.4039790786774675E-01 
    6.1990201171596326E-01 
    5.9574237891073323E-01 
    5.5928499544190469E-01 
    3.8991264106887402E-01 
    9.3376327118651581E-01 
    9.1879416529585756E-01 
    8.8472885593313322E-01 
    8.4401110077483821E-01 
    8.0462494368608883E-01 
    7.7013535761475349E-01 
    7.4080109832697161E-01 
    7.1557802608738719E-01 
    6.9344345286004450E-01 
    6.7358381476804996E-01 
    6.5530796288492532E-01 
    6.3762960431659987E-01 
    6.1907201180183480E-01 
    5.9703258778388035E-01 
    5.6379738018760805E-01 
    4.0530438386440698E-01 
    9.0405459166045710E-01 
    8.9140134924227599E-01 
    8.6158927184804179E-01 
    8.2445254449037908E-01 
    7.8783638186697480E-01 
    7.5497081616801998E-01 
    7.2640552358790134E-01 
    7.0200978903902966E-01 
    6.8110288122689433E-01 
    6.6298550061259065E-01 
    6.4708747249103171E-01 
    6.3261475348823337E-01 
    6.1742251901720424E-01 
    5.9799420411428694E-01 
    5.6763405303355374E-01 
    4.1941608798785679E-01 
    8.7141538495063398E-01 
    8.6170719343246582E-01 
    8.3639845414533753E-01 
    8.0299704266437655E-01 
    7.6950326787168843E-01 
    7.3895572154544586E-01 
    7.1202639162873638E-01 
    6.8837989824841606E-01 
    6.6806430623707613E-01 
    6.5092856567015889E-01 
    6.3675091053484512E-01 
    6.2499564230878490E-01 
    6.1388889768060151E-01 
    5.9853893287291904E-01 
    5.7145101139999555E-01 
    4.3338610830632712E-01 
    8.3570241287951064E-01 
    8.2936100188263795E-01 
    8.0926603184732959E-01 
    7.8025728791394455E-01 
    7.4975576829212387E-01 
    7.2140658046662509E-01 
    6.9598191420303845E-01 
    6.7366378640981095E-01 
    6.5433183723331734E-01 
    6.3809951493853312E-01 
    6.2502643938302971E-01 
    6.1530180632637343E-01 
    6.0790207324718537E-01 
    5.9788009645748608E-01 
    5.7523423234447013E-01 
    4.4752092612128153E-01 
    7.9694726333575727E-01 
    7.9398654364185028E-01 
    7.7914867103390184E-01 
    7.5496575913525132E-01 
    7.2795890057916424E-01 
    7.0177235389391934E-01 
    6.7795691786270440E-01 
    6.5685428287861358E-01 
    6.3859779502993885E-01 
    6.2329977109818557E-01 
    6.1136980414821218E-01 
    6.0337424572904519E-01 
    5.9927406788835058E-01 
    5.9506349909023892E-01 
    5.7838976461237879E-01 
    4.6108415111236567E-01 
    7.5519299277000673E-01 
    7.5547697369819433E-01 
    7.4568060076105613E-01 
    7.2616684535773623E-01 
    7.0290572317750133E-01 
    6.7935113151238236E-01 
    6.5718834457522568E-01 
    6.3755420841244537E-01 
    6.2063832240474404E-01 
    6.0642018672431097E-01 
    5.9529537503890073E-01 
    5.8859128339830291E-01 
    5.8743801892823211E-01 
    5.8928362414801871E-01 
    5.8011897098109055E-01 
    4.7459670137946097E-01 
    7.1011766842106094E-01 
    7.1347501098742860E-01 
    7.0845569893177451E-01 
    6.9332341358793526E-01 
    6.7384711975155576E-01 
    6.5343726722738094E-01 
    6.3385935316672037E-01 
    6.1584806440254858E-01 
    6.0024944696182914E-01 
    5.8729890928918060E-01 
    5.7725211227604312E-01 
    5.7121669939364350E-01 
    5.7175766727876876E-01 
    5.7942474359176943E-01 
    5.7935152742578178E-01 
    4.8832339864211416E-01 
    6.6030208460093942E-01 
    6.6671201218824117E-01 
    6.6664606974949736E-01 
    6.5601962770236322E-01 
    6.4010773579087854E-01 
    6.2262720799116944E-01 
    6.0558502640256118E-01 
    5.9007013908884276E-01 
    5.7648619743072227E-01 
    5.6516644558449936E-01 
    5.5650796451725071E-01 
    5.5166900122584395E-01 
    5.5290545098472410E-01 
    5.6425992258245861E-01 
    5.7421061530329365E-01 
    5.0089400524207006E-01 
    6.0529981775013586E-01 
    6.1420021280280535E-01 
    6.1861168379019593E-01 
    6.1267164328807866E-01 
    6.0104729900990173E-01 
    5.8701550551309345E-01 
    5.7303754352144265E-01 
    5.5981275347743797E-01 
    5.4808465150357721E-01 
    5.3840825268331927E-01 
    5.3156797933646727E-01 
    5.2836407106357997E-01 
    5.3094751103557281E-01 
    5.4386631370746041E-01 
    5.6493027081797431E-01 
    5.1117573110393255E-01 
    5.4834854290935875E-01 
    5.5892098200610663E-01 
    5.6644054956708589E-01 
    5.6476112574877202E-01 
    5.5713046447194858E-01 
    5.4613213143533457E-01 
    5.3385363438309985E-01 
    5.2180990582711995E-01 
    5.1027067612010857E-01 
    5.0143022326096520E-01 
    4.9437477366903199E-01 
    4.9174570063600515E-01 
    4.9833988468742701E-01 
    5.1675553660531515E-01 
    5.5099440925900056E-01 
    5.1807951572321453E-01 
    4.0605025504290537E-01 
    4.3867400268686579E-01 
    4.6277137203632696E-01 
    4.6984309511967637E-01 
    4.6567553618927388E-01 
    4.5337876859737658E-01 
    4.3392400573890844E-01 
    4.0955885198677577E-01 
    3.6596980034916726E-01 
    3.0552284553230696E-01 
    2.9652764208972221E-01 
    3.1775534826833074E-01 
    3.4679909944229814E-01 
    4.1774769262755301E-01 
    5.0992215662901996E-01 
    5.1933736262436148E-01 
    2.2403750771151122E-02 
    7.8162394704147570E-02 
    1.0260333638285776E-01 
    1.2397324900104897E-01 
    8.8960706912683082E-02 
    7.9052964682812338E-02 
    4.4197946188579737E-02 
    2.4246558587901926E-02 
    1.0663214581399206E-02 
    1.4952509630595506E-03 
    3.3891741114919888E-03 
    3.0441866894256463E-03 
    1.8919242462567962E-02 
    1.7609844689324086E-01 
    3.3636225563392302E-01 
    4.6804163152579203E-01 
