# vtk DataFile Version 2.0
Pressure Field Data 
ASCII 
DATASET UNSTRUCTURED_GRID 

POINTS 289 double 

    0.0000000000000000E+00     0.0000000000000000E+00     0.0000000000000000E+00 
    1.0000000000000000E+00     0.0000000000000000E+00     0.0000000000000000E+00 
    1.0000000000000000E+00     1.0000000000000000E+00     0.0000000000000000E+00 
    0.0000000000000000E+00     1.0000000000000000E+00     0.0000000000000000E+00 
    6.2499999999872928E-02     0.0000000000000000E+00     0.0000000000000000E+00 
    1.2499999999977310E-01     0.0000000000000000E+00     0.0000000000000000E+00 
    1.8749999999959341E-01     0.0000000000000000E+00     0.0000000000000000E+00 
    2.4999999999941089E-01     0.0000000000000000E+00     0.0000000000000000E+00 
    3.1249999999922851E-01     0.0000000000000000E+00     0.0000000000000000E+00 
    3.7499999999904610E-01     0.0000000000000000E+00     0.0000000000000000E+00 
    4.3749999999886358E-01     0.0000000000000000E+00     0.0000000000000000E+00 
    4.9999999999869210E-01     0.0000000000000000E+00     0.0000000000000000E+00 
    5.6249999999884603E-01     0.0000000000000000E+00     0.0000000000000000E+00 
    6.2499999999901090E-01     0.0000000000000000E+00     0.0000000000000000E+00 
    6.8749999999917577E-01     0.0000000000000000E+00     0.0000000000000000E+00 
    7.4999999999934064E-01     0.0000000000000000E+00     0.0000000000000000E+00 
    8.1249999999950551E-01     0.0000000000000000E+00     0.0000000000000000E+00 
    8.7499999999967026E-01     0.0000000000000000E+00     0.0000000000000000E+00 
    9.3749999999983513E-01     0.0000000000000000E+00     0.0000000000000000E+00 
    1.0000000000000000E+00     6.2499999999872928E-02     0.0000000000000000E+00 
    1.0000000000000000E+00     1.2499999999977310E-01     0.0000000000000000E+00 
    1.0000000000000000E+00     1.8749999999959341E-01     0.0000000000000000E+00 
    1.0000000000000000E+00     2.4999999999941089E-01     0.0000000000000000E+00 
    1.0000000000000000E+00     3.1249999999922851E-01     0.0000000000000000E+00 
    1.0000000000000000E+00     3.7499999999904610E-01     0.0000000000000000E+00 
    1.0000000000000000E+00     4.3749999999886358E-01     0.0000000000000000E+00 
    1.0000000000000000E+00     4.9999999999869210E-01     0.0000000000000000E+00 
    1.0000000000000000E+00     5.6249999999884603E-01     0.0000000000000000E+00 
    1.0000000000000000E+00     6.2499999999901090E-01     0.0000000000000000E+00 
    1.0000000000000000E+00     6.8749999999917577E-01     0.0000000000000000E+00 
    1.0000000000000000E+00     7.4999999999934064E-01     0.0000000000000000E+00 
    1.0000000000000000E+00     8.1249999999950551E-01     0.0000000000000000E+00 
    1.0000000000000000E+00     8.7499999999967026E-01     0.0000000000000000E+00 
    1.0000000000000000E+00     9.3749999999983513E-01     0.0000000000000000E+00 
    9.3749999999973976E-01     1.0000000000000000E+00     0.0000000000000000E+00 
    8.7499999999950118E-01     1.0000000000000000E+00     0.0000000000000000E+00 
    8.1249999999991318E-01     1.0000000000000000E+00     0.0000000000000000E+00 
    7.5000000000034706E-01     1.0000000000000000E+00     0.0000000000000000E+00 
    6.8750000000078049E-01     1.0000000000000000E+00     0.0000000000000000E+00 
    6.2500000000121403E-01     1.0000000000000000E+00     0.0000000000000000E+00 
    5.6250000000164757E-01     1.0000000000000000E+00     0.0000000000000000E+00 
    5.0000000000205946E-01     1.0000000000000000E+00     0.0000000000000000E+00 
    4.3750000000182099E-01     1.0000000000000000E+00     0.0000000000000000E+00 
    3.7500000000156092E-01     1.0000000000000000E+00     0.0000000000000000E+00 
    3.1250000000130068E-01     1.0000000000000000E+00     0.0000000000000000E+00 
    2.5000000000104050E-01     1.0000000000000000E+00     0.0000000000000000E+00 
    1.8750000000078040E-01     1.0000000000000000E+00     0.0000000000000000E+00 
    1.2500000000052031E-01     1.0000000000000000E+00     0.0000000000000000E+00 
    6.2500000000260125E-02     1.0000000000000000E+00     0.0000000000000000E+00 
    0.0000000000000000E+00     9.3749999999973976E-01     0.0000000000000000E+00 
    0.0000000000000000E+00     8.7499999999950118E-01     0.0000000000000000E+00 
    0.0000000000000000E+00     8.1249999999991318E-01     0.0000000000000000E+00 
    0.0000000000000000E+00     7.5000000000034706E-01     0.0000000000000000E+00 
    0.0000000000000000E+00     6.8750000000078049E-01     0.0000000000000000E+00 
    0.0000000000000000E+00     6.2500000000121403E-01     0.0000000000000000E+00 
    0.0000000000000000E+00     5.6250000000164757E-01     0.0000000000000000E+00 
    0.0000000000000000E+00     5.0000000000205946E-01     0.0000000000000000E+00 
    0.0000000000000000E+00     4.3750000000182099E-01     0.0000000000000000E+00 
    0.0000000000000000E+00     3.7500000000156092E-01     0.0000000000000000E+00 
    0.0000000000000000E+00     3.1250000000130068E-01     0.0000000000000000E+00 
    0.0000000000000000E+00     2.5000000000104050E-01     0.0000000000000000E+00 
    0.0000000000000000E+00     1.8750000000078040E-01     0.0000000000000000E+00 
    0.0000000000000000E+00     1.2500000000052031E-01     0.0000000000000000E+00 
    0.0000000000000000E+00     6.2500000000260125E-02     0.0000000000000000E+00 
    6.2499999999897131E-02     6.2500000000235922E-02     0.0000000000000000E+00 
    6.2499999999921327E-02     1.2500000000047351E-01     0.0000000000000000E+00 
    6.2499999999945530E-02     1.8750000000070621E-01     0.0000000000000000E+00 
    6.2499999999969733E-02     2.5000000000093858E-01     0.0000000000000000E+00 
    6.2499999999993928E-02     3.1250000000117117E-01     0.0000000000000000E+00 
    6.2500000000018124E-02     3.7500000000140382E-01     0.0000000000000000E+00 
    6.2500000000042327E-02     4.3750000000163619E-01     0.0000000000000000E+00 
    6.2500000000066530E-02     5.0000000000184897E-01     0.0000000000000000E+00 
    6.2500000000090733E-02     5.6250000000147260E-01     0.0000000000000000E+00 
    6.2500000000114922E-02     6.2500000000107636E-01     0.0000000000000000E+00 
    6.2500000000139125E-02     6.8750000000068034E-01     0.0000000000000000E+00 
    6.2500000000163328E-02     7.5000000000028411E-01     0.0000000000000000E+00 
    6.2500000000187531E-02     8.1249999999988787E-01     0.0000000000000000E+00 
    6.2500000000211720E-02     8.7499999999951172E-01     0.0000000000000000E+00 
    6.2500000000235922E-02     9.3749999999974565E-01     0.0000000000000000E+00 
    1.2499999999981980E-01     6.2500000000211733E-02     0.0000000000000000E+00 
    1.2499999999986650E-01     1.2500000000042691E-01     0.0000000000000000E+00 
    1.2499999999991319E-01     1.8750000000063199E-01     0.0000000000000000E+00 
    1.2499999999995989E-01     2.5000000000083678E-01     0.0000000000000000E+00 
    1.2500000000000661E-01     3.1250000000104172E-01     0.0000000000000000E+00 
    1.2500000000005329E-01     3.7500000000124661E-01     0.0000000000000000E+00 
    1.2500000000010000E-01     4.3750000000145117E-01     0.0000000000000000E+00 
    1.2500000000014669E-01     5.0000000000163858E-01     0.0000000000000000E+00 
    1.2500000000019340E-01     5.6250000000129741E-01     0.0000000000000000E+00 
    1.2500000000024011E-01     6.2500000000093847E-01     0.0000000000000000E+00 
    1.2500000000028680E-01     6.8750000000057998E-01     0.0000000000000000E+00 
    1.2500000000033351E-01     7.5000000000022127E-01     0.0000000000000000E+00 
    1.2500000000038020E-01     8.1249999999986211E-01     0.0000000000000000E+00 
    1.2500000000042691E-01     8.7499999999952238E-01     0.0000000000000000E+00 
    1.2500000000047359E-01     9.3749999999975164E-01     0.0000000000000000E+00 
    1.8749999999966760E-01     6.2500000000187531E-02     0.0000000000000000E+00 
    1.8749999999974179E-01     1.2500000000038020E-01     0.0000000000000000E+00 
    1.8749999999981601E-01     1.8750000000055780E-01     0.0000000000000000E+00 
    1.8749999999989009E-01     2.5000000000073502E-01     0.0000000000000000E+00 
    1.8749999999996431E-01     3.1250000000091221E-01     0.0000000000000000E+00 
    1.8750000000003850E-01     3.7500000000108941E-01     0.0000000000000000E+00 
    1.8750000000011269E-01     4.3750000000126649E-01     0.0000000000000000E+00 
    1.8750000000018691E-01     5.0000000000142808E-01     0.0000000000000000E+00 
    1.8750000000026110E-01     5.6250000000112244E-01     0.0000000000000000E+00 
    1.8750000000033529E-01     6.2500000000080080E-01     0.0000000000000000E+00 
    1.8750000000040951E-01     6.8750000000047962E-01     0.0000000000000000E+00 
    1.8750000000048361E-01     7.5000000000015843E-01     0.0000000000000000E+00 
    1.8750000000055780E-01     8.1249999999983680E-01     0.0000000000000000E+00 
    1.8750000000063199E-01     8.7499999999953304E-01     0.0000000000000000E+00 
    1.8750000000070621E-01     9.3749999999975764E-01     0.0000000000000000E+00 
    2.4999999999951281E-01     6.2500000000163314E-02     0.0000000000000000E+00 
    2.4999999999961461E-01     1.2500000000033351E-01     0.0000000000000000E+00 
    2.4999999999971650E-01     1.8750000000048361E-01     0.0000000000000000E+00 
    2.4999999999981831E-01     2.5000000000063310E-01     0.0000000000000000E+00 
    2.4999999999992020E-01     3.1250000000078260E-01     0.0000000000000000E+00 
    2.5000000000002198E-01     3.7500000000093209E-01     0.0000000000000000E+00 
    2.5000000000012390E-01     4.3750000000108180E-01     0.0000000000000000E+00 
    2.5000000000022571E-01     5.0000000000121769E-01     0.0000000000000000E+00 
    2.5000000000032763E-01     5.6250000000094724E-01     0.0000000000000000E+00 
    2.5000000000042938E-01     6.2500000000066314E-01     0.0000000000000000E+00 
    2.5000000000053119E-01     6.8750000000037925E-01     0.0000000000000000E+00 
[...]
CELL_DATA 256 
SCALARS Pressure double 1 
LOOKUP_TABLE default 

    6.3860623150764195E-01 
    5.8931324973344557E-01 
    5.5840726801406315E-01 
    5.3084415848971511E-01 
    5.0317848315098923E-01 
    4.7453219082667047E-01 
    4.4462089409949690E-01 
    4.1346080900572790E-01 
    3.8128817598664183E-01 
    3.4858731932685710E-01 
    3.1619429235715735E-01 
    2.8543672831303124E-01 
    2.5821303461215056E-01 
    2.3680357417571635E-01 
    2.2315201567146226E-01 
    2.1668602785533317E-01 
    6.2460530446887041E-01 
    5.9052969269610300E-01 
    5.6069787716401642E-01 
    5.3333806976384368E-01 
    5.0583728499292235E-01 
    4.7734441024338142E-01 
    4.4757181698636356E-01 
    4.1651927504341379E-01 
    3.8439689239839098E-01 
    3.5165024822231283E-01 
    3.1906120636784929E-01 
    2.8789521499088006E-01 
    2.6001367430392941E-01 
    2.3775112893845574E-01 
    2.2327941693502604E-01 
    2.1630849103736530E-01 
    6.1386380618144365E-01 
    5.8962715377004071E-01 
    5.6225545150403167E-01 
    5.3551868976241690E-01 
    5.0832039149020813E-01 
    4.8003407022607664E-01 
    4.5041960630709577E-01 
    4.1947536277446185E-01 
    3.8738610931165712E-01 
    3.5455222903843436E-01 
    3.2168949507415900E-01 
    2.8998723212326838E-01 
    2.6126605816850623E-01 
    2.3794845970586184E-01 
    2.2252191977806357E-01 
    2.1509479779397422E-01 
    6.0544803409844317E-01 
    5.8766916295745109E-01 
    5.6312389790988626E-01 
    5.3736309380471170E-01 
    5.1061760850169335E-01 
    4.8260279112708343E-01 
    4.5317289332920080E-01 
    4.2234262464207967E-01 
    3.9027595544663962E-01 
    3.5732374576773801E-01 
    3.2412404990059029E-01 
    2.9177197652726949E-01 
    2.6203064512287588E-01 
    2.3742429861321845E-01 
    2.2083897914732398E-01 
    2.1292042845492720E-01 
    5.9872383959606001E-01 
    5.8525292971127407E-01 
    5.6343815116800999E-01 
    5.3888048973632652E-01 
    5.1272424307130460E-01 
    4.8505077962765492E-01 
    4.5583901559235690E-01 
    4.2513528192488476E-01 
    3.9308867281493587E-01 
    3.5999839788841059E-01 
    3.2641396422783364E-01 
    2.9331483678297476E-01 
    2.6237674675543882E-01 
    2.3621455555462295E-01 
    2.1818526177126002E-01 
    2.0965166723419773E-01 
    5.9328245796746848E-01 
    5.8272110388272857E-01 
    5.6334892411656745E-01 
    5.4010404038890703E-01 
    5.1464409412310763E-01 
    4.8737847227021325E-01 
    4.5842298642681623E-01 
    4.2786598562641076E-01 
    3.9584659020118573E-01 
    3.6261156445578607E-01 
    3.2861239382199409E-01 
    2.9468855494436663E-01 
    2.6238526563643483E-01 
    2.3436752595505142E-01 
    2.1451253835779285E-01 
    2.0513111975373050E-01 
    5.8885121768678772E-01 
    5.8027688086696694E-01 
    5.6300128857487175E-01 
    5.4108561464922678E-01 
    5.1639465450223188E-01 
    4.8959339994956635E-01 
    4.6093146608617563E-01 
    4.3054616451502981E-01 
    3.9857045557579102E-01 
    3.6519855528506057E-01 
    3.3077555171608192E-01 
    2.9597464467232704E-01 
    2.6215307798323179E-01 
    2.3195213068433704E-01 
    2.0977977690089203E-01 
    1.9917922458161963E-01 
    5.8523769154168104E-01 
    5.7803788640371145E-01 
    5.6252103911350193E-01 
    5.4188683099270263E-01 
    5.1800388556898902E-01 
    4.9171025326547635E-01 
    4.6337494674101748E-01 
    4.3318730257575128E-01 
    4.0127895168872063E-01 
    3.6779187348495751E-01 
    3.3295943100431846E-01 
    2.9726259372727187E-01 
    2.6179825296225384E-01 
    2.2906804128152539E-01 
    2.0396261449359501E-01 
    1.9158532833047931E-01 
    5.8230333103610954E-01 
    5.7606871213556432E-01 
    5.6201028579087109E-01 
    5.4257166740399232E-01 
    5.1950475829519194E-01 
    4.9374710002314398E-01 
    4.6576563045554831E-01 
    4.3580109816697293E-01 
    4.0398799241136818E-01 
    3.7041905292624222E-01 
    3.3521502622299620E-01 
    2.9864474863986268E-01 
    2.6146162162884634E-01 
    2.2585684636181658E-01 
    1.9705906314456129E-01 
    1.8208090125728674E-01 
    5.7994634716439153E-01 
    5.7440067800694605E-01 
    5.6154639039040122E-01 
    5.4319952721963805E-01 
    5.2093258096674899E-01 
    4.9572407361336945E-01 
    4.6811655949702069E-01 
    4.3839924330363417E-01 
    4.0671219560937633E-01 
    3.7310342323117285E-01 
    3.3758623079779176E-01 
    3.0021035253353479E-01 
    2.6130352376428118E-01 
    2.2251488919312032E-01 
    1.8910816323522117E-01 
    1.7030962601600882E-01 
    5.7809049601593865E-01 
    5.7304784599099068E-01 
    5.6119013569943188E-01 
    5.4382588427696366E-01 
    5.2232498814894002E-01 
    4.9766460093158976E-01 
    4.7044291588186049E-01 
    4.4099441858450195E-01 
    4.0946649713529681E-01 
    3.7586636762501580E-01 
    3.4011040117195662E-01 
    3.0204227572826781E-01 
    2.6150053041053917E-01 
    2.1930343310513448E-01 
    1.8022281548163635E-01 
    1.5579909622309640E-01 
    5.7667388531898289E-01 
    5.7201580308926658E-01 
    5.6099135863359262E-01 
    5.4450230724647986E-01 
    5.2372072237907641E-01 
    4.9959528811251125E-01 
    4.7276341031898261E-01 
    4.4360131149608301E-01 
    4.1226682634838041E-01 
    3.7872807752095228E-01 
    3.4281821516242578E-01 
    3.0421291121109106E-01 
    2.6224004777281129E-01 
    2.1658069150594619E-01 
    1.7068018816682196E-01 
    1.3789786415746105E-01 
    5.7564894860583460E-01 
    5.7130829629172153E-01 
    5.6099211142140148E-01 
    5.4527707890884969E-01 
    5.2515920269572258E-01 
    5.0154559572250101E-01 
    4.7509957191993141E-01 
    4.4623642964771271E-01 
    4.1512915772118530E-01 
    3.8170779573951902E-01 
    3.4573334684844326E-01 
    3.0677822938728716E-01 
    2.6370444916645580E-01 
    2.1480778160566738E-01 
    1.6102609845005050E-01 
    1.1564640126558949E-01 
    5.7498762442390494E-01 
    5.7093702598045570E-01 
    5.6123488480566930E-01 
    5.4620068787857301E-01 
    5.2668520409997233E-01 
    5.0354973023666916E-01 
    4.7747512907292389E-01 
    4.4891466236386340E-01 
    4.1806649952648467E-01 
    3.8482144937964119E-01 
    3.4886675024547559E-01 
    3.0976471000281647E-01 
    2.6604055497369339E-01 
    2.1452849115292374E-01 
    1.5228653133024767E-01 
    8.7567609661092075E-02 
    5.7461071011875453E-01 
    5.7086729140057990E-01 
    5.6172841047503441E-01 
    5.4730020283372127E-01 
    5.2832386479276805E-01 
    5.0561876330221278E-01 
    4.7988491131148048E-01 
    4.5161177635698302E-01 
    4.2102535962863014E-01 
    3.8800484661472123E-01 
    3.5215170852030353E-01 
    3.1308562207303359E-01 
    2.6921421815092672E-01 
    2.1613804639745970E-01 
    1.4623836989542782E-01 
    5.1324056140394751E-02 
    5.7448465309603147E-01 
    5.7106867328865929E-01 
    5.6245649604465320E-01 
    5.4857583041474567E-01 
    5.3008299225589883E-01 
    5.0776565823218633E-01 
    4.8234038576842003E-01 
    4.5433560814667168E-01 
    4.2399068671180651E-01 
    3.9123247351135415E-01 
    3.5561804807844760E-01 
    3.1680128724231815E-01 
    2.7327939724354811E-01 
    2.1992456948074390E-01 
    1.4574000385044217E-01 
    0.0000000000000000E+00 

SCALARS Saturarion double 1 
LOOKUP_TABLE default 

    1.0000000000000002E+00 
    9.7988989508235513E-01 
    9.4282863528976524E-01 
    8.9070195366444760E-01 
    8.4726743339440225E-01 
    8.0883769366898850E-01 
    7.7488311134054244E-01 
    7.4496310850568015E-01 
    7.1829355875937662E-01 
    6.9398564194622392E-01 
    6.7110969455574443E-01 
    6.4851443156957389E-01 
    6.2433297625247308E-01 
    5.9485935014953151E-01 
    5.5169837939120969E-01 
    3.5073046903621130E-01 
    9.9267227500911903E-01 
    9.7366958443298757E-01 
    9.3475488194595802E-01 
    8.8498220894930579E-01 
    8.4240771084743382E-01 
    8.0508486637446008E-01 
    7.7211117304433319E-01 
    7.4286550741649005E-01 
    7.1670160053251419E-01 
    6.9281292588490007E-01 
    6.7045132162531185E-01 
    6.4860547583810790E-01 
    6.2542392882895670E-01 
    5.9695315400777860E-01 
    5.5520635917519290E-01 
    3.6913132628050621E-01 
    9.8106380108089353E-01 
    9.6190061823607187E-01 
    9.2264030385026208E-01 
    8.7436539441669836E-01 
    8.3275232544279087E-01 
    7.9728521104895334E-01 
    7.6631634426783024E-01 
    7.3853012158446041E-01 
    7.1330836513076779E-01 
    6.9008457549055480E-01 
    6.6834899664083025E-01 
    6.4732807310756546E-01 
    6.2558452848380264E-01 
    5.9930958882248198E-01 
    5.6028211726101174E-01 
    3.8649328501890295E-01 
    9.6084027379674641E-01 
    9.4462567382673246E-01 
    9.0761718320758122E-01 
    8.6317130142470422E-01 
    8.2226806669052876E-01 
    7.8743229953354832E-01 
    7.5751116111701289E-01 
    7.3123064421695461E-01 
    7.0749467092466101E-01 
    6.8574588990786112E-01 
    6.6529381416646616E-01 
    6.4545486618153924E-01 
    6.2507531748824496E-01 
    6.0111277380734374E-01 
    5.6527646284354016E-01 
    4.0358882590517842E-01 
    9.3571439917031374E-01 
    9.2104993508527688E-01 
    8.8753865516355945E-01 
    8.4740814550454890E-01 
    8.0843749402296494E-01 
    7.7417770790850504E-01 
    7.4497382101196241E-01 
    7.1986514733725082E-01 
    6.9787277737070263E-01 
    6.7819067164987246E-01 
    6.6011670890522378E-01 
    6.4264129984690388E-01 
    6.2424849123185067E-01 
    6.0237592528445927E-01 
    5.6969023313480249E-01 
    4.1814577653725127E-01 
    9.0668997705145493E-01 
    8.9424688082326598E-01 
    8.6487799955783162E-01 
    8.2821037000148523E-01 
    7.9191997557237226E-01 
    7.5923960626751996E-01 
    7.3078032090733858E-01 
    7.0645112776856434E-01 
    6.8560028280308039E-01 
    6.6755518234240674E-01 
    6.5177428142905292E-01 
    6.3748590469563660E-01 
    6.2252215135686451E-01 
    6.0330573879754146E-01 
    5.7341622169737050E-01 
    4.3153459059161847E-01 
    8.7468196525151831E-01 
    8.6511056977073475E-01 
    8.4012740511638562E-01 
    8.0706993270376326E-01 
    7.7381429453801309E-01 
    7.4341595063535060E-01 
    7.1658299138858783E-01 
    6.9299627796822183E-01 
    6.7270269530367444E-01 
    6.5556554633865161E-01 
    6.4139802077663421E-01 
    6.2972813533844740E-01 
    6.1883967977657173E-01 
    6.0377858569828746E-01 
    5.7704167573366860E-01 
    4.4480149964338161E-01 
    8.3956972694929599E-01 
    8.3328915775752932E-01 
    8.1338633308736907E-01 
    7.8460858896547381E-01 
    7.5428904373000050E-01 
    7.2606631860707693E-01 
    7.0072392268228934E-01 
    6.7844394963309174E-01 
    6.5911511046231774E-01 
    6.4286037533440143E-01 
    6.2974358176825551E-01 
    6.1999085826745604E-01 
    6.1270148101327726E-01 
    6.0299194444985926E-01 
    5.8069906188285303E-01 
    4.5825661806569812E-01 
    8.0134994596300890E-01 
    7.9839266788237162E-01 
    7.8364286969798158E-01 
    7.5959653247650782E-01 
    7.3271951687774195E-01 
    7.0663171471356723E-01 
    6.8287009975216850E-01 
    6.6178020378695357E-01 
    6.4351346046341684E-01 
    6.2819627565630554E-01 
    6.1622148504746810E-01 
    6.0813587836848459E-01 
    6.0399625549896752E-01 
    6.0001550026713224E-01 
    5.8379652808326377E-01 
    4.7121428431013562E-01 
    7.6005693148095599E-01 
    7.6030856656802714E-01 
    7.5053080003816730E-01 
    7.3108499079943212E-01 
    7.0790299613678864E-01 
    6.8440698794089838E-01 
    6.6225742610296434E-01 
    6.4259445227423206E-01 
    6.2564594908037330E-01 
    6.1142723675592858E-01 
    6.0030381358268481E-01 
    5.9351981134025666E-01 
    5.9220928652074523E-01 
    5.9409529785267889E-01 
    5.8541348159243689E-01 
    4.8415007655590864E-01 
    7.1537965865154296E-01 
    7.1868301284786196E-01 
    7.1363926703598024E-01 
    6.9852572138036184E-01 
    6.7908191938631823E-01 
    6.5868489529214824E-01 
    6.3906693422187910E-01 
    6.2096806318454922E-01 
    6.0528708810815013E-01 
    5.9232975729318704E-01 
    5.8233456396587457E-01 
    5.7629989634210033E-01 
    5.7669544538597517E-01 
    5.8419106985975666E-01 
    5.8328269200923422E-01 
    4.9763776502160884E-01 
    6.6589921001964825E-01 
    6.7224595704871282E-01 
    6.7212605329794772E-01 
    6.6147538829189467E-01 
    6.4554632015154323E-01 
    6.2801963133420646E-01 
    6.1086133173401236E-01 
    5.9517474250973312E-01 
    5.8143056139005000E-01 
    5.7007363886688522E-01 
    5.6148702719342303E-01 
    5.5670596699656971E-01 
    5.5794048520949235E-01 
    5.6911665849380044E-01 
    5.7997173843711536E-01 
    5.0970056783251172E-01 
    6.1081849527241605E-01 
    6.1974694507022976E-01 
    6.2415733613912561E-01 
    6.1813865644285226E-01 
    6.0641208261337298E-01 
    5.9227459142190786E-01 
    5.7818469611308898E-01 
    5.6478397978139494E-01 
    5.5279714658644230E-01 
    5.4298710740385925E-01 
    5.3624091047192468E-01 
    5.3312322329273931E-01 
    5.3576839177907065E-01 
    5.4874576384002161E-01 
    5.7049075440239516E-01 
    5.1935773524913131E-01 
    5.5366964650909134E-01 
    5.6400985319250063E-01 
    5.7163109987397631E-01 
    5.6988912581599183E-01 
    5.6229759723351069E-01 
    5.5143810775831559E-01 
    5.3944802388349578E-01 
    5.2752662846720466E-01 
    5.1563469512020133E-01 
    5.0640811913609807E-01 
    5.0031176409221723E-01 
    4.9826152542704932E-01 
    5.0399714561664211E-01 
    5.2172860830718959E-01 
    5.5333140536331793E-01 
    5.2486281515374000E-01 
    4.2331738476414155E-01 
    4.5057373029842379E-01 
    4.7216988921922404E-01 
    4.7909850226521122E-01 
    4.7549907808875919E-01 
    4.6425417604394109E-01 
    4.4731398071206557E-01 
    4.2717201229374141E-01 
    3.9946293795769283E-01 
    3.4817595478429758E-01 
    3.1519902594181981E-01 
    3.3882327804762419E-01 
    3.6896209267021923E-01 
    4.3015386738115208E-01 
    5.1632517683807144E-01 
    5.2567450795968318E-01 
    3.3703237953698319E-02 
    9.5554008234392598E-02 
    1.1803796205128389E-01 
    1.4309548890382157E-01 
    1.0555873436909224E-01 
    1.0026478404914206E-01 
    5.8312166467794795E-02 
    4.1459550361807720E-02 
    1.8464498272625203E-02 
    4.6402709786008542E-03 
    5.9701364869723392E-03 
    7.9220550839271976E-03 
    3.1787430397714408E-02 
    1.8665481218839966E-01 
    3.4610735442115415E-01 
    4.7532344865959092E-01 
