# vtk DataFile Version 2.0
Pressure Field Data 
ASCII 
DATASET UNSTRUCTURED_GRID 

POINTS 289 double 

    0.0000000000000000E+00     0.0000000000000000E+00     0.0000000000000000E+00 
    1.0000000000000000E+00     0.0000000000000000E+00     0.0000000000000000E+00 
    1.0000000000000000E+00     1.0000000000000000E+00     0.0000000000000000E+00 
    0.0000000000000000E+00     1.0000000000000000E+00     0.0000000000000000E+00 
    6.2499999999872928E-02     0.0000000000000000E+00     0.0000000000000000E+00 
    1.2499999999977310E-01     0.0000000000000000E+00     0.0000000000000000E+00 
    1.8749999999959341E-01     0.0000000000000000E+00     0.0000000000000000E+00 
    2.4999999999941089E-01     0.0000000000000000E+00     0.0000000000000000E+00 
    3.1249999999922851E-01     0.0000000000000000E+00     0.0000000000000000E+00 
    3.7499999999904610E-01     0.0000000000000000E+00     0.0000000000000000E+00 
    4.3749999999886358E-01     0.0000000000000000E+00     0.0000000000000000E+00 
    4.9999999999869210E-01     0.0000000000000000E+00     0.0000000000000000E+00 
    5.6249999999884603E-01     0.0000000000000000E+00     0.0000000000000000E+00 
    6.2499999999901090E-01     0.0000000000000000E+00     0.0000000000000000E+00 
    6.8749999999917577E-01     0.0000000000000000E+00     0.0000000000000000E+00 
    7.4999999999934064E-01     0.0000000000000000E+00     0.0000000000000000E+00 
    8.1249999999950551E-01     0.0000000000000000E+00     0.0000000000000000E+00 
    8.7499999999967026E-01     0.0000000000000000E+00     0.0000000000000000E+00 
    9.3749999999983513E-01     0.0000000000000000E+00     0.0000000000000000E+00 
    1.0000000000000000E+00     6.2499999999872928E-02     0.0000000000000000E+00 
    1.0000000000000000E+00     1.2499999999977310E-01     0.0000000000000000E+00 
    1.0000000000000000E+00     1.8749999999959341E-01     0.0000000000000000E+00 
    1.0000000000000000E+00     2.4999999999941089E-01     0.0000000000000000E+00 
    1.0000000000000000E+00     3.1249999999922851E-01     0.0000000000000000E+00 
    1.0000000000000000E+00     3.7499999999904610E-01     0.0000000000000000E+00 
    1.0000000000000000E+00     4.3749999999886358E-01     0.0000000000000000E+00 
    1.0000000000000000E+00     4.9999999999869210E-01     0.0000000000000000E+00 
    1.0000000000000000E+00     5.6249999999884603E-01     0.0000000000000000E+00 
    1.0000000000000000E+00     6.2499999999901090E-01     0.0000000000000000E+00 
    1.0000000000000000E+00     6.8749999999917577E-01     0.0000000000000000E+00 
    1.0000000000000000E+00     7.4999999999934064E-01     0.0000000000000000E+00 
    1.0000000000000000E+00     8.1249999999950551E-01     0.0000000000000000E+00 
    1.0000000000000000E+00     8.7499999999967026E-01     0.0000000000000000E+00 
    1.0000000000000000E+00     9.3749999999983513E-01     0.0000000000000000E+00 
    9.3749999999973976E-01     1.0000000000000000E+00     0.0000000000000000E+00 
    8.7499999999950118E-01     1.0000000000000000E+00     0.0000000000000000E+00 
    8.1249999999991318E-01     1.0000000000000000E+00     0.0000000000000000E+00 
    7.5000000000034706E-01     1.0000000000000000E+00     0.0000000000000000E+00 
    6.8750000000078049E-01     1.0000000000000000E+00     0.0000000000000000E+00 
    6.2500000000121403E-01     1.0000000000000000E+00     0.0000000000000000E+00 
    5.6250000000164757E-01     1.0000000000000000E+00     0.0000000000000000E+00 
    5.0000000000205946E-01     1.0000000000000000E+00     0.0000000000000000E+00 
    4.3750000000182099E-01     1.0000000000000000E+00     0.0000000000000000E+00 
    3.7500000000156092E-01     1.0000000000000000E+00     0.0000000000000000E+00 
    3.1250000000130068E-01     1.0000000000000000E+00     0.0000000000000000E+00 
    2.5000000000104050E-01     1.0000000000000000E+00     0.0000000000000000E+00 
    1.8750000000078040E-01     1.0000000000000000E+00     0.0000000000000000E+00 
    1.2500000000052031E-01     1.0000000000000000E+00     0.0000000000000000E+00 
    6.2500000000260125E-02     1.0000000000000000E+00     0.0000000000000000E+00 
    0.0000000000000000E+00     9.3749999999973976E-01     0.0000000000000000E+00 
    0.0000000000000000E+00     8.7499999999950118E-01     0.0000000000000000E+00 
    0.0000000000000000E+00     8.1249999999991318E-01     0.0000000000000000E+00 
    0.0000000000000000E+00     7.5000000000034706E-01     0.0000000000000000E+00 
    0.0000000000000000E+00     6.8750000000078049E-01     0.0000000000000000E+00 
    0.0000000000000000E+00     6.2500000000121403E-01     0.0000000000000000E+00 
    0.0000000000000000E+00     5.6250000000164757E-01     0.0000000000000000E+00 
    0.0000000000000000E+00     5.0000000000205946E-01     0.0000000000000000E+00 
    0.0000000000000000E+00     4.3750000000182099E-01     0.0000000000000000E+00 
    0.0000000000000000E+00     3.7500000000156092E-01     0.0000000000000000E+00 
    0.0000000000000000E+00     3.1250000000130068E-01     0.0000000000000000E+00 
    0.0000000000000000E+00     2.5000000000104050E-01     0.0000000000000000E+00 
    0.0000000000000000E+00     1.8750000000078040E-01     0.0000000000000000E+00 
    0.0000000000000000E+00     1.2500000000052031E-01     0.0000000000000000E+00 
    0.0000000000000000E+00     6.2500000000260125E-02     0.0000000000000000E+00 
    6.2499999999897131E-02     6.2500000000235922E-02     0.0000000000000000E+00 
    6.2499999999921327E-02     1.2500000000047351E-01     0.0000000000000000E+00 
    6.2499999999945530E-02     1.8750000000070621E-01     0.0000000000000000E+00 
    6.2499999999969733E-02     2.5000000000093858E-01     0.0000000000000000E+00 
    6.2499999999993928E-02     3.1250000000117117E-01     0.0000000000000000E+00 
    6.2500000000018124E-02     3.7500000000140382E-01     0.0000000000000000E+00 
    6.2500000000042327E-02     4.3750000000163619E-01     0.0000000000000000E+00 
    6.2500000000066530E-02     5.0000000000184897E-01     0.0000000000000000E+00 
    6.2500000000090733E-02     5.6250000000147260E-01     0.0000000000000000E+00 
    6.2500000000114922E-02     6.2500000000107636E-01     0.0000000000000000E+00 
    6.2500000000139125E-02     6.8750000000068034E-01     0.0000000000000000E+00 
    6.2500000000163328E-02     7.5000000000028411E-01     0.0000000000000000E+00 
    6.2500000000187531E-02     8.1249999999988787E-01     0.0000000000000000E+00 
    6.2500000000211720E-02     8.7499999999951172E-01     0.0000000000000000E+00 
    6.2500000000235922E-02     9.3749999999974565E-01     0.0000000000000000E+00 
    1.2499999999981980E-01     6.2500000000211733E-02     0.0000000000000000E+00 
    1.2499999999986650E-01     1.2500000000042691E-01     0.0000000000000000E+00 
    1.2499999999991319E-01     1.8750000000063199E-01     0.0000000000000000E+00 
    1.2499999999995989E-01     2.5000000000083678E-01     0.0000000000000000E+00 
    1.2500000000000661E-01     3.1250000000104172E-01     0.0000000000000000E+00 
    1.2500000000005329E-01     3.7500000000124661E-01     0.0000000000000000E+00 
    1.2500000000010000E-01     4.3750000000145117E-01     0.0000000000000000E+00 
    1.2500000000014669E-01     5.0000000000163858E-01     0.0000000000000000E+00 
    1.2500000000019340E-01     5.6250000000129741E-01     0.0000000000000000E+00 
    1.2500000000024011E-01     6.2500000000093847E-01     0.0000000000000000E+00 
    1.2500000000028680E-01     6.8750000000057998E-01     0.0000000000000000E+00 
    1.2500000000033351E-01     7.5000000000022127E-01     0.0000000000000000E+00 
    1.2500000000038020E-01     8.1249999999986211E-01     0.0000000000000000E+00 
    1.2500000000042691E-01     8.7499999999952238E-01     0.0000000000000000E+00 
    1.2500000000047359E-01     9.3749999999975164E-01     0.0000000000000000E+00 
    1.8749999999966760E-01     6.2500000000187531E-02     0.0000000000000000E+00 
    1.8749999999974179E-01     1.2500000000038020E-01     0.0000000000000000E+00 
    1.8749999999981601E-01     1.8750000000055780E-01     0.0000000000000000E+00 
    1.8749999999989009E-01     2.5000000000073502E-01     0.0000000000000000E+00 
    1.8749999999996431E-01     3.1250000000091221E-01     0.0000000000000000E+00 
    1.8750000000003850E-01     3.7500000000108941E-01     0.0000000000000000E+00 
    1.8750000000011269E-01     4.3750000000126649E-01     0.0000000000000000E+00 
    1.8750000000018691E-01     5.0000000000142808E-01     0.0000000000000000E+00 
    1.8750000000026110E-01     5.6250000000112244E-01     0.0000000000000000E+00 
    1.8750000000033529E-01     6.2500000000080080E-01     0.0000000000000000E+00 
    1.8750000000040951E-01     6.8750000000047962E-01     0.0000000000000000E+00 
    1.8750000000048361E-01     7.5000000000015843E-01     0.0000000000000000E+00 
    1.8750000000055780E-01     8.1249999999983680E-01     0.0000000000000000E+00 
    1.8750000000063199E-01     8.7499999999953304E-01     0.0000000000000000E+00 
    1.8750000000070621E-01     9.3749999999975764E-01     0.0000000000000000E+00 
    2.4999999999951281E-01     6.2500000000163314E-02     0.0000000000000000E+00 
    2.4999999999961461E-01     1.2500000000033351E-01     0.0000000000000000E+00 
    2.4999999999971650E-01     1.8750000000048361E-01     0.0000000000000000E+00 
    2.4999999999981831E-01     2.5000000000063310E-01     0.0000000000000000E+00 
    2.4999999999992020E-01     3.1250000000078260E-01     0.0000000000000000E+00 
    2.5000000000002198E-01     3.7500000000093209E-01     0.0000000000000000E+00 
    2.5000000000012390E-01     4.3750000000108180E-01     0.0000000000000000E+00 
    2.5000000000022571E-01     5.0000000000121769E-01     0.0000000000000000E+00 
    2.5000000000032763E-01     5.6250000000094724E-01     0.0000000000000000E+00 
    2.5000000000042938E-01     6.2500000000066314E-01     0.0000000000000000E+00 
    2.5000000000053119E-01     6.8750000000037925E-01     0.0000000000000000E+00 
[...]
CELL_DATA 256 
SCALARS Pressure double 1 
LOOKUP_TABLE default 

    9.7816533125304039E-01 
    9.2402871545553256E-01 
    8.8569061329423393E-01 
    8.4833429221072454E-01 
    8.0874695327331492E-01 
    7.6644508821013835E-01 
    7.2154199175583056E-01 
    6.7430285473156570E-01 
    6.2502244939806972E-01 
    5.7383777514159739E-01 
    5.1915186652029555E-01 
    4.5647093163224178E-01 
    3.9876962697935675E-01 
    3.5844362239452759E-01 
    3.3312728964593574E-01 
    3.2299814136996713E-01 
    9.6425661225759907E-01 
    9.2573822426721264E-01 
    8.8868085708097089E-01 
    8.5170677095367786E-01 
    8.1248983036898992E-01 
    7.7052820489119278E-01 
    7.2590227751197278E-01 
    6.7887886915236306E-01 
    6.2975934232637565E-01 
    5.7871609797625101E-01 
    5.2423889838791882E-01 
    4.6146033342716652E-01 
    4.0251363950806046E-01 
    3.6046444481795414E-01 
    3.3358073174501879E-01 
    3.2254238464650287E-01 
    9.5347336881731293E-01 
    9.2514138986331018E-01 
    8.9075741565543132E-01 
    8.5457148667982241E-01 
    8.1586089882320167E-01 
    7.7431204287268085E-01 
    7.3000427765611686E-01 
    6.8320675269968334E-01 
    6.3421960288821277E-01 
    5.8320433563771745E-01 
    5.2865343392255992E-01 
    4.6551128785322032E-01 
    4.0526377437766181E-01 
    3.6131626793404720E-01 
    3.3269999793488481E-01 
    3.2090540953072044E-01 
    9.4472506918279353E-01 
    9.2324983137875727E-01 
    8.9194649060269793E-01 
    8.5692926820896897E-01 
    8.1887067691223270E-01 
    7.7780163380184320E-01 
    7.3385689860232983E-01 
    6.8730625194392891E-01 
    6.3843514648940591E-01 
    5.8735554805185486E-01 
    5.3246837941662006E-01 
    4.6874128104776636E-01 
    4.0712700418303621E-01 
    3.6102514831973515E-01 
    3.3040022327020274E-01 
    3.1786156857840520E-01 
    9.3736361155295267E-01 
    9.2062033511939345E-01 
    8.9236688107103512E-01 
    8.5880175775339485E-01 
    8.2154699645718043E-01 
    7.8102637836294031E-01 
    7.3748582479975633E-01 
    6.9120508549315463E-01 
    6.4244474021087850E-01 
    5.9123728863354608E-01 
    5.3574670959961079E-01 
    4.7124840199787893E-01 
    4.0823777855785293E-01 
    3.5963894990658074E-01 
    3.2659259708588817E-01 
    3.1317354655360358E-01 
    9.3110204664360841E-01 
    9.1765290837450286E-01 
    8.9219703597786781E-01 
    8.6024549700550512E-01 
    8.2393190740740962E-01 
    7.8402938155196711E-01 
    7.4092633899560945E-01 
    6.9493417777152355E-01 
    6.4628542682467049E-01 
    5.9491066650503188E-01 
    5.3854114000641662E-01 
    4.7313143030912214E-01 
    4.0876586712307811E-01 
    3.5723913467770529E-01 
    3.2119556093057416E-01 
    3.0658675487042825E-01 
    9.2575896079674214E-01 
    9.1462449825407266E-01 
    8.9163058589177591E-01 
    8.6134273791550486E-01 
    8.2607325524041797E-01 
    7.8685521787531798E-01 
    7.4421846332954034E-01 
    6.9852821076185045E-01 
    6.4999255518108578E-01 
    5.9841653302371423E-01 
    5.4091891237318523E-01 
    4.7453674468435630E-01 
    4.0890895330842980E-01 
    3.5394845178802836E-01 
    3.1414029180046454E-01 
    2.9780628546624766E-01 
    9.2120395720084602E-01 
    9.1171686200551227E-01 
    8.9084030571673012E-01 
    8.6218476833060509E-01 
    8.2802148196963521E-01 
    7.8954697535839713E-01 
    7.4740649328040820E-01 
    7.0202784305634736E-01 
    6.5359990975380111E-01 
    6.0173049633237830E-01 
    5.4295724630773268E-01 
    4.7569713723390056E-01 
    4.0887215862023440E-01 
    3.4993982675157093E-01 
    3.0537960454355301E-01 
    2.8647403753363981E-01 
    9.1734904356653169E-01 
    9.0905049270928429E-01 
    8.8997529479221305E-01 
    8.6286988760165351E-01 
    8.2983333799251247E-01 
    7.9214827090692019E-01 
    7.5053566424575691E-01 
    7.0547573892379278E-01 
    6.5712954164506687E-01 
    6.0470861378296281E-01 
    5.4469570132535960E-01 
    4.7692828093156447E-01 
    4.0883950754453774E-01 
    3.4545062674488808E-01 
    2.9491065109668929E-01 
    2.7214049928344486E-01 
    9.1414588684864606E-01 
    9.0671403925951943E-01 
    8.8916351619571554E-01 
    8.6349812251817726E-01 
    8.3157426095883114E-01 
    7.9470588735490799E-01 
    7.5364237831070335E-01 
    7.0888731532160765E-01 
    6.6048597667967512E-01 
    6.0722075056648994E-01 
    5.4636205529115922E-01 
    4.7865104204886216E-01 
    4.0902179315120851E-01 
    3.4081075219241336E-01 
    2.8281952404014182E-01 
    2.5422306414930906E-01 
    9.1157747389781618E-01 
    9.0478668378612004E-01 
    8.8852214198542145E-01 
    8.6417185826394227E-01 
    8.3331277542270288E-01 
    7.9725213846901977E-01 
    7.5671076359114753E-01 
    7.1210279504467655E-01 
    6.6341753675761594E-01 
    6.0942464852729727E-01 
    5.4848896878230813E-01 
    4.8112835296988360E-01 
    4.0972837140790602E-01 
    3.3647233598457421E-01 
    2.6935024054538165E-01 
    2.3194924533602723E-01 
    9.0954851074304066E-01 
    9.0326999578607692E-01 
    8.8810768087914127E-01 
    8.6494004201044106E-01 
    8.3502089878349695E-01 
    7.9961430557102087E-01 
    7.5949487956717587E-01 
    7.1494513372513502E-01 
    6.6606282727529365E-01 
    6.1200470769929471E-01 
    5.5146758532724294E-01 
    4.8430979154749276E-01 
    4.1129433333703302E-01 
    3.3302532159711540E-01 
    2.5501772170100184E-01 
    2.0427341018437761E-01 
    9.0764177114987177E-01 
    9.0184488648388939E-01 
    8.8766342158174294E-01 
    8.6555139117165936E-01 
    8.3648796556827110E-01 
    8.0166871176748411E-01 
    7.6201353596566523E-01 
    7.1781481751012310E-01 
    6.6912637594890734E-01 
    6.1536106357803744E-01 
    5.5523150682110456E-01 
    4.8820151589503835E-01 
    4.1400252015007699E-01 
    3.3119241011186035E-01 
    2.4080404545209136E-01 
    1.6975375607506005E-01 
    9.0613693496761416E-01 
    9.0066771400737256E-01 
    8.8732573212159971E-01 
    8.6616138832269207E-01 
    8.3797693675411677E-01 
    8.0388345190118460E-01 
    7.6482804953148276E-01 
    7.2115240982268092E-01 
    6.7281742979301917E-01 
    6.1934012602246724E-01 
    5.5962422516642318E-01 
    4.9287900053570050E-01 
    4.1806161642202644E-01 
    3.3178105883464604E-01 
    2.2848942219433410E-01 
    1.2636033630945870E-01 
    9.0537375187973645E-01 
    9.0023416934704503E-01 
    8.8761900443117381E-01 
    8.6731326191666025E-01 
    8.3996992014624883E-01 
    8.0659101583750714E-01 
    7.6809062479017232E-01 
    7.2487816985578279E-01 
    6.7695088610173781E-01 
    6.2386359584382811E-01 
    5.6463699700010939E-01 
    4.9835647293628921E-01 
    4.2355849596043277E-01 
    3.3552910050904849E-01 
    2.2120431161770002E-01 
    7.1185306602178755E-02 
    9.0516247891258861E-01 
    9.0043938554484881E-01 
    8.8853683939877881E-01 
    8.6901949155033886E-01 
    8.4242253031867276E-01 
    8.0968848348438338E-01 
    7.7172263519929918E-01 
    7.2898484179589051E-01 
    6.8151303300801003E-01 
    6.2890417403763743E-01 
    5.7024752084771857E-01 
    5.0459967709484943E-01 
    4.3041765253183351E-01 
    3.4273179248919661E-01 
    2.2435430123735767E-01 
    0.0000000000000000E+00 

SCALARS Saturarion double 1 
LOOKUP_TABLE default 

    1.0000000000000746E+00 
    9.5410241609335245E-01 
    8.8085446710685988E-01 
    7.9220566328818365E-01 
    7.2074645946271265E-01 
    6.6669119077283923E-01 
    6.2349868396483299E-01 
    5.8572664943363384E-01 
    5.5054612923471069E-01 
    5.1302867975884914E-01 
    4.4487976035533350E-01 
    1.6997108781673806E-01 
    3.0415163749414741E-06 
    9.9999999998640804E-07 
    9.9999999999999995E-07 
    9.9999999999999995E-07 
    9.7966672371541663E-01 
    9.3650123057432688E-01 
    8.6020748588219687E-01 
    7.8209456022350565E-01 
    7.1589766465677096E-01 
    6.6245751129166630E-01 
    6.1915786821732366E-01 
    5.8204216935933550E-01 
    5.4786871421054306E-01 
    5.1105263084703467E-01 
    4.4339040688375458E-01 
    1.6972494186719939E-01 
    4.2769704979583753E-06 
    1.0000002655491585E-06 
    1.0000000000001293E-06 
    9.9999999999999995E-07 
    9.4729149994209283E-01 
    9.0783618286195322E-01 
    8.3332210584131750E-01 
    7.6423568970149491E-01 
    7.0515384886575017E-01 
    6.5363665583862096E-01 
    6.1089788389119781E-01 
    5.7508827763654047E-01 
    5.4261884746772893E-01 
    5.0716292203784596E-01 
    4.4122116440614373E-01 
    1.6943416951191131E-01 
    4.8599883873041055E-06 
    1.0000005867645010E-06 
    1.0000000000001528E-06 
    9.9999999999999995E-07 
    8.9282728703830894E-01 
    8.6287656208288410E-01 
    7.9932228606153244E-01 
    7.3788134209838019E-01 
    6.8699474771325852E-01 
    6.4215477152740030E-01 
    6.0301579942357175E-01 
    5.6930563212482643E-01 
    5.3816879647661986E-01 
    5.0428335734325225E-01 
    4.4033662719459088E-01 
    1.7433139017223831E-01 
    8.9520983124305282E-06 
    1.0000002672084764E-06 
    1.0000000000000088E-06 
    9.9999999999999995E-07 
    8.3843531101388724E-01 
    8.1343853393658128E-01 
    7.6138056455903802E-01 
    7.0888816708254454E-01 
    6.6461322298646086E-01 
    6.2654497914105545E-01 
    5.9267713816508716E-01 
    5.6184539231223296E-01 
    5.3255242402922320E-01 
    4.9975702752180562E-01 
    4.3687716220015405E-01 
    1.7131573657760515E-01 
    1.2588141261586433E-05 
    1.0000079624138368E-06 
    1.0000000000058826E-06 
    9.9999999999999995E-07 
    7.8504322895467638E-01 
    7.6605026647496732E-01 
    7.2489450029231373E-01 
    6.8006526508736587E-01 
    6.4094869945660704E-01 
    6.0796076299838542E-01 
    5.7840085798050878E-01 
    5.5075801680019232E-01 
    5.2393883909797601E-01 
    4.9230294260759672E-01 
    4.2660537608386373E-01 
    1.4993910841957270E-01 
    3.1619246480106497E-05 
    1.0001484315170668E-06 
    1.0000000000879006E-06 
    9.9999999999999995E-07 
    7.3304032192823321E-01 
    7.2025025171690427E-01 
    6.8864367620555622E-01 
    6.5072340127897588E-01 
    6.1649446124244955E-01 
    5.8747744212112452E-01 
    5.6206551386046011E-01 
    5.3775185639074519E-01 
    5.1274076454515516E-01 
    4.8182443834298466E-01 
    4.0874042367208901E-01 
    1.0956277487936916E-01 
    3.8398469264675601E-05 
    1.0003264011397402E-06 
    1.0000000000595127E-06 
    9.9999999999999995E-07 
    6.8185016804109455E-01 
    6.7481320688267898E-01 
    6.5238656331985878E-01 
    6.2168121433698065E-01 
    5.9152329591774233E-01 
    5.6513728425896548E-01 
    5.4283066309580685E-01 
    5.2272775622040535E-01 
    5.0042295314172802E-01 
    4.6798346071767349E-01 
    3.6876947111272818E-01 
    5.2170185613063656E-02 
    5.4200457862753052E-05 
    1.0003498645159043E-06 
    1.0000000000000006E-06 
    9.9999999999999995E-07 
    6.3181608989576243E-01 
    6.2953628105254955E-01 
    6.1522594922181173E-01 
    5.9185546039943138E-01 
    5.6617111352949612E-01 
    5.4243835094816362E-01 
    5.2279110716240673E-01 
    5.0494557757043912E-01 
    4.8368831815382568E-01 
    4.4304946372471188E-01 
    2.6844241835976074E-01 
    7.0108685868804912E-03 
    2.9849592677683558E-06 
    1.0000007454647094E-06 
    1.0000000000000010E-06 
    9.9999999999999995E-07 
    5.8494460712248941E-01 
    5.8631319065377263E-01 
    5.7861062613667436E-01 
    5.6113838573770491E-01 
    5.4045782629340056E-01 
    5.2047624017327154E-01 
    5.0153525538895039E-01 
    4.8218948508437132E-01 
    4.5294215952329192E-01 
    3.6769304790316337E-01 
    1.0179471212818963E-01 
    3.0882042790377439E-04 
    1.0335068236771203E-06 
    1.0000000000004394E-06 
    9.9999999999999995E-07 
    9.9999999999999995E-07 
    5.4306438565560000E-01 
    5.4676596158214941E-01 
    5.4261384026728332E-01 
    5.2921160078270146E-01 
    5.1378293468426806E-01 
    4.9460674790954484E-01 
    4.7111644604573877E-01 
    4.3721163720716033E-01 
    3.3882589510120042E-01 
    1.3045491437476828E-01 
    1.5693238730964650E-03 
    1.1273824858501438E-06 
    1.0000000564515966E-06 
    1.0000000000000080E-06 
    9.9999999999999995E-07 
    9.9999999999999995E-07 
    4.8348480755776091E-01 
    4.9317077519545005E-01 
    4.9508922598945782E-01 
    4.8516112719357196E-01 
    4.6520014425481870E-01 
    4.2036824983535431E-01 
    3.1646017124839282E-01 
    1.9743386488370027E-01 
    4.8080029007496000E-02 
    3.6001635496542186E-04 
    1.0830854606271354E-06 
    1.0000000838103280E-06 
    1.0000000000000417E-06 
    9.9999999999999995E-07 
    9.9999999999999995E-07 
    9.9999999999999995E-07 
    2.4531887886405507E-01 
    3.2907820521164405E-01 
    3.5332971031478777E-01 
    3.0500071033572518E-01 
    2.2963271390988890E-01 
    1.0342631174484036E-01 
    1.0876684625458622E-02 
    3.7413122788112525E-04 
    4.0307509470126235E-05 
    1.0155765258600539E-06 
    1.0000000155505061E-06 
    1.0000000000000135E-06 
    9.9999999999999995E-07 
    9.9999999999999995E-07 
    9.9999999999999995E-07 
    9.9999999999999995E-07 
    3.7933322587611722E-04 
    1.3693324188386395E-02 
    1.7848507368744441E-02 
    4.4945857392612700E-03 
    8.3702275175481420E-04 
    1.0116746836416306E-04 
    2.4837558105998910E-06 
    1.0106431290354055E-06 
    1.0000706520730454E-06 
    1.0000000004881230E-06 
    1.0000000000000008E-06 
    9.9999999999999995E-07 
    9.9999999999999995E-07 
    9.9999999999999995E-07 
    9.9999999999999995E-07 
    9.9999999999999995E-07 
    1.0000004911253680E-06 
    2.7609166043478449E-06 
    1.0913163352921678E-06 
    1.2606115336664128E-06 
    1.0152621532265329E-06 
    1.0010740872413491E-06 
    1.0000001695823174E-06 
    1.0000000002155584E-06 
    1.0000000000000006E-06 
    9.9999999999999995E-07 
    9.9999999999999995E-07 
    9.9999999999999995E-07 
    9.9999999999999995E-07 
    9.9999999999999995E-07 
    9.9999999999999995E-07 
    9.9999999999999995E-07 
    1.0000000000000249E-06 
    1.0000000952829566E-06 
    1.0000000101972333E-06 
    1.0000000073552379E-06 
    1.0000000011467062E-06 
    1.0000000000000008E-06 
    9.9999999999999995E-07 
    9.9999999999999995E-07 
    9.9999999999999995E-07 
    9.9999999999999995E-07 
    9.9999999999999995E-07 
    9.9999999999999995E-07 
    9.9999999999999995E-07 
    9.9999999999999995E-07 
    9.9999999999999995E-07 
    1.0000003787475403E-06 
