# vtk DataFile Version 2.0
Pressure Field Data 
ASCII 
DATASET UNSTRUCTURED_GRID 

POINTS 289 double 

    0.0000000000000000E+00     0.0000000000000000E+00     0.0000000000000000E+00 
    1.0000000000000000E+00     0.0000000000000000E+00     0.0000000000000000E+00 
    1.0000000000000000E+00     1.0000000000000000E+00     0.0000000000000000E+00 
    0.0000000000000000E+00     1.0000000000000000E+00     0.0000000000000000E+00 
    6.2499999999872928E-02     0.0000000000000000E+00     0.0000000000000000E+00 
    1.2499999999977310E-01     0.0000000000000000E+00     0.0000000000000000E+00 
    1.8749999999959341E-01     0.0000000000000000E+00     0.0000000000000000E+00 
    2.4999999999941089E-01     0.0000000000000000E+00     0.0000000000000000E+00 
    3.1249999999922851E-01     0.0000000000000000E+00     0.0000000000000000E+00 
    3.7499999999904610E-01     0.0000000000000000E+00     0.0000000000000000E+00 
    4.3749999999886358E-01     0.0000000000000000E+00     0.0000000000000000E+00 
    4.9999999999869210E-01     0.0000000000000000E+00     0.0000000000000000E+00 
    5.6249999999884603E-01     0.0000000000000000E+00     0.0000000000000000E+00 
    6.2499999999901090E-01     0.0000000000000000E+00     0.0000000000000000E+00 
    6.8749999999917577E-01     0.0000000000000000E+00     0.0000000000000000E+00 
    7.4999999999934064E-01     0.0000000000000000E+00     0.0000000000000000E+00 
    8.1249999999950551E-01     0.0000000000000000E+00     0.0000000000000000E+00 
    8.7499999999967026E-01     0.0000000000000000E+00     0.0000000000000000E+00 
    9.3749999999983513E-01     0.0000000000000000E+00     0.0000000000000000E+00 
    1.0000000000000000E+00     6.2499999999872928E-02     0.0000000000000000E+00 
    1.0000000000000000E+00     1.2499999999977310E-01     0.0000000000000000E+00 
    1.0000000000000000E+00     1.8749999999959341E-01     0.0000000000000000E+00 
    1.0000000000000000E+00     2.4999999999941089E-01     0.0000000000000000E+00 
    1.0000000000000000E+00     3.1249999999922851E-01     0.0000000000000000E+00 
    1.0000000000000000E+00     3.7499999999904610E-01     0.0000000000000000E+00 
    1.0000000000000000E+00     4.3749999999886358E-01     0.0000000000000000E+00 
    1.0000000000000000E+00     4.9999999999869210E-01     0.0000000000000000E+00 
    1.0000000000000000E+00     5.6249999999884603E-01     0.0000000000000000E+00 
    1.0000000000000000E+00     6.2499999999901090E-01     0.0000000000000000E+00 
    1.0000000000000000E+00     6.8749999999917577E-01     0.0000000000000000E+00 
    1.0000000000000000E+00     7.4999999999934064E-01     0.0000000000000000E+00 
    1.0000000000000000E+00     8.1249999999950551E-01     0.0000000000000000E+00 
    1.0000000000000000E+00     8.7499999999967026E-01     0.0000000000000000E+00 
    1.0000000000000000E+00     9.3749999999983513E-01     0.0000000000000000E+00 
    9.3749999999973976E-01     1.0000000000000000E+00     0.0000000000000000E+00 
    8.7499999999950118E-01     1.0000000000000000E+00     0.0000000000000000E+00 
    8.1249999999991318E-01     1.0000000000000000E+00     0.0000000000000000E+00 
    7.5000000000034706E-01     1.0000000000000000E+00     0.0000000000000000E+00 
    6.8750000000078049E-01     1.0000000000000000E+00     0.0000000000000000E+00 
    6.2500000000121403E-01     1.0000000000000000E+00     0.0000000000000000E+00 
    5.6250000000164757E-01     1.0000000000000000E+00     0.0000000000000000E+00 
    5.0000000000205946E-01     1.0000000000000000E+00     0.0000000000000000E+00 
    4.3750000000182099E-01     1.0000000000000000E+00     0.0000000000000000E+00 
    3.7500000000156092E-01     1.0000000000000000E+00     0.0000000000000000E+00 
    3.1250000000130068E-01     1.0000000000000000E+00     0.0000000000000000E+00 
    2.5000000000104050E-01     1.0000000000000000E+00     0.0000000000000000E+00 
    1.8750000000078040E-01     1.0000000000000000E+00     0.0000000000000000E+00 
    1.2500000000052031E-01     1.0000000000000000E+00     0.0000000000000000E+00 
    6.2500000000260125E-02     1.0000000000000000E+00     0.0000000000000000E+00 
    0.0000000000000000E+00     9.3749999999973976E-01     0.0000000000000000E+00 
    0.0000000000000000E+00     8.7499999999950118E-01     0.0000000000000000E+00 
    0.0000000000000000E+00     8.1249999999991318E-01     0.0000000000000000E+00 
    0.0000000000000000E+00     7.5000000000034706E-01     0.0000000000000000E+00 
    0.0000000000000000E+00     6.8750000000078049E-01     0.0000000000000000E+00 
    0.0000000000000000E+00     6.2500000000121403E-01     0.0000000000000000E+00 
    0.0000000000000000E+00     5.6250000000164757E-01     0.0000000000000000E+00 
    0.0000000000000000E+00     5.0000000000205946E-01     0.0000000000000000E+00 
    0.0000000000000000E+00     4.3750000000182099E-01     0.0000000000000000E+00 
    0.0000000000000000E+00     3.7500000000156092E-01     0.0000000000000000E+00 
    0.0000000000000000E+00     3.1250000000130068E-01     0.0000000000000000E+00 
    0.0000000000000000E+00     2.5000000000104050E-01     0.0000000000000000E+00 
    0.0000000000000000E+00     1.8750000000078040E-01     0.0000000000000000E+00 
    0.0000000000000000E+00     1.2500000000052031E-01     0.0000000000000000E+00 
    0.0000000000000000E+00     6.2500000000260125E-02     0.0000000000000000E+00 
    6.2499999999897131E-02     6.2500000000235922E-02     0.0000000000000000E+00 
    6.2499999999921327E-02     1.2500000000047351E-01     0.0000000000000000E+00 
    6.2499999999945530E-02     1.8750000000070621E-01     0.0000000000000000E+00 
    6.2499999999969733E-02     2.5000000000093858E-01     0.0000000000000000E+00 
    6.2499999999993928E-02     3.1250000000117117E-01     0.0000000000000000E+00 
    6.2500000000018124E-02     3.7500000000140382E-01     0.0000000000000000E+00 
    6.2500000000042327E-02     4.3750000000163619E-01     0.0000000000000000E+00 
    6.2500000000066530E-02     5.0000000000184897E-01     0.0000000000000000E+00 
    6.2500000000090733E-02     5.6250000000147260E-01     0.0000000000000000E+00 
    6.2500000000114922E-02     6.2500000000107636E-01     0.0000000000000000E+00 
    6.2500000000139125E-02     6.8750000000068034E-01     0.0000000000000000E+00 
    6.2500000000163328E-02     7.5000000000028411E-01     0.0000000000000000E+00 
    6.2500000000187531E-02     8.1249999999988787E-01     0.0000000000000000E+00 
    6.2500000000211720E-02     8.7499999999951172E-01     0.0000000000000000E+00 
    6.2500000000235922E-02     9.3749999999974565E-01     0.0000000000000000E+00 
    1.2499999999981980E-01     6.2500000000211733E-02     0.0000000000000000E+00 
    1.2499999999986650E-01     1.2500000000042691E-01     0.0000000000000000E+00 
    1.2499999999991319E-01     1.8750000000063199E-01     0.0000000000000000E+00 
    1.2499999999995989E-01     2.5000000000083678E-01     0.0000000000000000E+00 
    1.2500000000000661E-01     3.1250000000104172E-01     0.0000000000000000E+00 
    1.2500000000005329E-01     3.7500000000124661E-01     0.0000000000000000E+00 
    1.2500000000010000E-01     4.3750000000145117E-01     0.0000000000000000E+00 
    1.2500000000014669E-01     5.0000000000163858E-01     0.0000000000000000E+00 
    1.2500000000019340E-01     5.6250000000129741E-01     0.0000000000000000E+00 
    1.2500000000024011E-01     6.2500000000093847E-01     0.0000000000000000E+00 
    1.2500000000028680E-01     6.8750000000057998E-01     0.0000000000000000E+00 
    1.2500000000033351E-01     7.5000000000022127E-01     0.0000000000000000E+00 
    1.2500000000038020E-01     8.1249999999986211E-01     0.0000000000000000E+00 
    1.2500000000042691E-01     8.7499999999952238E-01     0.0000000000000000E+00 
    1.2500000000047359E-01     9.3749999999975164E-01     0.0000000000000000E+00 
    1.8749999999966760E-01     6.2500000000187531E-02     0.0000000000000000E+00 
    1.8749999999974179E-01     1.2500000000038020E-01     0.0000000000000000E+00 
    1.8749999999981601E-01     1.8750000000055780E-01     0.0000000000000000E+00 
    1.8749999999989009E-01     2.5000000000073502E-01     0.0000000000000000E+00 
    1.8749999999996431E-01     3.1250000000091221E-01     0.0000000000000000E+00 
    1.8750000000003850E-01     3.7500000000108941E-01     0.0000000000000000E+00 
    1.8750000000011269E-01     4.3750000000126649E-01     0.0000000000000000E+00 
    1.8750000000018691E-01     5.0000000000142808E-01     0.0000000000000000E+00 
    1.8750000000026110E-01     5.6250000000112244E-01     0.0000000000000000E+00 
    1.8750000000033529E-01     6.2500000000080080E-01     0.0000000000000000E+00 
    1.8750000000040951E-01     6.8750000000047962E-01     0.0000000000000000E+00 
    1.8750000000048361E-01     7.5000000000015843E-01     0.0000000000000000E+00 
    1.8750000000055780E-01     8.1249999999983680E-01     0.0000000000000000E+00 
    1.8750000000063199E-01     8.7499999999953304E-01     0.0000000000000000E+00 
    1.8750000000070621E-01     9.3749999999975764E-01     0.0000000000000000E+00 
    2.4999999999951281E-01     6.2500000000163314E-02     0.0000000000000000E+00 
    2.4999999999961461E-01     1.2500000000033351E-01     0.0000000000000000E+00 
    2.4999999999971650E-01     1.8750000000048361E-01     0.0000000000000000E+00 
    2.4999999999981831E-01     2.5000000000063310E-01     0.0000000000000000E+00 
    2.4999999999992020E-01     3.1250000000078260E-01     0.0000000000000000E+00 
    2.5000000000002198E-01     3.7500000000093209E-01     0.0000000000000000E+00 
    2.5000000000012390E-01     4.3750000000108180E-01     0.0000000000000000E+00 
    2.5000000000022571E-01     5.0000000000121769E-01     0.0000000000000000E+00 
    2.5000000000032763E-01     5.6250000000094724E-01     0.0000000000000000E+00 
    2.5000000000042938E-01     6.2500000000066314E-01     0.0000000000000000E+00 
    2.5000000000053119E-01     6.8750000000037925E-01     0.0000000000000000E+00 
[...]
CELL_DATA 256 
SCALARS Pressure double 1 
LOOKUP_TABLE default 

    1.1567581535861799E+00 
    1.0947448646172075E+00 
    1.0457383783315837E+00 
    9.9456992400711686E-01 
    9.3509871007527090E-01 
    8.5882455692962745E-01 
    7.7621850652565227E-01 
    7.0457809887671696E-01 
    6.3528609900853761E-01 
    5.6837410121330922E-01 
    5.0469551887872743E-01 
    4.4606045780269599E-01 
    3.9530187571727504E-01 
    3.5596431616641794E-01 
    3.3111884547888082E-01 
    3.2114930371653821E-01 
    1.1427137016516764E+00 
    1.0969433453130273E+00 
    1.0494476310759377E+00 
    9.9907152190071713E-01 
    9.4060201847507552E-01 
    8.6553549985711364E-01 
    7.8345521449825095E-01 
    7.1143269461863390E-01 
    6.4189950850443533E-01 
    5.7464181523206626E-01 
    5.1040401252213241E-01 
    4.5088925059698826E-01 
    3.9886377750669688E-01 
    3.5795241089696672E-01 
    3.3156829889691802E-01 
    3.2070085146307903E-01 
    1.1310425814105063E+00 
    1.0962277943369194E+00 
    1.0516774481560609E+00 
    1.0024636375247704E+00 
    9.4486105417836019E-01 
    8.7096234258498695E-01 
    7.9021882658221632E-01 
    7.1808469769111094E-01 
    6.4834497177387518E-01 
    5.8070492396352236E-01 
    5.1579937718979019E-01 
    4.5520823347505729E-01 
    4.0162910313282868E-01 
    3.5882516486625704E-01 
    3.3071337202948187E-01 
    3.1908916285397165E-01 
    1.1204225485749519E+00 
    1.0934503720113544E+00 
    1.0524347255074735E+00 
    1.0047935515505526E+00 
    9.4793980184051796E-01 
    8.7523431126014650E-01 
    7.9652069429166805E-01 
    7.2451211791067149E-01 
    6.5463371138930981E-01 
    5.8660076543896056E-01 
    5.2094773139314721E-01 
    4.5910969297350485E-01 
    4.0369252615536216E-01 
    3.5862324027000819E-01 
    3.2847210767785878E-01 
    3.1608885253053981E-01 
    1.1104780184591936E+00 
    1.0892388244779128E+00 
    1.0519297494004458E+00 
    1.0061760114257912E+00 
    9.4993927280082013E-01 
    8.7852708458854756E-01 
    8.0238007234715325E-01 
    7.3071346084939492E-01 
    6.6078540071409853E-01 
    5.9237455070884404E-01 
    5.2592394997357117E-01 
    4.6269845160992318E-01 
    4.0516646857503125E-01 
    3.5740328867084592E-01 
    3.2476264828722456E-01 
    3.1146963102584785E-01 
    1.1013912638681018E+00 
    1.0843108707926339E+00 
    1.0505163621257800E+00 
    1.0066431560731135E+00 
    9.5090758327360925E-01 
    8.8109592193264319E-01 
    8.0779786469554560E-01 
    7.3669720036175412E-01 
    6.6682337844663508E-01 
    5.9807192853676239E-01 
    5.3080476429971013E-01 
    4.6608813802320814E-01 
    4.0618306599725934E-01 
    3.5524550944359023E-01 
    3.1950651425937826E-01 
    3.0498145485339129E-01 
    1.0933074091130679E+00 
    1.0791920229892027E+00 
    1.0484780794048358E+00 
    1.0061019797941024E+00 
    9.5086062599485499E-01 
    8.8331282947179690E-01 
    8.1278786208403520E-01 
    7.4247835780912208E-01 
    6.7276921681238233E-01 
    6.0373264734854559E-01 
    5.3566346456242320E-01 
    4.6939733836920761E-01 
    4.0689545888154921E-01 
    3.5226180573117832E-01 
    3.1263048141411826E-01 
    2.9632568171656909E-01 
    1.0862250369850155E+00 
    1.0741840633741158E+00 
    1.0458421938690634E+00 
    1.0044860278555825E+00 
    9.5017519917291815E-01 
    8.8559784372596351E-01 
    8.1744014809239540E-01 
    7.4808724305009056E-01 
    6.7864691183084103E-01 
    6.0939738421057033E-01 
    5.4057336788957278E-01 
    4.7275259048348023E-01 
    4.0748493706025218E-01 
    3.4861385422931646E-01 
    3.0408282646663570E-01 
    2.8514405277891158E-01 
    1.0796437426054837E+00 
    1.0689279670714238E+00 
    1.0421783292092628E+00 
    1.0019066554344465E+00 
    9.4956108434507525E-01 
    8.8809343839294674E-01 
    8.2189973762380186E-01 
    7.5357576458038678E-01 
    6.8449463272146649E-01 
    6.1511008834327929E-01 
    5.4560705345988503E-01 
    4.7628394366968813E-01 
    4.0816308850495131E-01 
    3.4453170450764126E-01 
    2.9385456391780079E-01 
    2.7098078704303646E-01 
    1.0725350721290898E+00 
    1.0628676148999701E+00 
    1.0377527700101474E+00 
    9.9938513966895892E-01 
    9.4955704439625466E-01 
    8.9070320791196689E-01 
    8.2628511051078235E-01 
    7.5900156259908103E-01 
    6.9034688806150113E-01 
    6.2090824465833205E-01 
    5.5083079664882406E-01 
    4.8012531088708882E-01 
    4.0917690363598985E-01 
    3.4034330595626916E-01 
    2.8202788079164809E-01 
    2.5324800001477965E-01 
    1.0663058066467330E+00 
    1.0573063130142895E+00 
    1.0340413505531290E+00 
    9.9782085440018087E-01 
    9.5019712335344753E-01 
    8.9346288213419189E-01 
    8.3068142916013421E-01 
    7.6441471694416363E-01 
    6.9623098990890719E-01 
    6.2682063221770312E-01 
    5.5629769264785311E-01 
    4.8439636408885378E-01 
    4.1078936621304879E-01 
    3.3648709998537218E-01 
    2.6883715043245482E-01 
    2.3116571813366177E-01 
    1.0619206339567782E+00 
    1.0533736511166532E+00 
    1.0315284889654845E+00 
    9.9706202921091847E-01 
    9.5134462651381002E-01 
    8.9647044620289806E-01 
    8.3516789938731772E-01 
    7.6986728035527896E-01 
    7.0217828675676286E-01 
    6.3287357192454341E-01 
    5.6204706836507579E-01 
    4.8919365734423143E-01 
    4.1326373202491967E-01 
    3.3353117840933549E-01 
    2.5478634298471753E-01 
    2.0368504933710152E-01 
    1.0587789272555717E+00 
    1.0505965463445639E+00 
    1.0299879870565756E+00 
    9.9708852154259331E-01 
    9.5305554880042342E-01 
    8.9980729941888815E-01 
    8.3982361002590089E-01 
    7.7541806578222217E-01 
    7.0822774046577741E-01 
    6.3909111344503300E-01 
    5.6810326624561536E-01 
    4.9458310483943774E-01 
    4.1683974736776219E-01 
    3.3217596558831358E-01 
    2.4084495407871365E-01 
    1.6935449304804062E-01 
    1.0567313308211868E+00 
    1.0489171574540388E+00 
    1.0294196587180098E+00 
    9.9792487435650634E-01 
    9.5537914766771825E-01 
    9.0354415353028394E-01 
    8.4471623517811878E-01 
    7.8111846932472073E-01 
    7.1440865208352222E-01 
    6.4548590942879758E-01 
    5.7447355542736223E-01 
    5.0059566505218800E-01 
    4.2169590089862058E-01 
    3.3321082036856081E-01 
    2.2878199716684602E-01 
    1.2613051057963912E-01 
    1.0556335179382652E+00 
    1.0482609276072212E+00 
    1.0298060001538294E+00 
    9.9958842797610759E-01 
    9.5835902299961029E-01 
    9.0774148851147363E-01 
    8.4990214453007928E-01 
    7.8700760194704267E-01 
    7.2073982163572869E-01 
    6.5206124711405933E-01 
    5.8114756751127961E-01 
    5.0721290997897461E-01 
    4.2788620293832369E-01 
    3.3735079703418203E-01 
    2.2171369587096598E-01 
    7.1092103890800049E-02 
    1.0553316017346748E+00 
    1.0485502663484700E+00 
    1.0311339018883661E+00 
    1.0021032764954383E+00 
    9.6204104115894129E-01 
    9.1245708505741663E-01 
    8.5543579158522265E-01 
    7.9312455202652554E-01 
    7.2724225223532191E-01 
    6.5881942069814969E-01 
    5.8810205242449920E-01 
    5.1437053130654820E-01 
    4.3530212430868659E-01 
    3.4486746336372448E-01 
    2.2503229111163378E-01 
    0.0000000000000000E+00 

SCALARS Saturarion double 1 
LOOKUP_TABLE default 

    9.9999999603455858E-01 
    9.0616536349335697E-01 
    7.8841087146708944E-01 
    6.4934571918644513E-01 
    5.3176588477688691E-01 
    2.1896128053761776E-01 
    1.5546178143428267E-04 
    1.0000000011343124E-06 
    9.9999999999999995E-07 
    9.9999999999999995E-07 
    9.9999999999999995E-07 
    9.9999999999999995E-07 
    9.9999999999999995E-07 
    9.9999999999999995E-07 
    9.9999999999999995E-07 
    9.9999999999999995E-07 
    9.4976253529135746E-01 
    8.6763537144153813E-01 
    7.5921071396749895E-01 
    6.3528566460938307E-01 
    5.1954868067703086E-01 
    2.0306445981455007E-01 
    7.8094465478654212E-05 
    1.0000177358342701E-06 
    1.0000000000092563E-06 
    9.9999999999999995E-07 
    9.9999999999999995E-07 
    9.9999999999999995E-07 
    9.9999999999999995E-07 
    9.9999999999999995E-07 
    9.9999999999999995E-07 
    9.9999999999999995E-07 
    8.6386753089030122E-01 
    8.0467139137650989E-01 
    7.1190895469321691E-01 
    6.1373677702576368E-01 
    5.0126831018852380E-01 
    1.7346916620919539E-01 
    3.1049537077910710E-05 
    1.0001079201114843E-06 
    1.0000000001066793E-06 
    9.9999999999999974E-07 
    9.9999999999999995E-07 
    9.9999999999999995E-07 
    9.9999999999999995E-07 
    9.9999999999999995E-07 
    9.9999999999999995E-07 
    9.9999999999999995E-07 
    7.6163173521822636E-01 
    7.2205655294760218E-01 
    6.5666607368590169E-01 
    5.8978452300753625E-01 
    4.8033201185130847E-01 
    1.3700991931701784E-01 
    3.6716894758821389E-05 
    1.0002953790888358E-06 
    1.0000000001644290E-06 
    9.9999999999999995E-07 
    9.9999999999999995E-07 
    9.9999999999999995E-07 
    9.9999999999999995E-07 
    9.9999999999999995E-07 
    9.9999999999999995E-07 
    9.9999999999999995E-07 
    6.8299551998726171E-01 
    6.5734821890003858E-01 
    6.1191443767589326E-01 
    5.6132274553301287E-01 
    4.4630015763776709E-01 
    8.5488664298488670E-02 
    6.1199028573444183E-05 
    1.0004636954505126E-06 
    1.0000000000456095E-06 
    9.9999999999999995E-07 
    9.9999999999999995E-07 
    9.9999999999999995E-07 
    9.9999999999999995E-07 
    9.9999999999999995E-07 
    9.9999999999999995E-07 
    9.9999999999999995E-07 
    6.2047552743296031E-01 
    6.0579600433165115E-01 
    5.7196336460671171E-01 
    5.2583475434723592E-01 
    3.7668239133058490E-01 
    2.8134715438104467E-02 
    2.5274734693480626E-05 
    1.0000657873102110E-06 
    1.0000000000000002E-06 
    9.9999999999999995E-07 
    9.9999999999999995E-07 
    9.9999999999999995E-07 
    9.9999999999999995E-07 
    9.9999999999999995E-07 
    9.9999999999999995E-07 
    9.9999999999999995E-07 
    5.7244030486496811E-01 
    5.6349486346232869E-01 
    5.3391589288574737E-01 
    4.8177169433870426E-01 
    2.4586933496856522E-01 
    2.3640000601058250E-03 
    1.2117334856066183E-06 
    1.0000000545158170E-06 
    1.0000000000000002E-06 
    9.9999999999999995E-07 
    9.9999999999999995E-07 
    9.9999999999999995E-07 
    9.9999999999999995E-07 
    9.9999999999999995E-07 
    9.9999999999999995E-07 
    9.9999999999999995E-07 
    5.2964171412543470E-01 
    5.2105127661035089E-01 
    4.9115487060678481E-01 
    3.8642353591710094E-01 
    7.9381760482229280E-02 
    1.8367806981743929E-04 
    1.0057633137459332E-06 
    1.0000000000000086E-06 
    9.9999999999999995E-07 
    9.9999999999999995E-07 
    9.9999999999999995E-07 
    9.9999999999999995E-07 
    9.9999999999999995E-07 
    9.9999999999999995E-07 
    9.9999999999999995E-07 
    9.9999999999999995E-07 
    4.5406856763896458E-01 
    4.4378005484837679E-01 
    3.7085043365216613E-01 
    1.4053546126944827E-01 
    1.3163264720333168E-03 
    1.0412849748101654E-06 
    1.0000000101202014E-06 
    1.0000000000000025E-06 
    9.9999999999999995E-07 
    9.9999999999999995E-07 
    9.9999999999999995E-07 
    9.9999999999999995E-07 
    9.9999999999999995E-07 
    9.9999999999999995E-07 
    9.9999999999999995E-07 
    9.9999999999999995E-07 
    1.6025188584953898E-01 
    1.4940259991357199E-01 
    5.3292049229627998E-02 
    7.9314742736579771E-04 
    1.2442500587034810E-06 
    1.0000000509562908E-06 
    1.0000000000000088E-06 
    9.9999999999999995E-07 
    9.9999999999999995E-07 
    9.9999999999999995E-07 
    9.9999999999999995E-07 
    9.9999999999999995E-07 
    9.9999999999999995E-07 
    9.9999999999999995E-07 
    9.9999999999999995E-07 
    9.9999999999999995E-07 
    1.0005913332453374E-06 
    2.2464740391254901E-05 
    1.0096895309437919E-04 
    1.0616681622674325E-06 
    1.0000000477596162E-06 
    1.0000000000000182E-06 
    9.9999999999999995E-07 
    9.9999999999999995E-07 
    9.9999999999999995E-07 
    9.9999999999999995E-07 
    9.9999999999999995E-07 
    9.9999999999999995E-07 
    9.9999999999999995E-07 
    9.9999999999999995E-07 
    9.9999999999999995E-07 
    9.9999999999999995E-07 
    1.0000000004768952E-06 
    1.0000805304414887E-06 
    1.0003454407149619E-06 
    1.0000000054908091E-06 
    1.0000000000000052E-06 
    9.9999999999999995E-07 
    9.9999999999999995E-07 
    9.9999999999999995E-07 
    9.9999999999999995E-07 
    9.9999999999999995E-07 
    9.9999999999999995E-07 
    9.9999999999999995E-07 
    9.9999999999999995E-07 
    9.9999999999999995E-07 
    9.9999999999999995E-07 
    9.9999999999999995E-07 
    9.9999999999999974E-07 
    1.0000000000286307E-06 
    1.0000000000192253E-06 
    1.0000000000000006E-06 
    9.9999999999999995E-07 
    9.9999999999999995E-07 
    9.9999999999999995E-07 
    9.9999999999999995E-07 
    9.9999999999999995E-07 
    9.9999999999999995E-07 
    9.9999999999999995E-07 
    9.9999999999999995E-07 
    9.9999999999999995E-07 
    9.9999999999999995E-07 
    9.9999999999999995E-07 
    9.9999999999999995E-07 
    9.9999999999999995E-07 
    9.9999999999999995E-07 
    9.9999999999999995E-07 
    9.9999999999999995E-07 
    9.9999999999999995E-07 
    9.9999999999999995E-07 
    9.9999999999999995E-07 
    9.9999999999999995E-07 
    9.9999999999999995E-07 
    9.9999999999999995E-07 
    9.9999999999999995E-07 
    9.9999999999999995E-07 
    9.9999999999999995E-07 
    9.9999999999999995E-07 
    9.9999999999999995E-07 
    9.9999999999999995E-07 
    9.9999999999999995E-07 
    9.9999999999999995E-07 
    9.9999999999999995E-07 
    9.9999999999999995E-07 
    9.9999999999999995E-07 
    9.9999999999999995E-07 
    9.9999999999999995E-07 
    9.9999999999999995E-07 
    9.9999999999999995E-07 
    9.9999999999999995E-07 
    9.9999999999999995E-07 
    9.9999999999999995E-07 
    9.9999999999999995E-07 
    9.9999999999999995E-07 
    9.9999999999999995E-07 
    9.9999999999999995E-07 
    9.9999999999999995E-07 
    9.9999999999999995E-07 
    9.9999999999999995E-07 
    9.9999999999999995E-07 
    9.9999999999999995E-07 
    9.9999999999999995E-07 
    9.9999999999999995E-07 
    9.9999999999999995E-07 
    9.9999999999999995E-07 
    9.9999999999999995E-07 
    9.9999999999999995E-07 
    9.9999999999999995E-07 
    9.9999999999999995E-07 
    9.9999999999999995E-07 
    9.9999999999999995E-07 
    1.0000001276236201E-06 
