# vtk DataFile Version 2.0
Pressure Field Data 
ASCII 
DATASET UNSTRUCTURED_GRID 

POINTS 289 double 

    0.0000000000000000E+00     0.0000000000000000E+00     0.0000000000000000E+00 
    1.0000000000000000E+00     0.0000000000000000E+00     0.0000000000000000E+00 
    1.0000000000000000E+00     1.0000000000000000E+00     0.0000000000000000E+00 
    0.0000000000000000E+00     1.0000000000000000E+00     0.0000000000000000E+00 
    6.2499999999872928E-02     0.0000000000000000E+00     0.0000000000000000E+00 
    1.2499999999977310E-01     0.0000000000000000E+00     0.0000000000000000E+00 
    1.8749999999959341E-01     0.0000000000000000E+00     0.0000000000000000E+00 
    2.4999999999941089E-01     0.0000000000000000E+00     0.0000000000000000E+00 
    3.1249999999922851E-01     0.0000000000000000E+00     0.0000000000000000E+00 
    3.7499999999904610E-01     0.0000000000000000E+00     0.0000000000000000E+00 
    4.3749999999886358E-01     0.0000000000000000E+00     0.0000000000000000E+00 
    4.9999999999869210E-01     0.0000000000000000E+00     0.0000000000000000E+00 
    5.6249999999884603E-01     0.0000000000000000E+00     0.0000000000000000E+00 
    6.2499999999901090E-01     0.0000000000000000E+00     0.0000000000000000E+00 
    6.8749999999917577E-01     0.0000000000000000E+00     0.0000000000000000E+00 
    7.4999999999934064E-01     0.0000000000000000E+00     0.0000000000000000E+00 
    8.1249999999950551E-01     0.0000000000000000E+00     0.0000000000000000E+00 
    8.7499999999967026E-01     0.0000000000000000E+00     0.0000000000000000E+00 
    9.3749999999983513E-01     0.0000000000000000E+00     0.0000000000000000E+00 
    1.0000000000000000E+00     6.2499999999872928E-02     0.0000000000000000E+00 
    1.0000000000000000E+00     1.2499999999977310E-01     0.0000000000000000E+00 
    1.0000000000000000E+00     1.8749999999959341E-01     0.0000000000000000E+00 
    1.0000000000000000E+00     2.4999999999941089E-01     0.0000000000000000E+00 
    1.0000000000000000E+00     3.1249999999922851E-01     0.0000000000000000E+00 
    1.0000000000000000E+00     3.7499999999904610E-01     0.0000000000000000E+00 
    1.0000000000000000E+00     4.3749999999886358E-01     0.0000000000000000E+00 
    1.0000000000000000E+00     4.9999999999869210E-01     0.0000000000000000E+00 
    1.0000000000000000E+00     5.6249999999884603E-01     0.0000000000000000E+00 
    1.0000000000000000E+00     6.2499999999901090E-01     0.0000000000000000E+00 
    1.0000000000000000E+00     6.8749999999917577E-01     0.0000000000000000E+00 
    1.0000000000000000E+00     7.4999999999934064E-01     0.0000000000000000E+00 
    1.0000000000000000E+00     8.1249999999950551E-01     0.0000000000000000E+00 
    1.0000000000000000E+00     8.7499999999967026E-01     0.0000000000000000E+00 
    1.0000000000000000E+00     9.3749999999983513E-01     0.0000000000000000E+00 
    9.3749999999973976E-01     1.0000000000000000E+00     0.0000000000000000E+00 
    8.7499999999950118E-01     1.0000000000000000E+00     0.0000000000000000E+00 
    8.1249999999991318E-01     1.0000000000000000E+00     0.0000000000000000E+00 
    7.5000000000034706E-01     1.0000000000000000E+00     0.0000000000000000E+00 
    6.8750000000078049E-01     1.0000000000000000E+00     0.0000000000000000E+00 
    6.2500000000121403E-01     1.0000000000000000E+00     0.0000000000000000E+00 
    5.6250000000164757E-01     1.0000000000000000E+00     0.0000000000000000E+00 
    5.0000000000205946E-01     1.0000000000000000E+00     0.0000000000000000E+00 
    4.3750000000182099E-01     1.0000000000000000E+00     0.0000000000000000E+00 
    3.7500000000156092E-01     1.0000000000000000E+00     0.0000000000000000E+00 
    3.1250000000130068E-01     1.0000000000000000E+00     0.0000000000000000E+00 
    2.5000000000104050E-01     1.0000000000000000E+00     0.0000000000000000E+00 
    1.8750000000078040E-01     1.0000000000000000E+00     0.0000000000000000E+00 
    1.2500000000052031E-01     1.0000000000000000E+00     0.0000000000000000E+00 
    6.2500000000260125E-02     1.0000000000000000E+00     0.0000000000000000E+00 
    0.0000000000000000E+00     9.3749999999973976E-01     0.0000000000000000E+00 
    0.0000000000000000E+00     8.7499999999950118E-01     0.0000000000000000E+00 
    0.0000000000000000E+00     8.1249999999991318E-01     0.0000000000000000E+00 
    0.0000000000000000E+00     7.5000000000034706E-01     0.0000000000000000E+00 
    0.0000000000000000E+00     6.8750000000078049E-01     0.0000000000000000E+00 
    0.0000000000000000E+00     6.2500000000121403E-01     0.0000000000000000E+00 
    0.0000000000000000E+00     5.6250000000164757E-01     0.0000000000000000E+00 
    0.0000000000000000E+00     5.0000000000205946E-01     0.0000000000000000E+00 
    0.0000000000000000E+00     4.3750000000182099E-01     0.0000000000000000E+00 
    0.0000000000000000E+00     3.7500000000156092E-01     0.0000000000000000E+00 
    0.0000000000000000E+00     3.1250000000130068E-01     0.0000000000000000E+00 
    0.0000000000000000E+00     2.5000000000104050E-01     0.0000000000000000E+00 
    0.0000000000000000E+00     1.8750000000078040E-01     0.0000000000000000E+00 
    0.0000000000000000E+00     1.2500000000052031E-01     0.0000000000000000E+00 
    0.0000000000000000E+00     6.2500000000260125E-02     0.0000000000000000E+00 
    6.2499999999897131E-02     6.2500000000235922E-02     0.0000000000000000E+00 
    6.2499999999921327E-02     1.2500000000047351E-01     0.0000000000000000E+00 
    6.2499999999945530E-02     1.8750000000070621E-01     0.0000000000000000E+00 
    6.2499999999969733E-02     2.5000000000093858E-01     0.0000000000000000E+00 
    6.2499999999993928E-02     3.1250000000117117E-01     0.0000000000000000E+00 
    6.2500000000018124E-02     3.7500000000140382E-01     0.0000000000000000E+00 
    6.2500000000042327E-02     4.3750000000163619E-01     0.0000000000000000E+00 
    6.2500000000066530E-02     5.0000000000184897E-01     0.0000000000000000E+00 
    6.2500000000090733E-02     5.6250000000147260E-01     0.0000000000000000E+00 
    6.2500000000114922E-02     6.2500000000107636E-01     0.0000000000000000E+00 
    6.2500000000139125E-02     6.8750000000068034E-01     0.0000000000000000E+00 
    6.2500000000163328E-02     7.5000000000028411E-01     0.0000000000000000E+00 
    6.2500000000187531E-02     8.1249999999988787E-01     0.0000000000000000E+00 
    6.2500000000211720E-02     8.7499999999951172E-01     0.0000000000000000E+00 
    6.2500000000235922E-02     9.3749999999974565E-01     0.0000000000000000E+00 
    1.2499999999981980E-01     6.2500000000211733E-02     0.0000000000000000E+00 
    1.2499999999986650E-01     1.2500000000042691E-01     0.0000000000000000E+00 
    1.2499999999991319E-01     1.8750000000063199E-01     0.0000000000000000E+00 
    1.2499999999995989E-01     2.5000000000083678E-01     0.0000000000000000E+00 
    1.2500000000000661E-01     3.1250000000104172E-01     0.0000000000000000E+00 
    1.2500000000005329E-01     3.7500000000124661E-01     0.0000000000000000E+00 
    1.2500000000010000E-01     4.3750000000145117E-01     0.0000000000000000E+00 
    1.2500000000014669E-01     5.0000000000163858E-01     0.0000000000000000E+00 
    1.2500000000019340E-01     5.6250000000129741E-01     0.0000000000000000E+00 
    1.2500000000024011E-01     6.2500000000093847E-01     0.0000000000000000E+00 
    1.2500000000028680E-01     6.8750000000057998E-01     0.0000000000000000E+00 
    1.2500000000033351E-01     7.5000000000022127E-01     0.0000000000000000E+00 
    1.2500000000038020E-01     8.1249999999986211E-01     0.0000000000000000E+00 
    1.2500000000042691E-01     8.7499999999952238E-01     0.0000000000000000E+00 
    1.2500000000047359E-01     9.3749999999975164E-01     0.0000000000000000E+00 
    1.8749999999966760E-01     6.2500000000187531E-02     0.0000000000000000E+00 
    1.8749999999974179E-01     1.2500000000038020E-01     0.0000000000000000E+00 
    1.8749999999981601E-01     1.8750000000055780E-01     0.0000000000000000E+00 
    1.8749999999989009E-01     2.5000000000073502E-01     0.0000000000000000E+00 
    1.8749999999996431E-01     3.1250000000091221E-01     0.0000000000000000E+00 
    1.8750000000003850E-01     3.7500000000108941E-01     0.0000000000000000E+00 
    1.8750000000011269E-01     4.3750000000126649E-01     0.0000000000000000E+00 
    1.8750000000018691E-01     5.0000000000142808E-01     0.0000000000000000E+00 
    1.8750000000026110E-01     5.6250000000112244E-01     0.0000000000000000E+00 
    1.8750000000033529E-01     6.2500000000080080E-01     0.0000000000000000E+00 
    1.8750000000040951E-01     6.8750000000047962E-01     0.0000000000000000E+00 
    1.8750000000048361E-01     7.5000000000015843E-01     0.0000000000000000E+00 
    1.8750000000055780E-01     8.1249999999983680E-01     0.0000000000000000E+00 
    1.8750000000063199E-01     8.7499999999953304E-01     0.0000000000000000E+00 
    1.8750000000070621E-01     9.3749999999975764E-01     0.0000000000000000E+00 
    2.4999999999951281E-01     6.2500000000163314E-02     0.0000000000000000E+00 
    2.4999999999961461E-01     1.2500000000033351E-01     0.0000000000000000E+00 
    2.4999999999971650E-01     1.8750000000048361E-01     0.0000000000000000E+00 
    2.4999999999981831E-01     2.5000000000063310E-01     0.0000000000000000E+00 
    2.4999999999992020E-01     3.1250000000078260E-01     0.0000000000000000E+00 
    2.5000000000002198E-01     3.7500000000093209E-01     0.0000000000000000E+00 
    2.5000000000012390E-01     4.3750000000108180E-01     0.0000000000000000E+00 
    2.5000000000022571E-01     5.0000000000121769E-01     0.0000000000000000E+00 
    2.5000000000032763E-01     5.6250000000094724E-01     0.0000000000000000E+00 
    2.5000000000042938E-01     6.2500000000066314E-01     0.0000000000000000E+00 
    2.5000000000053119E-01     6.8750000000037925E-01     0.0000000000000000E+00 
[...]
CELL_DATA 256 
SCALARS Pressure double 1 
LOOKUP_TABLE default 

    6.5261106438242400E-01 
    6.0315055711291043E-01 
    5.7197706019615113E-01 
    5.4405510199636598E-01 
    5.1594893302343459E-01 
    4.8678925747311469E-01 
    4.5629764157935243E-01 
    4.2449902006785278E-01 
    3.9164276708182222E-01 
    3.5823214395268532E-01 
    3.2512909798991496E-01 
    2.9369735606484798E-01 
    2.6588502529749286E-01 
    2.4403264973507538E-01 
    2.3011668210363745E-01 
    2.2347873214064101E-01 
    6.3861523130255360E-01 
    6.0438591555731158E-01 
    5.7429551298480108E-01 
    5.4658464938633189E-01 
    5.1865066093024248E-01 
    4.8965148702241884E-01 
    4.5930517681788391E-01 
    4.2761930975850965E-01 
    3.9481625993687258E-01 
    3.6135972803901661E-01 
    3.2805628000074499E-01 
    2.9620587613191279E-01 
    2.6771884785107070E-01 
    2.4499182233138933E-01 
    2.3023930025735512E-01 
    2.2308526587495708E-01 
    6.2787707232275025E-01 
    6.0349760059954016E-01 
    5.7587626993091856E-01 
    5.4879643527362709E-01 
    5.2117227906836106E-01 
    4.9238673564513541E-01 
    4.6220523648001161E-01 
    4.3063282819447191E-01 
    3.9786540239976198E-01 
    3.6432052268841547E-01 
    3.3073712685376766E-01 
    2.9833680494036391E-01 
    2.6898815319780733E-01 
    2.4517841851665639E-01 
    2.2944997572498857E-01 
    2.2182677671518522E-01 
    6.1945843482604945E-01 
    6.0154806998755295E-01 
    5.7676255705421375E-01 
    5.5066759848698743E-01 
    5.2350433134602969E-01 
    4.9499755294746994E-01 
    4.6500713874337424E-01 
    4.3355347721265436E-01 
    4.0081050191702872E-01 
    3.6714535644380331E-01 
    3.3321745723708407E-01 
    3.0015098056464623E-01 
    2.6975520965660499E-01 
    2.4462223786148887E-01 
    2.2770714377878842E-01 
    2.1957562373639178E-01 
    6.1272293823328994E-01 
    5.9913310160368305E-01 
    5.7708882047515619E-01 
    5.5220705059395547E-01 
    5.2564224943630777E-01 
    4.9748489018525860E-01 
    4.6771927847110129E-01 
    4.3639645989609599E-01 
    4.0367452825227140E-01 
    3.6986850399444693E-01 
    3.3554746500371563E-01 
    3.0171565151466373E-01 
    2.7009158295471852E-01 
    2.4336037179921968E-01 
    2.2496422120311108E-01 
    2.1619460480868791E-01 
    6.0726377571408507E-01 
    5.9659570213234014E-01 
    5.7700574801906424E-01 
    5.5344782330849840E-01 
    5.2758983053657782E-01 
    4.9984968217280668E-01 
    4.7034775000363549E-01 
    4.3917585054892777E-01 
    4.0648118371478781E-01 
    3.7252657480648571E-01 
    3.3778173925229282E-01 
    3.0310559068257764E-01 
    2.7008082840182124E-01 
    2.4144288624050061E-01 
    2.2117173001344351E-01 
    2.1152155616210003E-01 
    6.0281093330661706E-01 
    5.9414064382344711E-01 
    5.7665922368298428E-01 
    5.5444236298434857E-01 
    5.2936500764061922E-01 
    5.0209989667179877E-01 
    4.7289996907813853E-01 
    4.4190434551367608E-01 
    4.0925275831694913E-01 
    3.7515648219967085E-01 
    3.3997832494016367E-01 
    3.0440455504013891E-01 
    2.6982274175396481E-01 
    2.3894168919413272E-01 
    2.1628886261193919E-01 
    2.0537257433765280E-01 
    5.9917364795815009E-01 
    5.9188714916030638E-01 
    5.7617622828764459E-01 
    5.5525314818528670E-01 
    5.3099629165326467E-01 
    5.0425060169718205E-01 
    4.7538697317559964E-01 
    4.4459441388688015E-01 
    4.1200922801999640E-01 
    3.7779222025586368E-01 
    3.4219529422286887E-01 
    3.0570465280835851E-01 
    2.6943859490369515E-01 
    2.3595980084266027E-01 
    2.1029133573064906E-01 
    1.9753165389545632E-01 
    5.9621475175296845E-01 
    5.8990125713587704E-01 
    5.7566006149590598E-01 
    5.5594497211473248E-01 
    5.3251710380723594E-01 
    5.0632021460019516E-01 
    4.7782152847349524E-01 
    4.4725872163967756E-01 
    4.1476744414866978E-01 
    3.8046219406598569E-01 
    3.4448548341771779E-01 
    3.0710123409621765E-01 
    2.6907305219817657E-01 
    2.3264249277869842E-01 
    2.0317683121886340E-01 
    1.8772208150466135E-01 
    5.9383364146749340E-01 
    5.8821545782409501E-01 
    5.7518901624406416E-01 
    5.5657787227520983E-01 
    5.3396314585203153E-01 
    5.0832927785504134E-01 
    4.8021740283612119E-01 
    4.4991020805447102E-01 
    4.1754293600204212E-01 
    3.8318987161545887E-01 
    3.4689390665255321E-01 
    3.0868651647740392E-01 
    2.6889120028680963E-01 
    2.2919134142113493E-01 
    1.9498624543198217E-01 
    1.7557764236049245E-01 
    5.9195497651661944E-01 
    5.8684476755728043E-01 
    5.7482477469033499E-01 
    5.5720798056592302E-01 
    5.3537249951346677E-01 
    5.1030175100510378E-01 
    4.8259073225528959E-01 
    4.5256339011271424E-01 
    4.2035200828115088E-01 
    3.8599631249013239E-01 
    3.4945835345121756E-01 
    3.1054598391667410E-01 
    2.6907511920159188E-01 
    2.2587995463578725E-01 
    1.8584470366463815E-01 
    1.6061540680253586E-01 
    5.9051749877212945E-01 
    5.8579562683979869E-01 
    5.7461812681637370E-01 
    5.5788761348785287E-01 
    5.3678444774179424E-01 
    5.1226497693701978E-01 
    4.8496150922213721E-01 
    4.5523574045951332E-01 
    4.2321294184901709E-01 
    3.8890115673090780E-01 
    3.5220963655659870E-01 
    3.1275438393849397E-01 
    2.6981818776057842E-01 
    2.2307233535084428E-01 
    1.7602510098169619E-01 
    1.4216005507926996E-01 
    5.8947553190528101E-01 
    5.8507356760923723E-01 
    5.7461282274964842E-01 
    5.5866652466834388E-01 
    5.3823947319351162E-01 
    5.1424946895880297E-01 
    4.8735259683840160E-01 
    4.5794768647321205E-01 
    4.2614557993348762E-01 
    3.9192261882563423E-01 
    3.5517119647342593E-01 
    3.1536971182262663E-01 
    2.7130900771882094E-01 
    2.2124720284581806E-01 
    1.6609088127596511E-01 
    1.1922795408978183E-01 
    5.8880272107003251E-01 
    5.8469253295607959E-01 
    5.7485371729179469E-01 
    5.5959708462531177E-01 
    5.3978295400376930E-01 
    5.1628909395013922E-01 
    4.8978677799687947E-01 
    4.6071818787215063E-01 
    4.2916853056302873E-01 
    3.9507090369853470E-01 
    3.5834699032294243E-01 
    3.1841506737140951E-01 
    2.7369384116425194E-01 
    2.2096283356965254E-01 
    1.5710258329435600E-01 
    9.0315568089944287E-02 
    5.8840352563348564E-01 
    5.8460538544410967E-01 
    5.7534157236443162E-01 
    5.6069918657764806E-01 
    5.4143115397365649E-01 
    5.1838407816754628E-01 
    4.9224245849329612E-01 
    4.6350102530774900E-01 
    4.3222209265018274E-01 
    3.9828484102541023E-01 
    3.6165249708759678E-01 
    3.2177398989592632E-01 
    2.7690988604831268E-01 
    2.2258739797477090E-01 
    1.5082590451793890E-01 
    5.2958984028109370E-02 
    5.8826778993978146E-01 
    5.8480078631843402E-01 
    5.7607392457316797E-01 
    5.6198419170281289E-01 
    5.4320175193285747E-01 
    5.2055448436832275E-01 
    4.9473309509136454E-01 
    4.6628719705813165E-01 
    4.3528360106477482E-01 
    4.0158563874182629E-01 
    3.6516301987525096E-01 
    3.2553741353343751E-01 
    2.8107102638715387E-01 
    2.2651786661893808E-01 
    1.5029422597574410E-01 
    0.0000000000000000E+00 

SCALARS Saturarion double 1 
LOOKUP_TABLE default 

    1.0000000000000002E+00 
    9.7901179604233390E-01 
    9.4041093480925575E-01 
    8.8695499100901520E-01 
    8.4235387159519237E-01 
    8.0294569982716568E-01 
    7.6827708889743695E-01 
    7.3786428397079706E-01 
    7.1085047119971212E-01 
    6.8628346781607064E-01 
    6.6317519585163875E-01 
    6.4031257171225919E-01 
    6.1575415617826523E-01 
    5.8575894356060476E-01 
    5.4056076893185356E-01 
    3.2124033722498591E-01 
    9.9228361411002941E-01 
    9.7243827753077294E-01 
    9.3193621525050663E-01 
    8.8090441953575116E-01 
    8.3734863783716162E-01 
    7.9919140355937934E-01 
    7.6554870583559975E-01 
    7.3579198232307796E-01 
    7.0924689633477012E-01 
    6.8506952001662025E-01 
    6.6247144182459894E-01 
    6.4038430252835377E-01 
    6.1686336762767091E-01 
    5.8788171561262603E-01 
    5.4446679150132571E-01 
    3.4206611097761874E-01 
    9.8007144291870352E-01 
    9.6009892618809656E-01 
    9.1929149617096384E-01 
    8.6981562413184488E-01 
    8.2745265296698634E-01 
    7.9138150331094193E-01 
    7.5983972646413933E-01 
    7.3151761095521750E-01 
    7.0583158017029757E-01 
    6.8223378140088065E-01 
    6.6021977441268709E-01 
    6.3898878132722714E-01 
    6.1700527923637016E-01 
    5.9029000903907736E-01 
    5.4985520119986697E-01 
    3.6145840507796712E-01 
    9.5879146456769071E-01 
    9.4189994019842227E-01 
    9.0368411397876258E-01 
    8.5812665917572795E-01 
    8.1647614719349970E-01 
    7.8117144025828211E-01 
    7.5087492866827277E-01 
    7.2420900381370878E-01 
    7.0005977509400397E-01 
    6.7791146163306248E-01 
    6.5711516558576555E-01 
    6.3702049443950770E-01 
    6.1644831470684636E-01 
    5.9215476688135149E-01 
    5.5517880484066962E-01 
    3.8043188321401356E-01 
    9.3243856787360047E-01 
    9.1726774191880200E-01 
    8.8283305249131927E-01 
    8.4172556357043982E-01 
    8.0207001001404277E-01 
    7.6743521025310890E-01 
    7.3801768110537758E-01 
    7.1271677611005235E-01 
    6.9048320458482382E-01 
    6.7050222898233602E-01 
    6.5209206535170938E-01 
    6.3428198364334742E-01 
    6.1561843192966836E-01 
    5.9346622981806207E-01 
    5.5975478237976128E-01 
    3.9642666524509995E-01 
    9.0227301592705944E-01 
    8.8948025298796529E-01 
    8.5937315490740274E-01 
    8.2192838175092597E-01 
    7.8510330891615987E-01 
    7.5212153773189705E-01 
    7.2348977785360469E-01 
    6.9905114562623427E-01 
    6.7810610225911727E-01 
    6.5993844463876883E-01 
    6.4395972060550533E-01 
    6.2936258717924509E-01 
    6.1402014051681464E-01 
    5.9445135905803714E-01 
    5.6373375308068641E-01 
    4.1105673879929849E-01 
    8.6921267953541792E-01 
    8.5941403028377472E-01 
    8.3389103536913323E-01 
    8.0026654694929666E-01 
    7.6662105713715489E-01 
    7.3597940038513066E-01 
    7.0898965764112742E-01 
    6.8530655781861605E-01 
    6.6497873209080194E-01 
    6.4784511877972606E-01 
    6.3365921551437154E-01 
    6.2184139611984135E-01 
    6.1058528763127962E-01 
    5.9504408021796140E-01 
    5.6769859377380971E-01 
    4.2551645159995799E-01 
    8.3310123900473843E-01 
    8.2672062871091412E-01 
    8.0650132950800213E-01 
    7.7734421440398416E-01 
    7.4672688798410569E-01 
    7.1829812981511265E-01 
    6.9282345593541717E-01 
    6.7048393196903222E-01 
    6.5115178370738769E-01 
    6.3493632031432934E-01 
    6.2189479489020960E-01 
    6.1218534768364707E-01 
    6.0470203418845303E-01 
    5.9446871755206765E-01 
    5.7151704543031945E-01 
    4.4012190060190681E-01 
    7.9399408583723030E-01 
    7.9103200900752935E-01 
    7.7613847590323715E-01 
    7.5186894472952881E-01 
    7.2478030914904268E-01 
    6.9853379228267476E-01 
    6.7468901859952801E-01 
    6.5358182562601475E-01 
    6.3533056633641527E-01 
    6.2004377367712327E-01 
    6.0814820338767772E-01 
    6.0021633607135827E-01 
    5.9613376738358659E-01 
    5.9175802286767054E-01 
    5.7472458892500089E-01 
    4.5411783954432156E-01 
    7.5193763349675613E-01 
    7.5224361092886904E-01 
    7.4243695433050139E-01 
    7.2288128415539898E-01 
    6.9957245519105216E-01 
    6.7598684811578280E-01 
    6.5382475423080622E-01 
    6.3421428022241844E-01 
    6.1731238262078680E-01 
    6.0308499418650752E-01 
    5.9196287869972275E-01 
    5.8532251462426410E-01 
    5.8427499240785441E-01 
    5.8607740084615689E-01 
    5.7657458996614841E-01 
    4.6804724466147396E-01 
    7.0660253318608024E-01 
    7.0999578720403711E-01 
    7.0499402323847871E-01 
    6.8985211520217948E-01 
    6.7036022308565490E-01 
    6.4995317731652513E-01 
    6.3041665955430171E-01 
    6.1247132354247968E-01 
    5.9691259694975940E-01 
    5.8394537709592143E-01 
    5.7386601310983520E-01 
    5.6784517429720327E-01 
    5.6849167544079449E-01 
    5.7626306600606159E-01 
    5.7595138471337504E-01 
    4.8217766340786811E-01 
    6.5657474043927544E-01 
    6.6302445038337987E-01 
    6.6299423197346508E-01 
    6.5238708779006926E-01 
    6.3649592684667922E-01 
    6.1906411932984606E-01 
    6.0212162254417345E-01 
    5.8673366901278523E-01 
    5.7322931988966441E-01 
    5.6189546597853457E-01 
    5.5319676682447949E-01 
    5.4834319930122410E-01 
    5.4958581491638503E-01 
    5.6105493594217859E-01 
    5.7135237648924031E-01 
    4.9530960424052289E-01 
    6.0167110460745243E-01 
    6.1054302225099044E-01 
    6.1494961143081728E-01 
    6.0906464077124178E-01 
    5.9751358893088924E-01 
    5.8355956095208084E-01 
    5.6967537266746604E-01 
    5.5659811198400388E-01 
    5.4501735596175227E-01 
    5.3534737088999351E-01 
    5.2843049194388880E-01 
    5.2521182968431923E-01 
    5.2776495083104880E-01 
    5.4066230915137214E-01 
    5.6282806527149309E-01 
    5.0619474552415189E-01 
    5.4472553553776348E-01 
    5.5549811054820719E-01 
    5.6295180414695678E-01 
    5.6133387814808200E-01 
    5.5365787369356489E-01 
    5.4255429846304282E-01 
    5.3008965286973742E-01 
    5.1810006345957516E-01 
    5.0687049662584494E-01 
    4.9791426396079802E-01 
    4.8986065445976296E-01 
    4.8716363650618605E-01 
    4.9440144100713335E-01 
    5.1325767826393909E-01 
    5.4496786413391629E-01 
    5.1261135492931142E-01 
    3.9311355284576965E-01 
    4.3036253824929027E-01 
    4.5596407793583815E-01 
    4.6341039783081917E-01 
    4.5867989802947651E-01 
    4.4528726482248632E-01 
    4.2363486924897126E-01 
    3.9416326047097217E-01 
    3.3920550879693767E-01 
    2.8425119570398100E-01 
    2.8485173535538827E-01 
    2.9615196031095714E-01 
    3.3332581421811536E-01 
    4.0891315915763510E-01 
    5.0437191590587560E-01 
    5.1412281513389291E-01 
    1.6187121502044516E-02 
    6.7182793836904564E-02 
    9.2434146700611827E-02 
    1.1082365218722619E-01 
    7.8580252317273364E-02 
    6.5552727540087369E-02 
    3.5820546052614817E-02 
    1.5516469950387333E-02 
    6.8644562585840081E-03 
    7.2466659621763516E-04 
    2.1656394093921721E-03 
    1.2158713848596805E-03 
    1.2223091945543680E-02 
    1.6840431079731052E-01 
    3.3182800139463109E-01 
    4.6325171756724803E-01 
