# vtk DataFile Version 2.0
Pressure Field Data 
ASCII 
DATASET UNSTRUCTURED_GRID 

POINTS 289 double 

    0.0000000000000000E+00     0.0000000000000000E+00     0.0000000000000000E+00 
    1.0000000000000000E+00     0.0000000000000000E+00     0.0000000000000000E+00 
    1.0000000000000000E+00     1.0000000000000000E+00     0.0000000000000000E+00 
    0.0000000000000000E+00     1.0000000000000000E+00     0.0000000000000000E+00 
    6.2499999999872928E-02     0.0000000000000000E+00     0.0000000000000000E+00 
    1.2499999999977310E-01     0.0000000000000000E+00     0.0000000000000000E+00 
    1.8749999999959341E-01     0.0000000000000000E+00     0.0000000000000000E+00 
    2.4999999999941089E-01     0.0000000000000000E+00     0.0000000000000000E+00 
    3.1249999999922851E-01     0.0000000000000000E+00     0.0000000000000000E+00 
    3.7499999999904610E-01     0.0000000000000000E+00     0.0000000000000000E+00 
    4.3749999999886358E-01     0.0000000000000000E+00     0.0000000000000000E+00 
    4.9999999999869210E-01     0.0000000000000000E+00     0.0000000000000000E+00 
    5.6249999999884603E-01     0.0000000000000000E+00     0.0000000000000000E+00 
    6.2499999999901090E-01     0.0000000000000000E+00     0.0000000000000000E+00 
    6.8749999999917577E-01     0.0000000000000000E+00     0.0000000000000000E+00 
    7.4999999999934064E-01     0.0000000000000000E+00     0.0000000000000000E+00 
    8.1249999999950551E-01     0.0000000000000000E+00     0.0000000000000000E+00 
    8.7499999999967026E-01     0.0000000000000000E+00     0.0000000000000000E+00 
    9.3749999999983513E-01     0.0000000000000000E+00     0.0000000000000000E+00 
    1.0000000000000000E+00     6.2499999999872928E-02     0.0000000000000000E+00 
    1.0000000000000000E+00     1.2499999999977310E-01     0.0000000000000000E+00 
    1.0000000000000000E+00     1.8749999999959341E-01     0.0000000000000000E+00 
    1.0000000000000000E+00     2.4999999999941089E-01     0.0000000000000000E+00 
    1.0000000000000000E+00     3.1249999999922851E-01     0.0000000000000000E+00 
    1.0000000000000000E+00     3.7499999999904610E-01     0.0000000000000000E+00 
    1.0000000000000000E+00     4.3749999999886358E-01     0.0000000000000000E+00 
    1.0000000000000000E+00     4.9999999999869210E-01     0.0000000000000000E+00 
    1.0000000000000000E+00     5.6249999999884603E-01     0.0000000000000000E+00 
    1.0000000000000000E+00     6.2499999999901090E-01     0.0000000000000000E+00 
    1.0000000000000000E+00     6.8749999999917577E-01     0.0000000000000000E+00 
    1.0000000000000000E+00     7.4999999999934064E-01     0.0000000000000000E+00 
    1.0000000000000000E+00     8.1249999999950551E-01     0.0000000000000000E+00 
    1.0000000000000000E+00     8.7499999999967026E-01     0.0000000000000000E+00 
    1.0000000000000000E+00     9.3749999999983513E-01     0.0000000000000000E+00 
    9.3749999999973976E-01     1.0000000000000000E+00     0.0000000000000000E+00 
    8.7499999999950118E-01     1.0000000000000000E+00     0.0000000000000000E+00 
    8.1249999999991318E-01     1.0000000000000000E+00     0.0000000000000000E+00 
    7.5000000000034706E-01     1.0000000000000000E+00     0.0000000000000000E+00 
    6.8750000000078049E-01     1.0000000000000000E+00     0.0000000000000000E+00 
    6.2500000000121403E-01     1.0000000000000000E+00     0.0000000000000000E+00 
    5.6250000000164757E-01     1.0000000000000000E+00     0.0000000000000000E+00 
    5.0000000000205946E-01     1.0000000000000000E+00     0.0000000000000000E+00 
    4.3750000000182099E-01     1.0000000000000000E+00     0.0000000000000000E+00 
    3.7500000000156092E-01     1.0000000000000000E+00     0.0000000000000000E+00 
    3.1250000000130068E-01     1.0000000000000000E+00     0.0000000000000000E+00 
    2.5000000000104050E-01     1.0000000000000000E+00     0.0000000000000000E+00 
    1.8750000000078040E-01     1.0000000000000000E+00     0.0000000000000000E+00 
    1.2500000000052031E-01     1.0000000000000000E+00     0.0000000000000000E+00 
    6.2500000000260125E-02     1.0000000000000000E+00     0.0000000000000000E+00 
    0.0000000000000000E+00     9.3749999999973976E-01     0.0000000000000000E+00 
    0.0000000000000000E+00     8.7499999999950118E-01     0.0000000000000000E+00 
    0.0000000000000000E+00     8.1249999999991318E-01     0.0000000000000000E+00 
    0.0000000000000000E+00     7.5000000000034706E-01     0.0000000000000000E+00 
    0.0000000000000000E+00     6.8750000000078049E-01     0.0000000000000000E+00 
    0.0000000000000000E+00     6.2500000000121403E-01     0.0000000000000000E+00 
    0.0000000000000000E+00     5.6250000000164757E-01     0.0000000000000000E+00 
    0.0000000000000000E+00     5.0000000000205946E-01     0.0000000000000000E+00 
    0.0000000000000000E+00     4.3750000000182099E-01     0.0000000000000000E+00 
    0.0000000000000000E+00     3.7500000000156092E-01     0.0000000000000000E+00 
    0.0000000000000000E+00     3.1250000000130068E-01     0.0000000000000000E+00 
    0.0000000000000000E+00     2.5000000000104050E-01     0.0000000000000000E+00 
    0.0000000000000000E+00     1.8750000000078040E-01     0.0000000000000000E+00 
    0.0000000000000000E+00     1.2500000000052031E-01     0.0000000000000000E+00 
    0.0000000000000000E+00     6.2500000000260125E-02     0.0000000000000000E+00 
    6.2499999999897131E-02     6.2500000000235922E-02     0.0000000000000000E+00 
    6.2499999999921327E-02     1.2500000000047351E-01     0.0000000000000000E+00 
    6.2499999999945530E-02     1.8750000000070621E-01     0.0000000000000000E+00 
    6.2499999999969733E-02     2.5000000000093858E-01     0.0000000000000000E+00 
    6.2499999999993928E-02     3.1250000000117117E-01     0.0000000000000000E+00 
    6.2500000000018124E-02     3.7500000000140382E-01     0.0000000000000000E+00 
    6.2500000000042327E-02     4.3750000000163619E-01     0.0000000000000000E+00 
    6.2500000000066530E-02     5.0000000000184897E-01     0.0000000000000000E+00 
    6.2500000000090733E-02     5.6250000000147260E-01     0.0000000000000000E+00 
    6.2500000000114922E-02     6.2500000000107636E-01     0.0000000000000000E+00 
    6.2500000000139125E-02     6.8750000000068034E-01     0.0000000000000000E+00 
    6.2500000000163328E-02     7.5000000000028411E-01     0.0000000000000000E+00 
    6.2500000000187531E-02     8.1249999999988787E-01     0.0000000000000000E+00 
    6.2500000000211720E-02     8.7499999999951172E-01     0.0000000000000000E+00 
    6.2500000000235922E-02     9.3749999999974565E-01     0.0000000000000000E+00 
    1.2499999999981980E-01     6.2500000000211733E-02     0.0000000000000000E+00 
    1.2499999999986650E-01     1.2500000000042691E-01     0.0000000000000000E+00 
    1.2499999999991319E-01     1.8750000000063199E-01     0.0000000000000000E+00 
    1.2499999999995989E-01     2.5000000000083678E-01     0.0000000000000000E+00 
    1.2500000000000661E-01     3.1250000000104172E-01     0.0000000000000000E+00 
    1.2500000000005329E-01     3.7500000000124661E-01     0.0000000000000000E+00 
    1.2500000000010000E-01     4.3750000000145117E-01     0.0000000000000000E+00 
    1.2500000000014669E-01     5.0000000000163858E-01     0.0000000000000000E+00 
    1.2500000000019340E-01     5.6250000000129741E-01     0.0000000000000000E+00 
    1.2500000000024011E-01     6.2500000000093847E-01     0.0000000000000000E+00 
    1.2500000000028680E-01     6.8750000000057998E-01     0.0000000000000000E+00 
    1.2500000000033351E-01     7.5000000000022127E-01     0.0000000000000000E+00 
    1.2500000000038020E-01     8.1249999999986211E-01     0.0000000000000000E+00 
    1.2500000000042691E-01     8.7499999999952238E-01     0.0000000000000000E+00 
    1.2500000000047359E-01     9.3749999999975164E-01     0.0000000000000000E+00 
    1.8749999999966760E-01     6.2500000000187531E-02     0.0000000000000000E+00 
    1.8749999999974179E-01     1.2500000000038020E-01     0.0000000000000000E+00 
    1.8749999999981601E-01     1.8750000000055780E-01     0.0000000000000000E+00 
    1.8749999999989009E-01     2.5000000000073502E-01     0.0000000000000000E+00 
    1.8749999999996431E-01     3.1250000000091221E-01     0.0000000000000000E+00 
    1.8750000000003850E-01     3.7500000000108941E-01     0.0000000000000000E+00 
    1.8750000000011269E-01     4.3750000000126649E-01     0.0000000000000000E+00 
    1.8750000000018691E-01     5.0000000000142808E-01     0.0000000000000000E+00 
    1.8750000000026110E-01     5.6250000000112244E-01     0.0000000000000000E+00 
    1.8750000000033529E-01     6.2500000000080080E-01     0.0000000000000000E+00 
    1.8750000000040951E-01     6.8750000000047962E-01     0.0000000000000000E+00 
    1.8750000000048361E-01     7.5000000000015843E-01     0.0000000000000000E+00 
    1.8750000000055780E-01     8.1249999999983680E-01     0.0000000000000000E+00 
    1.8750000000063199E-01     8.7499999999953304E-01     0.0000000000000000E+00 
    1.8750000000070621E-01     9.3749999999975764E-01     0.0000000000000000E+00 
    2.4999999999951281E-01     6.2500000000163314E-02     0.0000000000000000E+00 
    2.4999999999961461E-01     1.2500000000033351E-01     0.0000000000000000E+00 
    2.4999999999971650E-01     1.8750000000048361E-01     0.0000000000000000E+00 
    2.4999999999981831E-01     2.5000000000063310E-01     0.0000000000000000E+00 
    2.4999999999992020E-01     3.1250000000078260E-01     0.0000000000000000E+00 
    2.5000000000002198E-01     3.7500000000093209E-01     0.0000000000000000E+00 
    2.5000000000012390E-01     4.3750000000108180E-01     0.0000000000000000E+00 
    2.5000000000022571E-01     5.0000000000121769E-01     0.0000000000000000E+00 
    2.5000000000032763E-01     5.6250000000094724E-01     0.0000000000000000E+00 
    2.5000000000042938E-01     6.2500000000066314E-01     0.0000000000000000E+00 
    2.5000000000053119E-01     6.8750000000037925E-01     0.0000000000000000E+00 
[...]
CELL_DATA 256 
SCALARS Pressure double 1 
LOOKUP_TABLE default 

    1.1717126456286999E+00 
    1.1588792263224885E+00 
    1.1433903685296072E+00 
    1.1275392458843059E+00 
    1.1141652752774791E+00 
    1.1016902258086649E+00 
    1.0871734687088865E+00 
    1.0739915108662597E+00 
    1.0617349021761802E+00 
    1.0515373709035820E+00 
    1.0427133704811473E+00 
    1.0353079229653392E+00 
    1.0286319824336372E+00 
    1.0226406416306082E+00 
    1.0176087049878508E+00 
    1.0139253418102174E+00 
    1.1126428139996307E+00 
    1.1076771619883552E+00 
    1.1007582183611646E+00 
    1.0918950882620371E+00 
    1.0812002033926500E+00 
    1.0687447014022622E+00 
    1.0560753579266109E+00 
    1.0431458966955802E+00 
    1.0304703395939774E+00 
    1.0203386485989245E+00 
    1.0125166556922058E+00 
    1.0058680008263363E+00 
    1.0001533115293215E+00 
    9.9604153236927551E-01 
    9.9341856827784092E-01 
    9.9170619221245915E-01 
    1.0552601573580167E+00 
    1.0521320364036522E+00 
    1.0473511785453606E+00 
    1.0399043076779639E+00 
    1.0298026333889887E+00 
    1.0181224327910736E+00 
    1.0061515489538453E+00 
    9.9445253076954043E-01 
    9.8341741998639687E-01 
    9.7460259097550839E-01 
    9.6796578240469089E-01 
    9.6228877561014292E-01 
    9.5769393739182895E-01 
    9.5516622700805587E-01 
    9.5444355145475357E-01 
    9.5452391076635024E-01 
    9.8486810596477903E-01 
    9.8323611747239970E-01 
    9.7939788628364277E-01 
    9.7275109036329654E-01 
    9.6399031504325117E-01 
    9.5468452117400315E-01 
    9.4598906658200943E-01 
    9.3759116020195554E-01 
    9.2933425986874274E-01 
    9.2265342722516541E-01 
    9.1768367416707286E-01 
    9.1332625287574942E-01 
    9.0994648709226134E-01 
    9.0873399834276491E-01 
    9.0936326644395715E-01 
    9.1037633649458438E-01 
    9.0817176246622555E-01 
    9.0724395423298443E-01 
    9.0365396126082653E-01 
    8.9909568992842448E-01 
    8.9393049779349587E-01 
    8.8887716472220679E-01 
    8.8406778514770779E-01 
    8.7932599243878284E-01 
    8.7422965407613251E-01 
    8.7023683826342013E-01 
    8.6739796511402623E-01 
    8.6486414430870950E-01 
    8.6266530580310385E-01 
    8.6223939042299313E-01 
    8.6288465405417880E-01 
    8.6285899868886018E-01 
    8.3452348441453217E-01 
    8.3318810801262666E-01 
    8.3082809259366575E-01 
    8.2804236682877419E-01 
    8.2564830229318631E-01 
    8.2383002925507542E-01 
    8.2205712686489074E-01 
    8.2031351837056377E-01 
    8.1906017893520000E-01 
    8.1846741283067770E-01 
    8.1774561021991998E-01 
    8.1634214152041651E-01 
    8.1472761785170378E-01 
    8.1310785912518024E-01 
    8.1141837190232535E-01 
    8.1004935572785819E-01 
    7.6181160299738870E-01 
    7.6167516074969099E-01 
    7.6119928063174536E-01 
    7.6083714621216392E-01 
    7.6070070327957429E-01 
    7.6025936284317042E-01 
    7.5869549817403881E-01 
    7.5709558804258925E-01 
    7.5679950943950114E-01 
    7.5663655432806720E-01 
    7.5560360149268979E-01 
    7.5427541566775258E-01 
    7.5355092156145187E-01 
    7.5300940325473154E-01 
    7.5278400439042337E-01 
    7.5257944007402777E-01 
    6.9801132464334825E-01 
    6.9862474257328788E-01 
    6.9893369848777243E-01 
    6.9910912065416098E-01 
    6.9898721346116710E-01 
    6.9837535121173178E-01 
    6.9710157260339223E-01 
    6.9554971485883554E-01 
    6.9428245084885798E-01 
    6.9337717328291026E-01 
    6.9233444178047676E-01 
    6.9123013868409611E-01 
    6.9048171819863224E-01 
    6.9069255967086229E-01 
    6.9186761818082632E-01 
    6.9289085151287300E-01 
    6.4068328231360361E-01 
    6.4111114729529950E-01 
    6.4065045536223753E-01 
    6.4015955851314721E-01 
    6.3925906053590176E-01 
    6.3801737885507759E-01 
    6.3649730487829914E-01 
    6.3517143367520390E-01 
    6.3375115509924651E-01 
    6.3308498734160401E-01 
    6.3256746726773871E-01 
    6.3186421532477011E-01 
    6.3118148589956991E-01 
    6.3182025765639438E-01 
    6.3331071799107685E-01 
    6.3379503254053604E-01 
    5.8258508900841111E-01 
    5.8208774612752912E-01 
    5.8097494658252335E-01 
    5.7970870941928965E-01 
    5.7863709180682010E-01 
    5.7772754605758703E-01 
    5.7678019470493924E-01 
    5.7633784312236525E-01 
    5.7648013997510739E-01 
    5.7714140706980022E-01 
    5.7785984472419583E-01 
    5.7735460670871463E-01 
    5.7629276979226962E-01 
    5.7490630844994473E-01 
    5.7340627960442514E-01 
    5.7250299812312855E-01 
    5.2577320304231201E-01 
    5.2537424890115625E-01 
    5.2463422604955001E-01 
    5.2391764641819238E-01 
    5.2323150116639405E-01 
    5.2198697859916610E-01 
    5.1976593252336867E-01 
    5.1820023538333293E-01 
    5.1742570355603335E-01 
    5.1616155012456699E-01 
    5.1413967894271562E-01 
    5.1211432105325838E-01 
    5.1075813100483736E-01 
    5.0957724226432854E-01 
    5.0891100880070672E-01 
    5.0857105382113177E-01 
    4.7433609409198690E-01 
    4.7398281158102884E-01 
    4.7316060046408492E-01 
    4.7185922822869319E-01 
    4.7002283625141461E-01 
    4.6767474727007330E-01 
    4.6499878190768396E-01 
    4.6167485390489588E-01 
    4.5759016154520482E-01 
    4.5307356250193426E-01 
    4.4889601124857786E-01 
    4.4511571278077716E-01 
    4.4197627567638942E-01 
    4.4024689548530471E-01 
    4.4006472050148099E-01 
    4.4058536591093378E-01 
    4.2440565463861507E-01 
    4.2384498305648438E-01 
    4.2253853053902790E-01 
    4.2029958978101722E-01 
    4.1719673022962250E-01 
    4.1354913428274531E-01 
    4.0947879977807322E-01 
    4.0394742019885199E-01 
    3.9708766662052847E-01 
    3.8993238171410421E-01 
    3.8326545860113048E-01 
    3.7698126949747840E-01 
    3.7173406851443985E-01 
    3.6893901132472534E-01 
    3.6865166050245174E-01 
    3.6960880541836660E-01 
    3.7531509747925829E-01 
    3.7450930441577662E-01 
    3.7268050673856806E-01 
    3.6948297762856652E-01 
    3.6504648954052538E-01 
    3.5991064609854534E-01 
    3.5434018733516814E-01 
    3.4686824348386025E-01 
    3.3763001348423299E-01 
    3.2798476580261277E-01 
    3.1863286472768615E-01 
    3.0949390667265597E-01 
    3.0138142750188124E-01 
    2.9605265623629917E-01 
    2.9356484705910363E-01 
    2.9287881505828639E-01 
    3.3045585087444906E-01 
    3.2945848612254880E-01 
    3.2720877688010463E-01 
    3.2320622635596175E-01 
    3.1759702792561745E-01 
    3.1114388751399558E-01 
    3.0443603392929480E-01 
    2.9570204387662891E-01 
    2.8474535798237355E-01 
    2.7263029246023079E-01 
    2.5979978344856469E-01 
    2.4603496692941665E-01 
    2.3137311312060313E-01 
    2.1699655581977370E-01 
    2.0373531660963154E-01 
    1.9402381839571001E-01 
    3.0180865108301880E-01 
    3.0062429088053955E-01 
    2.9801036624437904E-01 
    2.9346860106868511E-01 
    2.8716555148831019E-01 
    2.8007390488792167E-01 
    2.7327275308042820E-01 
    2.6475153557997766E-01 
    2.5280712944955164E-01 
    2.3689483711152837E-01 
    2.1833996272425552E-01 
    1.9556452599452709E-01 
    1.6435164662111332E-01 
    1.2219026363758841E-01 
    6.7923730976074098E-02 
    0.0000000000000000E+00 

SCALARS Saturarion double 1 
LOOKUP_TABLE default 

    9.9993132994292955E-01 
    8.8555680540932025E-01 
    7.4609490229871711E-01 
    6.4792417435108163E-01 
    5.7933354225652900E-01 
    5.1779825934521595E-01 
    4.5777302307540413E-01 
    1.7913367872130359E-01 
    1.0926785111761562E-06 
    1.0000000917181738E-06 
    9.9999999999999995E-07 
    9.9999999999999995E-07 
    9.9999999999999995E-07 
    9.9999999999999995E-07 
    9.9999999999999995E-07 
    9.9999999999999995E-07 
    7.9095616044880157E-01 
    7.4976266614925124E-01 
    6.6909676030042742E-01 
    6.0701199740641076E-01 
    5.4667926582865545E-01 
    4.8987639726985432E-01 
    3.9055060819030707E-01 
    6.0726458294559152E-02 
    5.8006474798205621E-04 
    1.0047327272997005E-06 
    1.0000000008079231E-06 
    1.0000000000000002E-06 
    9.9999999999999995E-07 
    9.9999999999999995E-07 
    9.9999999999999995E-07 
    9.9999999999999995E-07 
    6.0026413936979817E-01 
    5.8994182750798851E-01 
    5.5695897662976246E-01 
    5.1722276127728939E-01 
    4.6998148107577203E-01 
    3.6262543131661007E-01 
    1.0151791558167926E-01 
    1.7517220538935941E-03 
    1.2865216271842475E-06 
    1.0000000568509426E-06 
    1.0000000000000421E-06 
    9.9999999999999995E-07 
    9.9999999999999995E-07 
    9.9999999999999995E-07 
    9.9999999999999995E-07 
    9.9999999999999995E-07 
    4.1952545814176267E-01 
    3.9802761339334275E-01 
    3.4881456830391794E-01 
    2.7028343672823396E-01 
    1.4578843027741478E-01 
    3.1835502379216105E-02 
    8.2713831244191798E-04 
    1.7316707053749406E-06 
    1.0000001139089894E-06 
    1.0000000000000283E-06 
    9.9999999999999995E-07 
    9.9999999999999995E-07 
    9.9999999999999995E-07 
    9.9999999999999995E-07 
    9.9999999999999995E-07 
    9.9999999999999995E-07 
    1.9395930176658048E-02 
    1.0624879283264953E-02 
    3.5388392966115264E-03 
    5.4189655239145771E-04 
    1.8406087114858878E-04 
    2.6533007753187066E-04 
    1.0591097469987227E-06 
    1.0000000715722484E-06 
    1.0000000000000309E-06 
    9.9999999999999995E-07 
    9.9999999999999995E-07 
    9.9999999999999995E-07 
    9.9999999999999995E-07 
    9.9999999999999995E-07 
    9.9999999999999995E-07 
    9.9999999999999995E-07 
    2.3919040867297186E-06 
    2.3608739449215579E-06 
    1.4807463376551316E-06 
    1.0147713409786020E-06 
    1.0110415247664227E-06 
    1.0013848028970051E-06 
    1.0000000324254605E-06 
    1.0000000000000203E-06 
    9.9999999999999995E-07 
    9.9999999999999995E-07 
    9.9999999999999995E-07 
    9.9999999999999995E-07 
    9.9999999999999995E-07 
    9.9999999999999995E-07 
    9.9999999999999995E-07 
    9.9999999999999995E-07 
    9.9999997535935730E-07 
    9.9999999360256382E-07 
    1.0000000107796726E-06 
    1.0000000014069719E-06 
    1.0000000005457689E-06 
    1.0000000000074041E-06 
    1.0000000000000059E-06 
    9.9999999999999995E-07 
    9.9999999999999995E-07 
    9.9999999999999995E-07 
    9.9999999999999995E-07 
    9.9999999999999995E-07 
    9.9999999999999995E-07 
    9.9999999999999995E-07 
    9.9999999999999995E-07 
    9.9999999999999995E-07 
    9.9999999999999720E-07 
    1.0000000000000052E-06 
    1.0000000000000038E-06 
    1.0000000000000002E-06 
    1.0000000000000002E-06 
    9.9999999999999974E-07 
    9.9999999999999995E-07 
    9.9999999999999995E-07 
    9.9999999999999995E-07 
    9.9999999999999995E-07 
    9.9999999999999995E-07 
    9.9999999999999995E-07 
    9.9999999999999995E-07 
    9.9999999999999995E-07 
    9.9999999999999995E-07 
    9.9999999999999995E-07 
    9.9999999999999995E-07 
    9.9999999999999995E-07 
    9.9999999999999995E-07 
    9.9999999999999995E-07 
    9.9999999999999995E-07 
    9.9999999999999995E-07 
    9.9999999999999995E-07 
    9.9999999999999995E-07 
    9.9999999999999995E-07 
    9.9999999999999995E-07 
    9.9999999999999995E-07 
    9.9999999999999995E-07 
    9.9999999999999995E-07 
    9.9999999999999995E-07 
    9.9999999999999995E-07 
    9.9999999999999995E-07 
    9.9999999999999995E-07 
    9.9999999999999995E-07 
    9.9999999999999995E-07 
    9.9999999999999995E-07 
    9.9999999999999995E-07 
    9.9999999999999995E-07 
    9.9999999999999995E-07 
    9.9999999999999995E-07 
    9.9999999999999995E-07 
    9.9999999999999995E-07 
    9.9999999999999995E-07 
    9.9999999999999995E-07 
    9.9999999999999995E-07 
    9.9999999999999995E-07 
    9.9999999999999995E-07 
    9.9999999999999995E-07 
    9.9999999999999995E-07 
    9.9999999999999995E-07 
    9.9999999999999995E-07 
    9.9999999999999995E-07 
    9.9999999999999995E-07 
    9.9999999999999995E-07 
    9.9999999999999995E-07 
    9.9999999999999995E-07 
    9.9999999999999995E-07 
    9.9999999999999995E-07 
    9.9999999999999995E-07 
    9.9999999999999995E-07 
    9.9999999999999995E-07 
    9.9999999999999995E-07 
    9.9999999999999995E-07 
    9.9999999999999995E-07 
    9.9999999999999995E-07 
    9.9999999999999995E-07 
    9.9999999999999995E-07 
    9.9999999999999995E-07 
    9.9999999999999995E-07 
    9.9999999999999995E-07 
    9.9999999999999995E-07 
    9.9999999999999995E-07 
    9.9999999999999995E-07 
    9.9999999999999995E-07 
    9.9999999999999995E-07 
    9.9999999999999995E-07 
    9.9999999999999995E-07 
    9.9999999999999995E-07 
    9.9999999999999995E-07 
    9.9999999999999995E-07 
    9.9999999999999995E-07 
    9.9999999999999995E-07 
    9.9999999999999995E-07 
    9.9999999999999995E-07 
    9.9999999999999995E-07 
    9.9999999999999995E-07 
    9.9999999999999995E-07 
    9.9999999999999995E-07 
    9.9999999999999995E-07 
    9.9999999999999995E-07 
    9.9999999999999995E-07 
    9.9999999999999995E-07 
    9.9999999999999995E-07 
    9.9999999999999995E-07 
    9.9999999999999995E-07 
    9.9999999999999995E-07 
    9.9999999999999995E-07 
    9.9999999999999995E-07 
    9.9999999999999995E-07 
    9.9999999999999995E-07 
    9.9999999999999995E-07 
    9.9999999999999995E-07 
    9.9999999999999995E-07 
    9.9999999999999995E-07 
    9.9999999999999995E-07 
    9.9999999999999995E-07 
    9.9999999999999995E-07 
    9.9999999999999995E-07 
    9.9999999999999995E-07 
    9.9999999999999995E-07 
    9.9999999999999995E-07 
    9.9999999999999995E-07 
    9.9999999999999995E-07 
    9.9999999999999995E-07 
    9.9999999999999995E-07 
    9.9999999999999995E-07 
    9.9999999999999995E-07 
    9.9999999999999995E-07 
    9.9999999999999995E-07 
    9.9999999999999995E-07 
    9.9999999999999995E-07 
    9.9999999999999995E-07 
    9.9999999999999995E-07 
    9.9999999999999995E-07 
    9.9999999999999995E-07 
    9.9999999999999995E-07 
    9.9999999999999995E-07 
    9.9999999999999995E-07 
    9.9999999999999995E-07 
    9.9999999999999995E-07 
    9.9999999999999995E-07 
    9.9999999999999995E-07 
    9.9999999999999995E-07 
    9.9999999999999995E-07 
    9.9999999999999995E-07 
    9.9999999999999995E-07 
    9.9999999999999995E-07 
    9.9999999999999995E-07 
    9.9999999999999995E-07 
    9.9999999999999995E-07 
    9.9999999999999995E-07 
    9.9999999999999995E-07 
    9.9999999999999995E-07 
    1.0000000253678860E-06 
