# vtk DataFile Version 2.0
Pressure Field Data 
ASCII 
DATASET UNSTRUCTURED_GRID 

POINTS 289 double 

    0.0000000000000000E+00     0.0000000000000000E+00     0.0000000000000000E+00 
    1.0000000000000000E+00     0.0000000000000000E+00     0.0000000000000000E+00 
    1.0000000000000000E+00     1.0000000000000000E+00     0.0000000000000000E+00 
    0.0000000000000000E+00     1.0000000000000000E+00     0.0000000000000000E+00 
    6.2499999999872928E-02     0.0000000000000000E+00     0.0000000000000000E+00 
    1.2499999999977310E-01     0.0000000000000000E+00     0.0000000000000000E+00 
    1.8749999999959341E-01     0.0000000000000000E+00     0.0000000000000000E+00 
    2.4999999999941089E-01     0.0000000000000000E+00     0.0000000000000000E+00 
    3.1249999999922851E-01     0.0000000000000000E+00     0.0000000000000000E+00 
    3.7499999999904610E-01     0.0000000000000000E+00     0.0000000000000000E+00 
    4.3749999999886358E-01     0.0000000000000000E+00     0.0000000000000000E+00 
    4.9999999999869210E-01     0.0000000000000000E+00     0.0000000000000000E+00 
    5.6249999999884603E-01     0.0000000000000000E+00     0.0000000000000000E+00 
    6.2499999999901090E-01     0.0000000000000000E+00     0.0000000000000000E+00 
    6.8749999999917577E-01     0.0000000000000000E+00     0.0000000000000000E+00 
    7.4999999999934064E-01     0.0000000000000000E+00     0.0000000000000000E+00 
    8.1249999999950551E-01     0.0000000000000000E+00     0.0000000000000000E+00 
    8.7499999999967026E-01     0.0000000000000000E+00     0.0000000000000000E+00 
    9.3749999999983513E-01     0.0000000000000000E+00     0.0000000000000000E+00 
    1.0000000000000000E+00     6.2499999999872928E-02     0.0000000000000000E+00 
    1.0000000000000000E+00     1.2499999999977310E-01     0.0000000000000000E+00 
    1.0000000000000000E+00     1.8749999999959341E-01     0.0000000000000000E+00 
    1.0000000000000000E+00     2.4999999999941089E-01     0.0000000000000000E+00 
    1.0000000000000000E+00     3.1249999999922851E-01     0.0000000000000000E+00 
    1.0000000000000000E+00     3.7499999999904610E-01     0.0000000000000000E+00 
    1.0000000000000000E+00     4.3749999999886358E-01     0.0000000000000000E+00 
    1.0000000000000000E+00     4.9999999999869210E-01     0.0000000000000000E+00 
    1.0000000000000000E+00     5.6249999999884603E-01     0.0000000000000000E+00 
    1.0000000000000000E+00     6.2499999999901090E-01     0.0000000000000000E+00 
    1.0000000000000000E+00     6.8749999999917577E-01     0.0000000000000000E+00 
    1.0000000000000000E+00     7.4999999999934064E-01     0.0000000000000000E+00 
    1.0000000000000000E+00     8.1249999999950551E-01     0.0000000000000000E+00 
    1.0000000000000000E+00     8.7499999999967026E-01     0.0000000000000000E+00 
    1.0000000000000000E+00     9.3749999999983513E-01     0.0000000000000000E+00 
    9.3749999999973976E-01     1.0000000000000000E+00     0.0000000000000000E+00 
    8.7499999999950118E-01     1.0000000000000000E+00     0.0000000000000000E+00 
    8.1249999999991318E-01     1.0000000000000000E+00     0.0000000000000000E+00 
    7.5000000000034706E-01     1.0000000000000000E+00     0.0000000000000000E+00 
    6.8750000000078049E-01     1.0000000000000000E+00     0.0000000000000000E+00 
    6.2500000000121403E-01     1.0000000000000000E+00     0.0000000000000000E+00 
    5.6250000000164757E-01     1.0000000000000000E+00     0.0000000000000000E+00 
    5.0000000000205946E-01     1.0000000000000000E+00     0.0000000000000000E+00 
    4.3750000000182099E-01     1.0000000000000000E+00     0.0000000000000000E+00 
    3.7500000000156092E-01     1.0000000000000000E+00     0.0000000000000000E+00 
    3.1250000000130068E-01     1.0000000000000000E+00     0.0000000000000000E+00 
    2.5000000000104050E-01     1.0000000000000000E+00     0.0000000000000000E+00 
    1.8750000000078040E-01     1.0000000000000000E+00     0.0000000000000000E+00 
    1.2500000000052031E-01     1.0000000000000000E+00     0.0000000000000000E+00 
    6.2500000000260125E-02     1.0000000000000000E+00     0.0000000000000000E+00 
    0.0000000000000000E+00     9.3749999999973976E-01     0.0000000000000000E+00 
    0.0000000000000000E+00     8.7499999999950118E-01     0.0000000000000000E+00 
    0.0000000000000000E+00     8.1249999999991318E-01     0.0000000000000000E+00 
    0.0000000000000000E+00     7.5000000000034706E-01     0.0000000000000000E+00 
    0.0000000000000000E+00     6.8750000000078049E-01     0.0000000000000000E+00 
    0.0000000000000000E+00     6.2500000000121403E-01     0.0000000000000000E+00 
    0.0000000000000000E+00     5.6250000000164757E-01     0.0000000000000000E+00 
    0.0000000000000000E+00     5.0000000000205946E-01     0.0000000000000000E+00 
    0.0000000000000000E+00     4.3750000000182099E-01     0.0000000000000000E+00 
    0.0000000000000000E+00     3.7500000000156092E-01     0.0000000000000000E+00 
    0.0000000000000000E+00     3.1250000000130068E-01     0.0000000000000000E+00 
    0.0000000000000000E+00     2.5000000000104050E-01     0.0000000000000000E+00 
    0.0000000000000000E+00     1.8750000000078040E-01     0.0000000000000000E+00 
    0.0000000000000000E+00     1.2500000000052031E-01     0.0000000000000000E+00 
    0.0000000000000000E+00     6.2500000000260125E-02     0.0000000000000000E+00 
    6.2499999999897131E-02     6.2500000000235922E-02     0.0000000000000000E+00 
    6.2499999999921327E-02     1.2500000000047351E-01     0.0000000000000000E+00 
    6.2499999999945530E-02     1.8750000000070621E-01     0.0000000000000000E+00 
    6.2499999999969733E-02     2.5000000000093858E-01     0.0000000000000000E+00 
    6.2499999999993928E-02     3.1250000000117117E-01     0.0000000000000000E+00 
    6.2500000000018124E-02     3.7500000000140382E-01     0.0000000000000000E+00 
    6.2500000000042327E-02     4.3750000000163619E-01     0.0000000000000000E+00 
    6.2500000000066530E-02     5.0000000000184897E-01     0.0000000000000000E+00 
    6.2500000000090733E-02     5.6250000000147260E-01     0.0000000000000000E+00 
    6.2500000000114922E-02     6.2500000000107636E-01     0.0000000000000000E+00 
    6.2500000000139125E-02     6.8750000000068034E-01     0.0000000000000000E+00 
    6.2500000000163328E-02     7.5000000000028411E-01     0.0000000000000000E+00 
    6.2500000000187531E-02     8.1249999999988787E-01     0.0000000000000000E+00 
    6.2500000000211720E-02     8.7499999999951172E-01     0.0000000000000000E+00 
    6.2500000000235922E-02     9.3749999999974565E-01     0.0000000000000000E+00 
    1.2499999999981980E-01     6.2500000000211733E-02     0.0000000000000000E+00 
    1.2499999999986650E-01     1.2500000000042691E-01     0.0000000000000000E+00 
    1.2499999999991319E-01     1.8750000000063199E-01     0.0000000000000000E+00 
    1.2499999999995989E-01     2.5000000000083678E-01     0.0000000000000000E+00 
    1.2500000000000661E-01     3.1250000000104172E-01     0.0000000000000000E+00 
    1.2500000000005329E-01     3.7500000000124661E-01     0.0000000000000000E+00 
    1.2500000000010000E-01     4.3750000000145117E-01     0.0000000000000000E+00 
    1.2500000000014669E-01     5.0000000000163858E-01     0.0000000000000000E+00 
    1.2500000000019340E-01     5.6250000000129741E-01     0.0000000000000000E+00 
    1.2500000000024011E-01     6.2500000000093847E-01     0.0000000000000000E+00 
    1.2500000000028680E-01     6.8750000000057998E-01     0.0000000000000000E+00 
    1.2500000000033351E-01     7.5000000000022127E-01     0.0000000000000000E+00 
    1.2500000000038020E-01     8.1249999999986211E-01     0.0000000000000000E+00 
    1.2500000000042691E-01     8.7499999999952238E-01     0.0000000000000000E+00 
    1.2500000000047359E-01     9.3749999999975164E-01     0.0000000000000000E+00 
    1.8749999999966760E-01     6.2500000000187531E-02     0.0000000000000000E+00 
    1.8749999999974179E-01     1.2500000000038020E-01     0.0000000000000000E+00 
    1.8749999999981601E-01     1.8750000000055780E-01     0.0000000000000000E+00 
    1.8749999999989009E-01     2.5000000000073502E-01     0.0000000000000000E+00 
    1.8749999999996431E-01     3.1250000000091221E-01     0.0000000000000000E+00 
    1.8750000000003850E-01     3.7500000000108941E-01     0.0000000000000000E+00 
    1.8750000000011269E-01     4.3750000000126649E-01     0.0000000000000000E+00 
    1.8750000000018691E-01     5.0000000000142808E-01     0.0000000000000000E+00 
    1.8750000000026110E-01     5.6250000000112244E-01     0.0000000000000000E+00 
    1.8750000000033529E-01     6.2500000000080080E-01     0.0000000000000000E+00 
    1.8750000000040951E-01     6.8750000000047962E-01     0.0000000000000000E+00 
    1.8750000000048361E-01     7.5000000000015843E-01     0.0000000000000000E+00 
    1.8750000000055780E-01     8.1249999999983680E-01     0.0000000000000000E+00 
    1.8750000000063199E-01     8.7499999999953304E-01     0.0000000000000000E+00 
    1.8750000000070621E-01     9.3749999999975764E-01     0.0000000000000000E+00 
    2.4999999999951281E-01     6.2500000000163314E-02     0.0000000000000000E+00 
    2.4999999999961461E-01     1.2500000000033351E-01     0.0000000000000000E+00 
    2.4999999999971650E-01     1.8750000000048361E-01     0.0000000000000000E+00 
    2.4999999999981831E-01     2.5000000000063310E-01     0.0000000000000000E+00 
    2.4999999999992020E-01     3.1250000000078260E-01     0.0000000000000000E+00 
    2.5000000000002198E-01     3.7500000000093209E-01     0.0000000000000000E+00 
    2.5000000000012390E-01     4.3750000000108180E-01     0.0000000000000000E+00 
    2.5000000000022571E-01     5.0000000000121769E-01     0.0000000000000000E+00 
    2.5000000000032763E-01     5.6250000000094724E-01     0.0000000000000000E+00 
    2.5000000000042938E-01     6.2500000000066314E-01     0.0000000000000000E+00 
    2.5000000000053119E-01     6.8750000000037925E-01     0.0000000000000000E+00 
[...]
CELL_DATA 256 
SCALARS Pressure double 1 
LOOKUP_TABLE default 

    1.3299755039755776E+00 
    1.3086225904650612E+00 
    1.2546444982007348E+00 
    1.2125213981229053E+00 
    1.1784073521910365E+00 
    1.1490856515377597E+00 
    1.1242570670534036E+00 
    1.1061932119112268E+00 
    1.0916639761424665E+00 
    1.0793024702003922E+00 
    1.0686307244223032E+00 
    1.0599182029699994E+00 
    1.0522880441126172E+00 
    1.0456296542311136E+00 
    1.0401701936880714E+00 
    1.0362182545308960E+00 
    1.2050145488893340E+00 
    1.1908646126661038E+00 
    1.1663024796474541E+00 
    1.1424068966502139E+00 
    1.1196166176000657E+00 
    1.0990607526015692E+00 
    1.0820867741565512E+00 
    1.0677453374103769E+00 
    1.0540990233376928E+00 
    1.0427615820978551E+00 
    1.0340449765955777E+00 
    1.0267603735057529E+00 
    1.0205344612541769E+00 
    1.0160791534679303E+00 
    1.0132801877497684E+00 
    1.0114953549516223E+00 
    1.0763949663926358E+00 
    1.0721453110882448E+00 
    1.0645398667795909E+00 
    1.0541360397495507E+00 
    1.0422987829076931E+00 
    1.0305887071143691E+00 
    1.0199713111959854E+00 
    1.0097390151462720E+00 
    9.9927708090123091E-01 
    9.9058785072480726E-01 
    9.8398730946134916E-01 
    9.7834126865642557E-01 
    9.7372199745683385E-01 
    9.7118197511240534E-01 
    9.7049467938144041E-01 
    9.7062161543430747E-01 
    9.8581766699545903E-01 
    9.8445551298498624E-01 
    9.8114221900818210E-01 
    9.7581931053067039E-01 
    9.6909745428996275E-01 
    9.6193964803309540E-01 
    9.5502303269164424E-01 
    9.4783023851582360E-01 
    9.4025336170340812E-01 
    9.3395394066165449E-01 
    9.2927781484483440E-01 
    9.2518233975228592E-01 
    9.2195601891166412E-01 
    9.2087130009958940E-01 
    9.2163813487759561E-01 
    9.2277453569998757E-01 
    9.1080904259544648E-01 
    9.1050491273169054E-01 
    9.0792204072934735E-01 
    9.0447663104570686E-01 
    9.0015889446014219E-01 
    8.9559041209673529E-01 
    8.9114693575111403E-01 
    8.8688591635026282E-01 
    8.8211599969241838E-01 
    8.7836969582498470E-01 
    8.7576626486784204E-01 
    8.7355934682831404E-01 
    8.7152920272408818E-01 
    8.7126004287867020E-01 
    8.7206959371328319E-01 
    8.7221204010782660E-01 
    8.3768515307446156E-01 
    8.3639803135024327E-01 
    8.3417373098269343E-01 
    8.3160167227029691E-01 
    8.2948670136228819E-01 
    8.2804564895475818E-01 
    8.2671116075600937E-01 
    8.2536648054734063E-01 
    8.2448892486873215E-01 
    8.2433508418556001E-01 
    8.2405936400142688E-01 
    8.2300950083279367E-01 
    8.2165664489890700E-01 
    8.2023185615913574E-01 
    8.1865160735134357E-01 
    8.1729248053700765E-01 
    7.6442769585185621E-01 
    7.6430542170137961E-01 
    7.6389545909182066E-01 
    7.6364735028827357E-01 
    7.6367682729261432E-01 
    7.6348204996989177E-01 
    7.6222541849653258E-01 
    7.6090302296769108E-01 
    7.6091436695217773E-01 
    7.6108206490144592E-01 
    7.6034513494354328E-01 
    7.5926263094400415E-01 
    7.5875039811575162E-01 
    7.5836005845125110E-01 
    7.5821717326164373E-01 
    7.5803394263786494E-01 
    7.0015399616535956E-01 
    7.0079918119350415E-01 
    7.0117248897881801E-01 
    7.0144023528160815E-01 
    7.0143442254957755E-01 
    7.0097563457353562E-01 
    6.9988128842944486E-01 
    6.9853124997116678E-01 
    6.9747608414146001E-01 
    6.9678581400341022E-01 
    6.9592562000727598E-01 
    6.9497672351650208E-01 
    6.9436022103405193E-01 
    6.9466094054467231E-01 
    6.9589139923734278E-01 
    6.9694851362509547E-01 
    6.4243389487625058E-01 
    6.4292618013514680E-01 
    6.4251724393392995E-01 
    6.4208997680123014E-01 
    6.4126384837953498E-01 
    6.4011399679408632E-01 
    6.3868750664498675E-01 
    6.3749547333880785E-01 
    6.3620466264553077E-01 
    6.3566469141560800E-01 
    6.3523847877575224E-01 
    6.3464135240422759E-01 
    6.3403286962793759E-01 
    6.3472332820487531E-01 
    6.3626145097748676E-01 
    6.3681561927522190E-01 
    5.8414111652195089E-01 
    5.8364692709649357E-01 
    5.8253839449847511E-01 
    5.8127614780334480E-01 
    5.8021662292252285E-01 
    5.7934715397236225E-01 
    5.7846517237612693E-01 
    5.7809422414813560E-01 
    5.7831754901550037E-01 
    5.7909579329539862E-01 
    5.7996070177337677E-01 
    5.7957938978463575E-01 
    5.7861258831530404E-01 
    5.7729815122643979E-01 
    5.7584227465766269E-01 
    5.7494459142203558E-01 
    5.2707794034126454E-01 
    5.2667899772018589E-01 
    5.2594139977345156E-01 
    5.2523137596833636E-01 
    5.2456110906331210E-01 
    5.2334897398840075E-01 
    5.2118229532259353E-01 
    5.1965768482737573E-01 
    5.1894302005221826E-01 
    5.1776032960194207E-01 
    5.1584331701649910E-01 
    5.1389198585378626E-01 
    5.1260655148256928E-01 
    5.1148147012494927E-01 
    5.1084789957851984E-01 
    5.1051116987587142E-01 
    4.7545942764302457E-01 
    4.7510748714646084E-01 
    4.7428993215793019E-01 
    4.7299779578251006E-01 
    4.7117646898857846E-01 
    4.6885036789736634E-01 
    4.6620594377677660E-01 
    4.6291748666102839E-01 
    4.5887817132076619E-01 
    4.5441641271898298E-01 
    4.5030014062341767E-01 
    4.4656692475983173E-01 
    4.4347190842465706E-01 
    4.4177465689263751E-01 
    4.4160747507156717E-01 
    4.4212366775832773E-01 
    4.2536575872335131E-01 
    4.2480556516701540E-01 
    4.2350251370347625E-01 
    4.2127012708529721E-01 
    4.1817695813056871E-01 
    4.1454274811508052E-01 
    4.1049253956507914E-01 
    4.0498584425736911E-01 
    3.9815442943388257E-01 
    3.9102970344723909E-01 
    3.8439280777841345E-01 
    3.7813208536075937E-01 
    3.7290545613716930E-01 
    3.7012273002423046E-01 
    3.6983818716744732E-01 
    3.7079019170276767E-01 
    3.7611755296206745E-01 
    3.7531086688712761E-01 
    3.7348343005820439E-01 
    3.7028909218128009E-01 
    3.6585730725135884E-01 
    3.6072782004033616E-01 
    3.5516653965552902E-01 
    3.4770768760389886E-01 
    3.3848144697514759E-01 
    3.2884467131908440E-01 
    3.1949378143657431E-01 
    3.1035587210867538E-01 
    3.0224160524984695E-01 
    2.9690722926518648E-01 
    2.9441215794729747E-01 
    2.9372258734284351E-01 
    3.3110081453176698E-01 
    3.3010233782990411E-01 
    3.2785332238056203E-01 
    3.2385224664882378E-01 
    3.1824466603199270E-01 
    3.1179301487757100E-01 
    3.0508591314929684E-01 
    2.9635527906256620E-01 
    2.8539621732197434E-01 
    2.7326932530648312E-01 
    2.6041194073702112E-01 
    2.4662543221404129E-01 
    2.3193848057120961E-01 
    2.1753547556265146E-01 
    2.0424988232525854E-01 
    1.9452440175313460E-01 
    3.0231983143142238E-01 
    3.0113737140810382E-01 
    2.9852547486759312E-01 
    2.9398539514951738E-01 
    2.8768261899315778E-01 
    2.8059108102115732E-01 
    2.7378966872315685E-01 
    2.6526390616717471E-01 
    2.5330599789261438E-01 
    2.3736677734989450E-01 
    2.1876325180699255E-01 
    1.9594173157437528E-01 
    1.6467664656578046E-01 
    1.2244903466743719E-01 
    6.8084933085288915E-02 
    0.0000000000000000E+00 

SCALARS Saturarion double 1 
LOOKUP_TABLE default 

    5.2969519288233513E-01 
    1.7507783825685308E-01 
    3.3584086326033123E-04 
    9.9999999999999995E-07 
    9.9999999999999995E-07 
    9.9999999999999995E-07 
    9.9999999999999995E-07 
    9.9999999999999995E-07 
    9.9999999999999995E-07 
    9.9999999999999995E-07 
    9.9999999999999995E-07 
    9.9999999999999995E-07 
    9.9999999999999995E-07 
    9.9999999999999995E-07 
    9.9999999999999995E-07 
    9.9999999999999995E-07 
    8.6765068495368969E-02 
    4.1684790622450590E-03 
    1.5297541789454363E-06 
    1.0000001063842488E-06 
    9.9999999999999995E-07 
    9.9999999999999995E-07 
    9.9999999999999995E-07 
    9.9999999999999995E-07 
    9.9999999999999995E-07 
    9.9999999999999995E-07 
    9.9999999999999995E-07 
    9.9999999999999995E-07 
    9.9999999999999995E-07 
    9.9999999999999995E-07 
    9.9999999999999995E-07 
    9.9999999999999995E-07 
    1.2869711603089484E-05 
    1.2643456099785431E-06 
    1.0000000643292552E-06 
    9.9999999999999995E-07 
    9.9999999999999995E-07 
    9.9999999999999995E-07 
    9.9999999999999995E-07 
    9.9999999999999995E-07 
    9.9999999999999995E-07 
    9.9999999999999995E-07 
    9.9999999999999995E-07 
    9.9999999999999995E-07 
    9.9999999999999995E-07 
    9.9999999999999995E-07 
    9.9999999999999995E-07 
    9.9999999999999995E-07 
    9.9999999999999995E-07 
    9.9999999999999995E-07 
    9.9999999999999995E-07 
    9.9999999999999995E-07 
    9.9999999999999995E-07 
    9.9999999999999995E-07 
    9.9999999999999995E-07 
    9.9999999999999995E-07 
    9.9999999999999995E-07 
    9.9999999999999995E-07 
    9.9999999999999995E-07 
    9.9999999999999995E-07 
    9.9999999999999995E-07 
    9.9999999999999995E-07 
    9.9999999999999995E-07 
    9.9999999999999995E-07 
    9.9999999999999995E-07 
    9.9999999999999995E-07 
    9.9999999999999995E-07 
    9.9999999999999995E-07 
    9.9999999999999995E-07 
    9.9999999999999995E-07 
    9.9999999999999995E-07 
    9.9999999999999995E-07 
    9.9999999999999995E-07 
    9.9999999999999995E-07 
    9.9999999999999995E-07 
    9.9999999999999995E-07 
    9.9999999999999995E-07 
    9.9999999999999995E-07 
    9.9999999999999995E-07 
    9.9999999999999995E-07 
    9.9999999999999995E-07 
    9.9999999999999995E-07 
    9.9999999999999995E-07 
    9.9999999999999995E-07 
    9.9999999999999995E-07 
    9.9999999999999995E-07 
    9.9999999999999995E-07 
    9.9999999999999995E-07 
    9.9999999999999995E-07 
    9.9999999999999995E-07 
    9.9999999999999995E-07 
    9.9999999999999995E-07 
    9.9999999999999995E-07 
    9.9999999999999995E-07 
    9.9999999999999995E-07 
    9.9999999999999995E-07 
    9.9999999999999995E-07 
    9.9999999999999995E-07 
    9.9999999999999995E-07 
    9.9999999999999995E-07 
    9.9999999999999995E-07 
    9.9999999999999995E-07 
    9.9999999999999995E-07 
    9.9999999999999995E-07 
    9.9999999999999995E-07 
    9.9999999999999995E-07 
    9.9999999999999995E-07 
    9.9999999999999995E-07 
    9.9999999999999995E-07 
    9.9999999999999995E-07 
    9.9999999999999995E-07 
    9.9999999999999995E-07 
    9.9999999999999995E-07 
    9.9999999999999995E-07 
    9.9999999999999995E-07 
    9.9999999999999995E-07 
    9.9999999999999995E-07 
    9.9999999999999995E-07 
    9.9999999999999995E-07 
    9.9999999999999995E-07 
    9.9999999999999995E-07 
    9.9999999999999995E-07 
    9.9999999999999995E-07 
    9.9999999999999995E-07 
    9.9999999999999995E-07 
    9.9999999999999995E-07 
    9.9999999999999995E-07 
    9.9999999999999995E-07 
    9.9999999999999995E-07 
    9.9999999999999995E-07 
    9.9999999999999995E-07 
    9.9999999999999995E-07 
    9.9999999999999995E-07 
    9.9999999999999995E-07 
    9.9999999999999995E-07 
    9.9999999999999995E-07 
    9.9999999999999995E-07 
    9.9999999999999995E-07 
    9.9999999999999995E-07 
    9.9999999999999995E-07 
    9.9999999999999995E-07 
    9.9999999999999995E-07 
    9.9999999999999995E-07 
    9.9999999999999995E-07 
    9.9999999999999995E-07 
    9.9999999999999995E-07 
    9.9999999999999995E-07 
    9.9999999999999995E-07 
    9.9999999999999995E-07 
    9.9999999999999995E-07 
    9.9999999999999995E-07 
    9.9999999999999995E-07 
    9.9999999999999995E-07 
    9.9999999999999995E-07 
    9.9999999999999995E-07 
    9.9999999999999995E-07 
    9.9999999999999995E-07 
    9.9999999999999995E-07 
    9.9999999999999995E-07 
    9.9999999999999995E-07 
    9.9999999999999995E-07 
    9.9999999999999995E-07 
    9.9999999999999995E-07 
    9.9999999999999995E-07 
    9.9999999999999995E-07 
    9.9999999999999995E-07 
    9.9999999999999995E-07 
    9.9999999999999995E-07 
    9.9999999999999995E-07 
    9.9999999999999995E-07 
    9.9999999999999995E-07 
    9.9999999999999995E-07 
    9.9999999999999995E-07 
    9.9999999999999995E-07 
    9.9999999999999995E-07 
    9.9999999999999995E-07 
    9.9999999999999995E-07 
    9.9999999999999995E-07 
    9.9999999999999995E-07 
    9.9999999999999995E-07 
    9.9999999999999995E-07 
    9.9999999999999995E-07 
    9.9999999999999995E-07 
    9.9999999999999995E-07 
    9.9999999999999995E-07 
    9.9999999999999995E-07 
    9.9999999999999995E-07 
    9.9999999999999995E-07 
    9.9999999999999995E-07 
    9.9999999999999995E-07 
    9.9999999999999995E-07 
    9.9999999999999995E-07 
    9.9999999999999995E-07 
    9.9999999999999995E-07 
    9.9999999999999995E-07 
    9.9999999999999995E-07 
    9.9999999999999995E-07 
    9.9999999999999995E-07 
    9.9999999999999995E-07 
    9.9999999999999995E-07 
    9.9999999999999995E-07 
    9.9999999999999995E-07 
    9.9999999999999995E-07 
    9.9999999999999995E-07 
    9.9999999999999995E-07 
    9.9999999999999995E-07 
    9.9999999999999995E-07 
    9.9999999999999995E-07 
    9.9999999999999995E-07 
    9.9999999999999995E-07 
    9.9999999999999995E-07 
    9.9999999999999995E-07 
    9.9999999999999995E-07 
    9.9999999999999995E-07 
    9.9999999999999995E-07 
    9.9999999999999995E-07 
    9.9999999999999995E-07 
    9.9999999999999995E-07 
    9.9999999999999995E-07 
    9.9999999999999995E-07 
    9.9999999999999995E-07 
    9.9999999999999995E-07 
    9.9999999999999995E-07 
    9.9999999999999995E-07 
    9.9999999999999995E-07 
    9.9999999999999995E-07 
    9.9999999999999995E-07 
    9.9999999999999995E-07 
    9.9999999999999995E-07 
    9.9999999999999995E-07 
    9.9999999999999995E-07 
    9.9999999999999995E-07 
    9.9999999999999995E-07 
    9.9999999999999995E-07 
    9.9999999999999995E-07 
    9.9999999999999995E-07 
    9.9999999999999995E-07 
    9.9999999999999995E-07 
    9.9999999999999995E-07 
    9.9999999999999995E-07 
    9.9999999999999995E-07 
    9.9999999999999995E-07 
    9.9999999999999995E-07 
    9.9999999999999995E-07 
    9.9999999999999995E-07 
    9.9999999999999995E-07 
    9.9999999999999995E-07 
    9.9999999999999995E-07 
    9.9999999999999995E-07 
    9.9999999999999995E-07 
    9.9999999999999995E-07 
    9.9999999999999995E-07 
    9.9999999999999995E-07 
    9.9999999999999995E-07 
    9.9999999999999995E-07 
    1.0000000004875564E-06 
