# vtk DataFile Version 2.0
Pressure Field Data 
ASCII 
DATASET UNSTRUCTURED_GRID 

POINTS 289 double 

    0.0000000000000000E+00     0.0000000000000000E+00     0.0000000000000000E+00 
    1.0000000000000000E+00     0.0000000000000000E+00     0.0000000000000000E+00 
    1.0000000000000000E+00     1.0000000000000000E+00     0.0000000000000000E+00 
    0.0000000000000000E+00     1.0000000000000000E+00     0.0000000000000000E+00 
    6.2499999999872928E-02     0.0000000000000000E+00     0.0000000000000000E+00 
    1.2499999999977310E-01     0.0000000000000000E+00     0.0000000000000000E+00 
    1.8749999999959341E-01     0.0000000000000000E+00     0.0000000000000000E+00 
    2.4999999999941089E-01     0.0000000000000000E+00     0.0000000000000000E+00 
    3.1249999999922851E-01     0.0000000000000000E+00     0.0000000000000000E+00 
    3.7499999999904610E-01     0.0000000000000000E+00     0.0000000000000000E+00 
    4.3749999999886358E-01     0.0000000000000000E+00     0.0000000000000000E+00 
    4.9999999999869210E-01     0.0000000000000000E+00     0.0000000000000000E+00 
    5.6249999999884603E-01     0.0000000000000000E+00     0.0000000000000000E+00 
    6.2499999999901090E-01     0.0000000000000000E+00     0.0000000000000000E+00 
    6.8749999999917577E-01     0.0000000000000000E+00     0.0000000000000000E+00 
    7.4999999999934064E-01     0.0000000000000000E+00     0.0000000000000000E+00 
    8.1249999999950551E-01     0.0000000000000000E+00     0.0000000000000000E+00 
    8.7499999999967026E-01     0.0000000000000000E+00     0.0000000000000000E+00 
    9.3749999999983513E-01     0.0000000000000000E+00     0.0000000000000000E+00 
    1.0000000000000000E+00     6.2499999999872928E-02     0.0000000000000000E+00 
    1.0000000000000000E+00     1.2499999999977310E-01     0.0000000000000000E+00 
    1.0000000000000000E+00     1.8749999999959341E-01     0.0000000000000000E+00 
    1.0000000000000000E+00     2.4999999999941089E-01     0.0000000000000000E+00 
    1.0000000000000000E+00     3.1249999999922851E-01     0.0000000000000000E+00 
    1.0000000000000000E+00     3.7499999999904610E-01     0.0000000000000000E+00 
    1.0000000000000000E+00     4.3749999999886358E-01     0.0000000000000000E+00 
    1.0000000000000000E+00     4.9999999999869210E-01     0.0000000000000000E+00 
    1.0000000000000000E+00     5.6249999999884603E-01     0.0000000000000000E+00 
    1.0000000000000000E+00     6.2499999999901090E-01     0.0000000000000000E+00 
    1.0000000000000000E+00     6.8749999999917577E-01     0.0000000000000000E+00 
    1.0000000000000000E+00     7.4999999999934064E-01     0.0000000000000000E+00 
    1.0000000000000000E+00     8.1249999999950551E-01     0.0000000000000000E+00 
    1.0000000000000000E+00     8.7499999999967026E-01     0.0000000000000000E+00 
    1.0000000000000000E+00     9.3749999999983513E-01     0.0000000000000000E+00 
    9.3749999999973976E-01     1.0000000000000000E+00     0.0000000000000000E+00 
    8.7499999999950118E-01     1.0000000000000000E+00     0.0000000000000000E+00 
    8.1249999999991318E-01     1.0000000000000000E+00     0.0000000000000000E+00 
    7.5000000000034706E-01     1.0000000000000000E+00     0.0000000000000000E+00 
    6.8750000000078049E-01     1.0000000000000000E+00     0.0000000000000000E+00 
    6.2500000000121403E-01     1.0000000000000000E+00     0.0000000000000000E+00 
    5.6250000000164757E-01     1.0000000000000000E+00     0.0000000000000000E+00 
    5.0000000000205946E-01     1.0000000000000000E+00     0.0000000000000000E+00 
    4.3750000000182099E-01     1.0000000000000000E+00     0.0000000000000000E+00 
    3.7500000000156092E-01     1.0000000000000000E+00     0.0000000000000000E+00 
    3.1250000000130068E-01     1.0000000000000000E+00     0.0000000000000000E+00 
    2.5000000000104050E-01     1.0000000000000000E+00     0.0000000000000000E+00 
    1.8750000000078040E-01     1.0000000000000000E+00     0.0000000000000000E+00 
    1.2500000000052031E-01     1.0000000000000000E+00     0.0000000000000000E+00 
    6.2500000000260125E-02     1.0000000000000000E+00     0.0000000000000000E+00 
    0.0000000000000000E+00     9.3749999999973976E-01     0.0000000000000000E+00 
    0.0000000000000000E+00     8.7499999999950118E-01     0.0000000000000000E+00 
    0.0000000000000000E+00     8.1249999999991318E-01     0.0000000000000000E+00 
    0.0000000000000000E+00     7.5000000000034706E-01     0.0000000000000000E+00 
    0.0000000000000000E+00     6.8750000000078049E-01     0.0000000000000000E+00 
    0.0000000000000000E+00     6.2500000000121403E-01     0.0000000000000000E+00 
    0.0000000000000000E+00     5.6250000000164757E-01     0.0000000000000000E+00 
    0.0000000000000000E+00     5.0000000000205946E-01     0.0000000000000000E+00 
    0.0000000000000000E+00     4.3750000000182099E-01     0.0000000000000000E+00 
    0.0000000000000000E+00     3.7500000000156092E-01     0.0000000000000000E+00 
    0.0000000000000000E+00     3.1250000000130068E-01     0.0000000000000000E+00 
    0.0000000000000000E+00     2.5000000000104050E-01     0.0000000000000000E+00 
    0.0000000000000000E+00     1.8750000000078040E-01     0.0000000000000000E+00 
    0.0000000000000000E+00     1.2500000000052031E-01     0.0000000000000000E+00 
    0.0000000000000000E+00     6.2500000000260125E-02     0.0000000000000000E+00 
    6.2499999999897131E-02     6.2500000000235922E-02     0.0000000000000000E+00 
    6.2499999999921327E-02     1.2500000000047351E-01     0.0000000000000000E+00 
    6.2499999999945530E-02     1.8750000000070621E-01     0.0000000000000000E+00 
    6.2499999999969733E-02     2.5000000000093858E-01     0.0000000000000000E+00 
    6.2499999999993928E-02     3.1250000000117117E-01     0.0000000000000000E+00 
    6.2500000000018124E-02     3.7500000000140382E-01     0.0000000000000000E+00 
    6.2500000000042327E-02     4.3750000000163619E-01     0.0000000000000000E+00 
    6.2500000000066530E-02     5.0000000000184897E-01     0.0000000000000000E+00 
    6.2500000000090733E-02     5.6250000000147260E-01     0.0000000000000000E+00 
    6.2500000000114922E-02     6.2500000000107636E-01     0.0000000000000000E+00 
    6.2500000000139125E-02     6.8750000000068034E-01     0.0000000000000000E+00 
    6.2500000000163328E-02     7.5000000000028411E-01     0.0000000000000000E+00 
    6.2500000000187531E-02     8.1249999999988787E-01     0.0000000000000000E+00 
    6.2500000000211720E-02     8.7499999999951172E-01     0.0000000000000000E+00 
    6.2500000000235922E-02     9.3749999999974565E-01     0.0000000000000000E+00 
    1.2499999999981980E-01     6.2500000000211733E-02     0.0000000000000000E+00 
    1.2499999999986650E-01     1.2500000000042691E-01     0.0000000000000000E+00 
    1.2499999999991319E-01     1.8750000000063199E-01     0.0000000000000000E+00 
    1.2499999999995989E-01     2.5000000000083678E-01     0.0000000000000000E+00 
    1.2500000000000661E-01     3.1250000000104172E-01     0.0000000000000000E+00 
    1.2500000000005329E-01     3.7500000000124661E-01     0.0000000000000000E+00 
    1.2500000000010000E-01     4.3750000000145117E-01     0.0000000000000000E+00 
    1.2500000000014669E-01     5.0000000000163858E-01     0.0000000000000000E+00 
    1.2500000000019340E-01     5.6250000000129741E-01     0.0000000000000000E+00 
    1.2500000000024011E-01     6.2500000000093847E-01     0.0000000000000000E+00 
    1.2500000000028680E-01     6.8750000000057998E-01     0.0000000000000000E+00 
    1.2500000000033351E-01     7.5000000000022127E-01     0.0000000000000000E+00 
    1.2500000000038020E-01     8.1249999999986211E-01     0.0000000000000000E+00 
    1.2500000000042691E-01     8.7499999999952238E-01     0.0000000000000000E+00 
    1.2500000000047359E-01     9.3749999999975164E-01     0.0000000000000000E+00 
    1.8749999999966760E-01     6.2500000000187531E-02     0.0000000000000000E+00 
    1.8749999999974179E-01     1.2500000000038020E-01     0.0000000000000000E+00 
    1.8749999999981601E-01     1.8750000000055780E-01     0.0000000000000000E+00 
    1.8749999999989009E-01     2.5000000000073502E-01     0.0000000000000000E+00 
    1.8749999999996431E-01     3.1250000000091221E-01     0.0000000000000000E+00 
    1.8750000000003850E-01     3.7500000000108941E-01     0.0000000000000000E+00 
    1.8750000000011269E-01     4.3750000000126649E-01     0.0000000000000000E+00 
    1.8750000000018691E-01     5.0000000000142808E-01     0.0000000000000000E+00 
    1.8750000000026110E-01     5.6250000000112244E-01     0.0000000000000000E+00 
    1.8750000000033529E-01     6.2500000000080080E-01     0.0000000000000000E+00 
    1.8750000000040951E-01     6.8750000000047962E-01     0.0000000000000000E+00 
    1.8750000000048361E-01     7.5000000000015843E-01     0.0000000000000000E+00 
    1.8750000000055780E-01     8.1249999999983680E-01     0.0000000000000000E+00 
    1.8750000000063199E-01     8.7499999999953304E-01     0.0000000000000000E+00 
    1.8750000000070621E-01     9.3749999999975764E-01     0.0000000000000000E+00 
    2.4999999999951281E-01     6.2500000000163314E-02     0.0000000000000000E+00 
    2.4999999999961461E-01     1.2500000000033351E-01     0.0000000000000000E+00 
    2.4999999999971650E-01     1.8750000000048361E-01     0.0000000000000000E+00 
    2.4999999999981831E-01     2.5000000000063310E-01     0.0000000000000000E+00 
    2.4999999999992020E-01     3.1250000000078260E-01     0.0000000000000000E+00 
    2.5000000000002198E-01     3.7500000000093209E-01     0.0000000000000000E+00 
    2.5000000000012390E-01     4.3750000000108180E-01     0.0000000000000000E+00 
    2.5000000000022571E-01     5.0000000000121769E-01     0.0000000000000000E+00 
    2.5000000000032763E-01     5.6250000000094724E-01     0.0000000000000000E+00 
    2.5000000000042938E-01     6.2500000000066314E-01     0.0000000000000000E+00 
    2.5000000000053119E-01     6.8750000000037925E-01     0.0000000000000000E+00 
[...]
CELL_DATA 256 
SCALARS Pressure double 1 
LOOKUP_TABLE default 

    8.5818944923840590E-01 
    8.4597968016946501E-01 
    8.3383170460991729E-01 
    8.2284694573512129E-01 
    8.1493531387128737E-01 
    8.1162345702882144E-01 
    8.0567155199461049E-01 
    8.0077792286914140E-01 
    7.9736017833497375E-01 
    7.9538595857402139E-01 
    7.9277269638823256E-01 
    7.9022898003979736E-01 
    7.8752356736538942E-01 
    7.8460320336163158E-01 
    7.8193781389090045E-01 
    7.8023386403034378E-01 
    8.1384618369324335E-01 
    8.1047638783574949E-01 
    8.0648791064445213E-01 
    8.0218816018892669E-01 
    7.9795409594938260E-01 
    7.9328360760510885E-01 
    7.8826475679716423E-01 
    7.8531153247285057E-01 
    7.8212651079108386E-01 
    7.7890628125243833E-01 
    7.7611853378924600E-01 
    7.7411007382567465E-01 
    7.7207154887346807E-01 
    7.7043800673008778E-01 
    7.6927042037089510E-01 
    7.6847593925150615E-01 
    7.8148431737876722E-01 
    7.7992251491580400E-01 
    7.7810719929609229E-01 
    7.7586656715745594E-01 
    7.7306025383161814E-01 
    7.6933230748360348E-01 
    7.6516606588568792E-01 
    7.6269226898546483E-01 
    7.5949679432674033E-01 
    7.5613558766404398E-01 
    7.5349597464296303E-01 
    7.5189586919624951E-01 
    7.5024823871512314E-01 
    7.4934794305983199E-01 
    7.4908468870601985E-01 
    7.4905816761540345E-01 
    7.4837081313514842E-01 
    7.4820013379625028E-01 
    7.4789193188428693E-01 
    7.4711192908527180E-01 
    7.4556448328837821E-01 
    7.4283827729135565E-01 
    7.3944679184182893E-01 
    7.3724619138065817E-01 
    7.3425414320741056E-01 
    7.3106812362419182E-01 
    7.2873597678538304E-01 
    7.2751015239374306E-01 
    7.2617225699550869E-01 
    7.2570788781058360E-01 
    7.2596731645935675E-01 
    7.2626163362334262E-01 
    7.1785567039316800E-01 
    7.1992502356271504E-01 
    7.1982264674819207E-01 
    7.1912982668293202E-01 
    7.1772128273584268E-01 
    7.1510011440973342E-01 
    7.1193818034505163E-01 
    7.1053840818609493E-01 
    7.0818606265628969E-01 
    7.0535479917639554E-01 
    7.0336474998789289E-01 
    7.0299033361686414E-01 
    7.0191026632393738E-01 
    7.0148086939332110E-01 
    7.0146647549808239E-01 
    7.0111028029917477E-01 
    6.9261238360428279E-01 
    6.9114876192625863E-01 
    6.8889099711326096E-01 
    6.8569061783871943E-01 
    6.8231850749085987E-01 
    6.8001841976919442E-01 
    6.7898850862878357E-01 
    6.7851479836957862E-01 
    6.7794176006263085E-01 
    6.7796903790651042E-01 
    6.7797846284219720E-01 
    6.7723742790003461E-01 
    6.7562017802506114E-01 
    6.7400094663830801E-01 
    6.7262174774530470E-01 
    6.7182929245709821E-01 
    6.4741854994844716E-01 
    6.4708878116898283E-01 
    6.4626058105749984E-01 
    6.4507152070131202E-01 
    6.4407603279730341E-01 
    6.4410112214371917E-01 
    6.4434073294220817E-01 
    6.4222700500260221E-01 
    6.4149259895274435E-01 
    6.4176426445371626E-01 
    6.4185535883532008E-01 
    6.4052978882475620E-01 
    6.3982343331571567E-01 
    6.3926144577602273E-01 
    6.3894073352109837E-01 
    6.3875864753661571E-01 
    6.0567551878449744E-01 
    6.0658626660292925E-01 
    6.0723858980765089E-01 
    6.0763648901416945E-01 
    6.0776852700572392E-01 
    6.0763139625804630E-01 
    6.0691043906051745E-01 
    6.0572985729642859E-01 
    6.0458758026707549E-01 
    6.0373512560580755E-01 
    6.0297916773748961E-01 
    6.0231198448742140E-01 
    6.0178700011218633E-01 
    6.0177601216716614E-01 
    6.0228368580277014E-01 
    6.0251515444685533E-01 
    5.6949951947867739E-01 
    5.7135452676049592E-01 
    5.7142806902323573E-01 
    5.7130188833639794E-01 
    5.7069451553505246E-01 
    5.6941500043309046E-01 
    5.6772734656850232E-01 
    5.6695428420815042E-01 
    5.6555615188730901E-01 
    5.6451748412989744E-01 
    5.6404375797355211E-01 
    5.6424107433688142E-01 
    5.6381304019170109E-01 
    5.6386517652044421E-01 
    5.6418080816654337E-01 
    5.6359807613510959E-01 
    5.3575742900573253E-01 
    5.3501515927290066E-01 
    5.3342995260815484E-01 
    5.3117787302020814E-01 
    5.2890177845728181E-01 
    5.2716071161646416E-01 
    5.2578765688259577E-01 
    5.2488350450375776E-01 
    5.2450445493799913E-01 
    5.2522505509206974E-01 
    5.2627091631083867E-01 
    5.2574624334116860E-01 
    5.2410934311532420E-01 
    5.2217807783063019E-01 
    5.2036183013695136E-01 
    5.1928448212142264E-01 
    4.9611957059494394E-01 
    4.9533766468250234E-01 
    4.9396330524209819E-01 
    4.9224366545608300E-01 
    4.9069609741437537E-01 
    4.8931424760006331E-01 
    4.8686512018853667E-01 
    4.8384448130731722E-01 
    4.8222612907872781E-01 
    4.8091712185987623E-01 
    4.7865304695533178E-01 
    4.7556267319924223E-01 
    4.7324310895852778E-01 
    4.7132587639377382E-01 
    4.7049697421085429E-01 
    4.7036456084801198E-01 
    4.6017697780429773E-01 
    4.5958694627085295E-01 
    4.5851426153654279E-01 
    4.5683790726492524E-01 
    4.5445565334835364E-01 
    4.5131690403001701E-01 
    4.4787272170385878E-01 
    4.4408443084754906E-01 
    4.3916132842987304E-01 
    4.3324305471651736E-01 
    4.2752603742829737E-01 
    4.2263751924030812E-01 
    4.1819827050590030E-01 
    4.1552317864697386E-01 
    4.1523616741565117E-01 
    4.1609547943886654E-01 
    4.2271146480257749E-01 
    4.2204325675766519E-01 
    4.2072952678423525E-01 
    4.1838101565802810E-01 
    4.1483450629408586E-01 
    4.1041116343310136E-01 
    4.0581877777670894E-01 
    3.9999156475143061E-01 
    3.9192293025839064E-01 
    3.8273856504903353E-01 
    3.7426647503857557E-01 
    3.6693003275356129E-01 
    3.6026896198556213E-01 
    3.5624992987238663E-01 
    3.5561632312397151E-01 
    3.5675748967288612E-01 
    3.7974299371853421E-01 
    3.7891718126772328E-01 
    3.7713171708009241E-01 
    3.7390607779931423E-01 
    3.6925940990391765E-01 
    3.6378792586985642E-01 
    3.5798945644673091E-01 
    3.5025926369036797E-01 
    3.4010449141900156E-01 
    3.2909272652349514E-01 
    3.1865902524863127E-01 
    3.0887372830999199E-01 
    2.9933941388807755E-01 
    2.9226287739395890E-01 
    2.8893372724358724E-01 
    2.8805204992913663E-01 
    3.3256435676684337E-01 
    3.3157796292966152E-01 
    3.2931182392150665E-01 
    3.2527056217137645E-01 
    3.1962185939679688E-01 
    3.1312107255087235E-01 
    3.0628715126367423E-01 
    2.9751615770978262E-01 
    2.8650187578541747E-01 
    2.7429129318878226E-01 
    2.6144492463080260E-01 
    2.4762976569111336E-01 
    2.3195326784002468E-01 
    2.1622875136980010E-01 
    2.0239712726202902E-01 
    1.9235210952451529E-01 
    3.0158247528497639E-01 
    3.0042045554275021E-01 
    2.9778061669412093E-01 
    2.9317133327521949E-01 
    2.8678335900883428E-01 
    2.7965075613520513E-01 
    2.7285188686039968E-01 
    2.6465777594203499E-01 
    2.5324162542735079E-01 
    2.3795935261801052E-01 
    2.1966610224021615E-01 
    1.9666819333945904E-01 
    1.6462295535424112E-01 
    1.2183718425009325E-01 
    6.7667124183098989E-02 
    0.0000000000000000E+00 

SCALARS Saturarion double 1 
LOOKUP_TABLE default 

    1.0000000024612365E+00 
    9.8124137303657077E-01 
    9.4629605161092567E-01 
    9.0846608061961620E-01 
    8.6928130124684655E-01 
    8.2683562766374630E-01 
    7.8231480571984369E-01 
    7.3509126499924360E-01 
    6.8563735830898853E-01 
    6.4031641524037308E-01 
    5.9746841260157191E-01 
    5.5580412923449662E-01 
    5.1707101098953623E-01 
    4.7478111618151003E-01 
    3.6584420974196613E-01 
    2.7600831973864336E-02 
    9.5384589512649265E-01 
    9.4075120174364057E-01 
    9.1032255127206396E-01 
    8.7801930541860118E-01 
    8.4277724668856413E-01 
    8.0476043304492206E-01 
    7.6578889958892005E-01 
    7.2488180425521154E-01 
    6.8017785269652342E-01 
    6.3637645980828494E-01 
    5.9333158656305096E-01 
    5.4855359922084379E-01 
    5.0498235426427329E-01 
    4.5618748684149490E-01 
    2.2607511063700228E-01 
    5.1667574960617972E-04 
    8.6516089842689192E-01 
    8.5779391493515644E-01 
    8.4259276980277875E-01 
    8.2174807327155686E-01 
    7.9629253253038668E-01 
    7.6636016416003472E-01 
    7.3499259359791325E-01 
    7.0306167431100408E-01 
    6.6759144033153184E-01 
    6.2846898659490369E-01 
    5.8743166624981602E-01 
    5.4357398004358559E-01 
    4.9679797734761200E-01 
    4.3447278263973976E-01 
    1.0507526389854097E-01 
    5.8292467352540867E-05 
    7.8941159582210729E-01 
    7.8603546093423571E-01 
    7.7677720682165796E-01 
    7.6291427469392148E-01 
    7.4666207600557921E-01 
    7.2551907388732695E-01 
    7.0194960078969093E-01 
    6.7738793938230424E-01 
    6.5026365234665728E-01 
    6.1652985053003018E-01 
    5.7698875385758175E-01 
    5.3260004405208761E-01 
    4.8384808262507983E-01 
    3.9563041677326199E-01 
    3.5613004267131543E-02 
    6.4368759693608196E-06 
    7.3393950500154670E-01 
    7.3051623664019993E-01 
    7.2323648305512545E-01 
    7.1289649735153260E-01 
    6.9880090672229878E-01 
    6.8463013205692924E-01 
    6.6728037615342739E-01 
    6.4836700077780862E-01 
    6.2853824835618555E-01 
    6.0076989104491629E-01 
    5.6472126368088660E-01 
    5.2184383805910828E-01 
    4.7130490704000105E-01 
    3.4578873140929967E-01 
    1.2841872433932072E-02 
    2.6829621805431523E-06 
    6.8820864049368480E-01 
    6.8608607318267467E-01 
    6.8100977274321894E-01 
    6.7492219405678111E-01 
    6.6360940219868758E-01 
    6.4908074765823465E-01 
    6.3355391438770647E-01 
    6.1629687588930238E-01 
    6.0046233825071293E-01 
    5.7956394894336660E-01 
    5.5018010449352572E-01 
    5.1411098551860834E-01 
    4.6610168990418899E-01 
    3.0041828309352070E-01 
    2.5300795445345214E-03 
    1.0106407018256437E-06 
    6.4540785445653837E-01 
    6.4350411104925631E-01 
    6.3935849509300791E-01 
    6.3413535410729538E-01 
    6.3262373832211982E-01 
    6.1980360787692934E-01 
    6.0412095245273401E-01 
    5.8723144351013279E-01 
    5.6941503221567036E-01 
    5.5349980227858953E-01 
    5.3012669111959909E-01 
    5.0087363080567815E-01 
    4.5859713947936914E-01 
    2.4266048760080719E-01 
    3.6695191748514679E-04 
    1.0015685794195015E-06 
    6.0682013922766842E-01 
    6.0480544349568566E-01 
    6.0099152678340773E-01 
    5.9601953891184123E-01 
    6.0057275394209875E-01 
    5.9201437251274824E-01 
    5.7818280867613880E-01 
    5.6295542506120921E-01 
    5.4355779672803917E-01 
    5.2843483485624465E-01 
    5.0764619590764448E-01 
    4.8080342363419432E-01 
    4.3434389623640252E-01 
    1.1905883481276366E-01 
    5.5972871920464464E-05 
    1.0001546455434128E-06 
    5.7457984513374416E-01 
    5.7286303971491170E-01 
    5.6962255310866605E-01 
    5.6559565130608502E-01 
    5.6977836514134184E-01 
    5.6529897995838641E-01 
    5.5405607688879233E-01 
    5.4093708708254906E-01 
    5.2489443481476827E-01 
    5.0725373488711389E-01 
    4.8987813545104947E-01 
    4.6296121418872727E-01 
    3.9749734832936995E-01 
    6.3632998140024072E-02 
    2.4153699135185831E-05 
    1.0002004705222210E-06 
    5.4892368854397078E-01 
    5.4765701150195467E-01 
    5.4475889596664440E-01 
    5.4169215439001084E-01 
    5.4022748262009368E-01 
    5.4037100547042582E-01 
    5.3089883617720823E-01 
    5.1958055126438385E-01 
    5.0767527094163201E-01 
    4.8987292984131342E-01 
    4.7711508656339413E-01 
    4.5214539074061699E-01 
    3.5093511422310086E-01 
    3.0476107768100096E-02 
    2.1197654684314103E-05 
    1.0000376855615896E-06 
    5.2384227316718446E-01 
    5.2283734121373227E-01 
    5.2065111725197732E-01 
    5.1806535538424792E-01 
    5.1516699520291531E-01 
    5.1515987818985209E-01 
    5.0998380671337562E-01 
    5.0129187948128673E-01 
    4.9057250617262810E-01 
    4.7642866814469886E-01 
    4.6228846778469540E-01 
    4.4279267068386219E-01 
    3.2050954904005224E-01 
    1.3045709857239227E-02 
    7.2050346366351480E-06 
    1.0000003373775948E-06 
    4.9723319996382692E-01 
    4.9657894667963298E-01 
    4.9507503126264074E-01 
    4.9327153188891887E-01 
    4.9187161197567236E-01 
    4.8970913402930777E-01 
    4.8891588964492894E-01 
    4.8543315463424042E-01 
    4.7734372178032114E-01 
    4.6764271724694068E-01 
    4.5387011050136161E-01 
    4.3405824835865009E-01 
    3.3134929751106701E-01 
    2.4260057819471447E-02 
    3.6169556228986629E-05 
    1.0000003788404147E-06 
    4.6552209400963601E-01 
    4.6514588181316319E-01 
    4.6384415725718331E-01 
    4.6300619866524600E-01 
    4.6266980050186013E-01 
    4.6161722264568028E-01 
    4.5993905232665666E-01 
    4.5992580232921931E-01 
    4.6074290900154624E-01 
    4.5648888782451208E-01 
    4.4681387477290085E-01 
    4.3029008530284324E-01 
    3.5924167133982909E-01 
    6.5420265258756244E-02 
    1.8488850432583066E-04 
    1.0000015320301334E-06 
    3.8294913974831130E-01 
    3.8225587274752182E-01 
    3.8023992053001532E-01 
    3.7953780383805652E-01 
    3.7456589664540213E-01 
    3.7111940263266058E-01 
    3.7113276749543339E-01 
    3.7123110982134994E-01 
    3.9155245519594412E-01 
    4.1460704979743640E-01 
    4.2510188120759901E-01 
    4.1683884301047736E-01 
    3.5458691114269925E-01 
    6.2694384006523177E-02 
    5.4725936333640905E-04 
    1.0001270037423651E-06 
    4.9958841811597009E-02 
    4.8778072037274897E-02 
    4.8353773471827115E-02 
    4.8118745589731247E-02 
    4.0081979022042705E-02 
    3.8887596590373184E-02 
    4.0289775160836025E-02 
    4.2280771860351993E-02 
    1.2531519179675568E-01 
    2.0305090613361987E-01 
    2.7180605944606218E-01 
    3.0194693947080598E-01 
    2.2090167505740183E-01 
    1.1453102421157685E-02 
    1.1841601921697994E-04 
    1.0021730843875346E-06 
    1.2249440521386056E-06 
    1.0451047132177626E-06 
    1.0270470807812754E-06 
    1.0150777369328816E-06 
    2.0228327385377041E-05 
    9.2245853720544808E-06 
    3.8906927269691632E-06 
    4.0728646939177730E-06 
    5.6803251962738409E-04 
    6.8448699297511716E-04 
    5.9017105300832968E-03 
    1.4976762075880284E-02 
    2.3088499011749853E-03 
    2.8470219792703382E-05 
    1.0014125906836280E-06 
    1.0000002132419630E-06 
