# vtk DataFile Version 2.0
Pressure Field Data 
ASCII 
DATASET UNSTRUCTURED_GRID 

POINTS 289 double 

    0.0000000000000000E+00     0.0000000000000000E+00     0.0000000000000000E+00 
    1.0000000000000000E+00     0.0000000000000000E+00     0.0000000000000000E+00 
    1.0000000000000000E+00     1.0000000000000000E+00     0.0000000000000000E+00 
    0.0000000000000000E+00     1.0000000000000000E+00     0.0000000000000000E+00 
    6.2499999999872928E-02     0.0000000000000000E+00     0.0000000000000000E+00 
    1.2499999999977310E-01     0.0000000000000000E+00     0.0000000000000000E+00 
    1.8749999999959341E-01     0.0000000000000000E+00     0.0000000000000000E+00 
    2.4999999999941089E-01     0.0000000000000000E+00     0.0000000000000000E+00 
    3.1249999999922851E-01     0.0000000000000000E+00     0.0000000000000000E+00 
    3.7499999999904610E-01     0.0000000000000000E+00     0.0000000000000000E+00 
    4.3749999999886358E-01     0.0000000000000000E+00     0.0000000000000000E+00 
    4.9999999999869210E-01     0.0000000000000000E+00     0.0000000000000000E+00 
    5.6249999999884603E-01     0.0000000000000000E+00     0.0000000000000000E+00 
    6.2499999999901090E-01     0.0000000000000000E+00     0.0000000000000000E+00 
    6.8749999999917577E-01     0.0000000000000000E+00     0.0000000000000000E+00 
    7.4999999999934064E-01     0.0000000000000000E+00     0.0000000000000000E+00 
    8.1249999999950551E-01     0.0000000000000000E+00     0.0000000000000000E+00 
    8.7499999999967026E-01     0.0000000000000000E+00     0.0000000000000000E+00 
    9.3749999999983513E-01     0.0000000000000000E+00     0.0000000000000000E+00 
    1.0000000000000000E+00     6.2499999999872928E-02     0.0000000000000000E+00 
    1.0000000000000000E+00     1.2499999999977310E-01     0.0000000000000000E+00 
    1.0000000000000000E+00     1.8749999999959341E-01     0.0000000000000000E+00 
    1.0000000000000000E+00     2.4999999999941089E-01     0.0000000000000000E+00 
    1.0000000000000000E+00     3.1249999999922851E-01     0.0000000000000000E+00 
    1.0000000000000000E+00     3.7499999999904610E-01     0.0000000000000000E+00 
    1.0000000000000000E+00     4.3749999999886358E-01     0.0000000000000000E+00 
    1.0000000000000000E+00     4.9999999999869210E-01     0.0000000000000000E+00 
    1.0000000000000000E+00     5.6249999999884603E-01     0.0000000000000000E+00 
    1.0000000000000000E+00     6.2499999999901090E-01     0.0000000000000000E+00 
    1.0000000000000000E+00     6.8749999999917577E-01     0.0000000000000000E+00 
    1.0000000000000000E+00     7.4999999999934064E-01     0.0000000000000000E+00 
    1.0000000000000000E+00     8.1249999999950551E-01     0.0000000000000000E+00 
    1.0000000000000000E+00     8.7499999999967026E-01     0.0000000000000000E+00 
    1.0000000000000000E+00     9.3749999999983513E-01     0.0000000000000000E+00 
    9.3749999999973976E-01     1.0000000000000000E+00     0.0000000000000000E+00 
    8.7499999999950118E-01     1.0000000000000000E+00     0.0000000000000000E+00 
    8.1249999999991318E-01     1.0000000000000000E+00     0.0000000000000000E+00 
    7.5000000000034706E-01     1.0000000000000000E+00     0.0000000000000000E+00 
    6.8750000000078049E-01     1.0000000000000000E+00     0.0000000000000000E+00 
    6.2500000000121403E-01     1.0000000000000000E+00     0.0000000000000000E+00 
    5.6250000000164757E-01     1.0000000000000000E+00     0.0000000000000000E+00 
    5.0000000000205946E-01     1.0000000000000000E+00     0.0000000000000000E+00 
    4.3750000000182099E-01     1.0000000000000000E+00     0.0000000000000000E+00 
    3.7500000000156092E-01     1.0000000000000000E+00     0.0000000000000000E+00 
    3.1250000000130068E-01     1.0000000000000000E+00     0.0000000000000000E+00 
    2.5000000000104050E-01     1.0000000000000000E+00     0.0000000000000000E+00 
    1.8750000000078040E-01     1.0000000000000000E+00     0.0000000000000000E+00 
    1.2500000000052031E-01     1.0000000000000000E+00     0.0000000000000000E+00 
    6.2500000000260125E-02     1.0000000000000000E+00     0.0000000000000000E+00 
    0.0000000000000000E+00     9.3749999999973976E-01     0.0000000000000000E+00 
    0.0000000000000000E+00     8.7499999999950118E-01     0.0000000000000000E+00 
    0.0000000000000000E+00     8.1249999999991318E-01     0.0000000000000000E+00 
    0.0000000000000000E+00     7.5000000000034706E-01     0.0000000000000000E+00 
    0.0000000000000000E+00     6.8750000000078049E-01     0.0000000000000000E+00 
    0.0000000000000000E+00     6.2500000000121403E-01     0.0000000000000000E+00 
    0.0000000000000000E+00     5.6250000000164757E-01     0.0000000000000000E+00 
    0.0000000000000000E+00     5.0000000000205946E-01     0.0000000000000000E+00 
    0.0000000000000000E+00     4.3750000000182099E-01     0.0000000000000000E+00 
    0.0000000000000000E+00     3.7500000000156092E-01     0.0000000000000000E+00 
    0.0000000000000000E+00     3.1250000000130068E-01     0.0000000000000000E+00 
    0.0000000000000000E+00     2.5000000000104050E-01     0.0000000000000000E+00 
    0.0000000000000000E+00     1.8750000000078040E-01     0.0000000000000000E+00 
    0.0000000000000000E+00     1.2500000000052031E-01     0.0000000000000000E+00 
    0.0000000000000000E+00     6.2500000000260125E-02     0.0000000000000000E+00 
    6.2499999999897131E-02     6.2500000000235922E-02     0.0000000000000000E+00 
    6.2499999999921327E-02     1.2500000000047351E-01     0.0000000000000000E+00 
    6.2499999999945530E-02     1.8750000000070621E-01     0.0000000000000000E+00 
    6.2499999999969733E-02     2.5000000000093858E-01     0.0000000000000000E+00 
    6.2499999999993928E-02     3.1250000000117117E-01     0.0000000000000000E+00 
    6.2500000000018124E-02     3.7500000000140382E-01     0.0000000000000000E+00 
    6.2500000000042327E-02     4.3750000000163619E-01     0.0000000000000000E+00 
    6.2500000000066530E-02     5.0000000000184897E-01     0.0000000000000000E+00 
    6.2500000000090733E-02     5.6250000000147260E-01     0.0000000000000000E+00 
    6.2500000000114922E-02     6.2500000000107636E-01     0.0000000000000000E+00 
    6.2500000000139125E-02     6.8750000000068034E-01     0.0000000000000000E+00 
    6.2500000000163328E-02     7.5000000000028411E-01     0.0000000000000000E+00 
    6.2500000000187531E-02     8.1249999999988787E-01     0.0000000000000000E+00 
    6.2500000000211720E-02     8.7499999999951172E-01     0.0000000000000000E+00 
    6.2500000000235922E-02     9.3749999999974565E-01     0.0000000000000000E+00 
    1.2499999999981980E-01     6.2500000000211733E-02     0.0000000000000000E+00 
    1.2499999999986650E-01     1.2500000000042691E-01     0.0000000000000000E+00 
    1.2499999999991319E-01     1.8750000000063199E-01     0.0000000000000000E+00 
    1.2499999999995989E-01     2.5000000000083678E-01     0.0000000000000000E+00 
    1.2500000000000661E-01     3.1250000000104172E-01     0.0000000000000000E+00 
    1.2500000000005329E-01     3.7500000000124661E-01     0.0000000000000000E+00 
    1.2500000000010000E-01     4.3750000000145117E-01     0.0000000000000000E+00 
    1.2500000000014669E-01     5.0000000000163858E-01     0.0000000000000000E+00 
    1.2500000000019340E-01     5.6250000000129741E-01     0.0000000000000000E+00 
    1.2500000000024011E-01     6.2500000000093847E-01     0.0000000000000000E+00 
    1.2500000000028680E-01     6.8750000000057998E-01     0.0000000000000000E+00 
    1.2500000000033351E-01     7.5000000000022127E-01     0.0000000000000000E+00 
    1.2500000000038020E-01     8.1249999999986211E-01     0.0000000000000000E+00 
    1.2500000000042691E-01     8.7499999999952238E-01     0.0000000000000000E+00 
    1.2500000000047359E-01     9.3749999999975164E-01     0.0000000000000000E+00 
    1.8749999999966760E-01     6.2500000000187531E-02     0.0000000000000000E+00 
    1.8749999999974179E-01     1.2500000000038020E-01     0.0000000000000000E+00 
    1.8749999999981601E-01     1.8750000000055780E-01     0.0000000000000000E+00 
    1.8749999999989009E-01     2.5000000000073502E-01     0.0000000000000000E+00 
    1.8749999999996431E-01     3.1250000000091221E-01     0.0000000000000000E+00 
    1.8750000000003850E-01     3.7500000000108941E-01     0.0000000000000000E+00 
    1.8750000000011269E-01     4.3750000000126649E-01     0.0000000000000000E+00 
    1.8750000000018691E-01     5.0000000000142808E-01     0.0000000000000000E+00 
    1.8750000000026110E-01     5.6250000000112244E-01     0.0000000000000000E+00 
    1.8750000000033529E-01     6.2500000000080080E-01     0.0000000000000000E+00 
    1.8750000000040951E-01     6.8750000000047962E-01     0.0000000000000000E+00 
    1.8750000000048361E-01     7.5000000000015843E-01     0.0000000000000000E+00 
    1.8750000000055780E-01     8.1249999999983680E-01     0.0000000000000000E+00 
    1.8750000000063199E-01     8.7499999999953304E-01     0.0000000000000000E+00 
    1.8750000000070621E-01     9.3749999999975764E-01     0.0000000000000000E+00 
    2.4999999999951281E-01     6.2500000000163314E-02     0.0000000000000000E+00 
    2.4999999999961461E-01     1.2500000000033351E-01     0.0000000000000000E+00 
    2.4999999999971650E-01     1.8750000000048361E-01     0.0000000000000000E+00 
    2.4999999999981831E-01     2.5000000000063310E-01     0.0000000000000000E+00 
    2.4999999999992020E-01     3.1250000000078260E-01     0.0000000000000000E+00 
    2.5000000000002198E-01     3.7500000000093209E-01     0.0000000000000000E+00 
    2.5000000000012390E-01     4.3750000000108180E-01     0.0000000000000000E+00 
    2.5000000000022571E-01     5.0000000000121769E-01     0.0000000000000000E+00 
    2.5000000000032763E-01     5.6250000000094724E-01     0.0000000000000000E+00 
    2.5000000000042938E-01     6.2500000000066314E-01     0.0000000000000000E+00 
    2.5000000000053119E-01     6.8750000000037925E-01     0.0000000000000000E+00 
[...]
CELL_DATA 256 
SCALARS Pressure double 1 
LOOKUP_TABLE default 

    1.2067256106742530E+00 
    1.1933523110190167E+00 
    1.1755107247641579E+00 
    1.1564532091009891E+00 
    1.1388939174487440E+00 
    1.1189576121651468E+00 
    1.0977401497689270E+00 
    1.0821142082318020E+00 
    1.0694208798727241E+00 
    1.0584595034246926E+00 
    1.0488817952666052E+00 
    1.0409551997227184E+00 
    1.0338990911643955E+00 
    1.0276499766956955E+00 
    1.0224765275514611E+00 
    1.0187370326389349E+00 
    1.1396771169551874E+00 
    1.1337137968535520E+00 
    1.1247186746472086E+00 
    1.1122844643496246E+00 
    1.0967540539604104E+00 
    1.0788570255507768E+00 
    1.0623167826884476E+00 
    1.0487067514504993E+00 
    1.0359458289887220E+00 
    1.0253331549545630E+00 
    1.0171235050837604E+00 
    1.0102430496615347E+00 
    1.0043424191290231E+00 
    1.0001028949577324E+00 
    9.9741826715606552E-01 
    9.9568185601446635E-01 
    1.0661054895955715E+00 
    1.0619304862439971E+00 
    1.0549743378528991E+00 
    1.0443193123859709E+00 
    1.0311943632398366E+00 
    1.0180687763297518E+00 
    1.0065964876337177E+00 
    9.9610555798638334E-01 
    9.8564039111755319E-01 
    9.7703492795400215E-01 
    9.7046964821075521E-01 
    9.6488481200120191E-01 
    9.6035675255446817E-01 
    9.5786029932609218E-01 
    9.5716337201193680E-01 
    9.5724985073762814E-01 
    9.8057472826014069E-01 
    9.7842388335188735E-01 
    9.7384720121984558E-01 
    9.6705072813508608E-01 
    9.5928853489143828E-01 
    9.5173833462887614E-01 
    9.4466265271062999E-01 
    9.3733893461593676E-01 
    9.2971110395842760E-01 
    9.2339495978936548E-01 
    9.1864758288982007E-01 
    9.1450115472500648E-01 
    9.1127860442135888E-01 
    9.1016662675417537E-01 
    9.1086434417807816E-01 
    9.1190291985348737E-01 
    9.0381010777465021E-01 
    9.0328445407998015E-01 
    9.0052142794833390E-01 
    8.9685537612469268E-01 
    8.9237727617338169E-01 
    8.8773664490204029E-01 
    8.8322876609775491E-01 
    8.7882624437579515E-01 
    8.7400187962369169E-01 
    8.7020474618755139E-01 
    8.6751856460160348E-01 
    8.6517269488553949E-01 
    8.6309932885181384E-01 
    8.6276871888354301E-01 
    8.6347842809491204E-01 
    8.6348119976184756E-01 
    8.3230383746935976E-01 
    8.3105378302639454E-01 
    8.2886251776924902E-01 
    8.2629502465139049E-01 
    8.2411181248867271E-01 
    8.2249540575126756E-01 
    8.2095436961640444E-01 
    8.1944603336127786E-01 
    8.1839750709285686E-01 
    8.1799327241761377E-01 
    8.1745141954561573E-01 
    8.1619200707611728E-01 
    8.1468526162656119E-01 
    8.1314461684114392E-01 
    8.1150572364684936E-01 
    8.1016510158752431E-01 
    7.6039859133021337E-01 
    7.6029211243443651E-01 
    7.5988266730622211E-01 
    7.5960764368887934E-01 
    7.5955509613767869E-01 
    7.5919963840804816E-01 
    7.5776134593151656E-01 
    7.5630553225885766E-01 
    7.5613676203609637E-01 
    7.5609244642440365E-01 
    7.5516685596048261E-01 
    7.5393948924422116E-01 
    7.5329187806113984E-01 
    7.5280132649191600E-01 
    7.5260481894409892E-01 
    7.5241453424102511E-01 
    6.9704791011181055E-01 
    6.9767161766717789E-01 
    6.9801292926709591E-01 
    6.9823425371901515E-01 
    6.9815753781889367E-01 
    6.9758872060437471E-01 
    6.9637458184913181E-01 
    6.9490215961736423E-01 
    6.9371002994156561E-01 
    6.9287337666912130E-01 
    6.9189543924895103E-01 
    6.9084932521093623E-01 
    6.9014623104391581E-01 
    6.9038597047330064E-01 
    6.9157679697114938E-01 
    6.9260531758694488E-01 
    6.4001027415609635E-01 
    6.4044322233665396E-01 
    6.4000487420846885E-01 
    6.3953915579132103E-01 
    6.3866182441577679E-01 
    6.3744358575585225E-01 
    6.3595974382224874E-01 
    6.3467109972656377E-01 
    6.3328663682815345E-01 
    6.3265467723534485E-01 
    6.3217093128425128E-01 
    6.3149318572052282E-01 
    6.3083349152863588E-01 
    6.3148902714142252E-01 
    6.3298639785631339E-01 
    6.3346600807696463E-01 
    5.8212743235224018E-01 
    5.8163449556285418E-01 
    5.8053411917166109E-01 
    5.7928391668918511E-01 
    5.7822636771364877E-01 
    5.7732794223633466E-01 
    5.7639569036554039E-01 
    5.7596973190899092E-01 
    5.7612346692588323E-01 
    5.7678978556926552E-01 
    5.7751478810640378E-01 
    5.7701638931013799E-01 
    5.7596003138583418E-01 
    5.7457644868645275E-01 
    5.7307962672522139E-01 
    5.7218340538892232E-01 
    5.2544054578269683E-01 
    5.2504272977171063E-01 
    5.2430785107876154E-01 
    5.2359861173193534E-01 
    5.2291976204576840E-01 
    5.2168144958779550E-01 
    5.1946649762398778E-01 
    5.1790809868983745E-01 
    5.1713637874913043E-01 
    5.1587230198428069E-01 
    5.1385145484433414E-01 
    5.1182935265537344E-01 
    5.1047269440583476E-01 
    5.0929001907488891E-01 
    5.0862422006782404E-01 
    5.0828853171364508E-01 
    4.7407495729056304E-01 
    4.7372195799020178E-01 
    4.7290281085161689E-01 
    4.7160649300781682E-01 
    4.6977516007779013E-01 
    4.6742971104045278E-01 
    4.6475448016279330E-01 
    4.6143487372827974E-01 
    4.5735159194101660E-01 
    4.5283325204834934E-01 
    4.4865546345666218E-01 
    4.4487752031110900E-01 
    4.4173751289138824E-01 
    4.4000658279446614E-01 
    4.3982492296655668E-01 
    4.4034878884500556E-01 
    4.2419889204702793E-01 
    4.2363843649992694E-01 
    4.2233400144251504E-01 
    4.2009825958424407E-01 
    4.1699811529901282E-01 
    4.1335109510778828E-01 
    4.0928060832118818E-01 
    4.0375177937029016E-01 
    3.9689258112733028E-01 
    3.8973609297975503E-01 
    3.8307042601450741E-01 
    3.7678872335961888E-01 
    3.7154207672737005E-01 
    3.6874701798608239E-01 
    3.6846102068365111E-01 
    3.6942050634105550E-01 
    3.7515670556333763E-01 
    3.7435110198641092E-01 
    3.7252332628285512E-01 
    3.6932717985312763E-01 
    3.6489136620661744E-01 
    3.5975484421722270E-01 
    3.5418410345767543E-01 
    3.4671316103037059E-01 
    3.3747516973146807E-01 
    3.2783025250845010E-01 
    3.1848185195199508E-01 
    3.0934605071272303E-01 
    3.0123591007050393E-01 
    2.9590936467072693E-01 
    2.9342423676134627E-01 
    2.9273986429485283E-01 
    3.3033932485851591E-01 
    3.2934210304497630E-01 
    3.2709254210894845E-01 
    3.2308982595519581E-01 
    3.1747961381574757E-01 
    3.1102476440171523E-01 
    3.0431670381048287E-01 
    2.9558280449288743E-01 
    2.8462685750873273E-01 
    2.7251425414744612E-01 
    2.5968988569518264E-01 
    2.4592970941473261E-01 
    2.3127289244208565E-01 
    2.1690183209502428E-01 
    2.0364608195499512E-01 
    1.9393791549313416E-01 
    3.0171785292902531E-01 
    3.0053396748451083E-01 
    2.9792026909687408E-01 
    2.9337812503259003E-01 
    2.8707361672577020E-01 
    2.7997913158585336E-01 
    2.7317839269636385E-01 
    2.6465909071218352E-01 
    2.5271766116781047E-01 
    2.3680875044509334E-01 
    2.1826168011333519E-01 
    1.9549383136846613E-01 
    1.6428984171228728E-01 
    1.2214023870319658E-01 
    6.7892062408456869E-02 
    0.0000000000000000E+00 

SCALARS Saturarion double 1 
LOOKUP_TABLE default 

    9.9668798313071760E-01 
    8.3675537753148010E-01 
    6.6295169352838812E-01 
    5.7948154409923225E-01 
    5.0812939068641305E-01 
    3.9674521695611575E-01 
    4.0141960683412303E-02 
    1.0589484586711507E-06 
    1.0000000136514599E-06 
    9.9999999999999974E-07 
    9.9999999999999995E-07 
    9.9999999999999995E-07 
    9.9999999999999995E-07 
    9.9999999999999995E-07 
    9.9999999999999995E-07 
    9.9999999999999995E-07 
    7.2769527536787182E-01 
    6.7514958965428906E-01 
    5.9020869479027560E-01 
    5.2284416258386923E-01 
    4.4199040738330381E-01 
    1.6259660994559702E-01 
    1.7115129539619846E-03 
    1.0844146743947652E-06 
    1.0000000207596353E-06 
    1.0000000000000019E-06 
    9.9999999999999995E-07 
    9.9999999999999995E-07 
    9.9999999999999995E-07 
    9.9999999999999995E-07 
    9.9999999999999995E-07 
    9.9999999999999995E-07 
    4.9921783058216435E-01 
    4.7999704550096467E-01 
    4.0636360115928200E-01 
    2.9034107603672227E-01 
    1.0094673168186273E-01 
    3.6208197813218691E-03 
    2.0595314667962236E-06 
    1.0000003042061462E-06 
    1.0000000000000108E-06 
    9.9999999999999995E-07 
    9.9999999999999995E-07 
    9.9999999999999995E-07 
    9.9999999999999995E-07 
    9.9999999999999995E-07 
    9.9999999999999995E-07 
    9.9999999999999995E-07 
    6.7344486766664824E-02 
    4.0313442311006226E-02 
    1.5182764858175837E-02 
    2.4317130101409461E-03 
    2.0960640335423338E-04 
    6.7796440753386397E-06 
    1.0000002595721900E-06 
    1.0000000000000658E-06 
    9.9999999999999995E-07 
    9.9999999999999995E-07 
    9.9999999999999995E-07 
    9.9999999999999995E-07 
    9.9999999999999995E-07 
    9.9999999999999995E-07 
    9.9999999999999995E-07 
    9.9999999999999995E-07 
    3.1969193563286091E-05 
    3.8792789214928412E-05 
    2.8552631882883135E-05 
    1.2976718277267535E-06 
    1.0071583102297673E-06 
    1.0000064535432928E-06 
    1.0000000000000620E-06 
    9.9999999999999995E-07 
    9.9999999999999995E-07 
    9.9999999999999995E-07 
    9.9999999999999995E-07 
    9.9999999999999995E-07 
    9.9999999999999995E-07 
    9.9999999999999995E-07 
    9.9999999999999995E-07 
    9.9999999999999995E-07 
    1.0000528909862839E-06 
    1.0000671006599149E-06 
    1.0000176047524667E-06 
    1.0000000480146758E-06 
    1.0000000008028481E-06 
    1.0000000000001230E-06 
    9.9999999999999995E-07 
    9.9999999999999995E-07 
    9.9999999999999995E-07 
    9.9999999999999995E-07 
    9.9999999999999995E-07 
    9.9999999999999995E-07 
    9.9999999999999995E-07 
    9.9999999999999995E-07 
    9.9999999999999995E-07 
    9.9999999999999995E-07 
    1.0000000000017133E-06 
    1.0000000000064412E-06 
    1.0000000000007741E-06 
    1.0000000000000116E-06 
    1.0000000000000012E-06 
    9.9999999999999995E-07 
    9.9999999999999995E-07 
    9.9999999999999995E-07 
    9.9999999999999995E-07 
    9.9999999999999995E-07 
    9.9999999999999995E-07 
    9.9999999999999995E-07 
    9.9999999999999995E-07 
    9.9999999999999995E-07 
    9.9999999999999995E-07 
    9.9999999999999995E-07 
    9.9999999999999995E-07 
    9.9999999999999995E-07 
    9.9999999999999995E-07 
    9.9999999999999995E-07 
    9.9999999999999995E-07 
    9.9999999999999995E-07 
    9.9999999999999995E-07 
    9.9999999999999995E-07 
    9.9999999999999995E-07 
    9.9999999999999995E-07 
    9.9999999999999995E-07 
    9.9999999999999995E-07 
    9.9999999999999995E-07 
    9.9999999999999995E-07 
    9.9999999999999995E-07 
    9.9999999999999995E-07 
    9.9999999999999995E-07 
    9.9999999999999995E-07 
    9.9999999999999995E-07 
    9.9999999999999995E-07 
    9.9999999999999995E-07 
    9.9999999999999995E-07 
    9.9999999999999995E-07 
    9.9999999999999995E-07 
    9.9999999999999995E-07 
    9.9999999999999995E-07 
    9.9999999999999995E-07 
    9.9999999999999995E-07 
    9.9999999999999995E-07 
    9.9999999999999995E-07 
    9.9999999999999995E-07 
    9.9999999999999995E-07 
    9.9999999999999995E-07 
    9.9999999999999995E-07 
    9.9999999999999995E-07 
    9.9999999999999995E-07 
    9.9999999999999995E-07 
    9.9999999999999995E-07 
    9.9999999999999995E-07 
    9.9999999999999995E-07 
    9.9999999999999995E-07 
    9.9999999999999995E-07 
    9.9999999999999995E-07 
    9.9999999999999995E-07 
    9.9999999999999995E-07 
    9.9999999999999995E-07 
    9.9999999999999995E-07 
    9.9999999999999995E-07 
    9.9999999999999995E-07 
    9.9999999999999995E-07 
    9.9999999999999995E-07 
    9.9999999999999995E-07 
    9.9999999999999995E-07 
    9.9999999999999995E-07 
    9.9999999999999995E-07 
    9.9999999999999995E-07 
    9.9999999999999995E-07 
    9.9999999999999995E-07 
    9.9999999999999995E-07 
    9.9999999999999995E-07 
    9.9999999999999995E-07 
    9.9999999999999995E-07 
    9.9999999999999995E-07 
    9.9999999999999995E-07 
    9.9999999999999995E-07 
    9.9999999999999995E-07 
    9.9999999999999995E-07 
    9.9999999999999995E-07 
    9.9999999999999995E-07 
    9.9999999999999995E-07 
    9.9999999999999995E-07 
    9.9999999999999995E-07 
    9.9999999999999995E-07 
    9.9999999999999995E-07 
    9.9999999999999995E-07 
    9.9999999999999995E-07 
    9.9999999999999995E-07 
    9.9999999999999995E-07 
    9.9999999999999995E-07 
    9.9999999999999995E-07 
    9.9999999999999995E-07 
    9.9999999999999995E-07 
    9.9999999999999995E-07 
    9.9999999999999995E-07 
    9.9999999999999995E-07 
    9.9999999999999995E-07 
    9.9999999999999995E-07 
    9.9999999999999995E-07 
    9.9999999999999995E-07 
    9.9999999999999995E-07 
    9.9999999999999995E-07 
    9.9999999999999995E-07 
    9.9999999999999995E-07 
    9.9999999999999995E-07 
    9.9999999999999995E-07 
    9.9999999999999995E-07 
    9.9999999999999995E-07 
    9.9999999999999995E-07 
    9.9999999999999995E-07 
    9.9999999999999995E-07 
    9.9999999999999995E-07 
    9.9999999999999995E-07 
    9.9999999999999995E-07 
    9.9999999999999995E-07 
    9.9999999999999995E-07 
    9.9999999999999995E-07 
    9.9999999999999995E-07 
    9.9999999999999995E-07 
    9.9999999999999995E-07 
    9.9999999999999995E-07 
    9.9999999999999995E-07 
    9.9999999999999995E-07 
    9.9999999999999995E-07 
    9.9999999999999995E-07 
    9.9999999999999995E-07 
    9.9999999999999995E-07 
    9.9999999999999995E-07 
    9.9999999999999995E-07 
    9.9999999999999995E-07 
    9.9999999999999995E-07 
    9.9999999999999995E-07 
    9.9999999999999995E-07 
    9.9999999999999995E-07 
    9.9999999999999995E-07 
    9.9999999999999995E-07 
    9.9999999999999995E-07 
    9.9999999999999995E-07 
    9.9999999999999995E-07 
    9.9999999999999995E-07 
    9.9999999999999995E-07 
    9.9999999999999995E-07 
    9.9999999999999995E-07 
    9.9999999999999995E-07 
    9.9999999999999995E-07 
    9.9999999999999995E-07 
    9.9999999999999995E-07 
    9.9999999999999995E-07 
    9.9999999999999995E-07 
    9.9999999999999995E-07 
    9.9999999999999995E-07 
    9.9999999999999995E-07 
    9.9999999999999995E-07 
    9.9999999999999995E-07 
    1.0000000155177308E-06 
