# vtk DataFile Version 2.0
Pressure Field Data 
ASCII 
DATASET UNSTRUCTURED_GRID 

POINTS 289 double 

    0.0000000000000000E+00     0.0000000000000000E+00     0.0000000000000000E+00 
    1.0000000000000000E+00     0.0000000000000000E+00     0.0000000000000000E+00 
    1.0000000000000000E+00     1.0000000000000000E+00     0.0000000000000000E+00 
    0.0000000000000000E+00     1.0000000000000000E+00     0.0000000000000000E+00 
    6.2499999999872928E-02     0.0000000000000000E+00     0.0000000000000000E+00 
    1.2499999999977310E-01     0.0000000000000000E+00     0.0000000000000000E+00 
    1.8749999999959341E-01     0.0000000000000000E+00     0.0000000000000000E+00 
    2.4999999999941089E-01     0.0000000000000000E+00     0.0000000000000000E+00 
    3.1249999999922851E-01     0.0000000000000000E+00     0.0000000000000000E+00 
    3.7499999999904610E-01     0.0000000000000000E+00     0.0000000000000000E+00 
    4.3749999999886358E-01     0.0000000000000000E+00     0.0000000000000000E+00 
    4.9999999999869210E-01     0.0000000000000000E+00     0.0000000000000000E+00 
    5.6249999999884603E-01     0.0000000000000000E+00     0.0000000000000000E+00 
    6.2499999999901090E-01     0.0000000000000000E+00     0.0000000000000000E+00 
    6.8749999999917577E-01     0.0000000000000000E+00     0.0000000000000000E+00 
    7.4999999999934064E-01     0.0000000000000000E+00     0.0000000000000000E+00 
    8.1249999999950551E-01     0.0000000000000000E+00     0.0000000000000000E+00 
    8.7499999999967026E-01     0.0000000000000000E+00     0.0000000000000000E+00 
    9.3749999999983513E-01     0.0000000000000000E+00     0.0000000000000000E+00 
    1.0000000000000000E+00     6.2499999999872928E-02     0.0000000000000000E+00 
    1.0000000000000000E+00     1.2499999999977310E-01     0.0000000000000000E+00 
    1.0000000000000000E+00     1.8749999999959341E-01     0.0000000000000000E+00 
    1.0000000000000000E+00     2.4999999999941089E-01     0.0000000000000000E+00 
    1.0000000000000000E+00     3.1249999999922851E-01     0.0000000000000000E+00 
    1.0000000000000000E+00     3.7499999999904610E-01     0.0000000000000000E+00 
    1.0000000000000000E+00     4.3749999999886358E-01     0.0000000000000000E+00 
    1.0000000000000000E+00     4.9999999999869210E-01     0.0000000000000000E+00 
    1.0000000000000000E+00     5.6249999999884603E-01     0.0000000000000000E+00 
    1.0000000000000000E+00     6.2499999999901090E-01     0.0000000000000000E+00 
    1.0000000000000000E+00     6.8749999999917577E-01     0.0000000000000000E+00 
    1.0000000000000000E+00     7.4999999999934064E-01     0.0000000000000000E+00 
    1.0000000000000000E+00     8.1249999999950551E-01     0.0000000000000000E+00 
    1.0000000000000000E+00     8.7499999999967026E-01     0.0000000000000000E+00 
    1.0000000000000000E+00     9.3749999999983513E-01     0.0000000000000000E+00 
    9.3749999999973976E-01     1.0000000000000000E+00     0.0000000000000000E+00 
    8.7499999999950118E-01     1.0000000000000000E+00     0.0000000000000000E+00 
    8.1249999999991318E-01     1.0000000000000000E+00     0.0000000000000000E+00 
    7.5000000000034706E-01     1.0000000000000000E+00     0.0000000000000000E+00 
    6.8750000000078049E-01     1.0000000000000000E+00     0.0000000000000000E+00 
    6.2500000000121403E-01     1.0000000000000000E+00     0.0000000000000000E+00 
    5.6250000000164757E-01     1.0000000000000000E+00     0.0000000000000000E+00 
    5.0000000000205946E-01     1.0000000000000000E+00     0.0000000000000000E+00 
    4.3750000000182099E-01     1.0000000000000000E+00     0.0000000000000000E+00 
    3.7500000000156092E-01     1.0000000000000000E+00     0.0000000000000000E+00 
    3.1250000000130068E-01     1.0000000000000000E+00     0.0000000000000000E+00 
    2.5000000000104050E-01     1.0000000000000000E+00     0.0000000000000000E+00 
    1.8750000000078040E-01     1.0000000000000000E+00     0.0000000000000000E+00 
    1.2500000000052031E-01     1.0000000000000000E+00     0.0000000000000000E+00 
    6.2500000000260125E-02     1.0000000000000000E+00     0.0000000000000000E+00 
    0.0000000000000000E+00     9.3749999999973976E-01     0.0000000000000000E+00 
    0.0000000000000000E+00     8.7499999999950118E-01     0.0000000000000000E+00 
    0.0000000000000000E+00     8.1249999999991318E-01     0.0000000000000000E+00 
    0.0000000000000000E+00     7.5000000000034706E-01     0.0000000000000000E+00 
    0.0000000000000000E+00     6.8750000000078049E-01     0.0000000000000000E+00 
    0.0000000000000000E+00     6.2500000000121403E-01     0.0000000000000000E+00 
    0.0000000000000000E+00     5.6250000000164757E-01     0.0000000000000000E+00 
    0.0000000000000000E+00     5.0000000000205946E-01     0.0000000000000000E+00 
    0.0000000000000000E+00     4.3750000000182099E-01     0.0000000000000000E+00 
    0.0000000000000000E+00     3.7500000000156092E-01     0.0000000000000000E+00 
    0.0000000000000000E+00     3.1250000000130068E-01     0.0000000000000000E+00 
    0.0000000000000000E+00     2.5000000000104050E-01     0.0000000000000000E+00 
    0.0000000000000000E+00     1.8750000000078040E-01     0.0000000000000000E+00 
    0.0000000000000000E+00     1.2500000000052031E-01     0.0000000000000000E+00 
    0.0000000000000000E+00     6.2500000000260125E-02     0.0000000000000000E+00 
    6.2499999999897131E-02     6.2500000000235922E-02     0.0000000000000000E+00 
    6.2499999999921327E-02     1.2500000000047351E-01     0.0000000000000000E+00 
    6.2499999999945530E-02     1.8750000000070621E-01     0.0000000000000000E+00 
    6.2499999999969733E-02     2.5000000000093858E-01     0.0000000000000000E+00 
    6.2499999999993928E-02     3.1250000000117117E-01     0.0000000000000000E+00 
    6.2500000000018124E-02     3.7500000000140382E-01     0.0000000000000000E+00 
    6.2500000000042327E-02     4.3750000000163619E-01     0.0000000000000000E+00 
    6.2500000000066530E-02     5.0000000000184897E-01     0.0000000000000000E+00 
    6.2500000000090733E-02     5.6250000000147260E-01     0.0000000000000000E+00 
    6.2500000000114922E-02     6.2500000000107636E-01     0.0000000000000000E+00 
    6.2500000000139125E-02     6.8750000000068034E-01     0.0000000000000000E+00 
    6.2500000000163328E-02     7.5000000000028411E-01     0.0000000000000000E+00 
    6.2500000000187531E-02     8.1249999999988787E-01     0.0000000000000000E+00 
    6.2500000000211720E-02     8.7499999999951172E-01     0.0000000000000000E+00 
    6.2500000000235922E-02     9.3749999999974565E-01     0.0000000000000000E+00 
    1.2499999999981980E-01     6.2500000000211733E-02     0.0000000000000000E+00 
    1.2499999999986650E-01     1.2500000000042691E-01     0.0000000000000000E+00 
    1.2499999999991319E-01     1.8750000000063199E-01     0.0000000000000000E+00 
    1.2499999999995989E-01     2.5000000000083678E-01     0.0000000000000000E+00 
    1.2500000000000661E-01     3.1250000000104172E-01     0.0000000000000000E+00 
    1.2500000000005329E-01     3.7500000000124661E-01     0.0000000000000000E+00 
    1.2500000000010000E-01     4.3750000000145117E-01     0.0000000000000000E+00 
    1.2500000000014669E-01     5.0000000000163858E-01     0.0000000000000000E+00 
    1.2500000000019340E-01     5.6250000000129741E-01     0.0000000000000000E+00 
    1.2500000000024011E-01     6.2500000000093847E-01     0.0000000000000000E+00 
    1.2500000000028680E-01     6.8750000000057998E-01     0.0000000000000000E+00 
    1.2500000000033351E-01     7.5000000000022127E-01     0.0000000000000000E+00 
    1.2500000000038020E-01     8.1249999999986211E-01     0.0000000000000000E+00 
    1.2500000000042691E-01     8.7499999999952238E-01     0.0000000000000000E+00 
    1.2500000000047359E-01     9.3749999999975164E-01     0.0000000000000000E+00 
    1.8749999999966760E-01     6.2500000000187531E-02     0.0000000000000000E+00 
    1.8749999999974179E-01     1.2500000000038020E-01     0.0000000000000000E+00 
    1.8749999999981601E-01     1.8750000000055780E-01     0.0000000000000000E+00 
    1.8749999999989009E-01     2.5000000000073502E-01     0.0000000000000000E+00 
    1.8749999999996431E-01     3.1250000000091221E-01     0.0000000000000000E+00 
    1.8750000000003850E-01     3.7500000000108941E-01     0.0000000000000000E+00 
    1.8750000000011269E-01     4.3750000000126649E-01     0.0000000000000000E+00 
    1.8750000000018691E-01     5.0000000000142808E-01     0.0000000000000000E+00 
    1.8750000000026110E-01     5.6250000000112244E-01     0.0000000000000000E+00 
    1.8750000000033529E-01     6.2500000000080080E-01     0.0000000000000000E+00 
    1.8750000000040951E-01     6.8750000000047962E-01     0.0000000000000000E+00 
    1.8750000000048361E-01     7.5000000000015843E-01     0.0000000000000000E+00 
    1.8750000000055780E-01     8.1249999999983680E-01     0.0000000000000000E+00 
    1.8750000000063199E-01     8.7499999999953304E-01     0.0000000000000000E+00 
    1.8750000000070621E-01     9.3749999999975764E-01     0.0000000000000000E+00 
    2.4999999999951281E-01     6.2500000000163314E-02     0.0000000000000000E+00 
    2.4999999999961461E-01     1.2500000000033351E-01     0.0000000000000000E+00 
    2.4999999999971650E-01     1.8750000000048361E-01     0.0000000000000000E+00 
    2.4999999999981831E-01     2.5000000000063310E-01     0.0000000000000000E+00 
    2.4999999999992020E-01     3.1250000000078260E-01     0.0000000000000000E+00 
    2.5000000000002198E-01     3.7500000000093209E-01     0.0000000000000000E+00 
    2.5000000000012390E-01     4.3750000000108180E-01     0.0000000000000000E+00 
    2.5000000000022571E-01     5.0000000000121769E-01     0.0000000000000000E+00 
    2.5000000000032763E-01     5.6250000000094724E-01     0.0000000000000000E+00 
    2.5000000000042938E-01     6.2500000000066314E-01     0.0000000000000000E+00 
    2.5000000000053119E-01     6.8750000000037925E-01     0.0000000000000000E+00 
[...]
CELL_DATA 256 
SCALARS Pressure double 1 
LOOKUP_TABLE default 

    8.9808978138403628E-01 
    8.8588257780623125E-01 
    8.7366568787825827E-01 
    8.6257188123285489E-01 
    8.5456835654899732E-01 
    8.5108589781052668E-01 
    8.4494804961415138E-01 
    8.3991781756978279E-01 
    8.3640048456981642E-01 
    8.3425077238880385E-01 
    8.3147131596689638E-01 
    8.2871030552243452E-01 
    8.2572203999373472E-01 
    8.2252388633952600E-01 
    8.1968786009811689E-01 
    8.1788917484448298E-01 
    8.5312858850575568E-01 
    8.4972417005046408E-01 
    8.4566952275463847E-01 
    8.4127395323987153E-01 
    8.3690805399543178E-01 
    8.3206066464250117E-01 
    8.2690545278864402E-01 
    8.2381041439085356E-01 
    8.2044894490177478E-01 
    8.1706969056541989E-01 
    8.1418725762889854E-01 
    8.1203750676781727E-01 
    8.0986505506387640E-01 
    8.0803916111522922E-01 
    8.0664957773392709E-01 
    8.0575653307194051E-01 
    8.1980106715707168E-01 
    8.1819533406202460E-01 
    8.1631405645153776E-01 
    8.1397068188644883E-01 
    8.1100922546862042E-01 
    8.0708303633866607E-01 
    8.0277324608803435E-01 
    8.0014877280587016E-01 
    7.9675873909542871E-01 
    7.9325769138831204E-01 
    7.9058852385540956E-01 
    7.8893319735027723E-01 
    7.8730286138403172E-01 
    7.8631135572760613E-01 
    7.8592557021643883E-01 
    7.8589126955829647E-01 
    7.8539461022155277E-01 
    7.8520312971621609E-01 
    7.8484940496358957E-01 
    7.8397595981885848E-01 
    7.8226867888878848E-01 
    7.7933513048637859E-01 
    7.7579701142749513E-01 
    7.7344035510527653E-01 
    7.7025386296347875E-01 
    7.6694715630767318E-01 
    7.6462288861413208E-01 
    7.6338113459015988E-01 
    7.6211777481860143E-01 
    7.6162282757767774E-01 
    7.6181420154645940E-01 
    7.6211923766895739E-01 
    7.5363367917525004E-01 
    7.5564476872012110E-01 
    7.5541683766936185E-01 
    7.5457501695085005E-01 
    7.5296412075817987E-01 
    7.5012967349622728E-01 
    7.4685741257560401E-01 
    7.4531039900822349E-01 
    7.4276480961765201E-01 
    7.3983769571637648E-01 
    7.3788835505057349E-01 
    7.3744770318607766E-01 
    7.3632702882146939E-01 
    7.3579236069171772E-01 
    7.3566338200733372E-01 
    7.3522863871371591E-01 
    7.2636403785672488E-01 
    7.2484037222634978E-01 
    7.2247691813875747E-01 
    7.1914949726987842E-01 
    7.1568408790840399E-01 
    7.1333212039057847E-01 
    7.1224871043005678E-01 
    7.1166885676197100E-01 
    7.1099481432470746E-01 
    7.1091721120208118E-01 
    7.1075419124590999E-01 
    7.0974965295932313E-01 
    7.0789380056494111E-01 
    7.0608088729528973E-01 
    7.0458165318920274E-01 
    7.0368657840137194E-01 
    6.7886162481586698E-01 
    6.7852275871022183E-01 
    6.7765483677427996E-01 
    6.7641155810262577E-01 
    6.7537657702350495E-01 
    6.7535644705868536E-01 
    6.7540984882633970E-01 
    6.7313208890402221E-01 
    6.7227665712362883E-01 
    6.7239998505342735E-01 
    6.7224278660190639E-01 
    6.7071173060402600E-01 
    6.6973161408712889E-01 
    6.6884143017970876E-01 
    6.6839544351941382E-01 
    6.6822557901424762E-01 
    6.3487142323692736E-01 
    6.3579807227483998E-01 
    6.3642695908547431E-01 
    6.3675522756596115E-01 
    6.3675877247576573E-01 
    6.3646776653803094E-01 
    6.3555829632460414E-01 
    6.3411428471031706E-01 
    6.3268062550243132E-01 
    6.3160016201536573E-01 
    6.3068701079357337E-01 
    6.2985606790111548E-01 
    6.2904346129867317E-01 
    6.2872062620615077E-01 
    6.2915952227076011E-01 
    6.2949668683025017E-01 
    5.9641627851284407E-01 
    5.9819654085615015E-01 
    5.9817013866254565E-01 
    5.9790965255936357E-01 
    5.9708704782993849E-01 
    5.9559234114834514E-01 
    5.9367074177092716E-01 
    5.9256354350054941E-01 
    5.9085053019956424E-01 
    5.8966213173010540E-01 
    5.8906792588166323E-01 
    5.8898597709917999E-01 
    5.8819994867412018E-01 
    5.8801969816194133E-01 
    5.8832344915632007E-01 
    5.8781897300697661E-01 
    5.5948148194381853E-01 
    5.5872365413169822E-01 
    5.5707729453667398E-01 
    5.5474812400444840E-01 
    5.5236549834024784E-01 
    5.5043802143760745E-01 
    5.4885230793767759E-01 
    5.4777671022318841E-01 
    5.4726549270222735E-01 
    5.4779672898496401E-01 
    5.4844538645714880E-01 
    5.4737177337715237E-01 
    5.4531136020907489E-01 
    5.4315800730210184E-01 
    5.4116714770533625E-01 
    5.3999534218073153E-01 
    5.1639516578836564E-01 
    5.1561349563431325E-01 
    5.1421367848547928E-01 
    5.1248661677595742E-01 
    5.1094108644377156E-01 
    5.0948155519012295E-01 
    5.0693913447732675E-01 
    5.0393662555523722E-01 
    5.0224472136314657E-01 
    5.0056830566123500E-01 
    4.9773448694614270E-01 
    4.9393130294885423E-01 
    4.9062811050136368E-01 
    4.8818459443927925E-01 
    4.8714103340821591E-01 
    4.8685260052653045E-01 
    4.7657808978124916E-01 
    4.7599971735158353E-01 
    4.7488377635385082E-01 
    4.7312244820349864E-01 
    4.7065746412217185E-01 
    4.6751785631565140E-01 
    4.6409683124436668E-01 
    4.5999406993775532E-01 
    4.5462558658086299E-01 
    4.4832476566272017E-01 
    4.4206038885311955E-01 
    4.3554376654324112E-01 
    4.2978202956583506E-01 
    4.2674005817157284E-01 
    4.2625904318610897E-01 
    4.2695363876362746E-01 
    4.3278874084849722E-01 
    4.3205618462936185E-01 
    4.3047831337637266E-01 
    4.2772498483443483E-01 
    4.2379600696818365E-01 
    4.1913370344702994E-01 
    4.1414405931357001E-01 
    4.0743662693241439E-01 
    3.9876276612402178E-01 
    3.8942409317286364E-01 
    3.8024250211232802E-01 
    3.7115004522812806E-01 
    3.6401978744568969E-01 
    3.6044744253910460E-01 
    3.6006252054766474E-01 
    3.6122554607742585E-01 
    3.8031810197273386E-01 
    3.7936455988245044E-01 
    3.7720763447987560E-01 
    3.7347121982756459E-01 
    3.6833541218858712E-01 
    3.6244122541899243E-01 
    3.5607344218987935E-01 
    3.4754597053301872E-01 
    3.3705561609325702E-01 
    3.2614520752137111E-01 
    3.1551060458738578E-01 
    3.0527637929105672E-01 
    2.9659961358448944E-01 
    2.9105459366036601E-01 
    2.8858022601539740E-01 
    2.8798470189884884E-01 
    3.2985608280486306E-01 
    3.2882637089248812E-01 
    3.2647183557539838E-01 
    3.2231394675088954E-01 
    3.1656286596743755E-01 
    3.1002523790615327E-01 
    3.0323818411606318E-01 
    2.9430970606803286E-01 
    2.8317880392504968E-01 
    2.7098493278480695E-01 
    2.5812526844018879E-01 
    2.4432216272257823E-01 
    2.2963478470159207E-01 
    2.1519981904349300E-01 
    2.0179997070627070E-01 
    1.9190783687750923E-01 
    2.9948400270142728E-01 
    2.9834262529776467E-01 
    2.9580626886975814E-01 
    2.9141249874960690E-01 
    2.8534080970843112E-01 
    2.7854844243802668E-01 
    2.7206417441460190E-01 
    2.6381460969020565E-01 
    2.5219183854642541E-01 
    2.3664133260271819E-01 
    2.1838976804669347E-01 
    1.9583597932118163E-01 
    1.6475264806821110E-01 
    1.2256552770965952E-01 
    6.8138537628689017E-02 
    0.0000000000000000E+00 

SCALARS Saturarion double 1 
LOOKUP_TABLE default 

    1.0000000045627147E+00 
    9.7877375174430370E-01 
    9.3964127906891082E-01 
    8.9851073114068780E-01 
    8.5624164721176454E-01 
    8.1101163346088434E-01 
    7.6420724050554456E-01 
    7.1533982880908387E-01 
    6.6516568330233716E-01 
    6.1893993949082771E-01 
    5.7420977289244435E-01 
    5.3273643172026997E-01 
    4.9449427791425127E-01 
    4.4366344551646331E-01 
    1.8311767590621444E-01 
    1.0742874389242347E-06 
    9.4903602186523139E-01 
    9.3407784198002075E-01 
    9.0131407042766165E-01 
    8.6661064529933995E-01 
    8.2871608405293662E-01 
    7.8835548509255271E-01 
    7.4757672460534763E-01 
    7.0551896085636623E-01 
    6.6064824471401218E-01 
    6.1666834227205525E-01 
    5.7215192182302366E-01 
    5.2712458991614264E-01 
    4.8261347773859897E-01 
    4.0349932506882030E-01 
    7.2126590541115823E-02 
    3.3077145137123411E-05 
    8.5250990978799812E-01 
    8.4526884090668497E-01 
    8.2969089060948764E-01 
    8.0755367907531816E-01 
    7.8058367867270806E-01 
    7.4909981578678630E-01 
    7.1657271987604221E-01 
    6.8394767635030285E-01 
    6.4853243050580078E-01 
    6.0904819003675681E-01 
    5.6684703969083672E-01 
    5.2295583551390423E-01 
    4.7314412376497123E-01 
    3.4451840112650362E-01 
    1.1054158209314140E-02 
    2.3434515781276474E-06 
    7.7477993889078645E-01 
    7.7121923359431011E-01 
    7.6116141020680517E-01 
    7.4667981914532222E-01 
    7.2944576303846964E-01 
    7.0751878454712147E-01 
    6.8341742899370783E-01 
    6.5863390400946475E-01 
    6.3131884509736380E-01 
    5.9674647396302127E-01 
    5.5659547592577385E-01 
    5.1239788555585775E-01 
    4.6025254247113856E-01 
    2.5118532435048380E-01 
    7.5984859465004083E-04 
    1.0555125729663112E-06 
    7.1598582529581323E-01 
    7.1250926653006719E-01 
    7.0548098319906949E-01 
    6.9495918457182970E-01 
    6.8071068410523039E-01 
    6.6623832480607925E-01 
    6.4866071438900030E-01 
    6.2942310364429055E-01 
    6.0904365082915934E-01 
    5.8059357652420140E-01 
    5.4447490724188574E-01 
    5.0186787226030161E-01 
    4.4609861458763261E-01 
    1.7356278258936725E-01 
    4.1545038066379438E-05 
    1.0006388874733562E-06 
    6.6832613570036403E-01 
    6.6619227529354630E-01 
    6.6123227010970942E-01 
    6.5507013624016297E-01 
    6.4401818105820108E-01 
    6.2990699358837354E-01 
    6.1425607491667633E-01 
    5.9627155618979200E-01 
    5.7962301259042348E-01 
    5.5863527358408693E-01 
    5.2950034942643642E-01 
    4.9387989668794580E-01 
    4.3699745722795430E-01 
    1.3877714343963016E-01 
    2.4278940625412982E-05 
    1.0001535026061892E-06 
    6.2445761239937325E-01 
    6.2248003788478568E-01 
    6.1821438019697328E-01 
    6.1296384078954091E-01 
    6.1192827888069057E-01 
    5.9962582091079530E-01 
    5.8368776432370795E-01 
    5.6624322346378475E-01 
    5.4743199307025492E-01 
    5.3145138013574744E-01 
    5.0771658377956230E-01 
    4.7794313602897226E-01 
    4.1198630356751464E-01 
    7.3090131854478629E-02 
    3.5542957846440137E-05 
    1.0000520393549199E-06 
    5.8479409571962848E-01 
    5.8275563794012120E-01 
    5.7896495831488615E-01 
    5.7417142627154094E-01 
    5.7934204110306564E-01 
    5.7073630642069106E-01 
    5.5671265442154172E-01 
    5.4144693085859907E-01 
    5.2153345323252265E-01 
    5.0600534373661699E-01 
    4.8604589304365470E-01 
    4.5773145053047043E-01 
    3.5175136069922769E-01 
    1.2753412401847053E-02 
    2.4956996522926385E-06 
    1.0000001310136498E-06 
    5.5185529280216983E-01 
    5.5020904562726480E-01 
    5.4711372823691573E-01 
    5.4335036839618078E-01 
    5.4738754306803128E-01 
    5.4274552790088459E-01 
    5.3203029968423876E-01 
    5.1918219508740915E-01 
    5.0364245809004748E-01 
    4.8553291271083443E-01 
    4.6995998763929975E-01 
    4.3881648347154356E-01 
    2.4336410783972440E-01 
    1.5366121500598041E-03 
    1.0753833281573929E-06 
    1.0000000230062739E-06 
    5.2546371211428244E-01 
    5.2419761343784987E-01 
    5.2161133046907371E-01 
    5.1840579535508136E-01 
    5.1624579504718549E-01 
    5.1586645092085415E-01 
    5.0814341640274208E-01 
    4.9757866336444789E-01 
    4.8663626483987110E-01 
    4.6811701826428326E-01 
    4.5117822521386913E-01 
    4.1708991121928524E-01 
    1.2717574848991894E-01 
    1.3455007281526347E-04 
    1.0030574364067206E-06 
    1.0000000000790842E-06 
    4.9837154171205078E-01 
    4.9731488518964007E-01 
    4.9522986257406049E-01 
    4.9275628697982021E-01 
    4.8972949928643278E-01 
    4.8774961630194669E-01 
    4.8450104867310029E-01 
    4.7725231543213492E-01 
    4.6723788589717907E-01 
    4.5440926513068491E-01 
    4.3171632364720280E-01 
    3.6494473876925604E-01 
    4.9186021126263621E-02 
    3.6556960239601306E-04 
    1.0022552112082521E-06 
    1.0000000000174321E-06 
    4.6689387193677218E-01 
    4.6596865744445620E-01 
    4.6387338689530477E-01 
    4.6272581160301618E-01 
    4.6072231961063026E-01 
    4.5709423076215316E-01 
    4.5601474472995834E-01 
    4.5318442818024007E-01 
    4.4346995034375802E-01 
    4.2830917649437977E-01 
    4.0223949360532751E-01 
    2.3522983824156884E-01 
    4.7831366051448651E-03 
    1.3513143919661491E-05 
    1.0000245178675208E-06 
    1.0000000000006164E-06 
    4.0423590916576774E-01 
    4.0211872674917848E-01 
    3.9905444507690374E-01 
    3.9352525553011908E-01 
    3.9042306482347561E-01 
    3.8506501045992536E-01 
    3.8029547591691759E-01 
    3.7751184818962713E-01 
    3.7993477165731321E-01 
    3.6225344486839767E-01 
    2.3708764778009792E-01 
    3.0521649822935565E-02 
    1.2634421835523138E-04 
    1.0144918231857533E-06 
    1.0000000067225877E-06 
    1.0000000000000010E-06 
    8.9353401066688237E-02 
    8.3797796046491832E-02 
    7.6461520049442316E-02 
    7.1066574189335388E-02 
    6.5780434186166012E-02 
    6.0139141217276940E-02 
    5.6210932943188456E-02 
    5.5804158360262340E-02 
    7.7807103271443370E-02 
    5.2165248055052182E-02 
    3.6973756041014634E-03 
    1.6955800545216313E-04 
    1.0005914788608733E-06 
    1.0000000002544171E-06 
    9.9999999999999974E-07 
    9.9999999999999995E-07 
    7.5868903145422548E-06 
    5.2158236047804263E-06 
    2.4088238061479028E-06 
    1.6842594751206571E-06 
    1.9018273116616655E-06 
    1.6361891803045327E-06 
    1.1596034734130756E-06 
    1.1110750859988361E-06 
    9.4558671487224289E-05 
    2.7184362712014961E-04 
    2.5170794921023391E-06 
    1.0120511995129925E-06 
    1.0000000025439035E-06 
    9.9999999999999974E-07 
    9.9999999999999995E-07 
    9.9999999999999995E-07 
    1.0000007136860557E-06 
    1.0000037781745891E-06 
    1.0000005768553565E-06 
    1.0000002827667324E-06 
    1.0000004298772228E-06 
    1.0000002499753668E-06 
    1.0000000540103780E-06 
    1.0000000484849485E-06 
    1.0003648241028443E-06 
    1.0016452652908153E-06 
    1.0000001923104160E-06 
    1.0000000075803608E-06 
    1.0000000000000042E-06 
    9.9999999999999995E-07 
    9.9999999999999995E-07 
    1.0000001858694640E-06 
