# vtk DataFile Version 2.0
Pressure Field Data 
ASCII 
DATASET UNSTRUCTURED_GRID 

POINTS 289 double 

    0.0000000000000000E+00     0.0000000000000000E+00     0.0000000000000000E+00 
    1.0000000000000000E+00     0.0000000000000000E+00     0.0000000000000000E+00 
    1.0000000000000000E+00     1.0000000000000000E+00     0.0000000000000000E+00 
    0.0000000000000000E+00     1.0000000000000000E+00     0.0000000000000000E+00 
    6.2499999999872928E-02     0.0000000000000000E+00     0.0000000000000000E+00 
    1.2499999999977310E-01     0.0000000000000000E+00     0.0000000000000000E+00 
    1.8749999999959341E-01     0.0000000000000000E+00     0.0000000000000000E+00 
    2.4999999999941089E-01     0.0000000000000000E+00     0.0000000000000000E+00 
    3.1249999999922851E-01     0.0000000000000000E+00     0.0000000000000000E+00 
    3.7499999999904610E-01     0.0000000000000000E+00     0.0000000000000000E+00 
    4.3749999999886358E-01     0.0000000000000000E+00     0.0000000000000000E+00 
    4.9999999999869210E-01     0.0000000000000000E+00     0.0000000000000000E+00 
    5.6249999999884603E-01     0.0000000000000000E+00     0.0000000000000000E+00 
    6.2499999999901090E-01     0.0000000000000000E+00     0.0000000000000000E+00 
    6.8749999999917577E-01     0.0000000000000000E+00     0.0000000000000000E+00 
    7.4999999999934064E-01     0.0000000000000000E+00     0.0000000000000000E+00 
    8.1249999999950551E-01     0.0000000000000000E+00     0.0000000000000000E+00 
    8.7499999999967026E-01     0.0000000000000000E+00     0.0000000000000000E+00 
    9.3749999999983513E-01     0.0000000000000000E+00     0.0000000000000000E+00 
    1.0000000000000000E+00     6.2499999999872928E-02     0.0000000000000000E+00 
    1.0000000000000000E+00     1.2499999999977310E-01     0.0000000000000000E+00 
    1.0000000000000000E+00     1.8749999999959341E-01     0.0000000000000000E+00 
    1.0000000000000000E+00     2.4999999999941089E-01     0.0000000000000000E+00 
    1.0000000000000000E+00     3.1249999999922851E-01     0.0000000000000000E+00 
    1.0000000000000000E+00     3.7499999999904610E-01     0.0000000000000000E+00 
    1.0000000000000000E+00     4.3749999999886358E-01     0.0000000000000000E+00 
    1.0000000000000000E+00     4.9999999999869210E-01     0.0000000000000000E+00 
    1.0000000000000000E+00     5.6249999999884603E-01     0.0000000000000000E+00 
    1.0000000000000000E+00     6.2499999999901090E-01     0.0000000000000000E+00 
    1.0000000000000000E+00     6.8749999999917577E-01     0.0000000000000000E+00 
    1.0000000000000000E+00     7.4999999999934064E-01     0.0000000000000000E+00 
    1.0000000000000000E+00     8.1249999999950551E-01     0.0000000000000000E+00 
    1.0000000000000000E+00     8.7499999999967026E-01     0.0000000000000000E+00 
    1.0000000000000000E+00     9.3749999999983513E-01     0.0000000000000000E+00 
    9.3749999999973976E-01     1.0000000000000000E+00     0.0000000000000000E+00 
    8.7499999999950118E-01     1.0000000000000000E+00     0.0000000000000000E+00 
    8.1249999999991318E-01     1.0000000000000000E+00     0.0000000000000000E+00 
    7.5000000000034706E-01     1.0000000000000000E+00     0.0000000000000000E+00 
    6.8750000000078049E-01     1.0000000000000000E+00     0.0000000000000000E+00 
    6.2500000000121403E-01     1.0000000000000000E+00     0.0000000000000000E+00 
    5.6250000000164757E-01     1.0000000000000000E+00     0.0000000000000000E+00 
    5.0000000000205946E-01     1.0000000000000000E+00     0.0000000000000000E+00 
    4.3750000000182099E-01     1.0000000000000000E+00     0.0000000000000000E+00 
    3.7500000000156092E-01     1.0000000000000000E+00     0.0000000000000000E+00 
    3.1250000000130068E-01     1.0000000000000000E+00     0.0000000000000000E+00 
    2.5000000000104050E-01     1.0000000000000000E+00     0.0000000000000000E+00 
    1.8750000000078040E-01     1.0000000000000000E+00     0.0000000000000000E+00 
    1.2500000000052031E-01     1.0000000000000000E+00     0.0000000000000000E+00 
    6.2500000000260125E-02     1.0000000000000000E+00     0.0000000000000000E+00 
    0.0000000000000000E+00     9.3749999999973976E-01     0.0000000000000000E+00 
    0.0000000000000000E+00     8.7499999999950118E-01     0.0000000000000000E+00 
    0.0000000000000000E+00     8.1249999999991318E-01     0.0000000000000000E+00 
    0.0000000000000000E+00     7.5000000000034706E-01     0.0000000000000000E+00 
    0.0000000000000000E+00     6.8750000000078049E-01     0.0000000000000000E+00 
    0.0000000000000000E+00     6.2500000000121403E-01     0.0000000000000000E+00 
    0.0000000000000000E+00     5.6250000000164757E-01     0.0000000000000000E+00 
    0.0000000000000000E+00     5.0000000000205946E-01     0.0000000000000000E+00 
    0.0000000000000000E+00     4.3750000000182099E-01     0.0000000000000000E+00 
    0.0000000000000000E+00     3.7500000000156092E-01     0.0000000000000000E+00 
    0.0000000000000000E+00     3.1250000000130068E-01     0.0000000000000000E+00 
    0.0000000000000000E+00     2.5000000000104050E-01     0.0000000000000000E+00 
    0.0000000000000000E+00     1.8750000000078040E-01     0.0000000000000000E+00 
    0.0000000000000000E+00     1.2500000000052031E-01     0.0000000000000000E+00 
    0.0000000000000000E+00     6.2500000000260125E-02     0.0000000000000000E+00 
    6.2499999999897131E-02     6.2500000000235922E-02     0.0000000000000000E+00 
    6.2499999999921327E-02     1.2500000000047351E-01     0.0000000000000000E+00 
    6.2499999999945530E-02     1.8750000000070621E-01     0.0000000000000000E+00 
    6.2499999999969733E-02     2.5000000000093858E-01     0.0000000000000000E+00 
    6.2499999999993928E-02     3.1250000000117117E-01     0.0000000000000000E+00 
    6.2500000000018124E-02     3.7500000000140382E-01     0.0000000000000000E+00 
    6.2500000000042327E-02     4.3750000000163619E-01     0.0000000000000000E+00 
    6.2500000000066530E-02     5.0000000000184897E-01     0.0000000000000000E+00 
    6.2500000000090733E-02     5.6250000000147260E-01     0.0000000000000000E+00 
    6.2500000000114922E-02     6.2500000000107636E-01     0.0000000000000000E+00 
    6.2500000000139125E-02     6.8750000000068034E-01     0.0000000000000000E+00 
    6.2500000000163328E-02     7.5000000000028411E-01     0.0000000000000000E+00 
    6.2500000000187531E-02     8.1249999999988787E-01     0.0000000000000000E+00 
    6.2500000000211720E-02     8.7499999999951172E-01     0.0000000000000000E+00 
    6.2500000000235922E-02     9.3749999999974565E-01     0.0000000000000000E+00 
    1.2499999999981980E-01     6.2500000000211733E-02     0.0000000000000000E+00 
    1.2499999999986650E-01     1.2500000000042691E-01     0.0000000000000000E+00 
    1.2499999999991319E-01     1.8750000000063199E-01     0.0000000000000000E+00 
    1.2499999999995989E-01     2.5000000000083678E-01     0.0000000000000000E+00 
    1.2500000000000661E-01     3.1250000000104172E-01     0.0000000000000000E+00 
    1.2500000000005329E-01     3.7500000000124661E-01     0.0000000000000000E+00 
    1.2500000000010000E-01     4.3750000000145117E-01     0.0000000000000000E+00 
    1.2500000000014669E-01     5.0000000000163858E-01     0.0000000000000000E+00 
    1.2500000000019340E-01     5.6250000000129741E-01     0.0000000000000000E+00 
    1.2500000000024011E-01     6.2500000000093847E-01     0.0000000000000000E+00 
    1.2500000000028680E-01     6.8750000000057998E-01     0.0000000000000000E+00 
    1.2500000000033351E-01     7.5000000000022127E-01     0.0000000000000000E+00 
    1.2500000000038020E-01     8.1249999999986211E-01     0.0000000000000000E+00 
    1.2500000000042691E-01     8.7499999999952238E-01     0.0000000000000000E+00 
    1.2500000000047359E-01     9.3749999999975164E-01     0.0000000000000000E+00 
    1.8749999999966760E-01     6.2500000000187531E-02     0.0000000000000000E+00 
    1.8749999999974179E-01     1.2500000000038020E-01     0.0000000000000000E+00 
    1.8749999999981601E-01     1.8750000000055780E-01     0.0000000000000000E+00 
    1.8749999999989009E-01     2.5000000000073502E-01     0.0000000000000000E+00 
    1.8749999999996431E-01     3.1250000000091221E-01     0.0000000000000000E+00 
    1.8750000000003850E-01     3.7500000000108941E-01     0.0000000000000000E+00 
    1.8750000000011269E-01     4.3750000000126649E-01     0.0000000000000000E+00 
    1.8750000000018691E-01     5.0000000000142808E-01     0.0000000000000000E+00 
    1.8750000000026110E-01     5.6250000000112244E-01     0.0000000000000000E+00 
    1.8750000000033529E-01     6.2500000000080080E-01     0.0000000000000000E+00 
    1.8750000000040951E-01     6.8750000000047962E-01     0.0000000000000000E+00 
    1.8750000000048361E-01     7.5000000000015843E-01     0.0000000000000000E+00 
    1.8750000000055780E-01     8.1249999999983680E-01     0.0000000000000000E+00 
    1.8750000000063199E-01     8.7499999999953304E-01     0.0000000000000000E+00 
    1.8750000000070621E-01     9.3749999999975764E-01     0.0000000000000000E+00 
    2.4999999999951281E-01     6.2500000000163314E-02     0.0000000000000000E+00 
    2.4999999999961461E-01     1.2500000000033351E-01     0.0000000000000000E+00 
    2.4999999999971650E-01     1.8750000000048361E-01     0.0000000000000000E+00 
    2.4999999999981831E-01     2.5000000000063310E-01     0.0000000000000000E+00 
    2.4999999999992020E-01     3.1250000000078260E-01     0.0000000000000000E+00 
    2.5000000000002198E-01     3.7500000000093209E-01     0.0000000000000000E+00 
    2.5000000000012390E-01     4.3750000000108180E-01     0.0000000000000000E+00 
    2.5000000000022571E-01     5.0000000000121769E-01     0.0000000000000000E+00 
    2.5000000000032763E-01     5.6250000000094724E-01     0.0000000000000000E+00 
    2.5000000000042938E-01     6.2500000000066314E-01     0.0000000000000000E+00 
    2.5000000000053119E-01     6.8750000000037925E-01     0.0000000000000000E+00 
[...]
CELL_DATA 256 
SCALARS Pressure double 1 
LOOKUP_TABLE default 

    6.8422824721585274E-01 
    6.8238948322683290E-01 
    6.8071818115402682E-01 
    6.7918610918830780E-01 
    6.7777995063227736E-01 
    6.7649040574853714E-01 
    6.7531817582981346E-01 
    6.7426653108358470E-01 
    6.7334007217613223E-01 
    6.7253785649380504E-01 
    6.7185732039101120E-01 
    6.7129610705789644E-01 
    6.7085182954652445E-01 
    6.7052332245168311E-01 
    6.7031201417526765E-01 
    6.7020180879772995E-01 
    6.6010580397941665E-01 
    6.6003314068970287E-01 
    6.5990309421684945E-01 
    6.5972720688176500E-01 
    6.5951583741838160E-01 
    6.5927890461783822E-01 
    6.5902883458471151E-01 
    6.5877609751598232E-01 
    6.5853052490139696E-01 
    6.5830120341192178E-01 
    6.5809557729797041E-01 
    6.5791840838400939E-01 
    6.5777318630829296E-01 
    6.5766320207062579E-01 
    6.5759286627113411E-01 
    6.5755738910708816E-01 
    6.3972259644207286E-01 
    6.3972129709048775E-01 
    6.3971607246067785E-01 
    6.3970354600712465E-01 
    6.3968105778768236E-01 
    6.3964809779006226E-01 
    6.3960396876345516E-01 
    6.3955055492904356E-01 
    6.3948977411195251E-01 
    6.3942354563190029E-01 
    6.3935487049745587E-01 
    6.3928758541822639E-01 
    6.3922544166882500E-01 
    6.3917301846308650E-01 
    6.3913525382666692E-01 
    6.3911162879442895E-01 
    6.1560448482124697E-01 
    6.1562681173055045E-01 
    6.1566841671031936E-01 
    6.1572480202692659E-01 
    6.1578933188705542E-01 
    6.1585542769530821E-01 
    6.1591174262932080E-01 
    6.1595462147040514E-01 
    6.1597999223251221E-01 
    6.1598367953810218E-01 
    6.1596556239337197E-01 
    6.1593005476778417E-01 
    6.1588302691221397E-01 
    6.1583180200707255E-01 
    6.1577814403783682E-01 
    6.1572307726695175E-01 
    5.8518274199700349E-01 
    5.8523105470802295E-01 
    5.8532015247325775E-01 
    5.8544217203181659E-01 
    5.8558333523168005E-01 
    5.8572584683411255E-01 
    5.8585929514505852E-01 
    5.8597574043632261E-01 
    5.8606694713291463E-01 
    5.8612453759760397E-01 
    5.8614302613659142E-01 
    5.8612986615179330E-01 
    5.8609510227193384E-01 
    5.8604947361445725E-01 
    5.8598877808685990E-01 
    5.8591375279159263E-01 
    5.4753963514074355E-01 
    5.4760914188294241E-01 
    5.4772683949444989E-01 
    5.4787345605320581E-01 
    5.4802427948527421E-01 
    5.4814778625605498E-01 
    5.4823691226456406E-01 
    5.4829041849678406E-01 
    5.4830852338806035E-01 
    5.4829249235958433E-01 
    5.4825268948460759E-01 
    5.4820166165404904E-01 
    5.4815350108393124E-01 
    5.4811818074787011E-01 
    5.4809351979168919E-01 
    5.4810703111883763E-01 
    5.1290545879587723E-01 
    5.1284263467691982E-01 
    5.1272000966327413E-01 
    5.1253787441237630E-01 
    5.1229320847874937E-01 
    5.1200998997946534E-01 
    5.1174735098136881E-01 
    5.1151219823109084E-01 
    5.1130924840220215E-01 
    5.1114033009270154E-01 
    5.1102931618842129E-01 
    5.1096771983903466E-01 
    5.1094391797989958E-01 
    5.1093035375858642E-01 
    5.1090872800950204E-01 
    5.1090993785556771E-01 
    4.7416869409517737E-01 
    4.7410412671554220E-01 
    4.7399569445641593E-01 
    4.7386750053854265E-01 
    4.7374623013950357E-01 
    4.7366106898316168E-01 
    4.7364098083612799E-01 
    4.7368725361618091E-01 
    4.7379931065920644E-01 
    4.7395398339698847E-01 
    4.7412382026170996E-01 
    4.7429064602001952E-01 
    4.7442514861231982E-01 
    4.7449914642209257E-01 
    4.7450844263829206E-01 
    4.7446711645512679E-01 
    4.3176612885417576E-01 
    4.3171782139925852E-01 
    4.3166281046102212E-01 
    4.3164664440125600E-01 
    4.3172015651029566E-01 
    4.3190971362625674E-01 
    4.3220088343179297E-01 
    4.3257602765892506E-01 
    4.3301791147769436E-01 
    4.3346778465004554E-01 
    4.3385398985440671E-01 
    4.3416522177288791E-01 
    4.3436849840409952E-01 
    4.3444620257731315E-01 
    4.3440696016827485E-01 
    4.3423274089040254E-01 
    3.7583093525152794E-01 
    3.7588725022450026E-01 
    3.7599103571047493E-01 
    3.7613570465235113E-01 
    3.7631729015402532E-01 
    3.7653570336989373E-01 
    3.7676121721455624E-01 
    3.7696610548942294E-01 
    3.7712303424845683E-01 
    3.7719554510843284E-01 
    3.7718694331367703E-01 
    3.7709193474999164E-01 
    3.7692026439217241E-01 
    3.7674375649029601E-01 
    3.7658313192688891E-01 
    3.7642870696240788E-01 
    3.0754427451476929E-01 
    3.0750704982388222E-01 
    3.0741498178872989E-01 
    3.0724465092393038E-01 
    3.0696702082921856E-01 
    3.0654623866823399E-01 
    3.0606784756695010E-01 
    3.0555850368071863E-01 
    3.0504005525334249E-01 
    3.0453994309044607E-01 
    3.0412256466627280E-01 
    3.0373266453732795E-01 
    3.0344581870950088E-01 
    3.0331208680137767E-01 
    3.0329870017015603E-01 
    3.0339959951715845E-01 
    2.4359368885710447E-01 
    2.4355188491096105E-01 
    2.4345905240638482E-01 
    2.4330502809408816E-01 
    2.4307992963071676E-01 
    2.4277527362266596E-01 
    2.4242011730138260E-01 
    2.4204273591001021E-01 
    2.4167062550238400E-01 
    2.4133027915789040E-01 
    2.4103096508781197E-01 
    2.4075384872271574E-01 
    2.4057750376961612E-01 
    2.4051942518189298E-01 
    2.4055566322536454E-01 
    2.4068576495179544E-01 
    1.9433942469868648E-01 
    1.9430190414179721E-01 
    1.9422119597074142E-01 
    1.9409099888571005E-01 
    1.9390470482696617E-01 
    1.9365601658087206E-01 
    1.9335941495698483E-01 
    1.9303068302586440E-01 
    1.9268374686574627E-01 
    1.9232178264016112E-01 
    1.9193573859278218E-01 
    1.9156645869236216E-01 
    1.9130223450583864E-01 
    1.9114228861833191E-01 
    1.9107330438235048E-01 
    1.9109569185423184E-01 
    1.4910480805697457E-01 
    1.4902623449549324E-01 
    1.4886863517334906E-01 
    1.4863245014136328E-01 
    1.4831911153270058E-01 
    1.4793127349377633E-01 
    1.4747740469809784E-01 
    1.4696776832254985E-01 
    1.4641437519004674E-01 
    1.4582525631049592E-01 
    1.4522629956812144E-01 
    1.4471146641985208E-01 
    1.4432146958056782E-01 
    1.4403629522910419E-01 
    1.4385791596243075E-01 
    1.4379105738368661E-01 
    1.0096292872565391E-01 
    1.0079317496743320E-01 
    1.0045974109655359E-01 
    9.9972084698378774E-02 
    9.9342888958583758E-02 
    9.8587749607428235E-02 
    9.7716745538867986E-02 
    9.6745179287733199E-02 
    9.5695918703182378E-02 
    9.4600607424607533E-02 
    9.3507297906110010E-02 
    9.2483891413063402E-02 
    9.1558927752036126E-02 
    9.0758109140194651E-02 
    9.0142709644798272E-02 
    8.9784921782988081E-02 
    6.2826287693540345E-02 
    6.2354496408968764E-02 
    6.1423035905500439E-02 
    6.0041514832196177E-02 
    5.8216658751969477E-02 
    5.5938153416530710E-02 
    5.3170426070176427E-02 
    4.9877572865815768E-02 
    4.6025335984084502E-02 
    4.1602934529983850E-02 
    3.6569620071653673E-02 
    3.0852212050971831E-02 
    2.4386341965783848E-02 
    1.7112406670028606E-02 
    8.9621063514820545E-03 
    0.0000000000000000E+00 

SCALARS Saturarion double 1 
LOOKUP_TABLE default 

    1.0000000000004559E+00 
    9.8775014433425146E-01 
    9.6773025552068703E-01 
    9.4142318224544741E-01 
    9.1464797918385454E-01 
    8.8742137855299397E-01 
    8.5978299402724323E-01 
    8.3168229935276161E-01 
    8.0288477505521849E-01 
    7.7302391931391956E-01 
    7.4133994758649202E-01 
    7.0675174467350188E-01 
    6.6763371057217569E-01 
    6.2208064790240258E-01 
    5.6599650778531163E-01 
    3.9508072194069926E-01 
    9.4771145613370877E-01 
    9.3775575652150933E-01 
    9.1796425195861553E-01 
    8.9625682544682339E-01 
    8.6902046818012457E-01 
    8.4101867949705533E-01 
    8.1488400405236361E-01 
    7.8929183648574730E-01 
    7.6388459486475380E-01 
    7.3749511055209649E-01 
    7.0889561337788931E-01 
    6.7762867139833505E-01 
    6.3938148450694643E-01 
    5.9615371883954527E-01 
    5.4524830795757173E-01 
    3.6158591857031114E-01 
    8.6462664767891495E-01 
    8.4800123568025754E-01 
    8.2454876887911344E-01 
    7.9851002387961378E-01 
    7.7565625221369383E-01 
    7.5479561361776482E-01 
    7.3519292393639935E-01 
    7.1571001254389954E-01 
    6.9701593610659596E-01 
    6.7697896051185946E-01 
    6.5379600289498896E-01 
    6.2804280874915153E-01 
    5.9299415024854807E-01 
    5.5584161501037788E-01 
    5.1187424287611061E-01 
    2.3596800932785053E-01 
    7.9687238116556125E-01 
    7.8119026940866809E-01 
    7.5381123935601657E-01 
    7.2575606456445596E-01 
    7.0656235770360476E-01 
    6.9012307338657375E-01 
    6.7375466000785955E-01 
    6.5768528508908553E-01 
    6.4288136126529727E-01 
    6.2617015551146327E-01 
    6.0637864368752292E-01 
    5.8497211223078138E-01 
    5.5502445668384226E-01 
    5.2616435534214478E-01 
    4.7413058185489881E-01 
    1.4636429074154400E-01 
    7.4246347003992230E-01 
    7.3185427066901565E-01 
    7.0362931914360860E-01 
    6.7419283136898656E-01 
    6.5401491668324707E-01 
    6.3938460421401933E-01 
    6.2477139781066149E-01 
    6.1070153865207588E-01 
    5.9689798818076967E-01 
    5.8215621696363429E-01 
    5.6538855348917860E-01 
    5.4802020309951216E-01 
    5.2685604731833902E-01 
    4.9992589063521686E-01 
    4.0588415818500978E-01 
    2.3112286327354705E-02 
    7.0109794333439190E-01 
    6.9265008440320508E-01 
    6.6645969431572527E-01 
    6.3685316580474438E-01 
    6.1268373572600587E-01 
    5.9941079820863008E-01 
    5.8645328358971804E-01 
    5.7365132969076305E-01 
    5.5847879569054493E-01 
    5.4561835054159513E-01 
    5.3169851329573625E-01 
    5.1819230776003922E-01 
    5.0449447245597012E-01 
    4.7097964495409733E-01 
    2.4172430616997778E-01 
    9.7672669660240209E-04 
    6.6771868540978951E-01 
    6.6109704642534195E-01 
    6.4287508758763878E-01 
    6.1859916239588619E-01 
    5.9203683953880593E-01 
    5.7463994100066274E-01 
    5.6224902372194763E-01 
    5.5041029616453163E-01 
    5.3565721079839257E-01 
    5.2124838577568855E-01 
    5.0776056636647304E-01 
    4.9381875635058037E-01 
    4.8256008360142233E-01 
    4.3161729312884267E-01 
    1.1724912145701223E-01 
    2.6379643282196489E-05 
    6.3590439477876515E-01 
    6.3131531777875916E-01 
    6.2058746916262553E-01 
    6.0570642979800682E-01 
    5.8348986767892963E-01 
    5.5986026264708710E-01 
    5.4568757381681510E-01 
    5.3336124052140355E-01 
    5.1879890135306062E-01 
    5.0262259412946997E-01 
    4.8704205595190397E-01 
    4.7068687671399895E-01 
    4.3654068161531445E-01 
    2.7215329984019837E-01 
    2.0078514405974038E-03 
    1.0006155206287479E-06 
    6.0585341631151635E-01 
    6.0201312892970704E-01 
    5.9364352614234828E-01 
    5.8328794315088450E-01 
    5.6276117785263169E-01 
    5.3886809937005231E-01 
    5.2452707515660013E-01 
    5.0995604949032936E-01 
    4.9167152412299114E-01 
    4.7349621806993403E-01 
    4.4895510156359353E-01 
    3.9803403842714924E-01 
    2.6424260735239463E-01 
    2.6767204642728783E-02 
    1.0647738754353211E-06 
    1.0000000000000514E-06 
    5.7966261990755052E-01 
    5.7630934633863395E-01 
    5.6914933569230930E-01 
    5.6001865973587917E-01 
    5.3825004221979555E-01 
    5.1760405058457237E-01 
    5.0558440619300249E-01 
    4.8212868815598547E-01 
    4.5104879858036540E-01 
    4.3689058465200908E-01 
    3.9491443476506821E-01 
    2.6151903664897092E-01 
    3.3876116806750053E-02 
    7.8726361022728590E-05 
    1.0001732051486730E-06 
    9.9999999999964632E-07 
    5.5626358986701074E-01 
    5.5422429212178348E-01 
    5.4933804541317743E-01 
    5.4263181197430432E-01 
    5.2814817867177755E-01 
    5.0786833139904231E-01 
    4.9412222366145486E-01 
    4.7787833131651625E-01 
    4.5247325708429620E-01 
    4.3053412924834694E-01 
    3.8345617183015790E-01 
    1.8848119319302312E-01 
    4.5167056638485052E-04 
    1.0033442710145969E-06 
    1.0000000004067907E-06 
    9.9999999999999995E-07 
    5.3132466137831202E-01 
    5.3047103785453809E-01 
    5.2814449665919616E-01 
    5.2436593236065954E-01 
    5.1934821031391076E-01 
    5.0747996752188074E-01 
    4.9197755684524247E-01 
    4.7872509475341790E-01 
    4.6017907891702381E-01 
    4.3536508098297227E-01 
    3.8005604941194543E-01 
    1.1650507591978745E-01 
    4.4502245648152483E-05 
    1.0004099077886493E-06 
    1.0000000000000006E-06 
    9.9999999999999995E-07 
    5.0091190373955385E-01 
    5.0032767203861805E-01 
    4.9886144353947071E-01 
    4.9637153524603944E-01 
    4.9290864578742416E-01 
    4.8785339007877460E-01 
    4.7834640733867828E-01 
    4.6611248425016011E-01 
    4.5145179444935446E-01 
    4.2574162250932313E-01 
    3.4022503661689252E-01 
    4.5187865871882393E-02 
    3.2023365357755133E-05 
    1.0000782108575778E-06 
    1.0000000000000002E-06 
    9.9999999999999995E-07 
    4.4238215738282372E-01 
    4.4127464293764268E-01 
    4.3913510246747245E-01 
    4.3603351481329400E-01 
    4.3156085075298878E-01 
    4.2616186888856694E-01 
    4.1965190942737179E-01 
    4.0957351420462162E-01 
    3.9447574769576355E-01 
    3.5275296229499076E-01 
    1.9294668027509140E-01 
    4.2978338565846427E-03 
    1.3578473889820675E-06 
    1.0000000284155616E-06 
    9.9999999999999995E-07 
    9.9999999999999995E-07 
    1.8974557725936500E-01 
    1.8622463618205565E-01 
    1.8078877481450736E-01 
    1.7367912858888024E-01 
    1.6518507568312743E-01 
    1.5548785919741112E-01 
    1.4787091640675626E-01 
    1.3567875145286024E-01 
    1.1522766644569156E-01 
    6.3106748925911824E-02 
    5.2493171817966679E-03 
    4.0423705367902202E-06 
    1.0000005743158854E-06 
    1.0000000000001685E-06 
    9.9999999999999995E-07 
    9.9999999999999995E-07 
    1.8946576650841536E-05 
    1.4396815783491929E-05 
    9.3160663831804165E-06 
    4.9002373481414262E-06 
    6.3093815642974514E-06 
    3.1953322379960219E-06 
    4.7560508974832824E-06 
    1.5769652568494678E-05 
    2.8032357930267072E-05 
    7.6781279143791234E-05 
    1.7324591053200924E-06 
    1.0000019796957315E-06 
    1.0000000000024917E-06 
    9.9999999999999995E-07 
    9.9999999999999995E-07 
    1.0000005479860649E-06 
