# vtk DataFile Version 2.0
Pressure Field Data 
ASCII 
DATASET UNSTRUCTURED_GRID 

POINTS 289 double 

    0.0000000000000000E+00     0.0000000000000000E+00     0.0000000000000000E+00 
    1.0000000000000000E+00     0.0000000000000000E+00     0.0000000000000000E+00 
    1.0000000000000000E+00     1.0000000000000000E+00     0.0000000000000000E+00 
    0.0000000000000000E+00     1.0000000000000000E+00     0.0000000000000000E+00 
    6.2499999999872928E-02     0.0000000000000000E+00     0.0000000000000000E+00 
    1.2499999999977310E-01     0.0000000000000000E+00     0.0000000000000000E+00 
    1.8749999999959341E-01     0.0000000000000000E+00     0.0000000000000000E+00 
    2.4999999999941089E-01     0.0000000000000000E+00     0.0000000000000000E+00 
    3.1249999999922851E-01     0.0000000000000000E+00     0.0000000000000000E+00 
    3.7499999999904610E-01     0.0000000000000000E+00     0.0000000000000000E+00 
    4.3749999999886358E-01     0.0000000000000000E+00     0.0000000000000000E+00 
    4.9999999999869210E-01     0.0000000000000000E+00     0.0000000000000000E+00 
    5.6249999999884603E-01     0.0000000000000000E+00     0.0000000000000000E+00 
    6.2499999999901090E-01     0.0000000000000000E+00     0.0000000000000000E+00 
    6.8749999999917577E-01     0.0000000000000000E+00     0.0000000000000000E+00 
    7.4999999999934064E-01     0.0000000000000000E+00     0.0000000000000000E+00 
    8.1249999999950551E-01     0.0000000000000000E+00     0.0000000000000000E+00 
    8.7499999999967026E-01     0.0000000000000000E+00     0.0000000000000000E+00 
    9.3749999999983513E-01     0.0000000000000000E+00     0.0000000000000000E+00 
    1.0000000000000000E+00     6.2499999999872928E-02     0.0000000000000000E+00 
    1.0000000000000000E+00     1.2499999999977310E-01     0.0000000000000000E+00 
    1.0000000000000000E+00     1.8749999999959341E-01     0.0000000000000000E+00 
    1.0000000000000000E+00     2.4999999999941089E-01     0.0000000000000000E+00 
    1.0000000000000000E+00     3.1249999999922851E-01     0.0000000000000000E+00 
    1.0000000000000000E+00     3.7499999999904610E-01     0.0000000000000000E+00 
    1.0000000000000000E+00     4.3749999999886358E-01     0.0000000000000000E+00 
    1.0000000000000000E+00     4.9999999999869210E-01     0.0000000000000000E+00 
    1.0000000000000000E+00     5.6249999999884603E-01     0.0000000000000000E+00 
    1.0000000000000000E+00     6.2499999999901090E-01     0.0000000000000000E+00 
    1.0000000000000000E+00     6.8749999999917577E-01     0.0000000000000000E+00 
    1.0000000000000000E+00     7.4999999999934064E-01     0.0000000000000000E+00 
    1.0000000000000000E+00     8.1249999999950551E-01     0.0000000000000000E+00 
    1.0000000000000000E+00     8.7499999999967026E-01     0.0000000000000000E+00 
    1.0000000000000000E+00     9.3749999999983513E-01     0.0000000000000000E+00 
    9.3749999999973976E-01     1.0000000000000000E+00     0.0000000000000000E+00 
    8.7499999999950118E-01     1.0000000000000000E+00     0.0000000000000000E+00 
    8.1249999999991318E-01     1.0000000000000000E+00     0.0000000000000000E+00 
    7.5000000000034706E-01     1.0000000000000000E+00     0.0000000000000000E+00 
    6.8750000000078049E-01     1.0000000000000000E+00     0.0000000000000000E+00 
    6.2500000000121403E-01     1.0000000000000000E+00     0.0000000000000000E+00 
    5.6250000000164757E-01     1.0000000000000000E+00     0.0000000000000000E+00 
    5.0000000000205946E-01     1.0000000000000000E+00     0.0000000000000000E+00 
    4.3750000000182099E-01     1.0000000000000000E+00     0.0000000000000000E+00 
    3.7500000000156092E-01     1.0000000000000000E+00     0.0000000000000000E+00 
    3.1250000000130068E-01     1.0000000000000000E+00     0.0000000000000000E+00 
    2.5000000000104050E-01     1.0000000000000000E+00     0.0000000000000000E+00 
    1.8750000000078040E-01     1.0000000000000000E+00     0.0000000000000000E+00 
    1.2500000000052031E-01     1.0000000000000000E+00     0.0000000000000000E+00 
    6.2500000000260125E-02     1.0000000000000000E+00     0.0000000000000000E+00 
    0.0000000000000000E+00     9.3749999999973976E-01     0.0000000000000000E+00 
    0.0000000000000000E+00     8.7499999999950118E-01     0.0000000000000000E+00 
    0.0000000000000000E+00     8.1249999999991318E-01     0.0000000000000000E+00 
    0.0000000000000000E+00     7.5000000000034706E-01     0.0000000000000000E+00 
    0.0000000000000000E+00     6.8750000000078049E-01     0.0000000000000000E+00 
    0.0000000000000000E+00     6.2500000000121403E-01     0.0000000000000000E+00 
    0.0000000000000000E+00     5.6250000000164757E-01     0.0000000000000000E+00 
    0.0000000000000000E+00     5.0000000000205946E-01     0.0000000000000000E+00 
    0.0000000000000000E+00     4.3750000000182099E-01     0.0000000000000000E+00 
    0.0000000000000000E+00     3.7500000000156092E-01     0.0000000000000000E+00 
    0.0000000000000000E+00     3.1250000000130068E-01     0.0000000000000000E+00 
    0.0000000000000000E+00     2.5000000000104050E-01     0.0000000000000000E+00 
    0.0000000000000000E+00     1.8750000000078040E-01     0.0000000000000000E+00 
    0.0000000000000000E+00     1.2500000000052031E-01     0.0000000000000000E+00 
    0.0000000000000000E+00     6.2500000000260125E-02     0.0000000000000000E+00 
    6.2499999999897131E-02     6.2500000000235922E-02     0.0000000000000000E+00 
    6.2499999999921327E-02     1.2500000000047351E-01     0.0000000000000000E+00 
    6.2499999999945530E-02     1.8750000000070621E-01     0.0000000000000000E+00 
    6.2499999999969733E-02     2.5000000000093858E-01     0.0000000000000000E+00 
    6.2499999999993928E-02     3.1250000000117117E-01     0.0000000000000000E+00 
    6.2500000000018124E-02     3.7500000000140382E-01     0.0000000000000000E+00 
    6.2500000000042327E-02     4.3750000000163619E-01     0.0000000000000000E+00 
    6.2500000000066530E-02     5.0000000000184897E-01     0.0000000000000000E+00 
    6.2500000000090733E-02     5.6250000000147260E-01     0.0000000000000000E+00 
    6.2500000000114922E-02     6.2500000000107636E-01     0.0000000000000000E+00 
    6.2500000000139125E-02     6.8750000000068034E-01     0.0000000000000000E+00 
    6.2500000000163328E-02     7.5000000000028411E-01     0.0000000000000000E+00 
    6.2500000000187531E-02     8.1249999999988787E-01     0.0000000000000000E+00 
    6.2500000000211720E-02     8.7499999999951172E-01     0.0000000000000000E+00 
    6.2500000000235922E-02     9.3749999999974565E-01     0.0000000000000000E+00 
    1.2499999999981980E-01     6.2500000000211733E-02     0.0000000000000000E+00 
    1.2499999999986650E-01     1.2500000000042691E-01     0.0000000000000000E+00 
    1.2499999999991319E-01     1.8750000000063199E-01     0.0000000000000000E+00 
    1.2499999999995989E-01     2.5000000000083678E-01     0.0000000000000000E+00 
    1.2500000000000661E-01     3.1250000000104172E-01     0.0000000000000000E+00 
    1.2500000000005329E-01     3.7500000000124661E-01     0.0000000000000000E+00 
    1.2500000000010000E-01     4.3750000000145117E-01     0.0000000000000000E+00 
    1.2500000000014669E-01     5.0000000000163858E-01     0.0000000000000000E+00 
    1.2500000000019340E-01     5.6250000000129741E-01     0.0000000000000000E+00 
    1.2500000000024011E-01     6.2500000000093847E-01     0.0000000000000000E+00 
    1.2500000000028680E-01     6.8750000000057998E-01     0.0000000000000000E+00 
    1.2500000000033351E-01     7.5000000000022127E-01     0.0000000000000000E+00 
    1.2500000000038020E-01     8.1249999999986211E-01     0.0000000000000000E+00 
    1.2500000000042691E-01     8.7499999999952238E-01     0.0000000000000000E+00 
    1.2500000000047359E-01     9.3749999999975164E-01     0.0000000000000000E+00 
    1.8749999999966760E-01     6.2500000000187531E-02     0.0000000000000000E+00 
    1.8749999999974179E-01     1.2500000000038020E-01     0.0000000000000000E+00 
    1.8749999999981601E-01     1.8750000000055780E-01     0.0000000000000000E+00 
    1.8749999999989009E-01     2.5000000000073502E-01     0.0000000000000000E+00 
    1.8749999999996431E-01     3.1250000000091221E-01     0.0000000000000000E+00 
    1.8750000000003850E-01     3.7500000000108941E-01     0.0000000000000000E+00 
    1.8750000000011269E-01     4.3750000000126649E-01     0.0000000000000000E+00 
    1.8750000000018691E-01     5.0000000000142808E-01     0.0000000000000000E+00 
    1.8750000000026110E-01     5.6250000000112244E-01     0.0000000000000000E+00 
    1.8750000000033529E-01     6.2500000000080080E-01     0.0000000000000000E+00 
    1.8750000000040951E-01     6.8750000000047962E-01     0.0000000000000000E+00 
    1.8750000000048361E-01     7.5000000000015843E-01     0.0000000000000000E+00 
    1.8750000000055780E-01     8.1249999999983680E-01     0.0000000000000000E+00 
    1.8750000000063199E-01     8.7499999999953304E-01     0.0000000000000000E+00 
    1.8750000000070621E-01     9.3749999999975764E-01     0.0000000000000000E+00 
    2.4999999999951281E-01     6.2500000000163314E-02     0.0000000000000000E+00 
    2.4999999999961461E-01     1.2500000000033351E-01     0.0000000000000000E+00 
    2.4999999999971650E-01     1.8750000000048361E-01     0.0000000000000000E+00 
    2.4999999999981831E-01     2.5000000000063310E-01     0.0000000000000000E+00 
    2.4999999999992020E-01     3.1250000000078260E-01     0.0000000000000000E+00 
    2.5000000000002198E-01     3.7500000000093209E-01     0.0000000000000000E+00 
    2.5000000000012390E-01     4.3750000000108180E-01     0.0000000000000000E+00 
    2.5000000000022571E-01     5.0000000000121769E-01     0.0000000000000000E+00 
    2.5000000000032763E-01     5.6250000000094724E-01     0.0000000000000000E+00 
    2.5000000000042938E-01     6.2500000000066314E-01     0.0000000000000000E+00 
    2.5000000000053119E-01     6.8750000000037925E-01     0.0000000000000000E+00 
[...]
CELL_DATA 256 
SCALARS Pressure double 1 
LOOKUP_TABLE default 

    7.1435259602377044E-01 
    7.1250903568836810E-01 
    7.1082930489876539E-01 
    7.0928490780232700E-01 
    7.0786348756656825E-01 
    7.0655663358628396E-01 
    7.0536651504907955E-01 
    7.0429759014607107E-01 
    7.0335558963484002E-01 
    7.0254045977770374E-01 
    7.0184977325633968E-01 
    7.0128118170691744E-01 
    7.0083221440338195E-01 
    7.0050152192773807E-01 
    7.0029040053747516E-01 
    7.0017921456865928E-01 
    6.8987195396454914E-01 
    6.8979774514374592E-01 
    6.8966460717210454E-01 
    6.8948396672561962E-01 
    6.8926611796626869E-01 
    6.8902125159594829E-01 
    6.8876260167529424E-01 
    6.8850106639026254E-01 
    6.8824693732901621E-01 
    6.8800975145937804E-01 
    6.8779709928929933E-01 
    6.8761381500063701E-01 
    6.8746347427124777E-01 
    6.8734966207315185E-01 
    6.8727665966690710E-01 
    6.8723859225879913E-01 
    6.6897827100657814E-01 
    6.6897801361640186E-01 
    6.6897454912644128E-01 
    6.6896402451540216E-01 
    6.6894317265162018E-01 
    6.6891097666633081E-01 
    6.6886629363108474E-01 
    6.6881099370029240E-01 
    6.6874697453778931E-01 
    6.6867609816483242E-01 
    6.6860165846871278E-01 
    6.6852767641536248E-01 
    6.6845829807860313E-01 
    6.6839881537478507E-01 
    6.6835277714695174E-01 
    6.6831972917424487E-01 
    6.4414459125190260E-01 
    6.4417099247990750E-01 
    6.4422022101502729E-01 
    6.4428733406430572E-01 
    6.4436464970689011E-01 
    6.4444391564334758E-01 
    6.4451176212860695E-01 
    6.4456412181431699E-01 
    6.4459650326122386E-01 
    6.4460433904736958E-01 
    6.4458839362076059E-01 
    6.4455397269777936E-01 
    6.4450831372333839E-01 
    6.4445974761791691E-01 
    6.4440549998505492E-01 
    6.4434516534700170E-01 
    6.1273877758306827E-01 
    6.1279473232553938E-01 
    6.1289694841589548E-01 
    6.1303606629358898E-01 
    6.1319631544789233E-01 
    6.1335651818994730E-01 
    6.1350530378497858E-01 
    6.1363398669452685E-01 
    6.1373364161468158E-01 
    6.1379520190125492E-01 
    6.1381418804565169E-01 
    6.1379921367877188E-01 
    6.1376144326732140E-01 
    6.1371012029734784E-01 
    6.1364018501551965E-01 
    6.1356244819900108E-01 
    5.7404788346386160E-01 
    5.7412413423785102E-01 
    5.7425239926790017E-01 
    5.7441104077968708E-01 
    5.7457346617132032E-01 
    5.7470564719393291E-01 
    5.7480033019258514E-01 
    5.7485615404349433E-01 
    5.7487334748533148E-01 
    5.7485322749620438E-01 
    5.7480722939289663E-01 
    5.7474880737104583E-01 
    5.7469169377849494E-01 
    5.7463486706050471E-01 
    5.7457873469306198E-01 
    5.7458729305857315E-01 
    5.3922800240047031E-01 
    5.3915603312728833E-01 
    5.3901602954192973E-01 
    5.3880907552283075E-01 
    5.3853303441064282E-01 
    5.3821511961317170E-01 
    5.3792098256496301E-01 
    5.3765911130851685E-01 
    5.3743517122165740E-01 
    5.3725082877542485E-01 
    5.3713084038699188E-01 
    5.3706461261825045E-01 
    5.3703331023497392E-01 
    5.3700317079280735E-01 
    5.3696899592141512E-01 
    5.3696764550126797E-01 
    4.9965417220387376E-01 
    4.9957799255317903E-01 
    4.9944954314455936E-01 
    4.9929624833423081E-01 
    4.9914808266788480E-01 
    4.9903811008183141E-01 
    4.9900020070235379E-01 
    4.9903698395805901E-01 
    4.9914875658892482E-01 
    4.9930957844077539E-01 
    4.9948746581355130E-01 
    4.9965866679615317E-01 
    4.9978767877723368E-01 
    4.9985703501861378E-01 
    4.9987335193956656E-01 
    4.9983186900522208E-01 
    4.5582878288907969E-01 
    4.5576619900966342E-01 
    4.5568897649249390E-01 
    4.5564925508753207E-01 
    4.5570468780336965E-01 
    4.5588656022824853E-01 
    4.5617968969987405E-01 
    4.5656409934341641E-01 
    4.5702206163335701E-01 
    4.5749022738858730E-01 
    4.5789099887737744E-01 
    4.5821412717564347E-01 
    4.5842347876587214E-01 
    4.5850565210578337E-01 
    4.5846631220901157E-01 
    4.5827698557579366E-01 
    3.9735415695187526E-01 
    3.9740287277597153E-01 
    3.9749340278662759E-01 
    3.9762135440793328E-01 
    3.9778532107678527E-01 
    3.9799034161289087E-01 
    3.9820571781623920E-01 
    3.9839852693706213E-01 
    3.9853627022173294E-01 
    3.9857767869865462E-01 
    3.9851474151761529E-01 
    3.9834609778492880E-01 
    3.9814082515585464E-01 
    3.9795899554591635E-01 
    3.9778914153588074E-01 
    3.9762176082649681E-01 
    3.2536316661036796E-01 
    3.2533013773844416E-01 
    3.2524154579476589E-01 
    3.2506793634795689E-01 
    3.2477339029405061E-01 
    3.2431464665684290E-01 
    3.2378428668434717E-01 
    3.2321127390090459E-01 
    3.2261679819940975E-01 
    3.2201186727489450E-01 
    3.2142584589977863E-01 
    3.2090069288497058E-01 
    3.2056568134233870E-01 
    3.2039649055112629E-01 
    3.2036546852010117E-01 
    3.2046893711073537E-01 
    2.5780313100115282E-01 
    2.5776193253939400E-01 
    2.5766789342030744E-01 
    2.5750744747466703E-01 
    2.5726638625015330E-01 
    2.5693174934744567E-01 
    2.5652979135118037E-01 
    2.5608448556168789E-01 
    2.5561008924074813E-01 
    2.5509919086338823E-01 
    2.5457330933512273E-01 
    2.5415695849576975E-01 
    2.5390798228839423E-01 
    2.5378566283376847E-01 
    2.5378541703782126E-01 
    2.5390635698326619E-01 
    2.0444254195893349E-01 
    2.0437656281759234E-01 
    2.0423837366035816E-01 
    2.0402099941057486E-01 
    2.0371745144728687E-01 
    2.0332147141375714E-01 
    2.0284681529011833E-01 
    2.0230909404079209E-01 
    2.0172433766051520E-01 
    2.0110701288522007E-01 
    2.0054318193888085E-01 
    2.0011913493869316E-01 
    1.9982314851806859E-01 
    1.9963053444365436E-01 
    1.9954080779179248E-01 
    1.9955466806241945E-01 
    1.5090932753581585E-01 
    1.5082874640423585E-01 
    1.5066831094877459E-01 
    1.5043048410672741E-01 
    1.5011958156611416E-01 
    1.4974144156047217E-01 
    1.4930930562027914E-01 
    1.4884127770836186E-01 
    1.4836420920550267E-01 
    1.4791350005244369E-01 
    1.4753157787988894E-01 
    1.4722073950217812E-01 
    1.4696975325465786E-01 
    1.4678352228622740E-01 
    1.4666919047530755E-01 
    1.4663257153939191E-01 
    9.9189660125996004E-02 
    9.9051838813929025E-02 
    9.8782582658466858E-02 
    9.8391508926186630E-02 
    9.7891077727907630E-02 
    9.7296218915776611E-02 
    9.6617448488392751E-02 
    9.5868781129949801E-02 
    9.5065667764031553E-02 
    9.4221052847655543E-02 
    9.3347828867366797E-02 
    9.2477290041549351E-02 
    9.1653744970678075E-02 
    9.0929121789395218E-02 
    9.0364054683778505E-02 
    9.0029784705083715E-02 
    6.2415311828555746E-02 
    6.1958787264017989E-02 
    6.1056873123597817E-02 
    5.9717894524136936E-02 
    5.7946797629872621E-02 
    5.5732221172275512E-02 
    5.3035331358308194E-02 
    4.9813090053582684E-02 
    4.6017929555253204E-02 
    4.1620986509012324E-02 
    3.6582064594533670E-02 
    3.0854639468126149E-02 
    2.4385014712526052E-02 
    1.7111363241857989E-02 
    8.9626884520884742E-03 
    0.0000000000000000E+00 

SCALARS Saturarion double 1 
LOOKUP_TABLE default 

    1.0000000000005733E+00 
    9.8679731109222335E-01 
    9.6523376388198101E-01 
    9.3698857103435162E-01 
    9.0846618908426935E-01 
    8.7971253615044132E-01 
    8.5076899072029211E-01 
    8.2155596610258019E-01 
    7.9180511571227885E-01 
    7.6111273879012598E-01 
    7.2868871661999934E-01 
    6.9344038775211336E-01 
    6.5376885034495125E-01 
    6.0763286225535706E-01 
    5.5170988798475873E-01 
    3.6415175014283391E-01 
    9.4515838180653244E-01 
    9.3463149206471519E-01 
    9.1346374726970370E-01 
    8.9018540754695052E-01 
    8.6070762808664170E-01 
    8.3146824467989255E-01 
    8.0439223362012591E-01 
    7.7797193580118462E-01 
    7.5193130636480532E-01 
    7.2496589057657057E-01 
    6.9580871866401817E-01 
    6.6405463676676235E-01 
    6.2539751389151355E-01 
    5.8215613809249633E-01 
    5.3147240827011488E-01 
    3.1434520031879376E-01 
    8.5969370126879086E-01 
    8.4199632366160859E-01 
    8.1693990613267942E-01 
    7.8916649899528801E-01 
    7.6483829537108072E-01 
    7.4340435787304138E-01 
    7.2327328395922241E-01 
    7.0326580076233247E-01 
    6.8423716487185093E-01 
    6.6373834382908703E-01 
    6.4005552719513492E-01 
    6.1389351553732296E-01 
    5.7897938453648023E-01 
    5.4358846454627552E-01 
    4.9529950455242971E-01 
    1.8225643131592911E-01 
    7.8931049629593897E-01 
    7.7390780364394218E-01 
    7.4541229112231455E-01 
    7.1571622274663860E-01 
    6.9508639045901011E-01 
    6.7813494278357178E-01 
    6.6134735650653720E-01 
    6.4488307220037711E-01 
    6.2971018906504572E-01 
    6.1246514853103562E-01 
    5.9224254396756693E-01 
    5.7063061157882689E-01 
    5.4208036340169208E-01 
    5.1452366760294554E-01 
    4.4282724624812431E-01 
    7.4036388556533578E-02 
    7.3261724576662313E-01 
    7.2276366475569365E-01 
    6.9477365155341497E-01 
    6.6438369457625990E-01 
    6.4306896466608265E-01 
    6.2782486698309359E-01 
    6.1280925490681337E-01 
    5.9827176802208160E-01 
    5.8386570762368395E-01 
    5.6867372202796573E-01 
    5.5182326713531293E-01 
    5.3481873427114568E-01 
    5.1539858302276575E-01 
    4.8358909716451137E-01 
    3.0343435128007873E-01 
    4.5178906787866893E-03 
    6.9000578326802653E-01 
    6.8194772888265054E-01 
    6.5715358653346045E-01 
    6.2806446853691245E-01 
    6.0319591783296533E-01 
    5.8927516126756629E-01 
    5.7593844047057197E-01 
    5.6266995758021365E-01 
    5.4688068520015698E-01 
    5.3366340797283729E-01 
    5.1962711219994118E-01 
    5.0618427880400252E-01 
    4.9132789330208393E-01 
    4.4163649094773805E-01 
    1.4462357621397146E-01 
    5.2314079960844181E-05 
    6.5565768532370650E-01 
    6.4904642677460278E-01 
    6.3217357499154447E-01 
    6.0985505525260097E-01 
    5.8404564646868662E-01 
    5.6612982899888076E-01 
    5.5352681116404578E-01 
    5.4144546907711888E-01 
    5.2629012356419391E-01 
    5.1121284970258252E-01 
    4.9707668691439083E-01 
    4.8156412507719121E-01 
    4.6478134908662933E-01 
    3.3366149338899148E-01 
    1.7818722872025385E-02 
    2.8988989889101035E-06 
    6.2290854364880244E-01 
    6.1826408406921074E-01 
    6.0800170674372211E-01 
    5.9481645344081935E-01 
    5.7357670330414023E-01 
    5.5016312536622947E-01 
    5.3640654946938515E-01 
    5.2434824788148515E-01 
    5.0962186970111312E-01 
    4.9255798813487472E-01 
    4.7612852759099911E-01 
    4.5201168124606173E-01 
    3.8466406350041965E-01 
    1.2271300828385398E-01 
    1.7951971417728024E-05 
    1.0000015227040057E-06 
    5.9210395214209688E-01 
    5.8851834157556893E-01 
    5.8065529098356272E-01 
    5.7131997024926007E-01 
    5.5187457437742826E-01 
    5.2784404316237132E-01 
    5.1434815952718049E-01 
    5.0097989325249181E-01 
    4.8206531753726728E-01 
    4.6055327661607792E-01 
    4.2672028186329680E-01 
    3.2744099107445046E-01 
    1.4621647439226043E-01 
    2.4562685011703693E-03 
    9.9984362250585866E-07 
    9.9999999999999805E-07 
    5.6488248577349509E-01 
    5.6220375364740549E-01 
    5.5599816984241446E-01 
    5.4825114957346721E-01 
    5.2906266169140626E-01 
    5.0672720966818352E-01 
    4.9400978887528957E-01 
    4.7299971005851005E-01 
    4.3799583013766685E-01 
    4.2172264438291956E-01 
    3.5755947970116436E-01 
    1.4710963533650984E-01 
    1.7792501706190803E-03 
    3.0120358251437681E-06 
    1.0000004938155576E-06 
    9.9999999999995909E-07 
    5.3937187180151447E-01 
    5.3790426878736830E-01 
    5.3407549008747224E-01 
    5.2865573587411585E-01 
    5.1838381639457942E-01 
    5.0000339043263908E-01 
    4.8366592708644296E-01 
    4.6607687894429067E-01 
    4.4208535293384355E-01 
    4.0705167034991036E-01 
    3.0418041428926335E-01 
    2.8172394200989766E-02 
    2.1057972150649235E-05 
    1.0000333018650366E-06 
    1.0000000000000023E-06 
    9.9999999999999995E-07 
    5.0921765382316364E-01 
    5.0842776352155439E-01 
    5.0638932198737097E-01 
    5.0304799696992142E-01 
    4.9873637570931512E-01 
    4.9025340469847822E-01 
    4.7694736905679591E-01 
    4.6205567486716559E-01 
    4.4148018306060466E-01 
    4.0063426336956681E-01 
    2.1595045312321259E-01 
    1.4986420405890195E-03 
    1.0352321295301421E-06 
    1.0000000021149360E-06 
    9.9999999999999995E-07 
    9.9999999999999995E-07 
    4.5509599032404735E-01 
    4.5387760830750984E-01 
    4.5137106615244627E-01 
    4.4757849351874940E-01 
    4.4240314318599738E-01 
    4.3665467915912554E-01 
    4.2786628853583741E-01 
    4.1222327102911643E-01 
    3.8304580028440022E-01 
    2.8433959655190427E-01 
    6.1758767237862056E-02 
    1.3593618361932913E-04 
    1.0011384586251700E-06 
    1.0000000000000016E-06 
    9.9999999999999995E-07 
    9.9999999999999995E-07 
    2.3995551133152268E-01 
    2.3417179173029973E-01 
    2.2502788212596544E-01 
    2.1313563362546656E-01 
    1.9909684416213191E-01 
    1.8896378337002004E-01 
    1.7464292712155771E-01 
    1.4221495071314075E-01 
    8.8202157176430249E-02 
    1.8941333090211121E-02 
    2.4134762485096241E-04 
    1.0058323818141050E-06 
    1.0000000003787010E-06 
    9.9999999999999995E-07 
    9.9999999999999995E-07 
    9.9999999999999995E-07 
    8.2467538764683431E-04 
    6.6811991927882375E-04 
    4.5462697493540473E-04 
    2.3715289017293471E-04 
    1.0160204650381411E-04 
    5.0893191580540429E-05 
    2.5723599421689308E-05 
    4.2856262360593209E-05 
    8.5216503149500788E-05 
    1.7927510891644344E-05 
    1.0077058899548943E-06 
    1.0000000024350458E-06 
    9.9999999999999995E-07 
    9.9999999999999995E-07 
    9.9999999999999995E-07 
    9.9999999999999995E-07 
    1.0000000000515709E-06 
    1.0000533354756683E-06 
    1.0001364319913120E-06 
    1.0000852397933669E-06 
    1.0000493927005612E-06 
    1.0000128729340881E-06 
    1.0000409247373591E-06 
    1.0003523688317563E-06 
    1.0008036514743298E-06 
    1.0000270441581201E-06 
    1.0000000000171568E-06 
    9.9999999999999995E-07 
    9.9999999999999995E-07 
    9.9999999999999995E-07 
    9.9999999999999995E-07 
    1.0000005055842005E-06 
