# vtk DataFile Version 2.0
Pressure Field Data 
ASCII 
DATASET UNSTRUCTURED_GRID 

POINTS 289 double 

    0.0000000000000000E+00     0.0000000000000000E+00     0.0000000000000000E+00 
    1.0000000000000000E+00     0.0000000000000000E+00     0.0000000000000000E+00 
    1.0000000000000000E+00     1.0000000000000000E+00     0.0000000000000000E+00 
    0.0000000000000000E+00     1.0000000000000000E+00     0.0000000000000000E+00 
    6.2499999999872928E-02     0.0000000000000000E+00     0.0000000000000000E+00 
    1.2499999999977310E-01     0.0000000000000000E+00     0.0000000000000000E+00 
    1.8749999999959341E-01     0.0000000000000000E+00     0.0000000000000000E+00 
    2.4999999999941089E-01     0.0000000000000000E+00     0.0000000000000000E+00 
    3.1249999999922851E-01     0.0000000000000000E+00     0.0000000000000000E+00 
    3.7499999999904610E-01     0.0000000000000000E+00     0.0000000000000000E+00 
    4.3749999999886358E-01     0.0000000000000000E+00     0.0000000000000000E+00 
    4.9999999999869210E-01     0.0000000000000000E+00     0.0000000000000000E+00 
    5.6249999999884603E-01     0.0000000000000000E+00     0.0000000000000000E+00 
    6.2499999999901090E-01     0.0000000000000000E+00     0.0000000000000000E+00 
    6.8749999999917577E-01     0.0000000000000000E+00     0.0000000000000000E+00 
    7.4999999999934064E-01     0.0000000000000000E+00     0.0000000000000000E+00 
    8.1249999999950551E-01     0.0000000000000000E+00     0.0000000000000000E+00 
    8.7499999999967026E-01     0.0000000000000000E+00     0.0000000000000000E+00 
    9.3749999999983513E-01     0.0000000000000000E+00     0.0000000000000000E+00 
    1.0000000000000000E+00     6.2499999999872928E-02     0.0000000000000000E+00 
    1.0000000000000000E+00     1.2499999999977310E-01     0.0000000000000000E+00 
    1.0000000000000000E+00     1.8749999999959341E-01     0.0000000000000000E+00 
    1.0000000000000000E+00     2.4999999999941089E-01     0.0000000000000000E+00 
    1.0000000000000000E+00     3.1249999999922851E-01     0.0000000000000000E+00 
    1.0000000000000000E+00     3.7499999999904610E-01     0.0000000000000000E+00 
    1.0000000000000000E+00     4.3749999999886358E-01     0.0000000000000000E+00 
    1.0000000000000000E+00     4.9999999999869210E-01     0.0000000000000000E+00 
    1.0000000000000000E+00     5.6249999999884603E-01     0.0000000000000000E+00 
    1.0000000000000000E+00     6.2499999999901090E-01     0.0000000000000000E+00 
    1.0000000000000000E+00     6.8749999999917577E-01     0.0000000000000000E+00 
    1.0000000000000000E+00     7.4999999999934064E-01     0.0000000000000000E+00 
    1.0000000000000000E+00     8.1249999999950551E-01     0.0000000000000000E+00 
    1.0000000000000000E+00     8.7499999999967026E-01     0.0000000000000000E+00 
    1.0000000000000000E+00     9.3749999999983513E-01     0.0000000000000000E+00 
    9.3749999999973976E-01     1.0000000000000000E+00     0.0000000000000000E+00 
    8.7499999999950118E-01     1.0000000000000000E+00     0.0000000000000000E+00 
    8.1249999999991318E-01     1.0000000000000000E+00     0.0000000000000000E+00 
    7.5000000000034706E-01     1.0000000000000000E+00     0.0000000000000000E+00 
    6.8750000000078049E-01     1.0000000000000000E+00     0.0000000000000000E+00 
    6.2500000000121403E-01     1.0000000000000000E+00     0.0000000000000000E+00 
    5.6250000000164757E-01     1.0000000000000000E+00     0.0000000000000000E+00 
    5.0000000000205946E-01     1.0000000000000000E+00     0.0000000000000000E+00 
    4.3750000000182099E-01     1.0000000000000000E+00     0.0000000000000000E+00 
    3.7500000000156092E-01     1.0000000000000000E+00     0.0000000000000000E+00 
    3.1250000000130068E-01     1.0000000000000000E+00     0.0000000000000000E+00 
    2.5000000000104050E-01     1.0000000000000000E+00     0.0000000000000000E+00 
    1.8750000000078040E-01     1.0000000000000000E+00     0.0000000000000000E+00 
    1.2500000000052031E-01     1.0000000000000000E+00     0.0000000000000000E+00 
    6.2500000000260125E-02     1.0000000000000000E+00     0.0000000000000000E+00 
    0.0000000000000000E+00     9.3749999999973976E-01     0.0000000000000000E+00 
    0.0000000000000000E+00     8.7499999999950118E-01     0.0000000000000000E+00 
    0.0000000000000000E+00     8.1249999999991318E-01     0.0000000000000000E+00 
    0.0000000000000000E+00     7.5000000000034706E-01     0.0000000000000000E+00 
    0.0000000000000000E+00     6.8750000000078049E-01     0.0000000000000000E+00 
    0.0000000000000000E+00     6.2500000000121403E-01     0.0000000000000000E+00 
    0.0000000000000000E+00     5.6250000000164757E-01     0.0000000000000000E+00 
    0.0000000000000000E+00     5.0000000000205946E-01     0.0000000000000000E+00 
    0.0000000000000000E+00     4.3750000000182099E-01     0.0000000000000000E+00 
    0.0000000000000000E+00     3.7500000000156092E-01     0.0000000000000000E+00 
    0.0000000000000000E+00     3.1250000000130068E-01     0.0000000000000000E+00 
    0.0000000000000000E+00     2.5000000000104050E-01     0.0000000000000000E+00 
    0.0000000000000000E+00     1.8750000000078040E-01     0.0000000000000000E+00 
    0.0000000000000000E+00     1.2500000000052031E-01     0.0000000000000000E+00 
    0.0000000000000000E+00     6.2500000000260125E-02     0.0000000000000000E+00 
    6.2499999999897131E-02     6.2500000000235922E-02     0.0000000000000000E+00 
    6.2499999999921327E-02     1.2500000000047351E-01     0.0000000000000000E+00 
    6.2499999999945530E-02     1.8750000000070621E-01     0.0000000000000000E+00 
    6.2499999999969733E-02     2.5000000000093858E-01     0.0000000000000000E+00 
    6.2499999999993928E-02     3.1250000000117117E-01     0.0000000000000000E+00 
    6.2500000000018124E-02     3.7500000000140382E-01     0.0000000000000000E+00 
    6.2500000000042327E-02     4.3750000000163619E-01     0.0000000000000000E+00 
    6.2500000000066530E-02     5.0000000000184897E-01     0.0000000000000000E+00 
    6.2500000000090733E-02     5.6250000000147260E-01     0.0000000000000000E+00 
    6.2500000000114922E-02     6.2500000000107636E-01     0.0000000000000000E+00 
    6.2500000000139125E-02     6.8750000000068034E-01     0.0000000000000000E+00 
    6.2500000000163328E-02     7.5000000000028411E-01     0.0000000000000000E+00 
    6.2500000000187531E-02     8.1249999999988787E-01     0.0000000000000000E+00 
    6.2500000000211720E-02     8.7499999999951172E-01     0.0000000000000000E+00 
    6.2500000000235922E-02     9.3749999999974565E-01     0.0000000000000000E+00 
    1.2499999999981980E-01     6.2500000000211733E-02     0.0000000000000000E+00 
    1.2499999999986650E-01     1.2500000000042691E-01     0.0000000000000000E+00 
    1.2499999999991319E-01     1.8750000000063199E-01     0.0000000000000000E+00 
    1.2499999999995989E-01     2.5000000000083678E-01     0.0000000000000000E+00 
    1.2500000000000661E-01     3.1250000000104172E-01     0.0000000000000000E+00 
    1.2500000000005329E-01     3.7500000000124661E-01     0.0000000000000000E+00 
    1.2500000000010000E-01     4.3750000000145117E-01     0.0000000000000000E+00 
    1.2500000000014669E-01     5.0000000000163858E-01     0.0000000000000000E+00 
    1.2500000000019340E-01     5.6250000000129741E-01     0.0000000000000000E+00 
    1.2500000000024011E-01     6.2500000000093847E-01     0.0000000000000000E+00 
    1.2500000000028680E-01     6.8750000000057998E-01     0.0000000000000000E+00 
    1.2500000000033351E-01     7.5000000000022127E-01     0.0000000000000000E+00 
    1.2500000000038020E-01     8.1249999999986211E-01     0.0000000000000000E+00 
    1.2500000000042691E-01     8.7499999999952238E-01     0.0000000000000000E+00 
    1.2500000000047359E-01     9.3749999999975164E-01     0.0000000000000000E+00 
    1.8749999999966760E-01     6.2500000000187531E-02     0.0000000000000000E+00 
    1.8749999999974179E-01     1.2500000000038020E-01     0.0000000000000000E+00 
    1.8749999999981601E-01     1.8750000000055780E-01     0.0000000000000000E+00 
    1.8749999999989009E-01     2.5000000000073502E-01     0.0000000000000000E+00 
    1.8749999999996431E-01     3.1250000000091221E-01     0.0000000000000000E+00 
    1.8750000000003850E-01     3.7500000000108941E-01     0.0000000000000000E+00 
    1.8750000000011269E-01     4.3750000000126649E-01     0.0000000000000000E+00 
    1.8750000000018691E-01     5.0000000000142808E-01     0.0000000000000000E+00 
    1.8750000000026110E-01     5.6250000000112244E-01     0.0000000000000000E+00 
    1.8750000000033529E-01     6.2500000000080080E-01     0.0000000000000000E+00 
    1.8750000000040951E-01     6.8750000000047962E-01     0.0000000000000000E+00 
    1.8750000000048361E-01     7.5000000000015843E-01     0.0000000000000000E+00 
    1.8750000000055780E-01     8.1249999999983680E-01     0.0000000000000000E+00 
    1.8750000000063199E-01     8.7499999999953304E-01     0.0000000000000000E+00 
    1.8750000000070621E-01     9.3749999999975764E-01     0.0000000000000000E+00 
    2.4999999999951281E-01     6.2500000000163314E-02     0.0000000000000000E+00 
    2.4999999999961461E-01     1.2500000000033351E-01     0.0000000000000000E+00 
    2.4999999999971650E-01     1.8750000000048361E-01     0.0000000000000000E+00 
    2.4999999999981831E-01     2.5000000000063310E-01     0.0000000000000000E+00 
    2.4999999999992020E-01     3.1250000000078260E-01     0.0000000000000000E+00 
    2.5000000000002198E-01     3.7500000000093209E-01     0.0000000000000000E+00 
    2.5000000000012390E-01     4.3750000000108180E-01     0.0000000000000000E+00 
    2.5000000000022571E-01     5.0000000000121769E-01     0.0000000000000000E+00 
    2.5000000000032763E-01     5.6250000000094724E-01     0.0000000000000000E+00 
    2.5000000000042938E-01     6.2500000000066314E-01     0.0000000000000000E+00 
    2.5000000000053119E-01     6.8750000000037925E-01     0.0000000000000000E+00 
[...]
CELL_DATA 256 
SCALARS Pressure double 1 
LOOKUP_TABLE default 

    8.0830414283166396E-01 
    8.0646681687534594E-01 
    8.0479348810952778E-01 
    8.0324229706183026E-01 
    8.0179353370046025E-01 
    8.0044261291787522E-01 
    7.9919714824999355E-01 
    7.9806524803530465E-01 
    7.9705601460962627E-01 
    7.9617132215987474E-01 
    7.9541206316206803E-01 
    7.9477940140158243E-01 
    7.9427496485916371E-01 
    7.9390333849224948E-01 
    7.9366188708416896E-01 
    7.9353539914800775E-01 
    7.8220996753248784E-01 
    7.8213659728001361E-01 
    7.8200325489266997E-01 
    7.8181869271294779E-01 
    7.8159082504500088E-01 
    7.8132931300950026E-01 
    7.8104835302119957E-01 
    7.8076026482026195E-01 
    7.8047676611822525E-01 
    7.8020867955890771E-01 
    7.7996524285291347E-01 
    7.7975285562996166E-01 
    7.7957781551404459E-01 
    7.7944611277938647E-01 
    7.7934977496007629E-01 
    7.7928709488283532E-01 
    7.5912184553459516E-01 
    7.5911314827242149E-01 
    7.5909415791568902E-01 
    7.5906211774202792E-01 
    7.5901514612581533E-01 
    7.5895485544947672E-01 
    7.5888334428678883E-01 
    7.5880398907535740E-01 
    7.5871992435653568E-01 
    7.5863384615838247E-01 
    7.5854854834751795E-01 
    7.5846877864924800E-01 
    7.5839978103406136E-01 
    7.5833893424845777E-01 
    7.5827211485880286E-01 
    7.5821251574616233E-01 
    7.3120389160493460E-01 
    7.3120792912242949E-01 
    7.3121745370337998E-01 
    7.3123393469115783E-01 
    7.3125727350503322E-01 
    7.3128627277259561E-01 
    7.3131303354956345E-01 
    7.3133431774214785E-01 
    7.3134641197073391E-01 
    7.3134504298327041E-01 
    7.3132784559637209E-01 
    7.3129838019224824E-01 
    7.3125589828206061E-01 
    7.3118448776534661E-01 
    7.3107939872492733E-01 
    7.3099146177405694E-01 
    6.9548078013583259E-01 
    6.9550167937447149E-01 
    6.9554101423516090E-01 
    6.9559933876864566E-01 
    6.9567571476599277E-01 
    6.9576444742325172E-01 
    6.9585617665729571E-01 
    6.9594286209396927E-01 
    6.9601627486454221E-01 
    6.9606750091504721E-01 
    6.9608395806886847E-01 
    6.9606648802630278E-01 
    6.9600178664223833E-01 
    6.9587386974185073E-01 
    6.9572855222525676E-01 
    6.9562039832171119E-01 
    6.5032499884812367E-01 
    6.5038144988009883E-01 
    6.5047267522832386E-01 
    6.5058020241118364E-01 
    6.5068341415894870E-01 
    6.5075563918863566E-01 
    6.5079372732173224E-01 
    6.5079932451523204E-01 
    6.5077465753438146E-01 
    6.5072129451196048E-01 
    6.5064313347539726E-01 
    6.5053052425991598E-01 
    6.5036030876460493E-01 
    6.5017601137628045E-01 
    6.5006865496913901E-01 
    6.5005438364759460E-01 
    6.0568151825110361E-01 
    6.0562617511615735E-01 
    6.0551505285720675E-01 
    6.0534580930346626E-01 
    6.0511146802369598E-01 
    6.0483197192554206E-01 
    6.0456226774817223E-01 
    6.0431104158873972E-01 
    6.0408299716544034E-01 
    6.0387482574234008E-01 
    6.0369080325452618E-01 
    6.0349179767347194E-01 
    6.0329355950466312E-01 
    6.0316718377467593E-01 
    6.0311709798402402E-01 
    6.0311868040129457E-01 
    5.5764085022841048E-01 
    5.5756945723168005E-01 
    5.5744597888929182E-01 
    5.5729271018827609E-01 
    5.5713421349972403E-01 
    5.5699832813248606E-01 
    5.5690790785171373E-01 
    5.5685088361461699E-01 
    5.5680569370815070E-01 
    5.5673588478091129E-01 
    5.5662426992065694E-01 
    5.5650122061872331E-01 
    5.5641448868179910E-01 
    5.5636752831509073E-01 
    5.5633382307999546E-01 
    5.5629192605303723E-01 
    5.0667080978840140E-01 
    5.0657096316541006E-01 
    5.0640977336991311E-01 
    5.0622713156503618E-01 
    5.0606855379112370E-01 
    5.0595157504276511E-01 
    5.0585561920914757E-01 
    5.0577175344555814E-01 
    5.0571198558848773E-01 
    5.0565310762202087E-01 
    5.0556680590361225E-01 
    5.0549204578835250E-01 
    5.0542539287236699E-01 
    5.0533984228963336E-01 
    5.0521420348633161E-01 
    5.0502874275329901E-01 
    4.3916574634058253E-01 
    4.3913017160756002E-01 
    4.3904438487539771E-01 
    4.3889675279215806E-01 
    4.3867726697046905E-01 
    4.3837870416163288E-01 
    4.3799561992268538E-01 
    4.3756781463611338E-01 
    4.3714522091235014E-01 
    4.3674739479508068E-01 
    4.3639104262065104E-01 
    4.3606399058608569E-01 
    4.3576160747124715E-01 
    4.3549326494982094E-01 
    4.3526850745988521E-01 
    4.3509539731385161E-01 
    3.5102006162827393E-01 
    3.5097566841534128E-01 
    3.5087198199587655E-01 
    3.5069311449597523E-01 
    3.5041961022763141E-01 
    3.5003152624572448E-01 
    3.4962700995176726E-01 
    3.4924484867250988E-01 
    3.4888374872997979E-01 
    3.4853784247419239E-01 
    3.4826925351506577E-01 
    3.4807511931102392E-01 
    3.4795372938069746E-01 
    3.4790508768752593E-01 
    3.4793078870818855E-01 
    3.4803380592907285E-01 
    2.7176543739194925E-01 
    2.7178392388666472E-01 
    2.7180663120342491E-01 
    2.7181550092229290E-01 
    2.7179153143754781E-01 
    2.7171627374699991E-01 
    2.7160656673339395E-01 
    2.7147775365833565E-01 
    2.7134746798022069E-01 
    2.7123463245905099E-01 
    2.7116977836963335E-01 
    2.7114792598395532E-01 
    2.7116570084508423E-01 
    2.7122178207025671E-01 
    2.7131695177688930E-01 
    2.7145396991753101E-01 
    2.0925307378403663E-01 
    2.0925424295445130E-01 
    2.0924979109429209E-01 
    2.0923140245702995E-01 
    2.0918987444156847E-01 
    2.0911580832711382E-01 
    2.0902035209505399E-01 
    2.0891335789808060E-01 
    2.0880518696337791E-01 
    2.0870688054037356E-01 
    2.0863661624562072E-01 
    2.0859189498327479E-01 
    2.0857132767845032E-01 
    2.0857482384577725E-01 
    2.0860359690661021E-01 
    2.0866005860396850E-01 
    1.5360257767102048E-01 
    1.5356799414118599E-01 
    1.5349851699150349E-01 
    1.5339434151133205E-01 
    1.5325628810042319E-01 
    1.5308593242989071E-01 
    1.5289181977545632E-01 
    1.5268226279484434E-01 
    1.5246627545898236E-01 
    1.5225350626019757E-01 
    1.5205678001129325E-01 
    1.5188259984728369E-01 
    1.5173773693484027E-01 
    1.5162889658976991E-01 
    1.5156235100853463E-01 
    1.5154343477241969E-01 
    1.0210853382660659E-01 
    1.0196642512835724E-01 
    1.0168824952236002E-01 
    1.0128298723145968E-01 
    1.0076231895551913E-01 
    1.0014044422403326E-01 
    9.9426060526203328E-02 
    9.8630974615341316E-02 
    9.7770737505552721E-02 
    9.6865324903745303E-02 
    9.5938591083081282E-02 
    9.5027554602877276E-02 
    9.4175352809169458E-02 
    9.3432503084217300E-02 
    9.2858445844241702E-02 
    9.2523411952920812E-02 
    6.2659129175551109E-02 
    6.2199464512735343E-02 
    6.1289881696034214E-02 
    5.9937804085849436E-02 
    5.8147743379484834E-02 
    5.5910695726726842E-02 
    5.3187972486352479E-02 
    4.9936882887126464E-02 
    4.6110245248700131E-02 
    4.1682104440845143E-02 
    3.6615649122604538E-02 
    3.0867384094215945E-02 
    2.4386120751379144E-02 
    1.7111996969593764E-02 
    8.9754136457896577E-03 
    0.0000000000000000E+00 

SCALARS Saturarion double 1 
LOOKUP_TABLE default 

    1.0000000000015601E+00 
    9.8182060535849269E-01 
    9.5212360506024452E-01 
    9.1403725063956853E-01 
    8.7719808323048809E-01 
    8.4165867374149672E-01 
    8.0721991795694381E-01 
    7.7352682543319817E-01 
    7.4011047518140483E-01 
    7.0639015978950959E-01 
    6.7147976983713997E-01 
    6.3431959899668955E-01 
    5.9314507794564264E-01 
    5.4738703343646689E-01 
    4.8113601216376661E-01 
    1.8741482310077601E-01 
    9.3288911310011047E-01 
    9.1964235214851908E-01 
    8.9181974050006707E-01 
    8.6019901617000694E-01 
    8.2063600777248802E-01 
    7.8650792599666197E-01 
    7.5554443269804583E-01 
    7.2580842595184436E-01 
    6.9719045397431278E-01 
    6.6784863213059875E-01 
    6.3659915196427286E-01 
    6.0319195594530761E-01 
    5.6520670706333864E-01 
    5.2674991597922871E-01 
    4.4015007488755559E-01 
    7.4771259341239987E-02 
    8.3772451258227909E-01 
    8.1569906400233971E-01 
    7.8293911946577532E-01 
    7.4702775261099053E-01 
    7.1626374726559650E-01 
    6.9263726854970520E-01 
    6.7061800491244017E-01 
    6.4879828568834375E-01 
    6.2809670463165701E-01 
    6.0533062804828519E-01 
    5.8003129791734243E-01 
    5.5351605070187648E-01 
    5.2504051483265968E-01 
    4.8575124194920904E-01 
    2.8760772758413788E-01 
    7.1576454181748973E-03 
    7.5257208993675384E-01 
    7.3972374457179324E-01 
    7.0867161287371605E-01 
    6.7310692076545697E-01 
    6.4741508536616410E-01 
    6.2807016386539805E-01 
    6.0991422534176565E-01 
    5.9221026825417133E-01 
    5.7493051011149898E-01 
    5.5567205031908462E-01 
    5.3527832104157480E-01 
    5.1563808800683186E-01 
    4.8918304312805050E-01 
    3.8323044874199375E-01 
    8.0809690487307587E-02 
    9.1152021087862045E-05 
    6.8673059530280300E-01 
    6.7863255186172466E-01 
    6.5446378683182205E-01 
    6.2506923093633937E-01 
    6.0171827407254219E-01 
    5.8344385247703612E-01 
    5.6741781186791151E-01 
    5.5178026594232588E-01 
    5.3544015635603681E-01 
    5.1873937860119812E-01 
    5.0103405267633727E-01 
    4.8191190518985921E-01 
    4.2104120188723554E-01 
    1.4465953474155296E-01 
    6.9113938283639498E-04 
    1.0243429760764635E-06 
    6.3883357815742592E-01 
    6.3041571362947202E-01 
    6.1203085974728944E-01 
    5.9030159528076442E-01 
    5.6726356330921945E-01 
    5.5133450728117139E-01 
    5.3724084938098127E-01 
    5.2299459492050149E-01 
    5.0506613507323173E-01 
    4.8979535133191537E-01 
    4.6955682809541133E-01 
    4.3783667052021202E-01 
    2.7035612167667311E-01 
    7.2837299330695176E-03 
    1.6918517905547135E-06 
    1.0000000455134216E-06 
    5.9949489925563737E-01 
    5.9271265622645730E-01 
    5.7996466708706740E-01 
    5.6484025284305395E-01 
    5.4030442133413736E-01 
    5.2349371306495751E-01 
    5.1120301373053045E-01 
    4.9914767837914958E-01 
    4.8169757953646314E-01 
    4.6001662283515904E-01 
    4.3315135409933286E-01 
    3.3495779460023267E-01 
    8.3174420914408728E-02 
    1.3460673673473670E-04 
    1.0008669056186597E-06 
    1.0000000000000252E-06 
    5.6165656160525135E-01 
    5.5818533208366861E-01 
    5.5036652315455825E-01 
    5.4085809066317514E-01 
    5.2145010350068310E-01 
    4.9740705456418893E-01 
    4.8175796561707074E-01 
    4.6539263887412119E-01 
    4.4455903166852007E-01 
    4.0820316404972201E-01 
    3.0123208645866661E-01 
    8.1506756298884833E-02 
    5.9019287011896789E-04 
    1.0177616664117398E-06 
    1.0000000005682271E-06 
    9.9999999999999995E-07 
    5.1599537165376708E-01 
    5.1400689747532424E-01 
    5.0891336876600413E-01 
    5.0132207296847386E-01 
    4.8989831229169140E-01 
    4.6538358828872800E-01 
    4.3124693941300440E-01 
    3.6872427354866666E-01 
    2.5958105387117880E-01 
    1.5067200394403760E-01 
    2.9201701038805598E-02 
    5.2653845448741949E-04 
    1.0924376160326940E-06 
    1.0000000089496904E-06 
    1.0000000000000002E-06 
    9.9999999999999995E-07 
    4.2256988522415417E-01 
    4.1852908975072090E-01 
    4.1043014917786025E-01 
    3.9806636541958262E-01 
    3.8900991173539967E-01 
    3.4293492154971367E-01 
    2.2098095665029244E-01 
    7.5818975400794741E-02 
    3.4715048538457500E-03 
    2.2007026285590216E-04 
    5.1589926449893198E-05 
    1.0687968539238234E-06 
    1.0000000198754739E-06 
    1.0000000000000019E-06 
    9.9999999999999995E-07 
    9.9999999999999995E-07 
    9.9280836856368959E-02 
    9.1292801549927236E-02 
    7.8308463551177418E-02 
    6.2273404018670597E-02 
    5.5954372129716531E-02 
    2.3578436842733991E-02 
    1.8050837861148025E-03 
    1.3886651948119070E-04 
    1.2828264202010875E-06 
    1.0272056507150873E-06 
    1.0003098167044813E-06 
    1.0000000000640939E-06 
    1.0000000000000050E-06 
    9.9999999999999995E-07 
    9.9999999999999995E-07 
    9.9999999999999995E-07 
    1.0000044562174992E-06 
    1.3667774818457719E-06 
    2.8296503828044789E-06 
    4.4487477310121963E-06 
    2.5291818208493640E-06 
    1.4168406529244930E-05 
    1.1160777258429972E-06 
    1.0044985953724933E-06 
    1.0000000769741741E-06 
    1.0000000006792217E-06 
    1.0000000000000036E-06 
    9.9999999999999995E-07 
    9.9999999999999995E-07 
    9.9999999999999995E-07 
    9.9999999999999995E-07 
    9.9999999999999995E-07 
    1.0000000000059038E-06 
    1.0000001459802138E-06 
    1.0000008328984210E-06 
    1.0000016983324026E-06 
    1.0000016340265485E-06 
    1.0000067132353774E-06 
    1.0000000274911736E-06 
    1.0000000000000031E-06 
    1.0000000000000021E-06 
    9.9999999999999995E-07 
    9.9999999999999995E-07 
    9.9999999999999995E-07 
    9.9999999999999995E-07 
    9.9999999999999995E-07 
    9.9999999999999995E-07 
    9.9999999999999995E-07 
    9.9999999999999995E-07 
    1.0000000000000885E-06 
    1.0000000000004150E-06 
    1.0000000000006325E-06 
    9.9999999999999911E-07 
    1.0000000000003786E-06 
    1.0000000000000006E-06 
    9.9999999999999995E-07 
    9.9999999999999995E-07 
    9.9999999999999995E-07 
    9.9999999999999995E-07 
    9.9999999999999995E-07 
    9.9999999999999995E-07 
    9.9999999999999995E-07 
    9.9999999999999995E-07 
    9.9999999999999995E-07 
    9.9999999999999995E-07 
    9.9999999999999995E-07 
    9.9999999999999995E-07 
    9.9999999999999995E-07 
    9.9999999999999995E-07 
    9.9999999999999995E-07 
    9.9999999999999995E-07 
    9.9999999999999995E-07 
    9.9999999999999995E-07 
    9.9999999999999995E-07 
    9.9999999999999995E-07 
    9.9999999999999995E-07 
    9.9999999999999995E-07 
    9.9999999999999995E-07 
    9.9999999999999995E-07 
    9.9999999999999995E-07 
    9.9999999999999995E-07 
    9.9999999999999995E-07 
    9.9999999999999995E-07 
    9.9999999999999995E-07 
    9.9999999999999995E-07 
    9.9999999999999995E-07 
    9.9999999999999995E-07 
    9.9999999999999995E-07 
    9.9999999999999995E-07 
    9.9999999999999995E-07 
    9.9999999999999995E-07 
    9.9999999999999995E-07 
    9.9999999999999995E-07 
    9.9999999999999995E-07 
    9.9999999999999995E-07 
    1.0000003569548001E-06 
