# vtk DataFile Version 2.0
Pressure Field Data 
ASCII 
DATASET UNSTRUCTURED_GRID 

POINTS 289 double 

    0.0000000000000000E+00     0.0000000000000000E+00     0.0000000000000000E+00 
    1.0000000000000000E+00     0.0000000000000000E+00     0.0000000000000000E+00 
    1.0000000000000000E+00     1.0000000000000000E+00     0.0000000000000000E+00 
    0.0000000000000000E+00     1.0000000000000000E+00     0.0000000000000000E+00 
    6.2499999999872928E-02     0.0000000000000000E+00     0.0000000000000000E+00 
    1.2499999999977310E-01     0.0000000000000000E+00     0.0000000000000000E+00 
    1.8749999999959341E-01     0.0000000000000000E+00     0.0000000000000000E+00 
    2.4999999999941089E-01     0.0000000000000000E+00     0.0000000000000000E+00 
    3.1249999999922851E-01     0.0000000000000000E+00     0.0000000000000000E+00 
    3.7499999999904610E-01     0.0000000000000000E+00     0.0000000000000000E+00 
    4.3749999999886358E-01     0.0000000000000000E+00     0.0000000000000000E+00 
    4.9999999999869210E-01     0.0000000000000000E+00     0.0000000000000000E+00 
    5.6249999999884603E-01     0.0000000000000000E+00     0.0000000000000000E+00 
    6.2499999999901090E-01     0.0000000000000000E+00     0.0000000000000000E+00 
    6.8749999999917577E-01     0.0000000000000000E+00     0.0000000000000000E+00 
    7.4999999999934064E-01     0.0000000000000000E+00     0.0000000000000000E+00 
    8.1249999999950551E-01     0.0000000000000000E+00     0.0000000000000000E+00 
    8.7499999999967026E-01     0.0000000000000000E+00     0.0000000000000000E+00 
    9.3749999999983513E-01     0.0000000000000000E+00     0.0000000000000000E+00 
    1.0000000000000000E+00     6.2499999999872928E-02     0.0000000000000000E+00 
    1.0000000000000000E+00     1.2499999999977310E-01     0.0000000000000000E+00 
    1.0000000000000000E+00     1.8749999999959341E-01     0.0000000000000000E+00 
    1.0000000000000000E+00     2.4999999999941089E-01     0.0000000000000000E+00 
    1.0000000000000000E+00     3.1249999999922851E-01     0.0000000000000000E+00 
    1.0000000000000000E+00     3.7499999999904610E-01     0.0000000000000000E+00 
    1.0000000000000000E+00     4.3749999999886358E-01     0.0000000000000000E+00 
    1.0000000000000000E+00     4.9999999999869210E-01     0.0000000000000000E+00 
    1.0000000000000000E+00     5.6249999999884603E-01     0.0000000000000000E+00 
    1.0000000000000000E+00     6.2499999999901090E-01     0.0000000000000000E+00 
    1.0000000000000000E+00     6.8749999999917577E-01     0.0000000000000000E+00 
    1.0000000000000000E+00     7.4999999999934064E-01     0.0000000000000000E+00 
    1.0000000000000000E+00     8.1249999999950551E-01     0.0000000000000000E+00 
    1.0000000000000000E+00     8.7499999999967026E-01     0.0000000000000000E+00 
    1.0000000000000000E+00     9.3749999999983513E-01     0.0000000000000000E+00 
    9.3749999999973976E-01     1.0000000000000000E+00     0.0000000000000000E+00 
    8.7499999999950118E-01     1.0000000000000000E+00     0.0000000000000000E+00 
    8.1249999999991318E-01     1.0000000000000000E+00     0.0000000000000000E+00 
    7.5000000000034706E-01     1.0000000000000000E+00     0.0000000000000000E+00 
    6.8750000000078049E-01     1.0000000000000000E+00     0.0000000000000000E+00 
    6.2500000000121403E-01     1.0000000000000000E+00     0.0000000000000000E+00 
    5.6250000000164757E-01     1.0000000000000000E+00     0.0000000000000000E+00 
    5.0000000000205946E-01     1.0000000000000000E+00     0.0000000000000000E+00 
    4.3750000000182099E-01     1.0000000000000000E+00     0.0000000000000000E+00 
    3.7500000000156092E-01     1.0000000000000000E+00     0.0000000000000000E+00 
    3.1250000000130068E-01     1.0000000000000000E+00     0.0000000000000000E+00 
    2.5000000000104050E-01     1.0000000000000000E+00     0.0000000000000000E+00 
    1.8750000000078040E-01     1.0000000000000000E+00     0.0000000000000000E+00 
    1.2500000000052031E-01     1.0000000000000000E+00     0.0000000000000000E+00 
    6.2500000000260125E-02     1.0000000000000000E+00     0.0000000000000000E+00 
    0.0000000000000000E+00     9.3749999999973976E-01     0.0000000000000000E+00 
    0.0000000000000000E+00     8.7499999999950118E-01     0.0000000000000000E+00 
    0.0000000000000000E+00     8.1249999999991318E-01     0.0000000000000000E+00 
    0.0000000000000000E+00     7.5000000000034706E-01     0.0000000000000000E+00 
    0.0000000000000000E+00     6.8750000000078049E-01     0.0000000000000000E+00 
    0.0000000000000000E+00     6.2500000000121403E-01     0.0000000000000000E+00 
    0.0000000000000000E+00     5.6250000000164757E-01     0.0000000000000000E+00 
    0.0000000000000000E+00     5.0000000000205946E-01     0.0000000000000000E+00 
    0.0000000000000000E+00     4.3750000000182099E-01     0.0000000000000000E+00 
    0.0000000000000000E+00     3.7500000000156092E-01     0.0000000000000000E+00 
    0.0000000000000000E+00     3.1250000000130068E-01     0.0000000000000000E+00 
    0.0000000000000000E+00     2.5000000000104050E-01     0.0000000000000000E+00 
    0.0000000000000000E+00     1.8750000000078040E-01     0.0000000000000000E+00 
    0.0000000000000000E+00     1.2500000000052031E-01     0.0000000000000000E+00 
    0.0000000000000000E+00     6.2500000000260125E-02     0.0000000000000000E+00 
    6.2499999999897131E-02     6.2500000000235922E-02     0.0000000000000000E+00 
    6.2499999999921327E-02     1.2500000000047351E-01     0.0000000000000000E+00 
    6.2499999999945530E-02     1.8750000000070621E-01     0.0000000000000000E+00 
    6.2499999999969733E-02     2.5000000000093858E-01     0.0000000000000000E+00 
    6.2499999999993928E-02     3.1250000000117117E-01     0.0000000000000000E+00 
    6.2500000000018124E-02     3.7500000000140382E-01     0.0000000000000000E+00 
    6.2500000000042327E-02     4.3750000000163619E-01     0.0000000000000000E+00 
    6.2500000000066530E-02     5.0000000000184897E-01     0.0000000000000000E+00 
    6.2500000000090733E-02     5.6250000000147260E-01     0.0000000000000000E+00 
    6.2500000000114922E-02     6.2500000000107636E-01     0.0000000000000000E+00 
    6.2500000000139125E-02     6.8750000000068034E-01     0.0000000000000000E+00 
    6.2500000000163328E-02     7.5000000000028411E-01     0.0000000000000000E+00 
    6.2500000000187531E-02     8.1249999999988787E-01     0.0000000000000000E+00 
    6.2500000000211720E-02     8.7499999999951172E-01     0.0000000000000000E+00 
    6.2500000000235922E-02     9.3749999999974565E-01     0.0000000000000000E+00 
    1.2499999999981980E-01     6.2500000000211733E-02     0.0000000000000000E+00 
    1.2499999999986650E-01     1.2500000000042691E-01     0.0000000000000000E+00 
    1.2499999999991319E-01     1.8750000000063199E-01     0.0000000000000000E+00 
    1.2499999999995989E-01     2.5000000000083678E-01     0.0000000000000000E+00 
    1.2500000000000661E-01     3.1250000000104172E-01     0.0000000000000000E+00 
    1.2500000000005329E-01     3.7500000000124661E-01     0.0000000000000000E+00 
    1.2500000000010000E-01     4.3750000000145117E-01     0.0000000000000000E+00 
    1.2500000000014669E-01     5.0000000000163858E-01     0.0000000000000000E+00 
    1.2500000000019340E-01     5.6250000000129741E-01     0.0000000000000000E+00 
    1.2500000000024011E-01     6.2500000000093847E-01     0.0000000000000000E+00 
    1.2500000000028680E-01     6.8750000000057998E-01     0.0000000000000000E+00 
    1.2500000000033351E-01     7.5000000000022127E-01     0.0000000000000000E+00 
    1.2500000000038020E-01     8.1249999999986211E-01     0.0000000000000000E+00 
    1.2500000000042691E-01     8.7499999999952238E-01     0.0000000000000000E+00 
    1.2500000000047359E-01     9.3749999999975164E-01     0.0000000000000000E+00 
    1.8749999999966760E-01     6.2500000000187531E-02     0.0000000000000000E+00 
    1.8749999999974179E-01     1.2500000000038020E-01     0.0000000000000000E+00 
    1.8749999999981601E-01     1.8750000000055780E-01     0.0000000000000000E+00 
    1.8749999999989009E-01     2.5000000000073502E-01     0.0000000000000000E+00 
    1.8749999999996431E-01     3.1250000000091221E-01     0.0000000000000000E+00 
    1.8750000000003850E-01     3.7500000000108941E-01     0.0000000000000000E+00 
    1.8750000000011269E-01     4.3750000000126649E-01     0.0000000000000000E+00 
    1.8750000000018691E-01     5.0000000000142808E-01     0.0000000000000000E+00 
    1.8750000000026110E-01     5.6250000000112244E-01     0.0000000000000000E+00 
    1.8750000000033529E-01     6.2500000000080080E-01     0.0000000000000000E+00 
    1.8750000000040951E-01     6.8750000000047962E-01     0.0000000000000000E+00 
    1.8750000000048361E-01     7.5000000000015843E-01     0.0000000000000000E+00 
    1.8750000000055780E-01     8.1249999999983680E-01     0.0000000000000000E+00 
    1.8750000000063199E-01     8.7499999999953304E-01     0.0000000000000000E+00 
    1.8750000000070621E-01     9.3749999999975764E-01     0.0000000000000000E+00 
    2.4999999999951281E-01     6.2500000000163314E-02     0.0000000000000000E+00 
    2.4999999999961461E-01     1.2500000000033351E-01     0.0000000000000000E+00 
    2.4999999999971650E-01     1.8750000000048361E-01     0.0000000000000000E+00 
    2.4999999999981831E-01     2.5000000000063310E-01     0.0000000000000000E+00 
    2.4999999999992020E-01     3.1250000000078260E-01     0.0000000000000000E+00 
    2.5000000000002198E-01     3.7500000000093209E-01     0.0000000000000000E+00 
    2.5000000000012390E-01     4.3750000000108180E-01     0.0000000000000000E+00 
    2.5000000000022571E-01     5.0000000000121769E-01     0.0000000000000000E+00 
    2.5000000000032763E-01     5.6250000000094724E-01     0.0000000000000000E+00 
    2.5000000000042938E-01     6.2500000000066314E-01     0.0000000000000000E+00 
    2.5000000000053119E-01     6.8750000000037925E-01     0.0000000000000000E+00 
[...]
CELL_DATA 256 
SCALARS Pressure double 1 
LOOKUP_TABLE default 

    7.5533751042565100E-01 
    7.5349419248718408E-01 
    7.5181301573472425E-01 
    7.5026086884451515E-01 
    7.4882260124693556E-01 
    7.4749095622450734E-01 
    7.4627087595179531E-01 
    7.4516901537786107E-01 
    7.4419330845703779E-01 
    7.4334461095386761E-01 
    7.4262196224825749E-01 
    7.4202452834580590E-01 
    7.4155150112045110E-01 
    7.4120357800747871E-01 
    7.4098350127698942E-01 
    7.4086960496064980E-01 
    7.3022764288732489E-01 
    7.3015320679907836E-01 
    7.3001890229667510E-01 
    7.2983518525354651E-01 
    7.2961138979364937E-01 
    7.2935737653786048E-01 
    7.2908692710424283E-01 
    7.2881161784980586E-01 
    7.2854245519281013E-01 
    7.2828964958768072E-01 
    7.2806160679112131E-01 
    7.2786363781907515E-01 
    7.2770004818418821E-01 
    7.2757565891297138E-01 
    7.2749334166952273E-01 
    7.2744690674646750E-01 
    7.0845685088705301E-01 
    7.0845512878293171E-01 
    7.0844913658372100E-01 
    7.0843530095541418E-01 
    7.0841061250722781E-01 
    7.0837465863022908E-01 
    7.0832693654300338E-01 
    7.0826950866418725E-01 
    7.0820436320974389E-01 
    7.0813331501582644E-01 
    7.0805907152948844E-01 
    7.0798562838625645E-01 
    7.0791765204509105E-01 
    7.0786057140010994E-01 
    7.0781041383015619E-01 
    7.0776442735765233E-01 
    6.8241362044992682E-01 
    6.8243607416584073E-01 
    6.8247918036223898E-01 
    6.8254026711167481E-01 
    6.8261392251015562E-01 
    6.8269359709006638E-01 
    6.8276646298972632E-01 
    6.8282785461087758E-01 
    6.8287258437603426E-01 
    6.8289521751572668E-01 
    6.8289445227930068E-01 
    6.8287507264110492E-01 
    6.8284375163400246E-01 
    6.8280391284415554E-01 
    6.8274631486231641E-01 
    6.8267645271095434E-01 
    6.4935142199321416E-01 
    6.4940069787814425E-01 
    6.4949186460143560E-01 
    6.4961913618584977E-01 
    6.4977173741027794E-01 
    6.4993289800429299E-01 
    6.5009011470860101E-01 
    6.5023328407207925E-01 
    6.5035215403235624E-01 
    6.5043611807923685E-01 
    6.5047693054061495E-01 
    6.5048131088793881E-01 
    6.5045653308111406E-01 
    6.5039689449304650E-01 
    6.5029419179336856E-01 
    6.5019664896550977E-01 
    6.0821975745489332E-01 
    6.0829335065420975E-01 
    6.0841689948595357E-01 
    6.0857002512770997E-01 
    6.0872894147932588E-01 
    6.0886263400218099E-01 
    6.0896330906748075E-01 
    6.0902857822093481E-01 
    6.0905742674396424E-01 
    6.0904939677942882E-01 
    6.0901436074113058E-01 
    6.0896323422718590E-01 
    6.0889959528338045E-01 
    6.0881010924942613E-01 
    6.0872190315067065E-01 
    6.0871524870523863E-01 
    5.6988621651635207E-01 
    5.6981542351741477E-01 
    5.6967609358914284E-01 
    5.6946823357795695E-01 
    5.6918842416041837E-01 
    5.6886217607284717E-01 
    5.6855294435424197E-01 
    5.6827165215703046E-01 
    5.6802621137081644E-01 
    5.6782070809821528E-01 
    5.6768017640556712E-01 
    5.6758788267962734E-01 
    5.6750733797058539E-01 
    5.6741896710056094E-01 
    5.6737068457949846E-01 
    5.6737821191080884E-01 
    5.2734217480036782E-01 
    5.2725963422158784E-01 
    5.2711679823975743E-01 
    5.2693922673954929E-01 
    5.2675430144494340E-01 
    5.2659474644389126E-01 
    5.2649497187554983E-01 
    5.2646068995090978E-01 
    5.2649461558944088E-01 
    5.2657452698297624E-01 
    5.2666887548041996E-01 
    5.2674637014060766E-01 
    5.2678319948106045E-01 
    5.2679235567504412E-01 
    5.2678993699208854E-01 
    5.2675681360858839E-01 
    4.8143212998292184E-01 
    4.8135256564795326E-01 
    4.8123873707112613E-01 
    4.8113990485878366E-01 
    4.8111092518033588E-01 
    4.8118645278654376E-01 
    4.8135948812374180E-01 
    4.8161663942540256E-01 
    4.8194234615976622E-01 
    4.8227609546377925E-01 
    4.8252551410289624E-01 
    4.8267794150617088E-01 
    4.8275408974513379E-01 
    4.8277184289760428E-01 
    4.8271062792231367E-01 
    4.8253802561491893E-01 
    4.2269918358693020E-01 
    4.2272748571775970E-01 
    4.2277090530263894E-01 
    4.2281829025106621E-01 
    4.2286056762940316E-01 
    4.2289640895994174E-01 
    4.2291436068115756E-01 
    4.2289746407096795E-01 
    4.2280949154176939E-01 
    4.2258975738815513E-01 
    4.2224878719859255E-01 
    4.2188670195825673E-01 
    4.2157876570746067E-01 
    4.2132091615627681E-01 
    4.2110311914021253E-01 
    4.2093175719416509E-01 
    3.4841267972683787E-01 
    3.4837375657739705E-01 
    3.4827509132166029E-01 
    3.4808749840274750E-01 
    3.4777599597407816E-01 
    3.4730111279461823E-01 
    3.4671933242995612E-01 
    3.4602429396631457E-01 
    3.4519855650508496E-01 
    3.4429150653300311E-01 
    3.4353644206609135E-01 
    3.4299958321435503E-01 
    3.4263449424536846E-01 
    3.4241305191023147E-01 
    3.4233315298660544E-01 
    3.4239512581643067E-01 
    2.7431201758404739E-01 
    2.7425196257734347E-01 
    2.7412247007202473E-01 
    2.7391279484742681E-01 
    2.7361202309547139E-01 
    2.7320937794970751E-01 
    2.7271869647469815E-01 
    2.7215457294621243E-01 
    2.7156700193786104E-01 
    2.7105077879662060E-01 
    2.7067144558818818E-01 
    2.7040348971988631E-01 
    2.7022822603822666E-01 
    2.7014338484475348E-01 
    2.7014889091249195E-01 
    2.7024667176303424E-01 
    2.0939437434714128E-01 
    2.0936024725077490E-01 
    2.0928922012225204E-01 
    2.0917995543981852E-01 
    2.0903153943343822E-01 
    2.0884263181615839E-01 
    2.0863312022643798E-01 
    2.0842955477399366E-01 
    2.0825829988891922E-01 
    2.0812464199821054E-01 
    2.0802632723750769E-01 
    2.0795430609688687E-01 
    2.0790978437960964E-01 
    2.0789468221045479E-01 
    2.0791152150465014E-01 
    2.0796334483014808E-01 
    1.5289361326310330E-01 
    1.5286274409004233E-01 
    1.5279974846143393E-01 
    1.5270342051206337E-01 
    1.5257338261382161E-01 
    1.5241070174316118E-01 
    1.5222364137581432E-01 
    1.5201976774982331E-01 
    1.5180761062918213E-01 
    1.5159722467074055E-01 
    1.5140200108680144E-01 
    1.5122890839626399E-01 
    1.5108512969951945E-01 
    1.5097767966687897E-01 
    1.5091301643660512E-01 
    1.5089652458343891E-01 
    1.0170390481412286E-01 
    1.0156393140234735E-01 
    1.0128953711030202E-01 
    1.0088910660684754E-01 
    1.0037365409066207E-01 
    9.9756678243842725E-02 
    9.9046823027413272E-02 
    9.8255940448896031E-02 
    9.7399592584855865E-02 
    9.6497732113073401E-02 
    9.5574533598390021E-02 
    9.4666684769105711E-02 
    9.3817082481129646E-02 
    9.3076119273760638E-02 
    9.2503242874629146E-02 
    9.2168831490663586E-02 
    6.2610396754017625E-02 
    6.2151825385388500E-02 
    6.1244357265654734E-02 
    5.9895149652338525E-02 
    5.8108318297107983E-02 
    5.5873940072630329E-02 
    5.3154187388338846E-02 
    4.9907158452116157E-02 
    4.6086399275735483E-02 
    4.1664808932465172E-02 
    3.6604624210579681E-02 
    3.0861521801831503E-02 
    2.4383666551017830E-02 
    1.7110767439558368E-02 
    8.9730347603513682E-03 
    0.0000000000000000E+00 

SCALARS Saturarion double 1 
LOOKUP_TABLE default 

    1.0000000000007339E+00 
    9.8499950341302200E-01 
    9.6050659225625468E-01 
    9.2863351771043401E-01 
    8.9693166023533211E-01 
    8.6549985701718124E-01 
    8.3433812683669606E-01 
    8.0328430718884047E-01 
    7.7199405321462911E-01 
    7.4000380366693708E-01 
    7.0647892315883598E-01 
    6.7034456922848362E-01 
    6.2997062667059378E-01 
    5.8320612223241142E-01 
    5.2661307220026232E-01 
    3.0392864423820687E-01 
    9.4058434153119730E-01 
    9.2903559168441929E-01 
    9.0537051962051740E-01 
    8.7912270555383676E-01 
    8.4545967935461463E-01 
    8.1419415746406953E-01 
    7.8551027239782267E-01 
    7.5770647552091641E-01 
    7.3064865337024487E-01 
    7.0271750145251177E-01 
    6.7266906867130660E-01 
    6.4016791231076531E-01 
    6.0129303935534517E-01 
    5.5915968491177537E-01 
    5.0436224961999576E-01 
    2.1625075671650720E-01 
    8.5121508847985750E-01 
    8.3174344797707123E-01 
    8.0383099516770062E-01 
    7.7298798332549978E-01 
    7.4579679010156352E-01 
    7.2341063394826344E-01 
    7.0243379496576064E-01 
    6.8158073518353324E-01 
    6.6195434538277775E-01 
    6.4055980134627410E-01 
    6.1601702736622410E-01 
    5.8922792823333747E-01 
    5.5577568577594949E-01 
    5.2362880737110185E-01 
    4.5310405608720661E-01 
    9.1654791832691276E-02 
    7.7561178161506894E-01 
    7.6108130238352145E-01 
    7.3126500238982628E-01 
    6.9898861458894690E-01 
    6.7583755865764894E-01 
    6.5793951726030653E-01 
    6.4047904451174842E-01 
    6.2336658510449738E-01 
    6.0739322731788259E-01 
    5.8921476858951694E-01 
    5.6852809241542912E-01 
    5.4713049081887566E-01 
    5.2233070188426234E-01 
    4.8981606726348781E-01 
    3.1893895161864955E-01 
    9.1737930988850698E-03 
    7.1492123069248692E-01 
    7.0622637273362021E-01 
    6.7963202741556916E-01 
    6.4869297200920717E-01 
    6.2594960261508736E-01 
    6.0947336360979176E-01 
    5.9382867693916841E-01 
    5.7856101436655083E-01 
    5.6306616010820632E-01 
    5.4716366847590270E-01 
    5.3033789533237163E-01 
    5.1415839231629812E-01 
    4.9421893826015340E-01 
    4.2830522362419976E-01 
    1.2662599554967344E-01 
    8.3064552207587629E-05 
    6.7008682393226326E-01 
    6.6226415776405401E-01 
    6.4029595817829021E-01 
    6.1369511022798973E-01 
    5.8891635214516591E-01 
    5.7385466948301156E-01 
    5.5999529853415841E-01 
    5.4625097777952225E-01 
    5.2948400421414432E-01 
    5.1571087924104542E-01 
    5.0084896241846422E-01 
    4.8564406797038129E-01 
    4.6052549998700304E-01 
    2.7501559221567085E-01 
    6.9927084840193327E-03 
    1.3505517262282562E-06 
    6.3395534864668379E-01 
    6.2707988944060533E-01 
    6.1201442553159091E-01 
    5.9316863232591999E-01 
    5.6848691881123903E-01 
    5.5096454240262382E-01 
    5.3847196311659951E-01 
    5.2632360122151745E-01 
    5.1045601932014251E-01 
    4.9415386011047618E-01 
    4.7801084234691787E-01 
    4.5820866232548657E-01 
    3.9847506406727168E-01 
    1.0779956857916746E-01 
    3.1603975475437387E-05 
    1.0000543711414849E-06 
    5.9983397058411769E-01 
    5.9523776587468935E-01 
    5.8561519652409100E-01 
    5.7445263847433636E-01 
    5.5377744165936893E-01 
    5.3110882749910948E-01 
    5.1830565576226251E-01 
    5.0723856265246359E-01 
    4.9301446420581796E-01 
    4.7343315521794471E-01 
    4.5221374528313157E-01 
    3.9999527088348158E-01 
    1.9557223107520452E-01 
    1.2516324614341293E-03 
    1.0005321970113890E-06 
    1.0000000000418309E-06 
    5.6763511438768011E-01 
    5.6481832349019379E-01 
    5.5822325964391972E-01 
    5.5006209535109363E-01 
    5.3314400236188242E-01 
    5.0803063468372922E-01 
    4.9350995683081955E-01 
    4.8071867384547251E-01 
    4.5999226561660095E-01 
    4.3081835464822155E-01 
    3.6582037904865161E-01 
    1.7263732716076968E-01 
    2.5076334447152820E-03 
    1.0518635928366681E-06 
    1.0000000000352048E-06 
    9.9999999999999995E-07 
    5.3624025746697823E-01 
    5.3458610139807683E-01 
    5.3019298351761734E-01 
    5.2382893175192402E-01 
    5.1327252975112292E-01 
    4.9022887829131240E-01 
    4.7105991466056318E-01 
    4.4587244576480406E-01 
    4.0125658470190462E-01 
    3.2462210187387264E-01 
    1.5145514156013087E-01 
    4.9152776410068275E-03 
    3.6259173002775955E-06 
    1.0000026633850895E-06 
    1.0000000000003134E-06 
    9.9999999999999995E-07 
    4.9747410240856399E-01 
    4.9623825432901830E-01 
    4.9314176544903832E-01 
    4.8844351047666296E-01 
    4.8334151892959704E-01 
    4.7197404243567276E-01 
    4.5497692158456382E-01 
    4.3139623679945815E-01 
    3.7015992356464111E-01 
    1.3495977575986062E-01 
    9.7601004936048697E-04 
    3.3389812041100551E-06 
    1.0000034425493709E-06 
    1.0000000000022850E-06 
    9.9999999999999995E-07 
    9.9999999999999995E-07 
    4.0496678755306631E-01 
    4.0175381600512561E-01 
    3.9586886467099752E-01 
    3.8735202316304801E-01 
    3.7975310528282047E-01 
    3.7098607323905441E-01 
    3.4233018061981990E-01 
    2.7129153692287633E-01 
    1.3856252507995789E-01 
    9.3399433992263324E-03 
    3.0677052827399487E-06 
    1.0000001378645097E-06 
    1.0000000000004785E-06 
    9.9999999999999995E-07 
    9.9999999999999995E-07 
    9.9999999999999995E-07 
    8.0409897356310864E-02 
    7.4583365723674355E-02 
    6.5723522010756499E-02 
    5.4830143248278534E-02 
    4.8268239716220691E-02 
    4.1084989643537247E-02 
    2.3130257133935510E-02 
    4.3446973154219887E-03 
    2.2677681312900191E-04 
    3.6815829846623490E-06 
    1.0000010619830363E-06 
    1.0000000000001090E-06 
    9.9999999999999995E-07 
    9.9999999999999995E-07 
    9.9999999999999995E-07 
    9.9999999999999995E-07 
    1.0000001337830814E-06 
    1.2671069993826552E-06 
    2.1497248002777765E-06 
    2.9730926136361071E-06 
    1.1730409604732923E-06 
    3.1644717775189724E-06 
    7.2165469784214305E-06 
    1.5542792244877958E-06 
    1.0188609883392541E-06 
    1.0000008048598222E-06 
    1.0000000000000427E-06 
    9.9999999999999995E-07 
    9.9999999999999995E-07 
    9.9999999999999995E-07 
    9.9999999999999995E-07 
    9.9999999999999995E-07 
    1.0000000000001268E-06 
    1.0000000825952491E-06 
    1.0000003942481081E-06 
    1.0000007084727979E-06 
    1.0000000959094646E-06 
    1.0000007230372929E-06 
    1.0000021067639786E-06 
    1.0000001294016163E-06 
    1.0000000000000510E-06 
    1.0000000000000004E-06 
    9.9999999999999995E-07 
    9.9999999999999995E-07 
    9.9999999999999995E-07 
    9.9999999999999995E-07 
    9.9999999999999995E-07 
    9.9999999999999995E-07 
    9.9999999999999995E-07 
    1.0000000000000336E-06 
    1.0000000000001437E-06 
    1.0000000000000931E-06 
    9.9999999999999995E-07 
    1.0000000000002255E-06 
    1.0000000000001560E-06 
    1.0000000000000002E-06 
    9.9999999999999995E-07 
    9.9999999999999995E-07 
    9.9999999999999995E-07 
    9.9999999999999995E-07 
    9.9999999999999995E-07 
    9.9999999999999995E-07 
    9.9999999999999995E-07 
    1.0000004404257023E-06 
