# vtk DataFile Version 2.0
Pressure Field Data 
ASCII 
DATASET UNSTRUCTURED_GRID 

POINTS 289 double 

    0.0000000000000000E+00     0.0000000000000000E+00     0.0000000000000000E+00 
    1.0000000000000000E+00     0.0000000000000000E+00     0.0000000000000000E+00 
    1.0000000000000000E+00     1.0000000000000000E+00     0.0000000000000000E+00 
    0.0000000000000000E+00     1.0000000000000000E+00     0.0000000000000000E+00 
    6.2499999999872928E-02     0.0000000000000000E+00     0.0000000000000000E+00 
    1.2499999999977310E-01     0.0000000000000000E+00     0.0000000000000000E+00 
    1.8749999999959341E-01     0.0000000000000000E+00     0.0000000000000000E+00 
    2.4999999999941089E-01     0.0000000000000000E+00     0.0000000000000000E+00 
    3.1249999999922851E-01     0.0000000000000000E+00     0.0000000000000000E+00 
    3.7499999999904610E-01     0.0000000000000000E+00     0.0000000000000000E+00 
    4.3749999999886358E-01     0.0000000000000000E+00     0.0000000000000000E+00 
    4.9999999999869210E-01     0.0000000000000000E+00     0.0000000000000000E+00 
    5.6249999999884603E-01     0.0000000000000000E+00     0.0000000000000000E+00 
    6.2499999999901090E-01     0.0000000000000000E+00     0.0000000000000000E+00 
    6.8749999999917577E-01     0.0000000000000000E+00     0.0000000000000000E+00 
    7.4999999999934064E-01     0.0000000000000000E+00     0.0000000000000000E+00 
    8.1249999999950551E-01     0.0000000000000000E+00     0.0000000000000000E+00 
    8.7499999999967026E-01     0.0000000000000000E+00     0.0000000000000000E+00 
    9.3749999999983513E-01     0.0000000000000000E+00     0.0000000000000000E+00 
    1.0000000000000000E+00     6.2499999999872928E-02     0.0000000000000000E+00 
    1.0000000000000000E+00     1.2499999999977310E-01     0.0000000000000000E+00 
    1.0000000000000000E+00     1.8749999999959341E-01     0.0000000000000000E+00 
    1.0000000000000000E+00     2.4999999999941089E-01     0.0000000000000000E+00 
    1.0000000000000000E+00     3.1249999999922851E-01     0.0000000000000000E+00 
    1.0000000000000000E+00     3.7499999999904610E-01     0.0000000000000000E+00 
    1.0000000000000000E+00     4.3749999999886358E-01     0.0000000000000000E+00 
    1.0000000000000000E+00     4.9999999999869210E-01     0.0000000000000000E+00 
    1.0000000000000000E+00     5.6249999999884603E-01     0.0000000000000000E+00 
    1.0000000000000000E+00     6.2499999999901090E-01     0.0000000000000000E+00 
    1.0000000000000000E+00     6.8749999999917577E-01     0.0000000000000000E+00 
    1.0000000000000000E+00     7.4999999999934064E-01     0.0000000000000000E+00 
    1.0000000000000000E+00     8.1249999999950551E-01     0.0000000000000000E+00 
    1.0000000000000000E+00     8.7499999999967026E-01     0.0000000000000000E+00 
    1.0000000000000000E+00     9.3749999999983513E-01     0.0000000000000000E+00 
    9.3749999999973976E-01     1.0000000000000000E+00     0.0000000000000000E+00 
    8.7499999999950118E-01     1.0000000000000000E+00     0.0000000000000000E+00 
    8.1249999999991318E-01     1.0000000000000000E+00     0.0000000000000000E+00 
    7.5000000000034706E-01     1.0000000000000000E+00     0.0000000000000000E+00 
    6.8750000000078049E-01     1.0000000000000000E+00     0.0000000000000000E+00 
    6.2500000000121403E-01     1.0000000000000000E+00     0.0000000000000000E+00 
    5.6250000000164757E-01     1.0000000000000000E+00     0.0000000000000000E+00 
    5.0000000000205946E-01     1.0000000000000000E+00     0.0000000000000000E+00 
    4.3750000000182099E-01     1.0000000000000000E+00     0.0000000000000000E+00 
    3.7500000000156092E-01     1.0000000000000000E+00     0.0000000000000000E+00 
    3.1250000000130068E-01     1.0000000000000000E+00     0.0000000000000000E+00 
    2.5000000000104050E-01     1.0000000000000000E+00     0.0000000000000000E+00 
    1.8750000000078040E-01     1.0000000000000000E+00     0.0000000000000000E+00 
    1.2500000000052031E-01     1.0000000000000000E+00     0.0000000000000000E+00 
    6.2500000000260125E-02     1.0000000000000000E+00     0.0000000000000000E+00 
    0.0000000000000000E+00     9.3749999999973976E-01     0.0000000000000000E+00 
    0.0000000000000000E+00     8.7499999999950118E-01     0.0000000000000000E+00 
    0.0000000000000000E+00     8.1249999999991318E-01     0.0000000000000000E+00 
    0.0000000000000000E+00     7.5000000000034706E-01     0.0000000000000000E+00 
    0.0000000000000000E+00     6.8750000000078049E-01     0.0000000000000000E+00 
    0.0000000000000000E+00     6.2500000000121403E-01     0.0000000000000000E+00 
    0.0000000000000000E+00     5.6250000000164757E-01     0.0000000000000000E+00 
    0.0000000000000000E+00     5.0000000000205946E-01     0.0000000000000000E+00 
    0.0000000000000000E+00     4.3750000000182099E-01     0.0000000000000000E+00 
    0.0000000000000000E+00     3.7500000000156092E-01     0.0000000000000000E+00 
    0.0000000000000000E+00     3.1250000000130068E-01     0.0000000000000000E+00 
    0.0000000000000000E+00     2.5000000000104050E-01     0.0000000000000000E+00 
    0.0000000000000000E+00     1.8750000000078040E-01     0.0000000000000000E+00 
    0.0000000000000000E+00     1.2500000000052031E-01     0.0000000000000000E+00 
    0.0000000000000000E+00     6.2500000000260125E-02     0.0000000000000000E+00 
    6.2499999999897131E-02     6.2500000000235922E-02     0.0000000000000000E+00 
    6.2499999999921327E-02     1.2500000000047351E-01     0.0000000000000000E+00 
    6.2499999999945530E-02     1.8750000000070621E-01     0.0000000000000000E+00 
    6.2499999999969733E-02     2.5000000000093858E-01     0.0000000000000000E+00 
    6.2499999999993928E-02     3.1250000000117117E-01     0.0000000000000000E+00 
    6.2500000000018124E-02     3.7500000000140382E-01     0.0000000000000000E+00 
    6.2500000000042327E-02     4.3750000000163619E-01     0.0000000000000000E+00 
    6.2500000000066530E-02     5.0000000000184897E-01     0.0000000000000000E+00 
    6.2500000000090733E-02     5.6250000000147260E-01     0.0000000000000000E+00 
    6.2500000000114922E-02     6.2500000000107636E-01     0.0000000000000000E+00 
    6.2500000000139125E-02     6.8750000000068034E-01     0.0000000000000000E+00 
    6.2500000000163328E-02     7.5000000000028411E-01     0.0000000000000000E+00 
    6.2500000000187531E-02     8.1249999999988787E-01     0.0000000000000000E+00 
    6.2500000000211720E-02     8.7499999999951172E-01     0.0000000000000000E+00 
    6.2500000000235922E-02     9.3749999999974565E-01     0.0000000000000000E+00 
    1.2499999999981980E-01     6.2500000000211733E-02     0.0000000000000000E+00 
    1.2499999999986650E-01     1.2500000000042691E-01     0.0000000000000000E+00 
    1.2499999999991319E-01     1.8750000000063199E-01     0.0000000000000000E+00 
    1.2499999999995989E-01     2.5000000000083678E-01     0.0000000000000000E+00 
    1.2500000000000661E-01     3.1250000000104172E-01     0.0000000000000000E+00 
    1.2500000000005329E-01     3.7500000000124661E-01     0.0000000000000000E+00 
    1.2500000000010000E-01     4.3750000000145117E-01     0.0000000000000000E+00 
    1.2500000000014669E-01     5.0000000000163858E-01     0.0000000000000000E+00 
    1.2500000000019340E-01     5.6250000000129741E-01     0.0000000000000000E+00 
    1.2500000000024011E-01     6.2500000000093847E-01     0.0000000000000000E+00 
    1.2500000000028680E-01     6.8750000000057998E-01     0.0000000000000000E+00 
    1.2500000000033351E-01     7.5000000000022127E-01     0.0000000000000000E+00 
    1.2500000000038020E-01     8.1249999999986211E-01     0.0000000000000000E+00 
    1.2500000000042691E-01     8.7499999999952238E-01     0.0000000000000000E+00 
    1.2500000000047359E-01     9.3749999999975164E-01     0.0000000000000000E+00 
    1.8749999999966760E-01     6.2500000000187531E-02     0.0000000000000000E+00 
    1.8749999999974179E-01     1.2500000000038020E-01     0.0000000000000000E+00 
    1.8749999999981601E-01     1.8750000000055780E-01     0.0000000000000000E+00 
    1.8749999999989009E-01     2.5000000000073502E-01     0.0000000000000000E+00 
    1.8749999999996431E-01     3.1250000000091221E-01     0.0000000000000000E+00 
    1.8750000000003850E-01     3.7500000000108941E-01     0.0000000000000000E+00 
    1.8750000000011269E-01     4.3750000000126649E-01     0.0000000000000000E+00 
    1.8750000000018691E-01     5.0000000000142808E-01     0.0000000000000000E+00 
    1.8750000000026110E-01     5.6250000000112244E-01     0.0000000000000000E+00 
    1.8750000000033529E-01     6.2500000000080080E-01     0.0000000000000000E+00 
    1.8750000000040951E-01     6.8750000000047962E-01     0.0000000000000000E+00 
    1.8750000000048361E-01     7.5000000000015843E-01     0.0000000000000000E+00 
    1.8750000000055780E-01     8.1249999999983680E-01     0.0000000000000000E+00 
    1.8750000000063199E-01     8.7499999999953304E-01     0.0000000000000000E+00 
    1.8750000000070621E-01     9.3749999999975764E-01     0.0000000000000000E+00 
    2.4999999999951281E-01     6.2500000000163314E-02     0.0000000000000000E+00 
    2.4999999999961461E-01     1.2500000000033351E-01     0.0000000000000000E+00 
    2.4999999999971650E-01     1.8750000000048361E-01     0.0000000000000000E+00 
    2.4999999999981831E-01     2.5000000000063310E-01     0.0000000000000000E+00 
    2.4999999999992020E-01     3.1250000000078260E-01     0.0000000000000000E+00 
    2.5000000000002198E-01     3.7500000000093209E-01     0.0000000000000000E+00 
    2.5000000000012390E-01     4.3750000000108180E-01     0.0000000000000000E+00 
    2.5000000000022571E-01     5.0000000000121769E-01     0.0000000000000000E+00 
    2.5000000000032763E-01     5.6250000000094724E-01     0.0000000000000000E+00 
    2.5000000000042938E-01     6.2500000000066314E-01     0.0000000000000000E+00 
    2.5000000000053119E-01     6.8750000000037925E-01     0.0000000000000000E+00 
[...]
CELL_DATA 256 
SCALARS Pressure double 1 
LOOKUP_TABLE default 

    7.7657576231859149E-01 
    7.7473549510032602E-01 
    7.7305852707543465E-01 
    7.7150803154249115E-01 
    7.7006653977039807E-01 
    7.6872763825286494E-01 
    7.6749749085945229E-01 
    7.6638349732383826E-01 
    7.6539426207169026E-01 
    7.6453099140090874E-01 
    7.6379350728943307E-01 
    7.6318180674049718E-01 
    7.6269606322828754E-01 
    7.6233849108508545E-01 
    7.6211124993400625E-01 
    7.6199347429598807E-01 
    7.5107670038830066E-01 
    7.5100291226886917E-01 
    7.5086936969441531E-01 
    7.5068579992614037E-01 
    7.5046086357581032E-01 
    7.5020419519286285E-01 
    7.4992968602629351E-01 
    7.4964920748305020E-01 
    7.4937404510195560E-01 
    7.4911466249562875E-01 
    7.4887982484230486E-01 
    7.4867517443725051E-01 
    7.4850565570398619E-01 
    7.4837689166218968E-01 
    7.4828834932539001E-01 
    7.4823464284957375E-01 
    7.2878837846680822E-01 
    7.2878388908373515E-01 
    7.2877280277516465E-01 
    7.2875193186479159E-01 
    7.2871874629005573E-01 
    7.2867366029603264E-01 
    7.2861718993199620E-01 
    7.2855185421253343E-01 
    7.2848002781348653E-01 
    7.2840380713636188E-01 
    7.2832576176446073E-01 
    7.2825009989257239E-01 
    7.2818197192175615E-01 
    7.2812559685566036E-01 
    7.2807236743268777E-01 
    7.2802112368632210E-01 
    7.0201557948431514E-01 
    7.0203042943621863E-01 
    7.0205986258949327E-01 
    7.0210309377395097E-01 
    7.0215703075647906E-01 
    7.0221746101760829E-01 
    7.0227357361535958E-01 
    7.0232114847983140E-01 
    7.0235547033497592E-01 
    7.0237144457120604E-01 
    7.0236706061188903E-01 
    7.0234688737103546E-01 
    7.0231642825686835E-01 
    7.0227129121341170E-01 
    7.0219844563234279E-01 
    7.0212048552988504E-01 
    6.6790121037827410E-01 
    6.6793800697502359E-01 
    6.6800662897641816E-01 
    6.6810431766059364E-01 
    6.6822489634306803E-01 
    6.6835673875259327E-01 
    6.6848829644940211E-01 
    6.6861001746575888E-01 
    6.6871229283829436E-01 
    6.6878507050211422E-01 
    6.6881805049953236E-01 
    6.6881637311537467E-01 
    6.6878163789584444E-01 
    6.6870086730038014E-01 
    6.6857532400427755E-01 
    6.6846941700530138E-01 
    6.2509165430544911E-01 
    6.2515764075318403E-01 
    6.2526688649298778E-01 
    6.2539999470139640E-01 
    6.2553498018797937E-01 
    6.2564325856799674E-01 
    6.2571888981595736E-01 
    6.2576093699315638E-01 
    6.2576948557204837E-01 
    6.2574477451252497E-01 
    6.2569516377724310E-01 
    6.2562794659797394E-01 
    6.2553221288228400E-01 
    6.2539911929849057E-01 
    6.2529744928296949E-01 
    6.2528739032628466E-01 
    5.8385658093601589E-01 
    5.8379309135452473E-01 
    5.8366692465864478E-01 
    5.8347698886589894E-01 
    5.8321829687867033E-01 
    5.8291368770386021E-01 
    5.8262248670730998E-01 
    5.8235597108581894E-01 
    5.8212263328732838E-01 
    5.8192659915423750E-01 
    5.8178924001381338E-01 
    5.8168035853875122E-01 
    5.8156046335906930E-01 
    5.8144969369589949E-01 
    5.8140185825344470E-01 
    5.8141043188640540E-01 
    5.3903918463807055E-01 
    5.3896380401791910E-01 
    5.3883335438858826E-01 
    5.3867133219354091E-01 
    5.3850295065413656E-01 
    5.3835889902080325E-01 
    5.3827025373006898E-01 
    5.3824062628020741E-01 
    5.3826875182318457E-01 
    5.3832717734244828E-01 
    5.3837701888361822E-01 
    5.3839064696478856E-01 
    5.3837845626646397E-01 
    5.3837323692439776E-01 
    5.3836694132386698E-01 
    5.3833514419200834E-01 
    4.9147108215518887E-01 
    4.9139086820455408E-01 
    4.9127192246517526E-01 
    4.9115937549607069E-01 
    4.9110409212679668E-01 
    4.9113876617943764E-01 
    4.9125957103237972E-01 
    4.9145424343121646E-01 
    4.9169834983210692E-01 
    4.9191486587562117E-01 
    4.9203051936255610E-01 
    4.9207952380597209E-01 
    4.9209511401053363E-01 
    4.9207475646460663E-01 
    4.9199225092376891E-01 
    4.9182298722521478E-01 
    4.3189434365980384E-01 
    4.3191010322983564E-01 
    4.3192309033748250E-01 
    4.3191511159551743E-01 
    4.3186880521364390E-01 
    4.3177278204651132E-01 
    4.3160626335150276E-01 
    4.3133322120592976E-01 
    4.3092132280572981E-01 
    4.3039813317976672E-01 
    4.2987286722384699E-01 
    4.2941441732185365E-01 
    4.2903122049640618E-01 
    4.2871020603835985E-01 
    4.2845490830153848E-01 
    4.2827261661799532E-01 
    3.5296864095876229E-01 
    3.5288672573579005E-01 
    3.5270612647850569E-01 
    3.5240574491817522E-01 
    3.5196033072376032E-01 
    3.5133837405286211E-01 
    3.5059156503042110E-01 
    3.4973917698208562E-01 
    3.4888112026159912E-01 
    3.4813488628711131E-01 
    3.4757294634885794E-01 
    3.4715393492295077E-01 
    3.4685581476895311E-01 
    3.4667659666740080E-01 
    3.4661689544639879E-01 
    3.4667912505831172E-01 
    2.7312533855284216E-01 
    2.7308984127732711E-01 
    2.7301102626577772E-01 
    2.7288182201769412E-01 
    2.7269487893443078E-01 
    2.7244380237739046E-01 
    2.7216076034315639E-01 
    2.7189086859190870E-01 
    2.7167029378788415E-01 
    2.7149702457180064E-01 
    2.7137622281368939E-01 
    2.7130267427733923E-01 
    2.7127522571698637E-01 
    2.7129433589056456E-01 
    2.7136211069992783E-01 
    2.7148218270191649E-01 
    2.0849549224810160E-01 
    2.0851107083665604E-01 
    2.0853418730933654E-01 
    2.0855444601854256E-01 
    2.0856096585948072E-01 
    2.0854350375635283E-01 
    2.0850777559372780E-01 
    2.0845686892095797E-01 
    2.0839685701831223E-01 
    2.0833774206944972E-01 
    2.0829697929800067E-01 
    2.0827385517968747E-01 
    2.0826849249887514E-01 
    2.0828199868028491E-01 
    2.0831644939752297E-01 
    2.0837477522693523E-01 
    1.5304886381026142E-01 
    1.5301791647230659E-01 
    1.5295532035871454E-01 
    1.5286080742605915E-01 
    1.5273467704760829E-01 
    1.5257793559424584E-01 
    1.5239805459507766E-01 
    1.5220272172761448E-01 
    1.5200037533575958E-01 
    1.5180016791893916E-01 
    1.5161445691958225E-01 
    1.5144972522894706E-01 
    1.5131274758277174E-01 
    1.5121024789998205E-01 
    1.5114851784317745E-01 
    1.5113290353824957E-01 
    1.0193471223534810E-01 
    1.0179265635793076E-01 
    1.0151422377072425E-01 
    1.0110797542209522E-01 
    1.0058514254533554E-01 
    9.9959473654912145E-02 
    9.9240312195306074E-02 
    9.8440111792590906E-02 
    9.7575030899273468E-02 
    9.6665592917079809E-02 
    9.5736267737216024E-02 
    9.4823664806381741E-02 
    9.3970582353489290E-02 
    9.3227281674386223E-02 
    9.2653037351421663E-02 
    9.2318006261585761E-02 
    6.2828595967362635E-02 
    6.2365580887524585E-02 
    6.1449052098399085E-02 
    6.0086126535940726E-02 
    5.8280993892442831E-02 
    5.6024403721444398E-02 
    5.3280320120857080E-02 
    5.0008659071601139E-02 
    4.6164783667686740E-02 
    4.1722303584572143E-02 
    3.6644060778724397E-02 
    3.0886247261806180E-02 
    2.4397437170017380E-02 
    1.7117628842365794E-02 
    8.9771936397419691E-03 
    0.0000000000000000E+00 

SCALARS Saturarion double 1 
LOOKUP_TABLE default 

    1.0000000000009408E+00 
    9.8375413778099541E-01 
    9.5722430796552660E-01 
    9.2287963765383862E-01 
    8.8908543082388447E-01 
    8.5594724530520694E-01 
    8.2340219976607321E-01 
    7.9121745224116058E-01 
    7.5900125278503161E-01 
    7.2625269534146153E-01 
    6.9210170602062726E-01 
    6.5549056964981856E-01 
    6.1473710335974396E-01 
    5.6801288109268444E-01 
    5.0914324709961101E-01 
    2.5979790043113399E-01 
    9.3752942513714621E-01 
    9.2530299385084480E-01 
    8.9997391350170675E-01 
    8.7164668228672160E-01 
    8.3541560278347515E-01 
    8.0294025420693860E-01 
    7.7327934449815117E-01 
    7.4464265600240587E-01 
    7.1688606179965253E-01 
    6.8836054975340277E-01 
    6.5777934657229753E-01 
    6.2484541414102790E-01 
    5.8602662783146642E-01 
    5.4537164847586306E-01 
    4.8250767656631344E-01 
    1.5434681054323859E-01 
    8.4576021334620943E-01 
    8.2520801764781992E-01 
    7.9538140012195424E-01 
    7.6250806071738753E-01 
    7.3369265169536380E-01 
    7.1076275351536522E-01 
    6.8932539931027459E-01 
    6.6802633854361726E-01 
    6.4792186841427635E-01 
    6.2595265183416315E-01 
    6.0098690183431747E-01 
    5.7406588412084070E-01 
    5.4241957049805922E-01 
    5.1053516677480026E-01 
    4.0434757768084129E-01 
    4.2286309009714709E-02 
    7.6642576745539270E-01 
    7.5257932646644721E-01 
    7.2219039540018459E-01 
    6.8844104526578442E-01 
    6.6401172891227545E-01 
    6.4552145866834076E-01 
    6.2772943730194886E-01 
    6.1031399817002707E-01 
    5.9377403273556961E-01 
    5.7508438156192621E-01 
    5.5439217465858348E-01 
    5.3364006308067813E-01 
    5.1058961294031258E-01 
    4.6405184887299034E-01 
    2.1552901270999253E-01 
    1.3798770105238041E-03 
    7.0339961193033551E-01 
    6.9516162857619801E-01 
    6.6965494104157530E-01 
    6.3903466883619509E-01 
    6.1581158921089629E-01 
    5.9854826804137928E-01 
    5.8266570015588315E-01 
    5.6717134642694655E-01 
    5.5122991912802610E-01 
    5.3496034078091437E-01 
    5.1810870034306233E-01 
    5.0191217449306513E-01 
    4.7597868735349758E-01 
    3.3731954944507236E-01 
    3.8797606859570330E-02 
    1.5288909521882254E-05 
    6.5724881729409490E-01 
    6.4927432136094498E-01 
    6.2894337803456790E-01 
    6.0440912302048466E-01 
    5.8022333427300210E-01 
    5.6460331163155997E-01 
    5.5059811592251273E-01 
    5.3673163253631051E-01 
    5.1963103614174411E-01 
    5.0544882903535537E-01 
    4.8928873165927916E-01 
    4.7072323975753178E-01 
    4.2104409002524934E-01 
    1.3694888480747799E-01 
    1.9396725677987795E-04 
    1.0016497778983336E-06 
    6.1990122099163580E-01 
    6.1289447672396602E-01 
    5.9879072273289968E-01 
    5.8178598784031554E-01 
    5.5740817811284038E-01 
    5.4044857446928563E-01 
    5.2807145281880363E-01 
    5.1595648114969683E-01 
    4.9959166701782043E-01 
    4.8192498381380044E-01 
    4.6352330638147354E-01 
    4.3507666956296742E-01 
    2.8632345690705918E-01 
    1.0313950659989616E-02 
    1.8297022087229589E-06 
    1.0000000320588517E-06 
    5.8486103028945213E-01 
    5.8056142198800353E-01 
    5.7152797997426230E-01 
    5.6113508415118085E-01 
    5.4039076642939154E-01 
    5.1765686189655169E-01 
    5.0492931817426090E-01 
    4.9389848138754971E-01 
    4.7954827721334564E-01 
    4.5727696928046174E-01 
    4.2474616132541398E-01 
    3.0638607561927678E-01 
    5.7769681774842083E-02 
    1.2747012485406885E-05 
    1.0000004009300362E-06 
    1.0000000000000110E-06 
    5.5059006450069492E-01 
    5.4829970270477790E-01 
    5.4259760201668394E-01 
    5.3496509309358187E-01 
    5.2018564601148087E-01 
    4.9506110593533070E-01 
    4.7743953611281281E-01 
    4.5634207929561948E-01 
    4.2537189942961445E-01 
    3.8281622739528065E-01 
    2.5303635046519707E-01 
    3.9196785433488798E-02 
    3.8519089943328310E-04 
    1.0000371917759288E-06 
    1.0000000000000097E-06 
    9.9999999999999995E-07 
    5.1081717463487342E-01 
    5.0931456608915660E-01 
    5.0532046533604080E-01 
    4.9920129697789717E-01 
    4.9194958635814218E-01 
    4.7312832949896955E-01 
    4.4910632633717379E-01 
    4.1100628749592166E-01 
    2.8434950785635643E-01 
    1.1644884787584379E-01 
    8.1258819406347087E-03 
    1.3472504934379449E-04 
    1.0299148888442334E-06 
    1.0000000056374135E-06 
    1.0000000000000002E-06 
    9.9999999999999995E-07 
    4.3287115279932509E-01 
    4.3019253046499106E-01 
    4.2477577303402664E-01 
    4.1681347434261806E-01 
    4.0972257175044652E-01 
    3.9775389305701964E-01 
    3.5397227305427886E-01 
    2.3954196203355257E-01 
    5.5017156643215166E-02 
    2.3671234442333927E-04 
    2.9090850712251252E-06 
    1.0031587612850636E-06 
    1.0000000015748451E-06 
    1.0000000000000016E-06 
    9.9999999999999995E-07 
    9.9999999999999995E-07 
    1.3137579161303428E-01 
    1.2402551930012841E-01 
    1.1275888634131472E-01 
    9.8116407503097067E-02 
    9.1989698730094327E-02 
    7.6894929227751041E-02 
    3.5148548957328253E-02 
    3.6396363468616955E-03 
    1.5046796983199127E-04 
    1.0125118301739083E-06 
    1.0000011227506086E-06 
    1.0000000000003881E-06 
    9.9999999999999995E-07 
    9.9999999999999995E-07 
    9.9999999999999995E-07 
    9.9999999999999995E-07 
    1.0000006468725225E-06 
    1.6158705763362232E-06 
    4.1691460418275818E-06 
    6.3427583829055982E-06 
    1.0829341179534923E-06 
    2.2118436621518143E-05 
    2.8280200868650432E-05 
    1.3932551043657355E-06 
    1.0010032966098886E-06 
    1.0000000006170980E-06 
    1.0000000000000101E-06 
    9.9999999999999995E-07 
    9.9999999999999995E-07 
    9.9999999999999995E-07 
    9.9999999999999995E-07 
    9.9999999999999995E-07 
    1.0000000000010189E-06 
    1.0000003900244218E-06 
    1.0000029798285122E-06 
    1.0000059046765199E-06 
    1.0000001014147880E-06 
    1.0000457959960529E-06 
    1.0000708676326477E-06 
    1.0000000714541114E-06 
    1.0000000000000036E-06 
    9.9999999999999995E-07 
    9.9999999999999995E-07 
    9.9999999999999995E-07 
    9.9999999999999995E-07 
    9.9999999999999995E-07 
    9.9999999999999995E-07 
    9.9999999999999995E-07 
    9.9999999999999995E-07 
    1.0000000000002977E-06 
    1.0000000000019661E-06 
    1.0000000000014009E-06 
    9.9999999999999932E-07 
    1.0000000000115569E-06 
    1.0000000000000031E-06 
    1.0000000000000014E-06 
    9.9999999999999995E-07 
    9.9999999999999995E-07 
    9.9999999999999995E-07 
    9.9999999999999995E-07 
    9.9999999999999995E-07 
    9.9999999999999995E-07 
    9.9999999999999995E-07 
    9.9999999999999995E-07 
    9.9999999999999995E-07 
    9.9999999999999995E-07 
    9.9999999999999995E-07 
    9.9999999999999995E-07 
    9.9999999999999995E-07 
    9.9999999999999995E-07 
    9.9999999999999995E-07 
    9.9999999999999995E-07 
    9.9999999999999995E-07 
    9.9999999999999995E-07 
    9.9999999999999995E-07 
    9.9999999999999995E-07 
    9.9999999999999995E-07 
    9.9999999999999995E-07 
    9.9999999999999995E-07 
    1.0000004038207049E-06 
