# vtk DataFile Version 2.0
Pressure Field Data 
ASCII 
DATASET UNSTRUCTURED_GRID 

POINTS 289 double 

    0.0000000000000000E+00     0.0000000000000000E+00     0.0000000000000000E+00 
    1.0000000000000000E+00     0.0000000000000000E+00     0.0000000000000000E+00 
    1.0000000000000000E+00     1.0000000000000000E+00     0.0000000000000000E+00 
    0.0000000000000000E+00     1.0000000000000000E+00     0.0000000000000000E+00 
    6.2499999999872928E-02     0.0000000000000000E+00     0.0000000000000000E+00 
    1.2499999999977310E-01     0.0000000000000000E+00     0.0000000000000000E+00 
    1.8749999999959341E-01     0.0000000000000000E+00     0.0000000000000000E+00 
    2.4999999999941089E-01     0.0000000000000000E+00     0.0000000000000000E+00 
    3.1249999999922851E-01     0.0000000000000000E+00     0.0000000000000000E+00 
    3.7499999999904610E-01     0.0000000000000000E+00     0.0000000000000000E+00 
    4.3749999999886358E-01     0.0000000000000000E+00     0.0000000000000000E+00 
    4.9999999999869210E-01     0.0000000000000000E+00     0.0000000000000000E+00 
    5.6249999999884603E-01     0.0000000000000000E+00     0.0000000000000000E+00 
    6.2499999999901090E-01     0.0000000000000000E+00     0.0000000000000000E+00 
    6.8749999999917577E-01     0.0000000000000000E+00     0.0000000000000000E+00 
    7.4999999999934064E-01     0.0000000000000000E+00     0.0000000000000000E+00 
    8.1249999999950551E-01     0.0000000000000000E+00     0.0000000000000000E+00 
    8.7499999999967026E-01     0.0000000000000000E+00     0.0000000000000000E+00 
    9.3749999999983513E-01     0.0000000000000000E+00     0.0000000000000000E+00 
    1.0000000000000000E+00     6.2499999999872928E-02     0.0000000000000000E+00 
    1.0000000000000000E+00     1.2499999999977310E-01     0.0000000000000000E+00 
    1.0000000000000000E+00     1.8749999999959341E-01     0.0000000000000000E+00 
    1.0000000000000000E+00     2.4999999999941089E-01     0.0000000000000000E+00 
    1.0000000000000000E+00     3.1249999999922851E-01     0.0000000000000000E+00 
    1.0000000000000000E+00     3.7499999999904610E-01     0.0000000000000000E+00 
    1.0000000000000000E+00     4.3749999999886358E-01     0.0000000000000000E+00 
    1.0000000000000000E+00     4.9999999999869210E-01     0.0000000000000000E+00 
    1.0000000000000000E+00     5.6249999999884603E-01     0.0000000000000000E+00 
    1.0000000000000000E+00     6.2499999999901090E-01     0.0000000000000000E+00 
    1.0000000000000000E+00     6.8749999999917577E-01     0.0000000000000000E+00 
    1.0000000000000000E+00     7.4999999999934064E-01     0.0000000000000000E+00 
    1.0000000000000000E+00     8.1249999999950551E-01     0.0000000000000000E+00 
    1.0000000000000000E+00     8.7499999999967026E-01     0.0000000000000000E+00 
    1.0000000000000000E+00     9.3749999999983513E-01     0.0000000000000000E+00 
    9.3749999999973976E-01     1.0000000000000000E+00     0.0000000000000000E+00 
    8.7499999999950118E-01     1.0000000000000000E+00     0.0000000000000000E+00 
    8.1249999999991318E-01     1.0000000000000000E+00     0.0000000000000000E+00 
    7.5000000000034706E-01     1.0000000000000000E+00     0.0000000000000000E+00 
    6.8750000000078049E-01     1.0000000000000000E+00     0.0000000000000000E+00 
    6.2500000000121403E-01     1.0000000000000000E+00     0.0000000000000000E+00 
    5.6250000000164757E-01     1.0000000000000000E+00     0.0000000000000000E+00 
    5.0000000000205946E-01     1.0000000000000000E+00     0.0000000000000000E+00 
    4.3750000000182099E-01     1.0000000000000000E+00     0.0000000000000000E+00 
    3.7500000000156092E-01     1.0000000000000000E+00     0.0000000000000000E+00 
    3.1250000000130068E-01     1.0000000000000000E+00     0.0000000000000000E+00 
    2.5000000000104050E-01     1.0000000000000000E+00     0.0000000000000000E+00 
    1.8750000000078040E-01     1.0000000000000000E+00     0.0000000000000000E+00 
    1.2500000000052031E-01     1.0000000000000000E+00     0.0000000000000000E+00 
    6.2500000000260125E-02     1.0000000000000000E+00     0.0000000000000000E+00 
    0.0000000000000000E+00     9.3749999999973976E-01     0.0000000000000000E+00 
    0.0000000000000000E+00     8.7499999999950118E-01     0.0000000000000000E+00 
    0.0000000000000000E+00     8.1249999999991318E-01     0.0000000000000000E+00 
    0.0000000000000000E+00     7.5000000000034706E-01     0.0000000000000000E+00 
    0.0000000000000000E+00     6.8750000000078049E-01     0.0000000000000000E+00 
    0.0000000000000000E+00     6.2500000000121403E-01     0.0000000000000000E+00 
    0.0000000000000000E+00     5.6250000000164757E-01     0.0000000000000000E+00 
    0.0000000000000000E+00     5.0000000000205946E-01     0.0000000000000000E+00 
    0.0000000000000000E+00     4.3750000000182099E-01     0.0000000000000000E+00 
    0.0000000000000000E+00     3.7500000000156092E-01     0.0000000000000000E+00 
    0.0000000000000000E+00     3.1250000000130068E-01     0.0000000000000000E+00 
    0.0000000000000000E+00     2.5000000000104050E-01     0.0000000000000000E+00 
    0.0000000000000000E+00     1.8750000000078040E-01     0.0000000000000000E+00 
    0.0000000000000000E+00     1.2500000000052031E-01     0.0000000000000000E+00 
    0.0000000000000000E+00     6.2500000000260125E-02     0.0000000000000000E+00 
    6.2499999999897131E-02     6.2500000000235922E-02     0.0000000000000000E+00 
    6.2499999999921327E-02     1.2500000000047351E-01     0.0000000000000000E+00 
    6.2499999999945530E-02     1.8750000000070621E-01     0.0000000000000000E+00 
    6.2499999999969733E-02     2.5000000000093858E-01     0.0000000000000000E+00 
    6.2499999999993928E-02     3.1250000000117117E-01     0.0000000000000000E+00 
    6.2500000000018124E-02     3.7500000000140382E-01     0.0000000000000000E+00 
    6.2500000000042327E-02     4.3750000000163619E-01     0.0000000000000000E+00 
    6.2500000000066530E-02     5.0000000000184897E-01     0.0000000000000000E+00 
    6.2500000000090733E-02     5.6250000000147260E-01     0.0000000000000000E+00 
    6.2500000000114922E-02     6.2500000000107636E-01     0.0000000000000000E+00 
    6.2500000000139125E-02     6.8750000000068034E-01     0.0000000000000000E+00 
    6.2500000000163328E-02     7.5000000000028411E-01     0.0000000000000000E+00 
    6.2500000000187531E-02     8.1249999999988787E-01     0.0000000000000000E+00 
    6.2500000000211720E-02     8.7499999999951172E-01     0.0000000000000000E+00 
    6.2500000000235922E-02     9.3749999999974565E-01     0.0000000000000000E+00 
    1.2499999999981980E-01     6.2500000000211733E-02     0.0000000000000000E+00 
    1.2499999999986650E-01     1.2500000000042691E-01     0.0000000000000000E+00 
    1.2499999999991319E-01     1.8750000000063199E-01     0.0000000000000000E+00 
    1.2499999999995989E-01     2.5000000000083678E-01     0.0000000000000000E+00 
    1.2500000000000661E-01     3.1250000000104172E-01     0.0000000000000000E+00 
    1.2500000000005329E-01     3.7500000000124661E-01     0.0000000000000000E+00 
    1.2500000000010000E-01     4.3750000000145117E-01     0.0000000000000000E+00 
    1.2500000000014669E-01     5.0000000000163858E-01     0.0000000000000000E+00 
    1.2500000000019340E-01     5.6250000000129741E-01     0.0000000000000000E+00 
    1.2500000000024011E-01     6.2500000000093847E-01     0.0000000000000000E+00 
    1.2500000000028680E-01     6.8750000000057998E-01     0.0000000000000000E+00 
    1.2500000000033351E-01     7.5000000000022127E-01     0.0000000000000000E+00 
    1.2500000000038020E-01     8.1249999999986211E-01     0.0000000000000000E+00 
    1.2500000000042691E-01     8.7499999999952238E-01     0.0000000000000000E+00 
    1.2500000000047359E-01     9.3749999999975164E-01     0.0000000000000000E+00 
    1.8749999999966760E-01     6.2500000000187531E-02     0.0000000000000000E+00 
    1.8749999999974179E-01     1.2500000000038020E-01     0.0000000000000000E+00 
    1.8749999999981601E-01     1.8750000000055780E-01     0.0000000000000000E+00 
    1.8749999999989009E-01     2.5000000000073502E-01     0.0000000000000000E+00 
    1.8749999999996431E-01     3.1250000000091221E-01     0.0000000000000000E+00 
    1.8750000000003850E-01     3.7500000000108941E-01     0.0000000000000000E+00 
    1.8750000000011269E-01     4.3750000000126649E-01     0.0000000000000000E+00 
    1.8750000000018691E-01     5.0000000000142808E-01     0.0000000000000000E+00 
    1.8750000000026110E-01     5.6250000000112244E-01     0.0000000000000000E+00 
    1.8750000000033529E-01     6.2500000000080080E-01     0.0000000000000000E+00 
    1.8750000000040951E-01     6.8750000000047962E-01     0.0000000000000000E+00 
    1.8750000000048361E-01     7.5000000000015843E-01     0.0000000000000000E+00 
    1.8750000000055780E-01     8.1249999999983680E-01     0.0000000000000000E+00 
    1.8750000000063199E-01     8.7499999999953304E-01     0.0000000000000000E+00 
    1.8750000000070621E-01     9.3749999999975764E-01     0.0000000000000000E+00 
    2.4999999999951281E-01     6.2500000000163314E-02     0.0000000000000000E+00 
    2.4999999999961461E-01     1.2500000000033351E-01     0.0000000000000000E+00 
    2.4999999999971650E-01     1.8750000000048361E-01     0.0000000000000000E+00 
    2.4999999999981831E-01     2.5000000000063310E-01     0.0000000000000000E+00 
    2.4999999999992020E-01     3.1250000000078260E-01     0.0000000000000000E+00 
    2.5000000000002198E-01     3.7500000000093209E-01     0.0000000000000000E+00 
    2.5000000000012390E-01     4.3750000000108180E-01     0.0000000000000000E+00 
    2.5000000000022571E-01     5.0000000000121769E-01     0.0000000000000000E+00 
    2.5000000000032763E-01     5.6250000000094724E-01     0.0000000000000000E+00 
    2.5000000000042938E-01     6.2500000000066314E-01     0.0000000000000000E+00 
    2.5000000000053119E-01     6.8750000000037925E-01     0.0000000000000000E+00 
[...]
CELL_DATA 256 
SCALARS Pressure double 1 
LOOKUP_TABLE default 

    1.4294370557893215E+00 
    1.4127299752319500E+00 
    1.3645623440082773E+00 
    1.3276642705646045E+00 
    1.3007199016777307E+00 
    1.2787079993145447E+00 
    1.2592121878675022E+00 
    1.2463367662125258E+00 
    1.2375466587746460E+00 
    1.2311195714468184E+00 
    1.2257554244049829E+00 
    1.2219687183360664E+00 
    1.2188796615639077E+00 
    1.2157279204562115E+00 
    1.2118718268373558E+00 
    1.2076019531273614E+00 
    1.3087252980495105E+00 
    1.3065621364735214E+00 
    1.2902814560337841E+00 
    1.2724707374650683E+00 
    1.2544101184865997E+00 
    1.2369842614844295E+00 
    1.2232472255364271E+00 
    1.2139594155927398E+00 
    1.2044275282221795E+00 
    1.1966270478002625E+00 
    1.1915938839760221E+00 
    1.1890243785462193E+00 
    1.1869863898987330E+00 
    1.1862355926183010E+00 
    1.1866524367433557E+00 
    1.1877322745440586E+00 
    1.1749334379559337E+00 
    1.1816827728193016E+00 
    1.1841846933970759E+00 
    1.1816306127004217E+00 
    1.1749966948140840E+00 
    1.1665507387121927E+00 
    1.1600852802013799E+00 
    1.1556773577875459E+00 
    1.1488476426699343E+00 
    1.1429564598733359E+00 
    1.1399287114727976E+00 
    1.1389681919748949E+00 
    1.1379476164837985E+00 
    1.1388884716530743E+00 
    1.1425759543984968E+00 
    1.1482721655164234E+00 
    1.0741340378076598E+00 
    1.0830397712292219E+00 
    1.0895430390790115E+00 
    1.0929544784424621E+00 
    1.0929356809782733E+00 
    1.0907775567664177E+00 
    1.0896093302538123E+00 
    1.0891953672269785E+00 
    1.0859611138863676E+00 
    1.0829814730481204E+00 
    1.0825378737031903E+00 
    1.0833936755355020E+00 
    1.0834163768883269E+00 
    1.0853580516962764E+00 
    1.0908024829438110E+00 
    1.0989855480576163E+00 
    9.8743550493121235E-01 
    9.9774388005762027E-01 
    1.0044711793167431E+00 
    1.0100529254094393E+00 
    1.0137112315181918E+00 
    1.0156499730132174E+00 
    1.0178809052634112E+00 
    1.0224016049650759E+00 
    1.0235949248157465E+00 
    1.0240925797586611E+00 
    1.0261605857512157E+00 
    1.0302270342103808E+00 
    1.0315803755073378E+00 
    1.0338970689162170E+00 
    1.0393152729423769E+00 
    1.0472506040086340E+00 
    9.0948001232318054E-01 
    9.1629175274041752E-01 
    9.2148748560405613E-01 
    9.2530395771693097E-01 
    9.2911977163991799E-01 
    9.3450106794831578E-01 
    9.4155046755170768E-01 
    9.4883041080144159E-01 
    9.5513953093959336E-01 
    9.6210008098902511E-01 
    9.6976853274117536E-01 
    9.7671286834608440E-01 
    9.8163654518045829E-01 
    9.8555917426630379E-01 
    9.8857195239738671E-01 
    9.9093437183776256E-01 
    8.2330547299121859E-01 
    8.3172083339937197E-01 
    8.3887293232059457E-01 
    8.4523541183614193E-01 
    8.5173919671946297E-01 
    8.5907707961740365E-01 
    8.6502503637137862E-01 
    8.6885195225531142E-01 
    8.7476830174638665E-01 
    8.8235817175158648E-01 
    8.8954667787382802E-01 
    8.9512990192422415E-01 
    9.0160575481348770E-01 
    9.0846819340468599E-01 
    9.1559691627652362E-01 
    9.2238733492280522E-01 
    7.4471387102754172E-01 
    7.5412760723305172E-01 
    7.6247314071612093E-01 
    7.7005463943371888E-01 
    7.7693131966865081E-01 
    7.8356938979504576E-01 
    7.8935218496972648E-01 
    7.9382674011409693E-01 
    7.9848539766985682E-01 
    8.0404850788189275E-01 
    8.0975484853368396E-01 
    8.1501482809520143E-01 
    8.2005062889005675E-01 
    8.2645757617999294E-01 
    8.3550105186501344E-01 
    8.4622013155092868E-01 
    6.7339110966050120E-01 
    6.8256164702292288E-01 
    6.8951615414570333E-01 
    6.9636493900667307E-01 
    7.0257830561406420E-01 
    7.0807031344357230E-01 
    7.1314534342894742E-01 
    7.1997587381281214E-01 
    7.2556162520463308E-01 
    7.3157766434692417E-01 
    7.3758407102667833E-01 
    7.4398624323144613E-01 
    7.4787619537686567E-01 
    7.5270181561785776E-01 
    7.6128971901692766E-01 
    7.7308106624533901E-01 
    6.1028971056485115E-01 
    6.1595737358078784E-01 
    6.2042362292803277E-01 
    6.2414216949258761E-01 
    6.2812232299322168E-01 
    6.3320327669113285E-01 
    6.3920525668097550E-01 
    6.4588002089415142E-01 
    6.5314233942571642E-01 
    6.6258355046269413E-01 
    6.7371685758195332E-01 
    6.8294717054195087E-01 
    6.8990714971995148E-01 
    6.9559718841780349E-01 
    7.0015359515617448E-01 
    7.0402513039641323E-01 
    5.4967334957034519E-01 
    5.5480734745781601E-01 
    5.5929565217126587E-01 
    5.6341062548834275E-01 
    5.6766545228275889E-01 
    5.7192145018379670E-01 
    5.7494741234827673E-01 
    5.7770482483985086E-01 
    5.8222613328387385E-01 
    5.8790520290059989E-01 
    5.9407358568232027E-01 
    5.9982385509625502E-01 
    6.0701597870859991E-01 
    6.1460784794050793E-01 
    6.2206398952225306E-01 
    6.2882491231861937E-01 
    4.9501828029723227E-01 
    4.9994627684946918E-01 
    5.0450241611697899E-01 
    5.0830905375405711E-01 
    5.1111154973877049E-01 
    5.1278992213466068E-01 
    5.1392575642996108E-01 
    5.1488549526700478E-01 
    5.1494543478340904E-01 
    5.1433245258440252E-01 
    5.1482862713651611E-01 
    5.1736983254566726E-01 
    5.2097544341181068E-01 
    5.2669010530182148E-01 
    5.3510214905899689E-01 
    5.4517068703562743E-01 
    4.3955129561125234E-01 
    4.4408112475800776E-01 
    4.4823626666395494E-01 
    4.5116256756057560E-01 
    4.5219405654794448E-01 
    4.5138893442476014E-01 
    4.5029293307792800E-01 
    4.4904176971800847E-01 
    4.4505925855042350E-01 
    4.3934356324347468E-01 
    4.3515192285525289E-01 
    4.3395763583818414E-01 
    4.3321356818082229E-01 
    4.3585070046653690E-01 
    4.4384280111822327E-01 
    4.5619426468356372E-01 
    3.8318098634924275E-01 
    3.8710914122474066E-01 
    3.9062298404616203E-01 
    3.9254011610420370E-01 
    3.9193512373426026E-01 
    3.8890469914996906E-01 
    3.8562237976419489E-01 
    3.8239377057190915E-01 
    3.7510185876756258E-01 
    3.6506865968406516E-01 
    3.5625674136387370E-01 
    3.5073420798225213E-01 
    3.4479199171494718E-01 
    3.4256942659526052E-01 
    3.4750706920562646E-01 
    3.5971577508283037E-01 
    3.3042493303499998E-01 
    3.3305108937272271E-01 
    3.3526772516508935E-01 
    3.3594585160724588E-01 
    3.3417000556523574E-01 
    3.2990651265753690E-01 
    3.2527643424709940E-01 
    3.2085718473412711E-01 
    3.1174246208605377E-01 
    2.9870112872378007E-01 
    2.8516758852266333E-01 
    2.7333999059739017E-01 
    2.5823960121866002E-01 
    2.4307296453208177E-01 
    2.3311558322875925E-01 
    2.3654461288947604E-01 
    2.9718061451187633E-01 
    2.9752573900499085E-01 
    2.9761085658939090E-01 
    2.9659866093972143E-01 
    2.9430412652090443E-01 
    2.9123031461922427E-01 
    2.8678699835302235E-01 
    2.8162420145379152E-01 
    2.7343089918914992E-01 
    2.6060908813720568E-01 
    2.4360237514199576E-01 
    2.2323722009184563E-01 
    1.9295049702402831E-01 
    1.4683129218441107E-01 
    8.1896250519534003E-02 
    0.0000000000000000E+00 

SCALARS Saturarion double 1 
LOOKUP_TABLE default 

    5.2574808200538004E-01 
    1.6137982795811287E-01 
    5.7138316430248595E-05 
    9.9999999999999995E-07 
    9.9999999999999995E-07 
    9.9999999999999995E-07 
    9.9999999999999995E-07 
    9.9999999999999995E-07 
    9.9999999999999995E-07 
    9.9999999999999995E-07 
    9.9999999999999995E-07 
    9.9999999999999995E-07 
    9.9999999999999995E-07 
    9.9999999999999995E-07 
    9.9999999999999995E-07 
    9.9999999999999995E-07 
    7.3360422574697048E-02 
    5.2495515499750029E-03 
    1.5812189828869219E-06 
    1.0000001873966286E-06 
    9.9999999999999995E-07 
    9.9999999999999995E-07 
    9.9999999999999995E-07 
    9.9999999999999995E-07 
    9.9999999999999995E-07 
    9.9999999999999995E-07 
    9.9999999999999995E-07 
    9.9999999999999995E-07 
    9.9999999999999995E-07 
    9.9999999999999995E-07 
    9.9999999999999995E-07 
    9.9999999999999995E-07 
    7.5094309668219747E-06 
    1.0736508020031650E-06 
    1.0000000229931800E-06 
    9.9999999999999995E-07 
    9.9999999999999995E-07 
    9.9999999999999995E-07 
    9.9999999999999995E-07 
    9.9999999999999995E-07 
    9.9999999999999995E-07 
    9.9999999999999995E-07 
    9.9999999999999995E-07 
    9.9999999999999995E-07 
    9.9999999999999995E-07 
    9.9999999999999995E-07 
    9.9999999999999995E-07 
    9.9999999999999995E-07 
    9.9999999999999995E-07 
    1.0000000042886819E-06 
    9.9999999999999995E-07 
    9.9999999999999995E-07 
    9.9999999999999995E-07 
    9.9999999999999995E-07 
    9.9999999999999995E-07 
    9.9999999999999995E-07 
    9.9999999999999995E-07 
    9.9999999999999995E-07 
    9.9999999999999995E-07 
    9.9999999999999995E-07 
    9.9999999999999995E-07 
    9.9999999999999995E-07 
    9.9999999999999995E-07 
    9.9999999999999995E-07 
    9.9999999999999995E-07 
    9.9999999999999995E-07 
    9.9999999999999995E-07 
    9.9999999999999995E-07 
    9.9999999999999995E-07 
    9.9999999999999995E-07 
    9.9999999999999995E-07 
    9.9999999999999995E-07 
    9.9999999999999995E-07 
    9.9999999999999995E-07 
    9.9999999999999995E-07 
    9.9999999999999995E-07 
    9.9999999999999995E-07 
    9.9999999999999995E-07 
    9.9999999999999995E-07 
    9.9999999999999995E-07 
    9.9999999999999995E-07 
    9.9999999999999995E-07 
    9.9999999999999995E-07 
    9.9999999999999995E-07 
    9.9999999999999995E-07 
    9.9999999999999995E-07 
    9.9999999999999995E-07 
    9.9999999999999995E-07 
    9.9999999999999995E-07 
    9.9999999999999995E-07 
    9.9999999999999995E-07 
    9.9999999999999995E-07 
    9.9999999999999995E-07 
    9.9999999999999995E-07 
    9.9999999999999995E-07 
    9.9999999999999995E-07 
    9.9999999999999995E-07 
    9.9999999999999995E-07 
    9.9999999999999995E-07 
    9.9999999999999995E-07 
    9.9999999999999995E-07 
    9.9999999999999995E-07 
    9.9999999999999995E-07 
    9.9999999999999995E-07 
    9.9999999999999995E-07 
    9.9999999999999995E-07 
    9.9999999999999995E-07 
    9.9999999999999995E-07 
    9.9999999999999995E-07 
    9.9999999999999995E-07 
    9.9999999999999995E-07 
    9.9999999999999995E-07 
    9.9999999999999995E-07 
    9.9999999999999995E-07 
    9.9999999999999995E-07 
    9.9999999999999995E-07 
    9.9999999999999995E-07 
    9.9999999999999995E-07 
    9.9999999999999995E-07 
    9.9999999999999995E-07 
    9.9999999999999995E-07 
    9.9999999999999995E-07 
    9.9999999999999995E-07 
    9.9999999999999995E-07 
    9.9999999999999995E-07 
    9.9999999999999995E-07 
    9.9999999999999995E-07 
    9.9999999999999995E-07 
    9.9999999999999995E-07 
    9.9999999999999995E-07 
    9.9999999999999995E-07 
    9.9999999999999995E-07 
    9.9999999999999995E-07 
    9.9999999999999995E-07 
    9.9999999999999995E-07 
    9.9999999999999995E-07 
    9.9999999999999995E-07 
    9.9999999999999995E-07 
    9.9999999999999995E-07 
    9.9999999999999995E-07 
    9.9999999999999995E-07 
    9.9999999999999995E-07 
    9.9999999999999995E-07 
    9.9999999999999995E-07 
    9.9999999999999995E-07 
    9.9999999999999995E-07 
    9.9999999999999995E-07 
    9.9999999999999995E-07 
    9.9999999999999995E-07 
    9.9999999999999995E-07 
    9.9999999999999995E-07 
    9.9999999999999995E-07 
    9.9999999999999995E-07 
    9.9999999999999995E-07 
    9.9999999999999995E-07 
    9.9999999999999995E-07 
    9.9999999999999995E-07 
    9.9999999999999995E-07 
    9.9999999999999995E-07 
    9.9999999999999995E-07 
    9.9999999999999995E-07 
    9.9999999999999995E-07 
    9.9999999999999995E-07 
    9.9999999999999995E-07 
    9.9999999999999995E-07 
    9.9999999999999995E-07 
    9.9999999999999995E-07 
    9.9999999999999995E-07 
    9.9999999999999995E-07 
    9.9999999999999995E-07 
    9.9999999999999995E-07 
    9.9999999999999995E-07 
    9.9999999999999995E-07 
    9.9999999999999995E-07 
    9.9999999999999995E-07 
    9.9999999999999995E-07 
    9.9999999999999995E-07 
    9.9999999999999995E-07 
    9.9999999999999995E-07 
    9.9999999999999995E-07 
    9.9999999999999995E-07 
    9.9999999999999995E-07 
    9.9999999999999995E-07 
    9.9999999999999995E-07 
    9.9999999999999995E-07 
    9.9999999999999995E-07 
    9.9999999999999995E-07 
    9.9999999999999995E-07 
    9.9999999999999995E-07 
    9.9999999999999995E-07 
    9.9999999999999995E-07 
    9.9999999999999995E-07 
    9.9999999999999995E-07 
    9.9999999999999995E-07 
    9.9999999999999995E-07 
    9.9999999999999995E-07 
    9.9999999999999995E-07 
    9.9999999999999995E-07 
    9.9999999999999995E-07 
    9.9999999999999995E-07 
    9.9999999999999995E-07 
    9.9999999999999995E-07 
    9.9999999999999995E-07 
    9.9999999999999995E-07 
    9.9999999999999995E-07 
    9.9999999999999995E-07 
    9.9999999999999995E-07 
    9.9999999999999995E-07 
    9.9999999999999995E-07 
    9.9999999999999995E-07 
    9.9999999999999995E-07 
    9.9999999999999995E-07 
    9.9999999999999995E-07 
    9.9999999999999995E-07 
    9.9999999999999995E-07 
    9.9999999999999995E-07 
    9.9999999999999995E-07 
    9.9999999999999995E-07 
    9.9999999999999995E-07 
    9.9999999999999995E-07 
    9.9999999999999995E-07 
    9.9999999999999995E-07 
    9.9999999999999995E-07 
    9.9999999999999995E-07 
    9.9999999999999995E-07 
    9.9999999999999995E-07 
    9.9999999999999995E-07 
    9.9999999999999995E-07 
    9.9999999999999995E-07 
    9.9999999999999995E-07 
    9.9999999999999995E-07 
    9.9999999999999995E-07 
    9.9999999999999995E-07 
    9.9999999999999995E-07 
    9.9999999999999995E-07 
    9.9999999999999995E-07 
    9.9999999999999995E-07 
    9.9999999999999995E-07 
    9.9999999999999995E-07 
    9.9999999999999995E-07 
    9.9999999999999995E-07 
    9.9999999999999995E-07 
    9.9999999999999995E-07 
    9.9999999999999995E-07 
    9.9999999999999995E-07 
    9.9999999999999995E-07 
    9.9999999999999995E-07 
    9.9999999999999995E-07 
    9.9999999999999995E-07 
    9.9999999999999995E-07 
    9.9999999999999995E-07 
    9.9999999999999995E-07 
    9.9999999999999995E-07 
    9.9999999999999995E-07 
    9.9999999999999995E-07 
    1.0000000012050547E-06 
SCALARS u double 1 
LOOKUP_TABLE default 

    2.6668498389709208E+00 
    1.7998971151222618E+00 
    9.5348845526565784E-01 
    9.6008558047285386E-01 
    3.4580844246754799E-01 
    4.1702178427990588E-01 
    3.3150840766128514E-01 
    2.8727275234569616E-01 
    5.6813841360120333E-02 
    9.7375572195480653E-02 
    9.1549735050256792E-02 
    7.5173255128280103E-02 
    2.7142607423632080E-02 
    4.7680240588885058E-02 
    2.1442876721817401E-02 
   -1.1868675910728878E-02 
    3.5103800026062011E+00 
    2.4294271831726890E+00 
    1.3848691942627605E+00 
    3.4476023519043069E+00 
    8.9625251687930318E-01 
    1.0792228695243808E+00 
    8.5997858358384272E-01 
    7.9486421254211104E-01 
    2.8048650621600041E-01 
    3.7727956127126916E-01 
    3.1316930357981820E-01 
    3.0125304043093148E-01 
    1.7569668303911271E-01 
    1.8614980620798743E-01 
    1.8542450320409604E-01 
    1.1242733987786986E-01 
    2.2837203372515900E+00 
    2.8093350921888223E+00 
   -1.0207370831619308E+01 
    1.2685536062454208E+01 
    1.0567871851063808E+00 
    1.3320218646799327E+00 
    1.1477009494937611E+00 
    1.1407602814214681E+00 
    5.4087723564279400E-01 
    6.8382041535380023E-01 
    5.4980169950260382E-01 
    6.6084332851472360E-01 
    4.3623277162509216E-01 
    1.9806836967896913E-01 
    6.5377427754591022E-01 
    3.6257461948722158E-01 
    2.0606708063843415E+00 
    2.7972828022058822E+00 
   -1.0002624197662037E+01 
    1.0835966327065396E+01 
    1.1332984545191178E+00 
    1.2691548034183728E+00 
    1.1827192886685300E+00 
    1.1633873129495689E+00 
    8.2517992212119828E-01 
    8.7674273108755552E-01 
    7.6610712070895370E-01 
    8.4750008792884168E-01 
    6.9109788532255489E-01 
    4.4104465931703846E-01 
    8.4772826816555302E-01 
    5.9922738610927406E-01 
    1.3482193931789912E+00 
    1.3546086915918614E+00 
    1.2448455328616179E+00 
    1.1214899233526636E+00 
    8.3616765610510821E+00 
   -7.2211517807808194E+00 
    1.8723319521379989E+00 
    1.5504968975670119E+00 
    9.9459252099245266E-01 
    7.9155015733904599E-01 
    1.3518859625686435E+00 
    6.6315125694593124E-01 
    9.1806496537012450E-01 
    5.5512142271374720E-01 
    1.0082808155237737E+00 
    6.4429093841940477E-01 
    1.2904249708790054E+00 
    1.3112378746064339E+00 
    1.2094379744902557E+00 
    9.5484663939072556E-01 
    9.8728813131637079E+00 
   -7.4428976136568936E+00 
    1.6682206744383485E+00 
    5.9356989646275815E-01 
    8.2291793523528101E-01 
    1.0153086246157030E+00 
    1.5291580327977341E+00 
    6.9482892444835453E-01 
    9.4529673176865814E-01 
    5.6938627154818600E-01 
    1.1313074628192943E+00 
    7.3427628894494090E-01 
    1.0240977340580055E+00 
    1.1357218460414531E+00 
    1.1411078129404495E+00 
    1.0221333336064919E+00 
    2.3647484088803847E+00 
    4.1596481088078130E-01 
    7.6193032009998545E+00 
   -5.5586172894768762E+00 
    1.0265795555540602E+00 
    9.6554585900572187E-01 
    1.1920567274945617E+00 
    1.0223194443327062E+00 
    8.8032780538164301E-01 
    6.5346608089042713E-01 
    1.1783238112794829E+00 
    9.3289809864605289E-01 
    9.6629596284413521E-01 
    1.0663739382990658E+00 
    1.0645832425369937E+00 
    1.0853065240792843E+00 
    7.7097217580201205E-01 
    5.9639342435462650E-01 
    7.8252548745593042E+00 
   -4.5842008386136355E+00 
    1.2300218530949265E+00 
    8.0214404182633547E-01 
    1.1074760893874842E+00 
    1.1049581016093841E+00 
    9.8675567683227150E-01 
    7.9007356806285978E-01 
    1.2107685976676839E+00 
    9.9280000820447367E-01 
    1.0740084704807225E+00 
    1.1523130412423617E+00 
    1.0099853777603764E+00 
    1.0743669404139300E+00 
    1.1793606806045041E+00 
    1.2595065289153360E+00 
   -1.6479504240677170E+00 
    3.5926124152637584E+00 
   -3.6662156428977912E+00 
    6.2268255285742242E+00 
    6.6131351065100896E-01 
    9.6576056422213663E-01 
    1.1246827959583714E+00 
    9.4422064496331615E-01 
    1.2198754252994617E+00 
    9.4775676727626657E-01 
    1.0531362909046087E+00 
    1.1663989311365799E+00 
    9.1231980407862323E-01 
    1.1355392213363695E+00 
    4.3846902361631246E-01 
    2.0516283005591047E+00 
   -1.7230280297506302E+00 
    3.7440751838613204E+00 
   -5.1791272065836891E+00 
    5.2582874855590784E+00 
   -3.5389439372532733E-01 
    4.6133591615863336E+00 
    1.0233396460357302E+00 
    9.7425944804457398E-01 
    1.2932306277834593E+00 
    1.0082081970608641E+00 
    8.2271873244030602E-01 
    1.1175698983785638E+00 
    7.0013895363270606E-01 
    1.2843429749448458E+00 
    2.6896277539664765E-01 
    1.8725999095031758E+00 
    1.1484829388419466E+00 
    1.3446834204959741E+00 
    1.1664277747757281E+00 
    2.5147439224584418E+00 
   -2.4986316247483508E+01 
    2.5951247327027154E+01 
    8.7815504284698587E-01 
    9.1615088342816664E-01 
    1.4059439816565598E+00 
    1.2056830859573686E+00 
    7.4133990497668334E-01 
    1.0093079581371978E+00 
    6.9285003933060607E-01 
    1.1247317939851378E+00 
    9.2739604458697522E-01 
    1.0118430685228945E+00 
    1.1677974035294545E+00 
    1.1806905071679887E+00 
    2.7191881835089911E+00 
    3.5700584119911394E+00 
   -2.3859614035851827E+01 
    2.2435476510575551E+01 
    1.1220876926890984E+00 
    1.0309972505955325E+00 
    1.4716082200116891E+00 
    1.2657764204744693E+00 
    1.7872067905101101E+01 
   -1.9948492029547150E+01 
    3.3631045385971934E+00 
    1.6629384454127130E+00 