# vtk DataFile Version 2.0
Pressure Field Data 
ASCII 
DATASET UNSTRUCTURED_GRID 

POINTS 289 double 

    0.0000000000000000E+00     0.0000000000000000E+00     0.0000000000000000E+00 
    1.0000000000000000E+00     0.0000000000000000E+00     0.0000000000000000E+00 
    1.0000000000000000E+00     1.0000000000000000E+00     0.0000000000000000E+00 
    0.0000000000000000E+00     1.0000000000000000E+00     0.0000000000000000E+00 
    6.2499999999872928E-02     0.0000000000000000E+00     0.0000000000000000E+00 
    1.2499999999977310E-01     0.0000000000000000E+00     0.0000000000000000E+00 
    1.8749999999959341E-01     0.0000000000000000E+00     0.0000000000000000E+00 
    2.4999999999941089E-01     0.0000000000000000E+00     0.0000000000000000E+00 
    3.1249999999922851E-01     0.0000000000000000E+00     0.0000000000000000E+00 
    3.7499999999904610E-01     0.0000000000000000E+00     0.0000000000000000E+00 
    4.3749999999886358E-01     0.0000000000000000E+00     0.0000000000000000E+00 
    4.9999999999869210E-01     0.0000000000000000E+00     0.0000000000000000E+00 
    5.6249999999884603E-01     0.0000000000000000E+00     0.0000000000000000E+00 
    6.2499999999901090E-01     0.0000000000000000E+00     0.0000000000000000E+00 
    6.8749999999917577E-01     0.0000000000000000E+00     0.0000000000000000E+00 
    7.4999999999934064E-01     0.0000000000000000E+00     0.0000000000000000E+00 
    8.1249999999950551E-01     0.0000000000000000E+00     0.0000000000000000E+00 
    8.7499999999967026E-01     0.0000000000000000E+00     0.0000000000000000E+00 
    9.3749999999983513E-01     0.0000000000000000E+00     0.0000000000000000E+00 
    1.0000000000000000E+00     6.2499999999872928E-02     0.0000000000000000E+00 
    1.0000000000000000E+00     1.2499999999977310E-01     0.0000000000000000E+00 
    1.0000000000000000E+00     1.8749999999959341E-01     0.0000000000000000E+00 
    1.0000000000000000E+00     2.4999999999941089E-01     0.0000000000000000E+00 
    1.0000000000000000E+00     3.1249999999922851E-01     0.0000000000000000E+00 
    1.0000000000000000E+00     3.7499999999904610E-01     0.0000000000000000E+00 
    1.0000000000000000E+00     4.3749999999886358E-01     0.0000000000000000E+00 
    1.0000000000000000E+00     4.9999999999869210E-01     0.0000000000000000E+00 
    1.0000000000000000E+00     5.6249999999884603E-01     0.0000000000000000E+00 
    1.0000000000000000E+00     6.2499999999901090E-01     0.0000000000000000E+00 
    1.0000000000000000E+00     6.8749999999917577E-01     0.0000000000000000E+00 
    1.0000000000000000E+00     7.4999999999934064E-01     0.0000000000000000E+00 
    1.0000000000000000E+00     8.1249999999950551E-01     0.0000000000000000E+00 
    1.0000000000000000E+00     8.7499999999967026E-01     0.0000000000000000E+00 
    1.0000000000000000E+00     9.3749999999983513E-01     0.0000000000000000E+00 
    9.3749999999973976E-01     1.0000000000000000E+00     0.0000000000000000E+00 
    8.7499999999950118E-01     1.0000000000000000E+00     0.0000000000000000E+00 
    8.1249999999991318E-01     1.0000000000000000E+00     0.0000000000000000E+00 
    7.5000000000034706E-01     1.0000000000000000E+00     0.0000000000000000E+00 
    6.8750000000078049E-01     1.0000000000000000E+00     0.0000000000000000E+00 
    6.2500000000121403E-01     1.0000000000000000E+00     0.0000000000000000E+00 
    5.6250000000164757E-01     1.0000000000000000E+00     0.0000000000000000E+00 
    5.0000000000205946E-01     1.0000000000000000E+00     0.0000000000000000E+00 
    4.3750000000182099E-01     1.0000000000000000E+00     0.0000000000000000E+00 
    3.7500000000156092E-01     1.0000000000000000E+00     0.0000000000000000E+00 
    3.1250000000130068E-01     1.0000000000000000E+00     0.0000000000000000E+00 
    2.5000000000104050E-01     1.0000000000000000E+00     0.0000000000000000E+00 
    1.8750000000078040E-01     1.0000000000000000E+00     0.0000000000000000E+00 
    1.2500000000052031E-01     1.0000000000000000E+00     0.0000000000000000E+00 
    6.2500000000260125E-02     1.0000000000000000E+00     0.0000000000000000E+00 
    0.0000000000000000E+00     9.3749999999973976E-01     0.0000000000000000E+00 
    0.0000000000000000E+00     8.7499999999950118E-01     0.0000000000000000E+00 
    0.0000000000000000E+00     8.1249999999991318E-01     0.0000000000000000E+00 
    0.0000000000000000E+00     7.5000000000034706E-01     0.0000000000000000E+00 
    0.0000000000000000E+00     6.8750000000078049E-01     0.0000000000000000E+00 
    0.0000000000000000E+00     6.2500000000121403E-01     0.0000000000000000E+00 
    0.0000000000000000E+00     5.6250000000164757E-01     0.0000000000000000E+00 
    0.0000000000000000E+00     5.0000000000205946E-01     0.0000000000000000E+00 
    0.0000000000000000E+00     4.3750000000182099E-01     0.0000000000000000E+00 
    0.0000000000000000E+00     3.7500000000156092E-01     0.0000000000000000E+00 
    0.0000000000000000E+00     3.1250000000130068E-01     0.0000000000000000E+00 
    0.0000000000000000E+00     2.5000000000104050E-01     0.0000000000000000E+00 
    0.0000000000000000E+00     1.8750000000078040E-01     0.0000000000000000E+00 
    0.0000000000000000E+00     1.2500000000052031E-01     0.0000000000000000E+00 
    0.0000000000000000E+00     6.2500000000260125E-02     0.0000000000000000E+00 
    6.2499999999897131E-02     6.2500000000235922E-02     0.0000000000000000E+00 
    6.2499999999921327E-02     1.2500000000047351E-01     0.0000000000000000E+00 
    6.2499999999945530E-02     1.8750000000070621E-01     0.0000000000000000E+00 
    6.2499999999969733E-02     2.5000000000093858E-01     0.0000000000000000E+00 
    6.2499999999993928E-02     3.1250000000117117E-01     0.0000000000000000E+00 
    6.2500000000018124E-02     3.7500000000140382E-01     0.0000000000000000E+00 
    6.2500000000042327E-02     4.3750000000163619E-01     0.0000000000000000E+00 
    6.2500000000066530E-02     5.0000000000184897E-01     0.0000000000000000E+00 
    6.2500000000090733E-02     5.6250000000147260E-01     0.0000000000000000E+00 
    6.2500000000114922E-02     6.2500000000107636E-01     0.0000000000000000E+00 
    6.2500000000139125E-02     6.8750000000068034E-01     0.0000000000000000E+00 
    6.2500000000163328E-02     7.5000000000028411E-01     0.0000000000000000E+00 
    6.2500000000187531E-02     8.1249999999988787E-01     0.0000000000000000E+00 
    6.2500000000211720E-02     8.7499999999951172E-01     0.0000000000000000E+00 
    6.2500000000235922E-02     9.3749999999974565E-01     0.0000000000000000E+00 
    1.2499999999981980E-01     6.2500000000211733E-02     0.0000000000000000E+00 
    1.2499999999986650E-01     1.2500000000042691E-01     0.0000000000000000E+00 
    1.2499999999991319E-01     1.8750000000063199E-01     0.0000000000000000E+00 
    1.2499999999995989E-01     2.5000000000083678E-01     0.0000000000000000E+00 
    1.2500000000000661E-01     3.1250000000104172E-01     0.0000000000000000E+00 
    1.2500000000005329E-01     3.7500000000124661E-01     0.0000000000000000E+00 
    1.2500000000010000E-01     4.3750000000145117E-01     0.0000000000000000E+00 
    1.2500000000014669E-01     5.0000000000163858E-01     0.0000000000000000E+00 
    1.2500000000019340E-01     5.6250000000129741E-01     0.0000000000000000E+00 
    1.2500000000024011E-01     6.2500000000093847E-01     0.0000000000000000E+00 
    1.2500000000028680E-01     6.8750000000057998E-01     0.0000000000000000E+00 
    1.2500000000033351E-01     7.5000000000022127E-01     0.0000000000000000E+00 
    1.2500000000038020E-01     8.1249999999986211E-01     0.0000000000000000E+00 
    1.2500000000042691E-01     8.7499999999952238E-01     0.0000000000000000E+00 
    1.2500000000047359E-01     9.3749999999975164E-01     0.0000000000000000E+00 
    1.8749999999966760E-01     6.2500000000187531E-02     0.0000000000000000E+00 
    1.8749999999974179E-01     1.2500000000038020E-01     0.0000000000000000E+00 
    1.8749999999981601E-01     1.8750000000055780E-01     0.0000000000000000E+00 
    1.8749999999989009E-01     2.5000000000073502E-01     0.0000000000000000E+00 
    1.8749999999996431E-01     3.1250000000091221E-01     0.0000000000000000E+00 
    1.8750000000003850E-01     3.7500000000108941E-01     0.0000000000000000E+00 
    1.8750000000011269E-01     4.3750000000126649E-01     0.0000000000000000E+00 
    1.8750000000018691E-01     5.0000000000142808E-01     0.0000000000000000E+00 
    1.8750000000026110E-01     5.6250000000112244E-01     0.0000000000000000E+00 
    1.8750000000033529E-01     6.2500000000080080E-01     0.0000000000000000E+00 
    1.8750000000040951E-01     6.8750000000047962E-01     0.0000000000000000E+00 
    1.8750000000048361E-01     7.5000000000015843E-01     0.0000000000000000E+00 
    1.8750000000055780E-01     8.1249999999983680E-01     0.0000000000000000E+00 
    1.8750000000063199E-01     8.7499999999953304E-01     0.0000000000000000E+00 
    1.8750000000070621E-01     9.3749999999975764E-01     0.0000000000000000E+00 
    2.4999999999951281E-01     6.2500000000163314E-02     0.0000000000000000E+00 
    2.4999999999961461E-01     1.2500000000033351E-01     0.0000000000000000E+00 
    2.4999999999971650E-01     1.8750000000048361E-01     0.0000000000000000E+00 
    2.4999999999981831E-01     2.5000000000063310E-01     0.0000000000000000E+00 
    2.4999999999992020E-01     3.1250000000078260E-01     0.0000000000000000E+00 
    2.5000000000002198E-01     3.7500000000093209E-01     0.0000000000000000E+00 
    2.5000000000012390E-01     4.3750000000108180E-01     0.0000000000000000E+00 
    2.5000000000022571E-01     5.0000000000121769E-01     0.0000000000000000E+00 
    2.5000000000032763E-01     5.6250000000094724E-01     0.0000000000000000E+00 
    2.5000000000042938E-01     6.2500000000066314E-01     0.0000000000000000E+00 
    2.5000000000053119E-01     6.8750000000037925E-01     0.0000000000000000E+00 
[...]
CELL_DATA 256 
SCALARS Pressure double 1 
LOOKUP_TABLE default 

    9.3304625595440960E-01 
    9.3118349449226356E-01 
    9.2944181459198927E-01 
    9.2774482352288501E-01 
    9.2608402327386397E-01 
    9.2448778098743134E-01 
    9.2298544451735187E-01 
    9.2159870900948659E-01 
    9.2034473514003345E-01 
    9.1922996329252005E-01 
    9.1826180783447009E-01 
    9.1743329137188701E-01 
    9.1668965018932635E-01 
    9.1602404371931212E-01 
    9.1557054562412110E-01 
    9.1536707439198894E-01 
    8.9984638325009181E-01 
    8.9975232823694251E-01 
    8.9957504904867780E-01 
    8.9931659955537202E-01 
    8.9898489598428366E-01 
    8.9859934861485646E-01 
    8.9818395797950190E-01 
    8.9775842366053116E-01 
    8.9733871365430395E-01 
    8.9693566026832916E-01 
    8.9654724389445917E-01 
    8.9615165630108184E-01 
    8.9573760349162279E-01 
    8.9537543234715344E-01 
    8.9513779194485521E-01 
    8.9502349431120598E-01 
    8.6710792707487383E-01 
    8.6706167793551614E-01 
    8.6696560263021538E-01 
    8.6681684058988329E-01 
    8.6662234072556688E-01 
    8.6639474157537544E-01 
    8.6614016806263194E-01 
    8.6586026834474727E-01 
    8.6554651485444734E-01 
    8.6518422312188470E-01 
    8.6476321536567158E-01 
    8.6429870026150712E-01 
    8.6386971966756376E-01 
    8.6355369787513514E-01 
    8.6334983564589818E-01 
    8.6324563520715270E-01 
    8.2640934983327585E-01 
    8.2634155966954836E-01 
    8.2620238606455065E-01 
    8.2599149685825213E-01 
    8.2571231204766837E-01 
    8.2536550852193058E-01 
    8.2494430913122385E-01 
    8.2445365235457835E-01 
    8.2389492731792069E-01 
    8.2327812172089043E-01 
    8.2265760721459169E-01 
    8.2211074166839271E-01 
    8.2168249495623447E-01 
    8.2136568712814606E-01 
    8.2114574596026302E-01 
    8.2102397200265953E-01 
    7.7131267064403575E-01 
    7.7121846979282049E-01 
    7.7102781894247185E-01 
    7.7074463395110004E-01 
    7.7037639307071692E-01 
    7.6993601496065500E-01 
    7.6944655401598672E-01 
    7.6894015250369940E-01 
    7.6845037111625192E-01 
    7.6801148518038709E-01 
    7.6764046764957339E-01 
    7.6733151100030694E-01 
    7.6706779218483845E-01 
    7.6684793961166442E-01 
    7.6667637749970696E-01 
    7.6655728704257575E-01 
    7.0063879759605896E-01 
    7.0065495889859786E-01 
    7.0067161877339923E-01 
    7.0068462038523349E-01 
    7.0069316085606614E-01 
    7.0069124790870430E-01 
    7.0068816596900141E-01 
    7.0067870548885547E-01 
    7.0064897538644111E-01 
    7.0059067467438962E-01 
    7.0051081233085233E-01 
    7.0042170320082930E-01 
    7.0033571373253201E-01 
    7.0026496328691679E-01 
    7.0022146817702891E-01 
    7.0021720928989695E-01 
    6.3503979201527117E-01 
    6.3500180664938488E-01 
    6.3492227484568753E-01 
    6.3479221304092226E-01 
    6.3460037031541294E-01 
    6.3436864447686281E-01 
    6.3415015505915828E-01 
    6.3395030636300509E-01 
    6.3377298207780308E-01 
    6.3362206294914136E-01 
    6.3352217286334733E-01 
    6.3346422612247866E-01 
    6.3344021043040721E-01 
    6.3344287372579533E-01 
    6.3346556002491250E-01 
    6.3350203623074253E-01 
    5.7050177568444727E-01 
    5.7043333912652283E-01 
    5.7031895022276635E-01 
    5.7018260889444239E-01 
    5.7004911937576808E-01 
    5.6994317299270636E-01 
    5.6988851870996471E-01 
    5.6988580169345371E-01 
    5.6993465630780760E-01 
    5.7001447341016398E-01 
    5.7010360722438191E-01 
    5.7019499663677664E-01 
    5.7028101124171360E-01 
    5.7035284850793322E-01 
    5.7040064493132248E-01 
    5.7041371889756198E-01 
    5.0691787090796769E-01 
    5.0685036159316676E-01 
    5.0676098147540949E-01 
    5.0669837084423874E-01 
    5.0671397422003894E-01 
    5.0682491456107592E-01 
    5.0701456207441908E-01 
    5.0726909338683612E-01 
    5.0757548791660512E-01 
    5.0788501363564686E-01 
    5.0813994532215945E-01 
    5.0833897268010031E-01 
    5.0847712223473895E-01 
    5.0854523057686851E-01 
    5.0852962483162634E-01 
    5.0841197134551830E-01 
    4.3433095067238131E-01 
    4.3437831774911256E-01 
    4.3446346372182315E-01 
    4.3457806186061904E-01 
    4.3471380500517920E-01 
    4.3486467833386716E-01 
    4.3500557565990161E-01 
    4.3511686888245998E-01 
    4.3517870413013193E-01 
    4.3517226629012506E-01 
    4.3511405653321783E-01 
    4.3502045570970427E-01 
    4.3490456205821748E-01 
    4.3477713762515918E-01 
    4.3464695047069524E-01 
    4.3452121072291150E-01 
    3.5015209640358524E-01 
    3.5014837142609867E-01 
    3.5012478011946097E-01 
    3.5005912914778453E-01 
    3.4992394361678220E-01 
    3.4968723916040351E-01 
    3.4941303623752296E-01 
    3.4911908861185192E-01 
    3.4882151049240562E-01 
    3.4853597886302673E-01 
    3.4832398171460061E-01 
    3.4817970064923548E-01 
    3.4809891548473310E-01 
    3.4807937266492900E-01 
    3.4812069980315247E-01 
    3.4822421139207466E-01 
    2.7288610851346645E-01 
    2.7288963627602630E-01 
    2.7288715174631362E-01 
    2.7286658529637392E-01 
    2.7281439812567804E-01 
    2.7271680781839730E-01 
    2.7259331987315594E-01 
    2.7245908260600948E-01 
    2.7232979051443967E-01 
    2.7222216721894910E-01 
    2.7216299849231079E-01 
    2.7214625077959298E-01 
    2.7216749292702502E-01 
    2.7222435050591104E-01 
    2.7231658181195700E-01 
    2.7244598288443483E-01 
    2.1029410840457402E-01 
    2.1029106911365261E-01 
    2.1027973349772802E-01 
    2.1025351179807292E-01 
    2.1020501226093374E-01 
    2.1012662926265030E-01 
    2.1003004989276988E-01 
    2.0992460524137266E-01 
    2.0982000495918743E-01 
    2.0972651602769540E-01 
    2.0966054288917305E-01 
    2.0961931845550960E-01 
    2.0960111378528881E-01 
    2.0960543301733792E-01 
    2.0963303337717787E-01 
    2.0968583742164829E-01 
    1.5428491716908749E-01 
    1.5424956314207425E-01 
    1.5417890140443358E-01 
    1.5407352904942731E-01 
    1.5393469035117374E-01 
    1.5376438245721538E-01 
    1.5357120714005426E-01 
    1.5336331527321909E-01 
    1.5314953408283200E-01 
    1.5293929520748803E-01 
    1.5274488300167188E-01 
    1.5257270241917920E-01 
    1.5242940103994945E-01 
    1.5232154254903402E-01 
    1.5225524280817523E-01 
    1.5223567007023275E-01 
    1.0239485075503273E-01 
    1.0225450360806815E-01 
    1.0197917428076693E-01 
    1.0157712153069728E-01 
    1.0105930685845217E-01 
    1.0043925919877580E-01 
    9.9725497472809302E-02 
    9.8930089596712206E-02 
    9.8068859814462422E-02 
    9.7162058938981444E-02 
    9.6234096857159182E-02 
    9.5322044151828933E-02 
    9.4469129156665041E-02 
    9.3725992759658691E-02 
    9.3152223509821400E-02 
    9.2818215892683353E-02 
    6.2689624754358964E-02 
    6.2233874491467563E-02 
    6.1329765153564135E-02 
    5.9982278958202469E-02 
    5.8193479187273855E-02 
    5.5953903855840002E-02 
    5.3226129937426668E-02 
    4.9968777370553906E-02 
    4.6136022282925258E-02 
    4.1701598455454209E-02 
    3.6629122072447499E-02 
    3.0875580054930012E-02 
    2.4390325370324720E-02 
    1.7114091049072966E-02 
    8.9779170568014283E-03 
    0.0000000000000000E+00 

SCALARS Saturarion double 1 
LOOKUP_TABLE default 

    9.9999999983723520E-01 
    9.6167684902439610E-01 
    8.9824029014893425E-01 
    8.2786354626061953E-01 
    7.7018690576895543E-01 
    7.2107944409891245E-01 
    6.7775268379027476E-01 
    6.3826067145881993E-01 
    6.0085589503538406E-01 
    5.6472876316416876E-01 
    5.3035052740102351E-01 
    4.9679787547204457E-01 
    4.3045195712948497E-01 
    1.4187652759207497E-01 
    1.7473292697793751E-06 
    1.0000004311024412E-06 
    8.9058823427244060E-01 
    8.6762605391901615E-01 
    8.1893475798999438E-01 
    7.5850622680373014E-01 
    7.0449023982620274E-01 
    6.6353582592140847E-01 
    6.2807262283848431E-01 
    5.9528037502894160E-01 
    5.6314331444763654E-01 
    5.3168971928937969E-01 
    4.9772768757762359E-01 
    4.3521166981953135E-01 
    2.3057317475243277E-01 
    1.4969908503826497E-02 
    4.5585614919833367E-06 
    1.0000001410448558E-06 
    7.6581634090244011E-01 
    7.4088513436573555E-01 
    6.8546188294954480E-01 
    6.3250928219480573E-01 
    5.9892061424494925E-01 
    5.7269508282687598E-01 
    5.5058007056994429E-01 
    5.2833076738910534E-01 
    5.0278951378762360E-01 
    4.6870457612920635E-01 
    3.9369414949961662E-01 
    1.9790914728282935E-01 
    1.2613928638912477E-02 
    9.4869516810901111E-06 
    1.0000046660422353E-06 
    1.0000000000000260E-06 
    6.3005600929401973E-01 
    6.1505785268458979E-01 
    5.8610002480956203E-01 
    5.5814935579166158E-01 
    5.3100689912979993E-01 
    5.0338482877938229E-01 
    4.7568821800776351E-01 
    4.3838560888304917E-01 
    3.7200513125142959E-01 
    2.5294368271730727E-01 
    9.3973180682486890E-02 
    3.0937608377019244E-03 
    5.8088081231521747E-06 
    1.0000071230594467E-06 
    1.0000000000003614E-06 
    9.9999999999999995E-07 
    4.7690817405490427E-01 
    4.6092181942257726E-01 
    4.3185519119314653E-01 
    3.9133699834726021E-01 
    3.2932078882726562E-01 
    2.6037977896064035E-01 
    1.8646554017591327E-01 
    1.0638698309129299E-01 
    3.4173787097639498E-02 
    3.4695222773661375E-03 
    1.9738275333836978E-04 
    1.2278856488987123E-06 
    1.0000025944333993E-06 
    1.0000000000003193E-06 
    9.9999999999999995E-07 
    9.9999999999999995E-07 
    1.0767637721001194E-01 
    9.0907038821439703E-02 
    6.2084441761126492E-02 
    3.2777689125468752E-02 
    9.1864693663004475E-03 
    1.8595867018489256E-03 
    2.1141990090138901E-04 
    8.9574152121425191E-05 
    3.8088092817747600E-05 
    1.4429079978368932E-06 
    1.0115777208269861E-06 
    1.0000000367697349E-06 
    1.0000000000000468E-06 
    9.9999999999999995E-07 
    9.9999999999999995E-07 
    9.9999999999999995E-07 
    1.0000022948681448E-06 
    9.4672893000978744E-06 
    2.1472264268481264E-05 
    1.4765930370099656E-05 
    2.6143402306200139E-06 
    1.0790557600533671E-06 
    1.0039020155334485E-06 
    1.0034624245940145E-06 
    1.0001648677312538E-06 
    1.0000001004113066E-06 
    1.0000000000000067E-06 
    1.0000000000000110E-06 
    9.9999999999999995E-07 
    9.9999999999999995E-07 
    9.9999999999999995E-07 
    9.9999999999999995E-07 
    1.0000000000034993E-06 
    1.0000094637417549E-06 
    1.0000315713467679E-06 
    1.0000280749836453E-06 
    1.0000005347605386E-06 
    1.0000000157588595E-06 
    1.0000000001976742E-06 
    9.9999999999999974E-07 
    9.9999999999999974E-07 
    1.0000000000000025E-06 
    9.9999999999999995E-07 
    9.9999999999999995E-07 
    9.9999999999999995E-07 
    9.9999999999999995E-07 
    9.9999999999999995E-07 
    9.9999999999999995E-07 
    9.9999999999999995E-07 
    1.0000000000045852E-06 
    1.0000000000041727E-06 
    9.9999999999999995E-07 
    9.9999999999999995E-07 
    1.0000000000000002E-06 
    9.9999999999999995E-07 
    9.9999999999999995E-07 
    9.9999999999999995E-07 
    9.9999999999999995E-07 
    9.9999999999999995E-07 
    9.9999999999999995E-07 
    9.9999999999999995E-07 
    9.9999999999999995E-07 
    9.9999999999999995E-07 
    9.9999999999999995E-07 
    9.9999999999999995E-07 
    9.9999999999999995E-07 
    9.9999999999999995E-07 
    9.9999999999999995E-07 
    9.9999999999999995E-07 
    9.9999999999999995E-07 
    9.9999999999999995E-07 
    9.9999999999999995E-07 
    9.9999999999999995E-07 
    9.9999999999999995E-07 
    9.9999999999999995E-07 
    9.9999999999999995E-07 
    9.9999999999999995E-07 
    9.9999999999999995E-07 
    9.9999999999999995E-07 
    9.9999999999999995E-07 
    9.9999999999999995E-07 
    9.9999999999999995E-07 
    9.9999999999999995E-07 
    9.9999999999999995E-07 
    9.9999999999999995E-07 
    9.9999999999999995E-07 
    9.9999999999999995E-07 
    9.9999999999999995E-07 
    9.9999999999999995E-07 
    9.9999999999999995E-07 
    9.9999999999999995E-07 
    9.9999999999999995E-07 
    9.9999999999999995E-07 
    9.9999999999999995E-07 
    9.9999999999999995E-07 
    9.9999999999999995E-07 
    9.9999999999999995E-07 
    9.9999999999999995E-07 
    9.9999999999999995E-07 
    9.9999999999999995E-07 
    9.9999999999999995E-07 
    9.9999999999999995E-07 
    9.9999999999999995E-07 
    9.9999999999999995E-07 
    9.9999999999999995E-07 
    9.9999999999999995E-07 
    9.9999999999999995E-07 
    9.9999999999999995E-07 
    9.9999999999999995E-07 
    9.9999999999999995E-07 
    9.9999999999999995E-07 
    9.9999999999999995E-07 
    9.9999999999999995E-07 
    9.9999999999999995E-07 
    9.9999999999999995E-07 
    9.9999999999999995E-07 
    9.9999999999999995E-07 
    9.9999999999999995E-07 
    9.9999999999999995E-07 
    9.9999999999999995E-07 
    9.9999999999999995E-07 
    9.9999999999999995E-07 
    9.9999999999999995E-07 
    9.9999999999999995E-07 
    9.9999999999999995E-07 
    9.9999999999999995E-07 
    9.9999999999999995E-07 
    9.9999999999999995E-07 
    9.9999999999999995E-07 
    9.9999999999999995E-07 
    9.9999999999999995E-07 
    9.9999999999999995E-07 
    9.9999999999999995E-07 
    9.9999999999999995E-07 
    9.9999999999999995E-07 
    9.9999999999999995E-07 
    9.9999999999999995E-07 
    9.9999999999999995E-07 
    9.9999999999999995E-07 
    9.9999999999999995E-07 
    9.9999999999999995E-07 
    9.9999999999999995E-07 
    9.9999999999999995E-07 
    9.9999999999999995E-07 
    9.9999999999999995E-07 
    9.9999999999999995E-07 
    9.9999999999999995E-07 
    9.9999999999999995E-07 
    9.9999999999999995E-07 
    9.9999999999999995E-07 
    9.9999999999999995E-07 
    9.9999999999999995E-07 
    9.9999999999999995E-07 
    9.9999999999999995E-07 
    9.9999999999999995E-07 
    9.9999999999999995E-07 
    9.9999999999999995E-07 
    9.9999999999999995E-07 
    9.9999999999999995E-07 
    9.9999999999999995E-07 
    9.9999999999999995E-07 
    9.9999999999999995E-07 
    9.9999999999999995E-07 
    9.9999999999999995E-07 
    9.9999999999999995E-07 
    9.9999999999999995E-07 
    9.9999999999999995E-07 
    9.9999999999999995E-07 
    9.9999999999999995E-07 
    9.9999999999999995E-07 
    9.9999999999999995E-07 
    9.9999999999999995E-07 
    9.9999999999999995E-07 
    9.9999999999999995E-07 
    9.9999999999999995E-07 
    1.0000001529306318E-06 
