# vtk DataFile Version 2.0
Pressure Field Data 
ASCII 
DATASET UNSTRUCTURED_GRID 

POINTS 289 double 

    0.0000000000000000E+00     0.0000000000000000E+00     0.0000000000000000E+00 
    1.0000000000000000E+00     0.0000000000000000E+00     0.0000000000000000E+00 
    1.0000000000000000E+00     1.0000000000000000E+00     0.0000000000000000E+00 
    0.0000000000000000E+00     1.0000000000000000E+00     0.0000000000000000E+00 
    6.2499999999872928E-02     0.0000000000000000E+00     0.0000000000000000E+00 
    1.2499999999977310E-01     0.0000000000000000E+00     0.0000000000000000E+00 
    1.8749999999959341E-01     0.0000000000000000E+00     0.0000000000000000E+00 
    2.4999999999941089E-01     0.0000000000000000E+00     0.0000000000000000E+00 
    3.1249999999922851E-01     0.0000000000000000E+00     0.0000000000000000E+00 
    3.7499999999904610E-01     0.0000000000000000E+00     0.0000000000000000E+00 
    4.3749999999886358E-01     0.0000000000000000E+00     0.0000000000000000E+00 
    4.9999999999869210E-01     0.0000000000000000E+00     0.0000000000000000E+00 
    5.6249999999884603E-01     0.0000000000000000E+00     0.0000000000000000E+00 
    6.2499999999901090E-01     0.0000000000000000E+00     0.0000000000000000E+00 
    6.8749999999917577E-01     0.0000000000000000E+00     0.0000000000000000E+00 
    7.4999999999934064E-01     0.0000000000000000E+00     0.0000000000000000E+00 
    8.1249999999950551E-01     0.0000000000000000E+00     0.0000000000000000E+00 
    8.7499999999967026E-01     0.0000000000000000E+00     0.0000000000000000E+00 
    9.3749999999983513E-01     0.0000000000000000E+00     0.0000000000000000E+00 
    1.0000000000000000E+00     6.2499999999872928E-02     0.0000000000000000E+00 
    1.0000000000000000E+00     1.2499999999977310E-01     0.0000000000000000E+00 
    1.0000000000000000E+00     1.8749999999959341E-01     0.0000000000000000E+00 
    1.0000000000000000E+00     2.4999999999941089E-01     0.0000000000000000E+00 
    1.0000000000000000E+00     3.1249999999922851E-01     0.0000000000000000E+00 
    1.0000000000000000E+00     3.7499999999904610E-01     0.0000000000000000E+00 
    1.0000000000000000E+00     4.3749999999886358E-01     0.0000000000000000E+00 
    1.0000000000000000E+00     4.9999999999869210E-01     0.0000000000000000E+00 
    1.0000000000000000E+00     5.6249999999884603E-01     0.0000000000000000E+00 
    1.0000000000000000E+00     6.2499999999901090E-01     0.0000000000000000E+00 
    1.0000000000000000E+00     6.8749999999917577E-01     0.0000000000000000E+00 
    1.0000000000000000E+00     7.4999999999934064E-01     0.0000000000000000E+00 
    1.0000000000000000E+00     8.1249999999950551E-01     0.0000000000000000E+00 
    1.0000000000000000E+00     8.7499999999967026E-01     0.0000000000000000E+00 
    1.0000000000000000E+00     9.3749999999983513E-01     0.0000000000000000E+00 
    9.3749999999973976E-01     1.0000000000000000E+00     0.0000000000000000E+00 
    8.7499999999950118E-01     1.0000000000000000E+00     0.0000000000000000E+00 
    8.1249999999991318E-01     1.0000000000000000E+00     0.0000000000000000E+00 
    7.5000000000034706E-01     1.0000000000000000E+00     0.0000000000000000E+00 
    6.8750000000078049E-01     1.0000000000000000E+00     0.0000000000000000E+00 
    6.2500000000121403E-01     1.0000000000000000E+00     0.0000000000000000E+00 
    5.6250000000164757E-01     1.0000000000000000E+00     0.0000000000000000E+00 
    5.0000000000205946E-01     1.0000000000000000E+00     0.0000000000000000E+00 
    4.3750000000182099E-01     1.0000000000000000E+00     0.0000000000000000E+00 
    3.7500000000156092E-01     1.0000000000000000E+00     0.0000000000000000E+00 
    3.1250000000130068E-01     1.0000000000000000E+00     0.0000000000000000E+00 
    2.5000000000104050E-01     1.0000000000000000E+00     0.0000000000000000E+00 
    1.8750000000078040E-01     1.0000000000000000E+00     0.0000000000000000E+00 
    1.2500000000052031E-01     1.0000000000000000E+00     0.0000000000000000E+00 
    6.2500000000260125E-02     1.0000000000000000E+00     0.0000000000000000E+00 
    0.0000000000000000E+00     9.3749999999973976E-01     0.0000000000000000E+00 
    0.0000000000000000E+00     8.7499999999950118E-01     0.0000000000000000E+00 
    0.0000000000000000E+00     8.1249999999991318E-01     0.0000000000000000E+00 
    0.0000000000000000E+00     7.5000000000034706E-01     0.0000000000000000E+00 
    0.0000000000000000E+00     6.8750000000078049E-01     0.0000000000000000E+00 
    0.0000000000000000E+00     6.2500000000121403E-01     0.0000000000000000E+00 
    0.0000000000000000E+00     5.6250000000164757E-01     0.0000000000000000E+00 
    0.0000000000000000E+00     5.0000000000205946E-01     0.0000000000000000E+00 
    0.0000000000000000E+00     4.3750000000182099E-01     0.0000000000000000E+00 
    0.0000000000000000E+00     3.7500000000156092E-01     0.0000000000000000E+00 
    0.0000000000000000E+00     3.1250000000130068E-01     0.0000000000000000E+00 
    0.0000000000000000E+00     2.5000000000104050E-01     0.0000000000000000E+00 
    0.0000000000000000E+00     1.8750000000078040E-01     0.0000000000000000E+00 
    0.0000000000000000E+00     1.2500000000052031E-01     0.0000000000000000E+00 
    0.0000000000000000E+00     6.2500000000260125E-02     0.0000000000000000E+00 
    6.2499999999897131E-02     6.2500000000235922E-02     0.0000000000000000E+00 
    6.2499999999921327E-02     1.2500000000047351E-01     0.0000000000000000E+00 
    6.2499999999945530E-02     1.8750000000070621E-01     0.0000000000000000E+00 
    6.2499999999969733E-02     2.5000000000093858E-01     0.0000000000000000E+00 
    6.2499999999993928E-02     3.1250000000117117E-01     0.0000000000000000E+00 
    6.2500000000018124E-02     3.7500000000140382E-01     0.0000000000000000E+00 
    6.2500000000042327E-02     4.3750000000163619E-01     0.0000000000000000E+00 
    6.2500000000066530E-02     5.0000000000184897E-01     0.0000000000000000E+00 
    6.2500000000090733E-02     5.6250000000147260E-01     0.0000000000000000E+00 
    6.2500000000114922E-02     6.2500000000107636E-01     0.0000000000000000E+00 
    6.2500000000139125E-02     6.8750000000068034E-01     0.0000000000000000E+00 
    6.2500000000163328E-02     7.5000000000028411E-01     0.0000000000000000E+00 
    6.2500000000187531E-02     8.1249999999988787E-01     0.0000000000000000E+00 
    6.2500000000211720E-02     8.7499999999951172E-01     0.0000000000000000E+00 
    6.2500000000235922E-02     9.3749999999974565E-01     0.0000000000000000E+00 
    1.2499999999981980E-01     6.2500000000211733E-02     0.0000000000000000E+00 
    1.2499999999986650E-01     1.2500000000042691E-01     0.0000000000000000E+00 
    1.2499999999991319E-01     1.8750000000063199E-01     0.0000000000000000E+00 
    1.2499999999995989E-01     2.5000000000083678E-01     0.0000000000000000E+00 
    1.2500000000000661E-01     3.1250000000104172E-01     0.0000000000000000E+00 
    1.2500000000005329E-01     3.7500000000124661E-01     0.0000000000000000E+00 
    1.2500000000010000E-01     4.3750000000145117E-01     0.0000000000000000E+00 
    1.2500000000014669E-01     5.0000000000163858E-01     0.0000000000000000E+00 
    1.2500000000019340E-01     5.6250000000129741E-01     0.0000000000000000E+00 
    1.2500000000024011E-01     6.2500000000093847E-01     0.0000000000000000E+00 
    1.2500000000028680E-01     6.8750000000057998E-01     0.0000000000000000E+00 
    1.2500000000033351E-01     7.5000000000022127E-01     0.0000000000000000E+00 
    1.2500000000038020E-01     8.1249999999986211E-01     0.0000000000000000E+00 
    1.2500000000042691E-01     8.7499999999952238E-01     0.0000000000000000E+00 
    1.2500000000047359E-01     9.3749999999975164E-01     0.0000000000000000E+00 
    1.8749999999966760E-01     6.2500000000187531E-02     0.0000000000000000E+00 
    1.8749999999974179E-01     1.2500000000038020E-01     0.0000000000000000E+00 
    1.8749999999981601E-01     1.8750000000055780E-01     0.0000000000000000E+00 
    1.8749999999989009E-01     2.5000000000073502E-01     0.0000000000000000E+00 
    1.8749999999996431E-01     3.1250000000091221E-01     0.0000000000000000E+00 
    1.8750000000003850E-01     3.7500000000108941E-01     0.0000000000000000E+00 
    1.8750000000011269E-01     4.3750000000126649E-01     0.0000000000000000E+00 
    1.8750000000018691E-01     5.0000000000142808E-01     0.0000000000000000E+00 
    1.8750000000026110E-01     5.6250000000112244E-01     0.0000000000000000E+00 
    1.8750000000033529E-01     6.2500000000080080E-01     0.0000000000000000E+00 
    1.8750000000040951E-01     6.8750000000047962E-01     0.0000000000000000E+00 
    1.8750000000048361E-01     7.5000000000015843E-01     0.0000000000000000E+00 
    1.8750000000055780E-01     8.1249999999983680E-01     0.0000000000000000E+00 
    1.8750000000063199E-01     8.7499999999953304E-01     0.0000000000000000E+00 
    1.8750000000070621E-01     9.3749999999975764E-01     0.0000000000000000E+00 
    2.4999999999951281E-01     6.2500000000163314E-02     0.0000000000000000E+00 
    2.4999999999961461E-01     1.2500000000033351E-01     0.0000000000000000E+00 
    2.4999999999971650E-01     1.8750000000048361E-01     0.0000000000000000E+00 
    2.4999999999981831E-01     2.5000000000063310E-01     0.0000000000000000E+00 
    2.4999999999992020E-01     3.1250000000078260E-01     0.0000000000000000E+00 
    2.5000000000002198E-01     3.7500000000093209E-01     0.0000000000000000E+00 
    2.5000000000012390E-01     4.3750000000108180E-01     0.0000000000000000E+00 
    2.5000000000022571E-01     5.0000000000121769E-01     0.0000000000000000E+00 
    2.5000000000032763E-01     5.6250000000094724E-01     0.0000000000000000E+00 
    2.5000000000042938E-01     6.2500000000066314E-01     0.0000000000000000E+00 
    2.5000000000053119E-01     6.8750000000037925E-01     0.0000000000000000E+00 
[...]
CELL_DATA 256 
SCALARS Pressure double 1 
LOOKUP_TABLE default 

    9.5322597057469638E-01 
    9.5134941259892480E-01 
    9.4956660716506214E-01 
    9.4778711959148543E-01 
    9.4601491267809712E-01 
    9.4429685583670564E-01 
    9.4267336787433020E-01 
    9.4117214475789579E-01 
    9.3981496866072778E-01 
    9.3860824399481380E-01 
    9.3753946580144709E-01 
    9.3655075065849425E-01 
    9.3559483690462941E-01 
    9.3483973400897435E-01 
    9.3436831014853383E-01 
    9.3414112161637652E-01 
    9.1752945466928804E-01 
    9.1742133312396112E-01 
    9.1721449845171954E-01 
    9.1690890889981314E-01 
    9.1651527979446956E-01 
    9.1605858815730723E-01 
    9.1556541323452145E-01 
    9.1505331311269467E-01 
    9.1452773577927682E-01 
    9.1398195878220578E-01 
    9.1340693423312358E-01 
    9.1280171730211968E-01 
    9.1224307818274175E-01 
    9.1182726880413445E-01 
    9.1155666146519065E-01 
    9.1141969864042682E-01 
    8.8123275412817159E-01 
    8.8116181569117480E-01 
    8.8101174870189491E-01 
    8.8077174087368648E-01 
    8.8044244849117381E-01 
    8.8003056054849282E-01 
    8.7953734616521306E-01 
    8.7896849574538183E-01 
    8.7832934610096502E-01 
    8.7762432837277848E-01 
    8.7689960466270078E-01 
    8.7624824529150458E-01 
    8.7573826583359826E-01 
    8.7536987262565435E-01 
    8.7512548387106881E-01 
    8.7500456462923770E-01 
    8.3342887261121024E-01 
    8.3327962256461974E-01 
    8.3297995328662477E-01 
    8.3254337139737966E-01 
    8.3199794344862965E-01 
    8.3136702333065482E-01 
    8.3066391323411459E-01 
    8.2992246534594549E-01 
    8.2918891590412214E-01 
    8.2850673869614899E-01 
    8.2791932582963512E-01 
    8.2744735423255134E-01 
    8.2707279294721125E-01 
    8.2678610415004983E-01 
    8.2658949566363260E-01 
    8.2648489557918559E-01 
    7.6954254065020433E-01 
    7.6944816521923964E-01 
    7.6927259685919780E-01 
    7.6904450424098103E-01 
    7.6879787001996025E-01 
    7.6856680923054377E-01 
    7.6837703850196926E-01 
    7.6823878935175460E-01 
    7.6813880278132740E-01 
    7.6805039352971649E-01 
    7.6794854314641481E-01 
    7.6783766453759872E-01 
    7.6772502385343377E-01 
    7.6761721887550449E-01 
    7.6751993584551614E-01 
    7.6743789773375370E-01 
    6.9929228161892132E-01 
    6.9941041165354323E-01 
    6.9960655065072419E-01 
    6.9983638927069669E-01 
    7.0005565040576978E-01 
    7.0022580260472611E-01 
    7.0034459913994829E-01 
    7.0041529785213430E-01 
    7.0044248918467056E-01 
    7.0043223522097375E-01 
    7.0039581246591820E-01 
    7.0034495897928561E-01 
    7.0029094061090613E-01 
    7.0024503531423399E-01 
    7.0021863344913982E-01 
    7.0022329687212559E-01 
    6.3506674893737380E-01 
    6.3502253320613822E-01 
    6.3493335396342065E-01 
    6.3479436949166923E-01 
    6.3459724922709326E-01 
    6.3436403392529739E-01 
    6.3414686946118670E-01 
    6.3395004352616258E-01 
    6.3377669822058880E-01 
    6.3363023143691133E-01 
    6.3353452310612968E-01 
    6.3348028319198524E-01 
    6.3345932771591784E-01 
    6.3346427141975448E-01 
    6.3348836711494516E-01 
    6.3352533563978930E-01 
    5.7059381848645085E-01 
    5.7052610555803396E-01 
    5.7041288662761813E-01 
    5.7027793749403854E-01 
    5.7014584851173067E-01 
    5.7004094294650243E-01 
    5.6998658514327039E-01 
    5.6998354090414516E-01 
    5.7003154668153821E-01 
    5.7011020864503170E-01 
    5.7019808956086637E-01 
    5.7028820872574582E-01 
    5.7037300336973062E-01 
    5.7044373111151014E-01 
    5.7049058092410887E-01 
    5.7050291590692848E-01 
    5.0702012496750415E-01 
    5.0695310452025177E-01 
    5.0686434379281053E-01 
    5.0680210713123774E-01 
    5.0681743552010450E-01 
    5.0692722165336157E-01 
    5.0711497492581015E-01 
    5.0736699496999826E-01 
    5.0767036538109489E-01 
    5.0797666330423796E-01 
    5.0822874085098824E-01 
    5.0842531481540887E-01 
    5.0856144724093721E-01 
    5.0862801809761871E-01 
    5.0861140527001236E-01 
    5.0849333299929911E-01 
    4.3435167865330987E-01 
    4.3439870097136918E-01 
    4.3448340568620847E-01 
    4.3459772438703798E-01 
    4.3473362931980258E-01 
    4.3488537413726536E-01 
    4.3502761308709992E-01 
    4.3514048468006683E-01 
    4.3520393455513773E-01 
    4.3519896265282498E-01 
    4.3514206602970645E-01 
    4.3504961081607935E-01 
    4.3493467792275137E-01 
    4.3480800918392465E-01 
    4.3467834884252399E-01 
    4.3455287884317639E-01 
    3.5015249135832716E-01 
    3.5014872056336493E-01 
    3.5012512092816200E-01 
    3.5005958055397662E-01 
    3.4992470014732258E-01 
    3.4968856068050541E-01 
    3.4941515289758585E-01 
    3.4912215241710876E-01 
    3.4882558892371202E-01 
    3.4854105171740357E-01 
    3.4833002184965789E-01 
    3.4818663237422393E-01 
    3.4810661738385823E-01 
    3.4808768044874167E-01 
    3.4812940967855094E-01 
    3.4823308402581971E-01 
    2.7288274683036656E-01 
    2.7288625201336103E-01 
    2.7288376731793695E-01 
    2.7286326672549882E-01 
    2.7281125289040387E-01 
    2.7271398195743057E-01 
    2.7259097368092344E-01 
    2.7245733835332897E-01 
    2.7232873137350366E-01 
    2.7222183749373646E-01 
    2.7216336649831385E-01 
    2.7214724961875364E-01 
    2.7216902225943224E-01 
    2.7222627870152516E-01 
    2.7231874873247292E-01 
    2.7244820327630970E-01 
    2.1029167569509738E-01 
    2.1028862549031269E-01 
    2.1027729351681723E-01 
    2.1025111480154499E-01 
    2.1020272141537802E-01 
    2.1012453031073353E-01 
    2.1002823668098597E-01 
    2.0992314932837783E-01 
    2.0981895476162718E-01 
    2.0972589629894633E-01 
    2.0966033169942860E-01 
    2.0961947289855412E-01 
    2.0960157105659535E-01 
    2.0960611178745159E-01 
    2.0963383554719406E-01 
    2.0968665024724123E-01 
    1.5428422081776955E-01 
    1.5424886898676435E-01 
    1.5417821846232668E-01 
    1.5407287298573863E-01 
    1.5393408322680568E-01 
    1.5376385238140838E-01 
    1.5357078247509365E-01 
    1.5336301667587815E-01 
    1.5314937434051409E-01 
    1.5293927900736629E-01 
    1.5274500013661441E-01 
    1.5257293679066247E-01 
    1.5242973088227163E-01 
    1.5232194084931075E-01 
    1.5225567785304503E-01 
    1.5223610611438027E-01 
    1.0239593250437480E-01 
    1.0225560151280760E-01 
    1.0198029180540299E-01 
    1.0157825004686533E-01 
    1.0106042666508787E-01 
    1.0044034099423330E-01 
    9.9726506279496432E-02 
    9.8930998396864381E-02 
    9.8069649171519876E-02 
    9.7162716302133134E-02 
    9.6234624970795005E-02 
    9.5322454077282570E-02 
    9.4469439907693215E-02 
    9.3726230835872615E-02 
    9.3152422322306139E-02 
    9.2818415081826644E-02 
    6.2692528089050029E-02 
    6.2236814150154654E-02 
    6.1332730759860260E-02 
    5.9985213705356873E-02 
    5.8196280191853571E-02 
    5.5956470248965051E-02 
    5.3228392121328100E-02 
    4.9970697548393145E-02 
    4.6137594811720431E-02 
    4.1702820547237021E-02 
    3.6630010298886212E-02 
    3.0876169927266106E-02 
    2.4390670752763043E-02 
    1.7114263273596698E-02 
    8.9780037297608195E-03 
    0.0000000000000000E+00 

SCALARS Saturarion double 1 
LOOKUP_TABLE default 

    9.9999997387472017E-01 
    9.5267123831502731E-01 
    8.7399361751469062E-01 
    7.9345227306527155E-01 
    7.3167242423159984E-01 
    6.8133253805569904E-01 
    6.3814046359432386E-01 
    5.9903668846347291E-01 
    5.6239713307732764E-01 
    5.2871674786004275E-01 
    4.9629532230459511E-01 
    4.3975864680406140E-01 
    1.9130608464801954E-01 
    2.8228986151029548E-05 
    1.0000014734992860E-06 
    1.0000000000000216E-06 
    8.7343574201367724E-01 
    8.4579069620054304E-01 
    7.8914791043747112E-01 
    7.2015691544912541E-01 
    6.6560434806478530E-01 
    6.2441608295648632E-01 
    5.8912821899971735E-01 
    5.5597233258291134E-01 
    5.2348107191775217E-01 
    4.8671044182510764E-01 
    4.1757162598825720E-01 
    2.3462913060731666E-01 
    2.5305561327167436E-02 
    1.7885600040796062E-05 
    1.0000078893426332E-06 
    1.0000000000000512E-06 
    7.3029784612165649E-01 
    7.0669202914633622E-01 
    6.4604761373924280E-01 
    5.9381754161645894E-01 
    5.5986565707769254E-01 
    5.3229867153849220E-01 
    5.0613869380715482E-01 
    4.7288772858354977E-01 
    4.1363414173118029E-01 
    2.9960142637668646E-01 
    1.2636790127195896E-01 
    6.3298260837115414E-03 
    1.9330426124629377E-05 
    1.0000413306609150E-06 
    1.0000000000012241E-06 
    9.9999999999999995E-07 
    5.4776995862928257E-01 
    5.2480247466244723E-01 
    4.8999918915626722E-01 
    4.5113248571847070E-01 
    3.9953025272764409E-01 
    3.3442000348881790E-01 
    2.5678170723615107E-01 
    1.6725893887541443E-01 
    6.7826575867462033E-02 
    9.6935815280118770E-03 
    1.7084514238602117E-04 
    2.1451390104179450E-06 
    1.0000231022926108E-06 
    1.0000000000022996E-06 
    9.9999999999999995E-07 
    9.9999999999999995E-07 
    1.7191522220907871E-01 
    1.5008070414132088E-01 
    1.1294096656351005E-01 
    7.0599046417341327E-02 
    3.3591199150739715E-02 
    1.0456077991466877E-02 
    1.9057450282047429E-03 
    1.8620967782815413E-04 
    8.9388941814989826E-05 
    4.9203835041056655E-06 
    1.0097316060845135E-06 
    1.0000002945656780E-06 
    1.0000000000000343E-06 
    9.9999999999999995E-07 
    9.9999999999999995E-07 
    9.9999999999999995E-07 
    1.3577049247423901E-06 
    1.5045351972297893E-05 
    3.6088423682048156E-05 
    3.7772110606382563E-05 
    1.8982568299064670E-05 
    3.6457395012644794E-06 
    1.1202959190914656E-06 
    1.0056154839663353E-06 
    1.0015186939499335E-06 
    1.0000019231820713E-06 
    1.0000000000000927E-06 
    1.0000000000000078E-06 
    9.9999999999999995E-07 
    9.9999999999999995E-07 
    9.9999999999999995E-07 
    9.9999999999999995E-07 
    1.0000000000751076E-06 
    1.0000529785733414E-06 
    1.0002051215237345E-06 
    1.0003608129692930E-06 
    1.0000427655381780E-06 
    1.0000011837164706E-06 
    1.0000000272168457E-06 
    1.0000000001648404E-06 
    9.9999999999999953E-07 
    1.0000000000000006E-06 
    9.9999999999999995E-07 
    9.9999999999999995E-07 
    9.9999999999999995E-07 
    9.9999999999999995E-07 
    9.9999999999999995E-07 
    9.9999999999999995E-07 
    9.9999999999999995E-07 
    1.0000000000416007E-06 
    1.0000000001039893E-06 
    9.9999999999999974E-07 
    9.9999999999999974E-07 
    1.0000000000000002E-06 
    9.9999999999999995E-07 
    9.9999999999999995E-07 
    9.9999999999999995E-07 
    9.9999999999999995E-07 
    9.9999999999999995E-07 
    9.9999999999999995E-07 
    9.9999999999999995E-07 
    9.9999999999999995E-07 
    9.9999999999999995E-07 
    9.9999999999999995E-07 
    9.9999999999999995E-07 
    9.9999999999999995E-07 
    9.9999999999999974E-07 
    9.9999999999999995E-07 
    9.9999999999999995E-07 
    9.9999999999999995E-07 
    9.9999999999999995E-07 
    9.9999999999999995E-07 
    9.9999999999999995E-07 
    9.9999999999999995E-07 
    9.9999999999999995E-07 
    9.9999999999999995E-07 
    9.9999999999999995E-07 
    9.9999999999999995E-07 
    9.9999999999999995E-07 
    9.9999999999999995E-07 
    9.9999999999999995E-07 
    9.9999999999999995E-07 
    9.9999999999999995E-07 
    9.9999999999999995E-07 
    9.9999999999999995E-07 
    9.9999999999999995E-07 
    9.9999999999999995E-07 
    9.9999999999999995E-07 
    9.9999999999999995E-07 
    9.9999999999999995E-07 
    9.9999999999999995E-07 
    9.9999999999999995E-07 
    9.9999999999999995E-07 
    9.9999999999999995E-07 
    9.9999999999999995E-07 
    9.9999999999999995E-07 
    9.9999999999999995E-07 
    9.9999999999999995E-07 
    9.9999999999999995E-07 
    9.9999999999999995E-07 
    9.9999999999999995E-07 
    9.9999999999999995E-07 
    9.9999999999999995E-07 
    9.9999999999999995E-07 
    9.9999999999999995E-07 
    9.9999999999999995E-07 
    9.9999999999999995E-07 
    9.9999999999999995E-07 
    9.9999999999999995E-07 
    9.9999999999999995E-07 
    9.9999999999999995E-07 
    9.9999999999999995E-07 
    9.9999999999999995E-07 
    9.9999999999999995E-07 
    9.9999999999999995E-07 
    9.9999999999999995E-07 
    9.9999999999999995E-07 
    9.9999999999999995E-07 
    9.9999999999999995E-07 
    9.9999999999999995E-07 
    9.9999999999999995E-07 
    9.9999999999999995E-07 
    9.9999999999999995E-07 
    9.9999999999999995E-07 
    9.9999999999999995E-07 
    9.9999999999999995E-07 
    9.9999999999999995E-07 
    9.9999999999999995E-07 
    9.9999999999999995E-07 
    9.9999999999999995E-07 
    9.9999999999999995E-07 
    9.9999999999999995E-07 
    9.9999999999999995E-07 
    9.9999999999999995E-07 
    9.9999999999999995E-07 
    9.9999999999999995E-07 
    9.9999999999999995E-07 
    9.9999999999999995E-07 
    9.9999999999999995E-07 
    9.9999999999999995E-07 
    9.9999999999999995E-07 
    9.9999999999999995E-07 
    9.9999999999999995E-07 
    9.9999999999999995E-07 
    9.9999999999999995E-07 
    9.9999999999999995E-07 
    9.9999999999999995E-07 
    9.9999999999999995E-07 
    9.9999999999999995E-07 
    9.9999999999999995E-07 
    9.9999999999999995E-07 
    9.9999999999999995E-07 
    9.9999999999999995E-07 
    9.9999999999999995E-07 
    9.9999999999999995E-07 
    9.9999999999999995E-07 
    9.9999999999999995E-07 
    9.9999999999999995E-07 
    9.9999999999999995E-07 
    9.9999999999999995E-07 
    9.9999999999999995E-07 
    9.9999999999999995E-07 
    9.9999999999999995E-07 
    9.9999999999999995E-07 
    9.9999999999999995E-07 
    9.9999999999999995E-07 
    9.9999999999999995E-07 
    9.9999999999999995E-07 
    9.9999999999999995E-07 
    9.9999999999999995E-07 
    9.9999999999999995E-07 
    9.9999999999999995E-07 
    9.9999999999999995E-07 
    9.9999999999999995E-07 
    9.9999999999999995E-07 
    9.9999999999999995E-07 
    9.9999999999999995E-07 
    9.9999999999999995E-07 
    9.9999999999999995E-07 
    9.9999999999999995E-07 
    9.9999999999999995E-07 
    9.9999999999999995E-07 
    9.9999999999999995E-07 
    9.9999999999999995E-07 
    9.9999999999999995E-07 
    9.9999999999999995E-07 
    9.9999999999999995E-07 
    9.9999999999999995E-07 
    9.9999999999999995E-07 
    9.9999999999999995E-07 
    9.9999999999999995E-07 
    1.0000001191673651E-06 
