# vtk DataFile Version 2.0
Pressure Field Data 
ASCII 
DATASET UNSTRUCTURED_GRID 

POINTS 289 double 

    0.0000000000000000E+00     0.0000000000000000E+00     0.0000000000000000E+00 
    1.0000000000000000E+00     0.0000000000000000E+00     0.0000000000000000E+00 
    1.0000000000000000E+00     1.0000000000000000E+00     0.0000000000000000E+00 
    0.0000000000000000E+00     1.0000000000000000E+00     0.0000000000000000E+00 
    6.2499999999872928E-02     0.0000000000000000E+00     0.0000000000000000E+00 
    1.2499999999977310E-01     0.0000000000000000E+00     0.0000000000000000E+00 
    1.8749999999959341E-01     0.0000000000000000E+00     0.0000000000000000E+00 
    2.4999999999941089E-01     0.0000000000000000E+00     0.0000000000000000E+00 
    3.1249999999922851E-01     0.0000000000000000E+00     0.0000000000000000E+00 
    3.7499999999904610E-01     0.0000000000000000E+00     0.0000000000000000E+00 
    4.3749999999886358E-01     0.0000000000000000E+00     0.0000000000000000E+00 
    4.9999999999869210E-01     0.0000000000000000E+00     0.0000000000000000E+00 
    5.6249999999884603E-01     0.0000000000000000E+00     0.0000000000000000E+00 
    6.2499999999901090E-01     0.0000000000000000E+00     0.0000000000000000E+00 
    6.8749999999917577E-01     0.0000000000000000E+00     0.0000000000000000E+00 
    7.4999999999934064E-01     0.0000000000000000E+00     0.0000000000000000E+00 
    8.1249999999950551E-01     0.0000000000000000E+00     0.0000000000000000E+00 
    8.7499999999967026E-01     0.0000000000000000E+00     0.0000000000000000E+00 
    9.3749999999983513E-01     0.0000000000000000E+00     0.0000000000000000E+00 
    1.0000000000000000E+00     6.2499999999872928E-02     0.0000000000000000E+00 
    1.0000000000000000E+00     1.2499999999977310E-01     0.0000000000000000E+00 
    1.0000000000000000E+00     1.8749999999959341E-01     0.0000000000000000E+00 
    1.0000000000000000E+00     2.4999999999941089E-01     0.0000000000000000E+00 
    1.0000000000000000E+00     3.1249999999922851E-01     0.0000000000000000E+00 
    1.0000000000000000E+00     3.7499999999904610E-01     0.0000000000000000E+00 
    1.0000000000000000E+00     4.3749999999886358E-01     0.0000000000000000E+00 
    1.0000000000000000E+00     4.9999999999869210E-01     0.0000000000000000E+00 
    1.0000000000000000E+00     5.6249999999884603E-01     0.0000000000000000E+00 
    1.0000000000000000E+00     6.2499999999901090E-01     0.0000000000000000E+00 
    1.0000000000000000E+00     6.8749999999917577E-01     0.0000000000000000E+00 
    1.0000000000000000E+00     7.4999999999934064E-01     0.0000000000000000E+00 
    1.0000000000000000E+00     8.1249999999950551E-01     0.0000000000000000E+00 
    1.0000000000000000E+00     8.7499999999967026E-01     0.0000000000000000E+00 
    1.0000000000000000E+00     9.3749999999983513E-01     0.0000000000000000E+00 
    9.3749999999973976E-01     1.0000000000000000E+00     0.0000000000000000E+00 
    8.7499999999950118E-01     1.0000000000000000E+00     0.0000000000000000E+00 
    8.1249999999991318E-01     1.0000000000000000E+00     0.0000000000000000E+00 
    7.5000000000034706E-01     1.0000000000000000E+00     0.0000000000000000E+00 
    6.8750000000078049E-01     1.0000000000000000E+00     0.0000000000000000E+00 
    6.2500000000121403E-01     1.0000000000000000E+00     0.0000000000000000E+00 
    5.6250000000164757E-01     1.0000000000000000E+00     0.0000000000000000E+00 
    5.0000000000205946E-01     1.0000000000000000E+00     0.0000000000000000E+00 
    4.3750000000182099E-01     1.0000000000000000E+00     0.0000000000000000E+00 
    3.7500000000156092E-01     1.0000000000000000E+00     0.0000000000000000E+00 
    3.1250000000130068E-01     1.0000000000000000E+00     0.0000000000000000E+00 
    2.5000000000104050E-01     1.0000000000000000E+00     0.0000000000000000E+00 
    1.8750000000078040E-01     1.0000000000000000E+00     0.0000000000000000E+00 
    1.2500000000052031E-01     1.0000000000000000E+00     0.0000000000000000E+00 
    6.2500000000260125E-02     1.0000000000000000E+00     0.0000000000000000E+00 
    0.0000000000000000E+00     9.3749999999973976E-01     0.0000000000000000E+00 
    0.0000000000000000E+00     8.7499999999950118E-01     0.0000000000000000E+00 
    0.0000000000000000E+00     8.1249999999991318E-01     0.0000000000000000E+00 
    0.0000000000000000E+00     7.5000000000034706E-01     0.0000000000000000E+00 
    0.0000000000000000E+00     6.8750000000078049E-01     0.0000000000000000E+00 
    0.0000000000000000E+00     6.2500000000121403E-01     0.0000000000000000E+00 
    0.0000000000000000E+00     5.6250000000164757E-01     0.0000000000000000E+00 
    0.0000000000000000E+00     5.0000000000205946E-01     0.0000000000000000E+00 
    0.0000000000000000E+00     4.3750000000182099E-01     0.0000000000000000E+00 
    0.0000000000000000E+00     3.7500000000156092E-01     0.0000000000000000E+00 
    0.0000000000000000E+00     3.1250000000130068E-01     0.0000000000000000E+00 
    0.0000000000000000E+00     2.5000000000104050E-01     0.0000000000000000E+00 
    0.0000000000000000E+00     1.8750000000078040E-01     0.0000000000000000E+00 
    0.0000000000000000E+00     1.2500000000052031E-01     0.0000000000000000E+00 
    0.0000000000000000E+00     6.2500000000260125E-02     0.0000000000000000E+00 
    6.2499999999897131E-02     6.2500000000235922E-02     0.0000000000000000E+00 
    6.2499999999921327E-02     1.2500000000047351E-01     0.0000000000000000E+00 
    6.2499999999945530E-02     1.8750000000070621E-01     0.0000000000000000E+00 
    6.2499999999969733E-02     2.5000000000093858E-01     0.0000000000000000E+00 
    6.2499999999993928E-02     3.1250000000117117E-01     0.0000000000000000E+00 
    6.2500000000018124E-02     3.7500000000140382E-01     0.0000000000000000E+00 
    6.2500000000042327E-02     4.3750000000163619E-01     0.0000000000000000E+00 
    6.2500000000066530E-02     5.0000000000184897E-01     0.0000000000000000E+00 
    6.2500000000090733E-02     5.6250000000147260E-01     0.0000000000000000E+00 
    6.2500000000114922E-02     6.2500000000107636E-01     0.0000000000000000E+00 
    6.2500000000139125E-02     6.8750000000068034E-01     0.0000000000000000E+00 
    6.2500000000163328E-02     7.5000000000028411E-01     0.0000000000000000E+00 
    6.2500000000187531E-02     8.1249999999988787E-01     0.0000000000000000E+00 
    6.2500000000211720E-02     8.7499999999951172E-01     0.0000000000000000E+00 
    6.2500000000235922E-02     9.3749999999974565E-01     0.0000000000000000E+00 
    1.2499999999981980E-01     6.2500000000211733E-02     0.0000000000000000E+00 
    1.2499999999986650E-01     1.2500000000042691E-01     0.0000000000000000E+00 
    1.2499999999991319E-01     1.8750000000063199E-01     0.0000000000000000E+00 
    1.2499999999995989E-01     2.5000000000083678E-01     0.0000000000000000E+00 
    1.2500000000000661E-01     3.1250000000104172E-01     0.0000000000000000E+00 
    1.2500000000005329E-01     3.7500000000124661E-01     0.0000000000000000E+00 
    1.2500000000010000E-01     4.3750000000145117E-01     0.0000000000000000E+00 
    1.2500000000014669E-01     5.0000000000163858E-01     0.0000000000000000E+00 
    1.2500000000019340E-01     5.6250000000129741E-01     0.0000000000000000E+00 
    1.2500000000024011E-01     6.2500000000093847E-01     0.0000000000000000E+00 
    1.2500000000028680E-01     6.8750000000057998E-01     0.0000000000000000E+00 
    1.2500000000033351E-01     7.5000000000022127E-01     0.0000000000000000E+00 
    1.2500000000038020E-01     8.1249999999986211E-01     0.0000000000000000E+00 
    1.2500000000042691E-01     8.7499999999952238E-01     0.0000000000000000E+00 
    1.2500000000047359E-01     9.3749999999975164E-01     0.0000000000000000E+00 
    1.8749999999966760E-01     6.2500000000187531E-02     0.0000000000000000E+00 
    1.8749999999974179E-01     1.2500000000038020E-01     0.0000000000000000E+00 
    1.8749999999981601E-01     1.8750000000055780E-01     0.0000000000000000E+00 
    1.8749999999989009E-01     2.5000000000073502E-01     0.0000000000000000E+00 
    1.8749999999996431E-01     3.1250000000091221E-01     0.0000000000000000E+00 
    1.8750000000003850E-01     3.7500000000108941E-01     0.0000000000000000E+00 
    1.8750000000011269E-01     4.3750000000126649E-01     0.0000000000000000E+00 
    1.8750000000018691E-01     5.0000000000142808E-01     0.0000000000000000E+00 
    1.8750000000026110E-01     5.6250000000112244E-01     0.0000000000000000E+00 
    1.8750000000033529E-01     6.2500000000080080E-01     0.0000000000000000E+00 
    1.8750000000040951E-01     6.8750000000047962E-01     0.0000000000000000E+00 
    1.8750000000048361E-01     7.5000000000015843E-01     0.0000000000000000E+00 
    1.8750000000055780E-01     8.1249999999983680E-01     0.0000000000000000E+00 
    1.8750000000063199E-01     8.7499999999953304E-01     0.0000000000000000E+00 
    1.8750000000070621E-01     9.3749999999975764E-01     0.0000000000000000E+00 
    2.4999999999951281E-01     6.2500000000163314E-02     0.0000000000000000E+00 
    2.4999999999961461E-01     1.2500000000033351E-01     0.0000000000000000E+00 
    2.4999999999971650E-01     1.8750000000048361E-01     0.0000000000000000E+00 
    2.4999999999981831E-01     2.5000000000063310E-01     0.0000000000000000E+00 
    2.4999999999992020E-01     3.1250000000078260E-01     0.0000000000000000E+00 
    2.5000000000002198E-01     3.7500000000093209E-01     0.0000000000000000E+00 
    2.5000000000012390E-01     4.3750000000108180E-01     0.0000000000000000E+00 
    2.5000000000022571E-01     5.0000000000121769E-01     0.0000000000000000E+00 
    2.5000000000032763E-01     5.6250000000094724E-01     0.0000000000000000E+00 
    2.5000000000042938E-01     6.2500000000066314E-01     0.0000000000000000E+00 
    2.5000000000053119E-01     6.8750000000037925E-01     0.0000000000000000E+00 
[...]
CELL_DATA 256 
SCALARS Pressure double 1 
LOOKUP_TABLE default 

    7.6013778059168202E-01 
    7.5829524554300554E-01 
    7.5661516915215365E-01 
    7.5506362267922489E-01 
    7.5362486091262704E-01 
    7.5229172706123937E-01 
    7.5106943631089962E-01 
    7.4996483439420736E-01 
    7.4898604321686590E-01 
    7.4813393906487879E-01 
    7.4740775723681596E-01 
    7.4680688072621626E-01 
    7.4633076151208710E-01 
    7.4598046922888606E-01 
    7.4575888365108078E-01 
    7.4564449271319155E-01 
    7.3496402876315914E-01 
    7.3488979264345611E-01 
    7.3475576202019455E-01 
    7.3457222976893310E-01 
    7.3434836873574560E-01 
    7.3409395602481486E-01 
    7.3382277337153079E-01 
    7.3354645218706660E-01 
    7.3327605102194571E-01 
    7.3302182852627684E-01 
    7.3279229358264963E-01 
    7.3259282093880662E-01 
    7.3242783416261881E-01 
    7.3230233211327878E-01 
    7.3221874794095132E-01 
    7.3217102243790178E-01 
    7.1311225510274268E-01 
    7.1310997580066504E-01 
    7.1310297898419861E-01 
    7.1308779622923590E-01 
    7.1306154433575930E-01 
    7.1302400417477485E-01 
    7.1297487734779930E-01 
    7.1291630529145067E-01 
    7.1285033910805062E-01 
    7.1277883483673243E-01 
    7.1270440229791421E-01 
    7.1263104526269105E-01 
    7.1256349738250413E-01 
    7.1250704995843139E-01 
    7.1245675902775307E-01 
    7.1240974061813767E-01 
    6.8694928625721119E-01 
    6.8697010666315095E-01 
    6.8701032503885873E-01 
    6.8706772505800773E-01 
    6.8713744937398102E-01 
    6.8721351965156474E-01 
    6.8728354219557253E-01 
    6.8734291682886561E-01 
    6.8738651826582797E-01 
    6.8740893927812263E-01 
    6.8740854640430438E-01 
    6.8739002230380020E-01 
    6.8735981540305857E-01 
    6.8732003196144642E-01 
    6.8726057610794600E-01 
    6.8718910158334845E-01 
    6.5368842013461681E-01 
    6.5373491488599644E-01 
    6.5382116792307965E-01 
    6.5394217660087661E-01 
    6.5408829377534095E-01 
    6.5424400934087412E-01 
    6.5439694365310941E-01 
    6.5453705140751606E-01 
    6.5465416108770547E-01 
    6.5473772250550988E-01 
    6.5477879105753678E-01 
    6.5478372719790112E-01 
    6.5475892429478844E-01 
    6.5469703205723007E-01 
    6.5459001700489816E-01 
    6.5448966836655253E-01 
    6.1217791529607712E-01 
    6.1224996542538934E-01 
    6.1237065117846445E-01 
    6.1251985447715218E-01 
    6.1267423426673162E-01 
    6.1280333885130767E-01 
    6.1289968270098949E-01 
    6.1296110219106026E-01 
    6.1298673297615935E-01 
    6.1297617939011140E-01 
    6.1293898621408971E-01 
    6.1288548892270955E-01 
    6.1281676572436539E-01 
    6.1271940804629610E-01 
    6.1262755099128408E-01 
    6.1261895185257464E-01 
    5.7311935331579922E-01 
    5.7305013360528012E-01 
    5.7291359821231913E-01 
    5.7270949638084090E-01 
    5.7243407421083214E-01 
    5.7211220704144616E-01 
    5.7180636171900590E-01 
    5.7152754246451920E-01 
    5.7128379714111754E-01 
    5.7107940037328164E-01 
    5.7093897910283464E-01 
    5.7084391285052760E-01 
    5.7075630553928314E-01 
    5.7066227702677486E-01 
    5.7061363103750040E-01 
    5.7062222187245948E-01 
    5.3005210796031921E-01 
    5.2997115194087230E-01 
    5.2983091782511638E-01 
    5.2965634290454011E-01 
    5.2947408836920951E-01 
    5.2931635430113799E-01 
    5.2921686722369710E-01 
    5.2918110487143077E-01 
    5.2921137663866180E-01 
    5.2928547985549645E-01 
    5.2937140396837423E-01 
    5.2943778608421299E-01 
    5.2946539209871246E-01 
    5.2947125066150436E-01 
    5.2946811778398417E-01 
    5.2943650741788839E-01 
    4.8385918295739067E-01 
    4.8377984968495824E-01 
    4.8366542895259534E-01 
    4.8356403132964088E-01 
    4.8352933610421994E-01 
    4.8359578262969949E-01 
    4.8375729340253676E-01 
    4.8400129154883975E-01 
    4.8431175916068292E-01 
    4.8462572316722785E-01 
    4.8484940969389062E-01 
    4.8497796945986837E-01 
    4.8503904415633042E-01 
    4.8504825467806612E-01 
    4.8498383433206999E-01 
    4.8481456808345708E-01 
    4.2525204136695077E-01 
    4.2527763634890353E-01 
    4.2531462563556460E-01 
    4.2535069245145313E-01 
    4.2537542385160071E-01 
    4.2538598154397755E-01 
    4.2537259112449255E-01 
    4.2531882060265258E-01 
    4.2518198801555412E-01 
    4.2490230943899232E-01 
    4.2451846472655680E-01 
    4.2413450177437839E-01 
    4.2381032014562725E-01 
    4.2354036622335878E-01 
    4.2331638730929261E-01 
    4.2314506947240133E-01 
    3.5100262697979329E-01 
    3.5095259793640632E-01 
    3.5083131194689382E-01 
    3.5060929440237021E-01 
    3.5025189661917200E-01 
    3.4972031886458671E-01 
    3.4906810228775886E-01 
    3.4829586628627329E-01 
    3.4739436674833929E-01 
    3.4645884488649364E-01 
    3.4571441754815835E-01 
    3.4517701684720015E-01 
    3.4480481705064947E-01 
    3.4457562146001647E-01 
    3.4448805119009762E-01 
    3.4454290215251271E-01 
    2.7526260076551479E-01 
    2.7520839164714805E-01 
    2.7508963638266631E-01 
    2.7489440141202731E-01 
    2.7461087164778053E-01 
    2.7422784397017452E-01 
    2.7376042579930715E-01 
    2.7323334983394570E-01 
    2.7270833673393086E-01 
    2.7226695985808530E-01 
    2.7194412977932109E-01 
    2.7171279329903125E-01 
    2.7156411246039142E-01 
    2.7149659954764505E-01 
    2.7151078128602035E-01 
    2.7160904248382800E-01 
    2.0926155755714443E-01 
    2.0924335732843674E-01 
    2.0920436345898846E-01 
    2.0914333557495118E-01 
    2.0905919852187638E-01 
    2.0895024274573101E-01 
    2.0883450714144849E-01 
    2.0873125743113052E-01 
    2.0864975168810199E-01 
    2.0858347066146526E-01 
    2.0853576889386458E-01 
    2.0850431155717133E-01 
    2.0849091857708585E-01 
    2.0849791935286052E-01 
    2.0852816527788387E-01 
    2.0858494846898637E-01 
    1.5326892571692999E-01 
    1.5323614132989230E-01 
    1.5316981991805659E-01 
    1.5306964335460577E-01 
    1.5293611401429447E-01 
    1.5277077465398534E-01 
    1.5258195726436319E-01 
    1.5237786554069663E-01 
    1.5216736579956625E-01 
    1.5195992333738528E-01 
    1.5176805246256286E-01 
    1.5159826802415063E-01 
    1.5145738444837367E-01 
    1.5135214526440885E-01 
    1.5128882611721911E-01 
    1.5127271134605255E-01 
    1.0189866857196839E-01 
    1.0175802694132385E-01 
    1.0148229828790978E-01 
    1.0107989015619685E-01 
    1.0056185719241437E-01 
    9.9941753182183166E-02 
    9.9228529515690347E-02 
    9.8434314133234002E-02 
    9.7574927880296702E-02 
    9.6670551883601019E-02 
    9.5745507020648962E-02 
    9.4836404092841872E-02 
    9.3986064543455719E-02 
    9.3244807487780065E-02 
    9.2672008988178470E-02 
    9.2337976570247393E-02 
    6.2685262522326909E-02 
    6.2225305547702246E-02 
    6.1314860856524725E-02 
    5.9960904667770827E-02 
    5.8167398791128373E-02 
    5.5924549933469084E-02 
    5.3195463979661690E-02 
    4.9939173737973457E-02 
    4.6110152290427156E-02 
    4.1681413430107735E-02 
    3.6615324807255746E-02 
    3.0867677565959990E-02 
    2.4386736601150132E-02 
    1.7112295873101979E-02 
    8.9746348074553756E-03 
    0.0000000000000000E+00 

SCALARS Saturarion double 1 
LOOKUP_TABLE default 

    1.0000000000006690E+00 
    9.8472941534556480E-01 
    9.5979500960177522E-01 
    9.2738212096159012E-01 
    8.9521782719200171E-01 
    8.6340509215354710E-01 
    8.3193221499312153E-01 
    8.0062239608298202E-01 
    7.6912076187692680E-01 
    7.3695654180207748E-01 
    7.0328653301956356E-01 
    6.6703977826454808E-01 
    6.2657642003291869E-01 
    5.7978328658261913E-01 
    5.2285499455114792E-01 
    2.9450680034810661E-01 
    9.3991655466182988E-01 
    9.2821923004895368E-01 
    9.0418924194816042E-01 
    8.7749293162835518E-01 
    8.4324421954352313E-01 
    8.1170460265856070E-01 
    7.8279923142469487E-01 
    7.5480619074772637E-01 
    7.2759036373000785E-01 
    6.9952483921777864E-01 
    6.6935488122824305E-01 
    6.3675340717034790E-01 
    5.9786889939547239E-01 
    5.5602045434319058E-01 
    4.9984032808154139E-01 
    2.0141833010319277E-01 
    8.5001001302676982E-01 
    8.3029530844038846E-01 
    8.0196613355244895E-01 
    7.7067882796665632E-01 
    7.4310492143797480E-01 
    7.2059371906303993E-01 
    6.9951001205623942E-01 
    6.7855168269633237E-01 
    6.5881753402210930E-01 
    6.3729482228677936E-01 
    6.1264703660206321E-01 
    5.8580431685744649E-01 
    5.5269624604887857E-01 
    5.2082096461792227E-01 
    4.4449083576956366E-01 
    8.0400569092966279E-02 
    7.7360209661525059E-01 
    7.5922004876146021E-01 
    7.2926631111902440E-01 
    6.9665192462674130E-01 
    6.7318773998965398E-01 
    6.5515776334024267E-01 
    6.3761813801163092E-01 
    6.2043060153931828E-01 
    6.0432957953718980E-01 
    5.8603112675748570E-01 
    5.6532265714898378E-01 
    5.4403817807884880E-01 
    5.1974938807019300E-01 
    4.8517011044251018E-01 
    2.9547153831723694E-01 
    5.8782263078211959E-03 
    7.1236818509509747E-01 
    7.0379975265945294E-01 
    6.7745391952585043E-01 
    6.4654587218767634E-01 
    6.2366640931520867E-01 
    6.0701341574412693E-01 
    5.9130548197786181E-01 
    5.7597371317280233E-01 
    5.6036471660182940E-01 
    5.4437461570510204E-01 
    5.2755375944662863E-01 
    5.1144174164195388E-01 
    4.9073472638248244E-01 
    4.1357549636953789E-01 
    1.0364571703139136E-01 
    7.0411798826927973E-05 
    6.6722836396452356E-01 
    6.5939125547892330E-01 
    6.3781132779254857E-01 
    6.1166317133839310E-01 
    5.8698943386347646E-01 
    5.7178615956474543E-01 
    5.5788313431418535E-01 
    5.4411788035526654E-01 
    5.2727117641280463E-01 
    5.1341354202659639E-01 
    4.9833811819334106E-01 
    4.8258105614670826E-01 
    4.5429932321943151E-01 
    2.4400716841247397E-01 
    3.1918459520200657E-03 
    1.0615645209397690E-06 
    6.3083091148686088E-01 
    6.2391456105923060E-01 
    6.0906914878962914E-01 
    5.9067038757906876E-01 
    5.6608666960509979E-01 
    5.4869158246663063E-01 
    5.3622581657512325E-01 
    5.2408102972400128E-01 
    5.0810856810687388E-01 
    4.9157444056977101E-01 
    4.7500760657249108E-01 
    4.5413087431521065E-01 
    3.8038217664876911E-01 
    7.7454216905455203E-02 
    2.6554938783901440E-05 
    1.0000236341010819E-06 
    5.9652688348735550E-01 
    5.9197116759535606E-01 
    5.8245659811619632E-01 
    5.7148663548032974E-01 
    5.5076673331359371E-01 
    5.2814938252655275E-01 
    5.1543068164157857E-01 
    5.0447287880595670E-01 
    4.9029347181905047E-01 
    4.7022167348211508E-01 
    4.4749482795219681E-01 
    3.8592997036791654E-01 
    1.5669679426660327E-01 
    2.5536382498602788E-04 
    1.0002572723501918E-06 
    1.0000000000128950E-06 
    5.6403675402362397E-01 
    5.6133873554145886E-01 
    5.5494036396754354E-01 
    5.4689969822997364E-01 
    5.3033787150885803E-01 
    5.0514650509363335E-01 
    4.9017713526402296E-01 
    4.7614482946569747E-01 
    4.5455514892290566E-01 
    4.2311794556621379E-01 
    3.5042044869595962E-01 
    1.3687742718830884E-01 
    1.5589361879218939E-03 
    1.0019706998325673E-06 
    1.0000000000000097E-06 
    9.9999999999999995E-07 
    5.3148627569751994E-01 
    5.2991063103648217E-01 
    5.2568348510962626E-01 
    5.1942528428724188E-01 
    5.0981539281178589E-01 
    4.8746143226495170E-01 
    4.6728757469353510E-01 
    4.4025611863623187E-01 
    3.8806161927720456E-01 
    2.8558319800309945E-01 
    1.0811000286305601E-01 
    1.6449267491272521E-03 
    2.5480464887701101E-06 
    1.0000013153420386E-06 
    1.0000000000001139E-06 
    9.9999999999999995E-07 
    4.8781647731098010E-01 
    4.8648603281613939E-01 
    4.8326595272713802E-01 
    4.7839682546173207E-01 
    4.7317790049483732E-01 
    4.6264277864535575E-01 
    4.4549039080135494E-01 
    4.1776163765952590E-01 
    3.2858552538688701E-01 
    6.4342562508451065E-02 
    1.9832945600875682E-04 
    1.2286289866390629E-06 
    1.0000001915091533E-06 
    1.0000000000007536E-06 
    9.9999999999999995E-07 
    9.9999999999999995E-07 
    3.6464702340550631E-01 
    3.5960830934772869E-01 
    3.5059230359636484E-01 
    3.3778864212368698E-01 
    3.2871404515648267E-01 
    3.1668988868678444E-01 
    2.7445228306918251E-01 
    1.9031681959719482E-01 
    6.5598097520105231E-02 
    7.4732066049761862E-04 
    1.0128735803288956E-06 
    1.0000000555623732E-06 
    1.0000000000001243E-06 
    9.9999999999999995E-07 
    9.9999999999999995E-07 
    9.9999999999999995E-07 
    3.1056722670280958E-02 
    2.7172802858415692E-02 
    2.1852522290463104E-02 
    1.5905991352357190E-02 
    1.2827702067016132E-02 
    9.4569572426364337E-03 
    3.4164475642090640E-03 
    3.6692358133451477E-04 
    1.4441122210260215E-04 
    1.0035447044043042E-06 
    1.0000000016596706E-06 
    1.0000000000000376E-06 
    9.9999999999999995E-07 
    9.9999999999999995E-07 
    9.9999999999999995E-07 
    9.9999999999999995E-07 
    1.0000000577996953E-06 
    1.0728657137235171E-06 
    1.2730148936085403E-06 
    1.3533777469755200E-06 
    1.0210536248879745E-06 
    1.3129797955485773E-06 
    1.2485005970792701E-06 
    1.0133975272299798E-06 
    1.0034661212245516E-06 
    1.0000000009918198E-06 
    1.0000000000000004E-06 
    9.9999999999999995E-07 
    9.9999999999999995E-07 
    9.9999999999999995E-07 
    9.9999999999999995E-07 
    9.9999999999999995E-07 
    1.0000000000000332E-06 
    1.0000000117183327E-06 
    1.0000000400273370E-06 
    1.0000000682259916E-06 
    1.0000000063481265E-06 
    1.0000000377913297E-06 
    1.0000000564275818E-06 
    1.0000000016109336E-06 
    1.0000000000000016E-06 
    9.9999999999999995E-07 
    9.9999999999999995E-07 
    9.9999999999999995E-07 
    9.9999999999999995E-07 
    9.9999999999999995E-07 
    9.9999999999999995E-07 
    9.9999999999999995E-07 
    9.9999999999999995E-07 
    1.0000000000000027E-06 
    1.0000000000000088E-06 
    1.0000000000000025E-06 
    9.9999999999999995E-07 
    1.0000000000000074E-06 
    9.9999999999999974E-07 
    1.0000000000000004E-06 
    9.9999999999999995E-07 
    9.9999999999999995E-07 
    9.9999999999999995E-07 
    9.9999999999999995E-07 
    9.9999999999999995E-07 
    9.9999999999999995E-07 
    9.9999999999999995E-07 
    1.0000004319779374E-06 
