# vtk DataFile Version 2.0
Pressure Field Data 
ASCII 
DATASET UNSTRUCTURED_GRID 

POINTS 289 double 

    0.0000000000000000E+00     0.0000000000000000E+00     0.0000000000000000E+00 
    1.0000000000000000E+00     0.0000000000000000E+00     0.0000000000000000E+00 
    1.0000000000000000E+00     1.0000000000000000E+00     0.0000000000000000E+00 
    0.0000000000000000E+00     1.0000000000000000E+00     0.0000000000000000E+00 
    6.2499999999872928E-02     0.0000000000000000E+00     0.0000000000000000E+00 
    1.2499999999977310E-01     0.0000000000000000E+00     0.0000000000000000E+00 
    1.8749999999959341E-01     0.0000000000000000E+00     0.0000000000000000E+00 
    2.4999999999941089E-01     0.0000000000000000E+00     0.0000000000000000E+00 
    3.1249999999922851E-01     0.0000000000000000E+00     0.0000000000000000E+00 
    3.7499999999904610E-01     0.0000000000000000E+00     0.0000000000000000E+00 
    4.3749999999886358E-01     0.0000000000000000E+00     0.0000000000000000E+00 
    4.9999999999869210E-01     0.0000000000000000E+00     0.0000000000000000E+00 
    5.6249999999884603E-01     0.0000000000000000E+00     0.0000000000000000E+00 
    6.2499999999901090E-01     0.0000000000000000E+00     0.0000000000000000E+00 
    6.8749999999917577E-01     0.0000000000000000E+00     0.0000000000000000E+00 
    7.4999999999934064E-01     0.0000000000000000E+00     0.0000000000000000E+00 
    8.1249999999950551E-01     0.0000000000000000E+00     0.0000000000000000E+00 
    8.7499999999967026E-01     0.0000000000000000E+00     0.0000000000000000E+00 
    9.3749999999983513E-01     0.0000000000000000E+00     0.0000000000000000E+00 
    1.0000000000000000E+00     6.2499999999872928E-02     0.0000000000000000E+00 
    1.0000000000000000E+00     1.2499999999977310E-01     0.0000000000000000E+00 
    1.0000000000000000E+00     1.8749999999959341E-01     0.0000000000000000E+00 
    1.0000000000000000E+00     2.4999999999941089E-01     0.0000000000000000E+00 
    1.0000000000000000E+00     3.1249999999922851E-01     0.0000000000000000E+00 
    1.0000000000000000E+00     3.7499999999904610E-01     0.0000000000000000E+00 
    1.0000000000000000E+00     4.3749999999886358E-01     0.0000000000000000E+00 
    1.0000000000000000E+00     4.9999999999869210E-01     0.0000000000000000E+00 
    1.0000000000000000E+00     5.6249999999884603E-01     0.0000000000000000E+00 
    1.0000000000000000E+00     6.2499999999901090E-01     0.0000000000000000E+00 
    1.0000000000000000E+00     6.8749999999917577E-01     0.0000000000000000E+00 
    1.0000000000000000E+00     7.4999999999934064E-01     0.0000000000000000E+00 
    1.0000000000000000E+00     8.1249999999950551E-01     0.0000000000000000E+00 
    1.0000000000000000E+00     8.7499999999967026E-01     0.0000000000000000E+00 
    1.0000000000000000E+00     9.3749999999983513E-01     0.0000000000000000E+00 
    9.3749999999973976E-01     1.0000000000000000E+00     0.0000000000000000E+00 
    8.7499999999950118E-01     1.0000000000000000E+00     0.0000000000000000E+00 
    8.1249999999991318E-01     1.0000000000000000E+00     0.0000000000000000E+00 
    7.5000000000034706E-01     1.0000000000000000E+00     0.0000000000000000E+00 
    6.8750000000078049E-01     1.0000000000000000E+00     0.0000000000000000E+00 
    6.2500000000121403E-01     1.0000000000000000E+00     0.0000000000000000E+00 
    5.6250000000164757E-01     1.0000000000000000E+00     0.0000000000000000E+00 
    5.0000000000205946E-01     1.0000000000000000E+00     0.0000000000000000E+00 
    4.3750000000182099E-01     1.0000000000000000E+00     0.0000000000000000E+00 
    3.7500000000156092E-01     1.0000000000000000E+00     0.0000000000000000E+00 
    3.1250000000130068E-01     1.0000000000000000E+00     0.0000000000000000E+00 
    2.5000000000104050E-01     1.0000000000000000E+00     0.0000000000000000E+00 
    1.8750000000078040E-01     1.0000000000000000E+00     0.0000000000000000E+00 
    1.2500000000052031E-01     1.0000000000000000E+00     0.0000000000000000E+00 
    6.2500000000260125E-02     1.0000000000000000E+00     0.0000000000000000E+00 
    0.0000000000000000E+00     9.3749999999973976E-01     0.0000000000000000E+00 
    0.0000000000000000E+00     8.7499999999950118E-01     0.0000000000000000E+00 
    0.0000000000000000E+00     8.1249999999991318E-01     0.0000000000000000E+00 
    0.0000000000000000E+00     7.5000000000034706E-01     0.0000000000000000E+00 
    0.0000000000000000E+00     6.8750000000078049E-01     0.0000000000000000E+00 
    0.0000000000000000E+00     6.2500000000121403E-01     0.0000000000000000E+00 
    0.0000000000000000E+00     5.6250000000164757E-01     0.0000000000000000E+00 
    0.0000000000000000E+00     5.0000000000205946E-01     0.0000000000000000E+00 
    0.0000000000000000E+00     4.3750000000182099E-01     0.0000000000000000E+00 
    0.0000000000000000E+00     3.7500000000156092E-01     0.0000000000000000E+00 
    0.0000000000000000E+00     3.1250000000130068E-01     0.0000000000000000E+00 
    0.0000000000000000E+00     2.5000000000104050E-01     0.0000000000000000E+00 
    0.0000000000000000E+00     1.8750000000078040E-01     0.0000000000000000E+00 
    0.0000000000000000E+00     1.2500000000052031E-01     0.0000000000000000E+00 
    0.0000000000000000E+00     6.2500000000260125E-02     0.0000000000000000E+00 
    6.2499999999897131E-02     6.2500000000235922E-02     0.0000000000000000E+00 
    6.2499999999921327E-02     1.2500000000047351E-01     0.0000000000000000E+00 
    6.2499999999945530E-02     1.8750000000070621E-01     0.0000000000000000E+00 
    6.2499999999969733E-02     2.5000000000093858E-01     0.0000000000000000E+00 
    6.2499999999993928E-02     3.1250000000117117E-01     0.0000000000000000E+00 
    6.2500000000018124E-02     3.7500000000140382E-01     0.0000000000000000E+00 
    6.2500000000042327E-02     4.3750000000163619E-01     0.0000000000000000E+00 
    6.2500000000066530E-02     5.0000000000184897E-01     0.0000000000000000E+00 
    6.2500000000090733E-02     5.6250000000147260E-01     0.0000000000000000E+00 
    6.2500000000114922E-02     6.2500000000107636E-01     0.0000000000000000E+00 
    6.2500000000139125E-02     6.8750000000068034E-01     0.0000000000000000E+00 
    6.2500000000163328E-02     7.5000000000028411E-01     0.0000000000000000E+00 
    6.2500000000187531E-02     8.1249999999988787E-01     0.0000000000000000E+00 
    6.2500000000211720E-02     8.7499999999951172E-01     0.0000000000000000E+00 
    6.2500000000235922E-02     9.3749999999974565E-01     0.0000000000000000E+00 
    1.2499999999981980E-01     6.2500000000211733E-02     0.0000000000000000E+00 
    1.2499999999986650E-01     1.2500000000042691E-01     0.0000000000000000E+00 
    1.2499999999991319E-01     1.8750000000063199E-01     0.0000000000000000E+00 
    1.2499999999995989E-01     2.5000000000083678E-01     0.0000000000000000E+00 
    1.2500000000000661E-01     3.1250000000104172E-01     0.0000000000000000E+00 
    1.2500000000005329E-01     3.7500000000124661E-01     0.0000000000000000E+00 
    1.2500000000010000E-01     4.3750000000145117E-01     0.0000000000000000E+00 
    1.2500000000014669E-01     5.0000000000163858E-01     0.0000000000000000E+00 
    1.2500000000019340E-01     5.6250000000129741E-01     0.0000000000000000E+00 
    1.2500000000024011E-01     6.2500000000093847E-01     0.0000000000000000E+00 
    1.2500000000028680E-01     6.8750000000057998E-01     0.0000000000000000E+00 
    1.2500000000033351E-01     7.5000000000022127E-01     0.0000000000000000E+00 
    1.2500000000038020E-01     8.1249999999986211E-01     0.0000000000000000E+00 
    1.2500000000042691E-01     8.7499999999952238E-01     0.0000000000000000E+00 
    1.2500000000047359E-01     9.3749999999975164E-01     0.0000000000000000E+00 
    1.8749999999966760E-01     6.2500000000187531E-02     0.0000000000000000E+00 
    1.8749999999974179E-01     1.2500000000038020E-01     0.0000000000000000E+00 
    1.8749999999981601E-01     1.8750000000055780E-01     0.0000000000000000E+00 
    1.8749999999989009E-01     2.5000000000073502E-01     0.0000000000000000E+00 
    1.8749999999996431E-01     3.1250000000091221E-01     0.0000000000000000E+00 
    1.8750000000003850E-01     3.7500000000108941E-01     0.0000000000000000E+00 
    1.8750000000011269E-01     4.3750000000126649E-01     0.0000000000000000E+00 
    1.8750000000018691E-01     5.0000000000142808E-01     0.0000000000000000E+00 
    1.8750000000026110E-01     5.6250000000112244E-01     0.0000000000000000E+00 
    1.8750000000033529E-01     6.2500000000080080E-01     0.0000000000000000E+00 
    1.8750000000040951E-01     6.8750000000047962E-01     0.0000000000000000E+00 
    1.8750000000048361E-01     7.5000000000015843E-01     0.0000000000000000E+00 
    1.8750000000055780E-01     8.1249999999983680E-01     0.0000000000000000E+00 
    1.8750000000063199E-01     8.7499999999953304E-01     0.0000000000000000E+00 
    1.8750000000070621E-01     9.3749999999975764E-01     0.0000000000000000E+00 
    2.4999999999951281E-01     6.2500000000163314E-02     0.0000000000000000E+00 
    2.4999999999961461E-01     1.2500000000033351E-01     0.0000000000000000E+00 
    2.4999999999971650E-01     1.8750000000048361E-01     0.0000000000000000E+00 
    2.4999999999981831E-01     2.5000000000063310E-01     0.0000000000000000E+00 
    2.4999999999992020E-01     3.1250000000078260E-01     0.0000000000000000E+00 
    2.5000000000002198E-01     3.7500000000093209E-01     0.0000000000000000E+00 
    2.5000000000012390E-01     4.3750000000108180E-01     0.0000000000000000E+00 
    2.5000000000022571E-01     5.0000000000121769E-01     0.0000000000000000E+00 
    2.5000000000032763E-01     5.6250000000094724E-01     0.0000000000000000E+00 
    2.5000000000042938E-01     6.2500000000066314E-01     0.0000000000000000E+00 
    2.5000000000053119E-01     6.8750000000037925E-01     0.0000000000000000E+00 
[...]
CELL_DATA 256 
SCALARS Pressure double 1 
LOOKUP_TABLE default 

    7.4301480939677644E-01 
    7.4117007249353517E-01 
    7.3948750007989983E-01 
    7.3793661085200912E-01 
    7.3650417562539539E-01 
    7.3518261113296501E-01 
    7.3397563020044843E-01 
    7.3288889388049006E-01 
    7.3192930986453231E-01 
    7.3109756091074196E-01 
    7.3039182039073181E-01 
    7.2981030898565735E-01 
    7.2935113161488740E-01 
    7.2901357262708022E-01 
    7.2879934484933495E-01 
    7.2868660142019392E-01 
    7.1814644364119629E-01 
    7.1807170853946412E-01 
    7.1793722340141874E-01 
    7.1775398512933219E-01 
    7.1753187425396636E-01 
    7.1728103578043578E-01 
    7.1701514870558269E-01 
    7.1674551524548691E-01 
    7.1648286283423579E-01 
    7.1623713934214950E-01 
    7.1601625454483642E-01 
    7.1582524980359707E-01 
    7.1566800541839393E-01 
    7.1554867783317644E-01 
    7.1547097889827926E-01 
    7.1542849719393065E-01 
    6.9670367252339827E-01 
    6.9670307666680087E-01 
    6.9669901117655741E-01 
    6.9668759590136464E-01 
    6.9666547697400616E-01 
    6.9663171150546366E-01 
    6.9658531738725815E-01 
    6.9652822818678228E-01 
    6.9646236318775767E-01 
    6.9638954047770307E-01 
    6.9631298311585998E-01 
    6.9623678574132852E-01 
    6.9616548921553312E-01 
    6.9610480707325828E-01 
    6.9605443422509561E-01 
    6.9601286199708190E-01 
    6.7112579381159854E-01 
    6.7115163556286428E-01 
    6.7120032486786063E-01 
    6.7126771481293912E-01 
    6.7134672983472843E-01 
    6.7142926728899832E-01 
    6.7150166211360063E-01 
    6.7155943840176424E-01 
    6.7159765143254702E-01 
    6.7161122319844979E-01 
    6.7160053920099205E-01 
    6.7157100650544244E-01 
    6.7153015295749541E-01 
    6.7148491889607576E-01 
    6.7142889506882641E-01 
    6.7136383015836532E-01 
    6.3875803428968381E-01 
    6.3881328476587007E-01 
    6.3891441736706056E-01 
    6.3905309570229740E-01 
    6.3921504292767328E-01 
    6.3937989110594873E-01 
    6.3953552276687964E-01 
    6.3967240447529605E-01 
    6.3978081128214392E-01 
    6.3985078554188268E-01 
    6.3987700175690354E-01 
    6.3986772532306369E-01 
    6.3983302956150578E-01 
    6.3977406785469981E-01 
    6.3968407860646748E-01 
    6.3959730889534328E-01 
    5.9886787459919566E-01 
    5.9894437239710596E-01 
    5.9907279193382035E-01 
    5.9923153836382870E-01 
    5.9939491831318104E-01 
    5.9952978923025280E-01 
    5.9962859011299685E-01 
    5.9968942580973905E-01 
    5.9971196740511623E-01 
    5.9969681044097967E-01 
    5.9965513404006132E-01 
    5.9959974852706543E-01 
    5.9954065484393315E-01 
    5.9946744413332920E-01 
    5.9939116994960995E-01 
    5.9939394526543421E-01 
    5.6280736049612679E-01 
    5.6273312869398306E-01 
    5.6258817273417605E-01 
    5.6237340973402672E-01 
    5.6208651675395516E-01 
    5.6175475365920446E-01 
    5.6144428771806587E-01 
    5.6116517534169852E-01 
    5.6092438605370321E-01 
    5.6072454004592576E-01 
    5.6059076640810390E-01 
    5.6051011896625702E-01 
    5.6045368822230623E-01 
    5.6039173913328899E-01 
    5.6034957785999540E-01 
    5.6035276232979625E-01 
    5.2196606507878218E-01 
    5.2188378087068765E-01 
    5.2174333496337000E-01 
    5.2157236225056647E-01 
    5.2140077292818876E-01 
    5.2126218051520745E-01 
    5.2119160146332588E-01 
    5.2119360002533144E-01 
    5.2127011767402553E-01 
    5.2139598249968533E-01 
    5.2153816117506735E-01 
    5.2166776868797160E-01 
    5.2175340217532318E-01 
    5.2179349492188787E-01 
    5.2180272976213282E-01 
    5.2176340884644679E-01 
    4.7694660586823800E-01 
    4.7687380601359564E-01 
    4.7677680416605583E-01 
    4.7670848463113130E-01 
    4.7672751270855651E-01 
    4.7686768176797273E-01 
    4.7711717261449349E-01 
    4.7745758381954678E-01 
    4.7787218851541574E-01 
    4.7829938761024937E-01 
    4.7865626610261336E-01 
    4.7892183075651162E-01 
    4.7908160404129663E-01 
    4.7914430054758922E-01 
    4.7909770901264476E-01 
    4.7890864266428124E-01 
    4.1750115922469055E-01 
    4.1754140103577081E-01 
    4.1761282189886828E-01 
    4.1770891867341658E-01 
    4.1782603831236165E-01 
    4.1796885368512970E-01 
    4.1811488151799581E-01 
    4.1823638321049045E-01 
    4.1829999370965509E-01 
    4.1825293706289357E-01 
    4.1807675770096958E-01 
    4.1782139412839098E-01 
    4.1757796584821116E-01 
    4.1736285771300247E-01 
    4.1716606441710241E-01 
    4.1699062022572753E-01 
    3.4335798646176924E-01 
    3.4332433171409338E-01 
    3.4323480467341200E-01 
    3.4305952580219257E-01 
    3.4276199191101075E-01 
    3.4229914636581299E-01 
    3.4175632650692228E-01 
    3.4115112142500698E-01 
    3.4047036511545842E-01 
    3.3966302521948033E-01 
    3.3889339867989970E-01 
    3.3832250286502225E-01 
    3.3795093762066053E-01 
    3.3773970818651888E-01 
    3.3767886073420184E-01 
    3.3776617562207256E-01 
    2.7311019240450091E-01 
    2.7304116733436296E-01 
    2.7289059889330697E-01 
    2.7264314906743770E-01 
    2.7228275760423631E-01 
    2.7179408682380607E-01 
    2.7119697706301016E-01 
    2.7051225548475816E-01 
    2.6975704690937768E-01 
    2.6897501988157879E-01 
    2.6834045094725967E-01 
    2.6789845718641886E-01 
    2.6760125638552051E-01 
    2.6743750276767525E-01 
    2.6740451891806422E-01 
    2.6750206361021311E-01 
    2.1071644902819950E-01 
    2.1065446630740658E-01 
    2.1052508333023820E-01 
    2.1032274010353280E-01 
    2.1004238039835887E-01 
    2.0967971822907053E-01 
    2.0925274110811062E-01 
    2.0878635329754416E-01 
    2.0832162577883220E-01 
    2.0791077653289947E-01 
    2.0759795383067023E-01 
    2.0736611986378040E-01 
    2.0719886170213872E-01 
    2.0709661963561507E-01 
    2.0706076120128139E-01 
    2.0709343448779818E-01 
    1.5180564983256836E-01 
    1.5176743374256974E-01 
    1.5169239077285188E-01 
    1.5158348761801393E-01 
    1.5144486036618737E-01 
    1.5128163086421612E-01 
    1.5110717054153491E-01 
    1.5093228552368407E-01 
    1.5076125940415222E-01 
    1.5059186112038700E-01 
    1.5042917730226965E-01 
    1.5027964647153125E-01 
    1.5015262790222775E-01 
    1.5005683972380909E-01 
    1.4999995422497628E-01 
    1.4998811481826319E-01 
    1.0103912501358399E-01 
    1.0090262916830975E-01 
    1.0063518717138098E-01 
    1.0024519776301913E-01 
    9.9743655061495878E-02 
    9.9143941306081881E-02 
    9.8453457250066961E-02 
    9.7682964336385777E-02 
    9.6846799727441008E-02 
    9.5963606427909409E-02 
    9.5056352237856731E-02 
    9.4161511532975931E-02 
    9.3321852346498507E-02 
    9.2587704015669098E-02 
    9.2018509084306838E-02 
    9.1684696306375227E-02 
    6.2243357393533469E-02 
    6.1791163495686759E-02 
    6.0897290358381956E-02 
    5.9569629899363402E-02 
    5.7812900983458704E-02 
    5.5616624299049580E-02 
    5.2939216434625611E-02 
    4.9734999344687454E-02 
    4.5953764249109519E-02 
    4.1567851896242076E-02 
    3.6538525516277516E-02 
    3.0820554525566299E-02 
    2.4361261225261187E-02 
    1.7099586925677913E-02 
    8.9650607047376835E-03 
    0.0000000000000000E+00 

SCALARS Saturarion double 1 
LOOKUP_TABLE default 

    1.0000000000006253E+00 
    9.8575847365702363E-01 
    9.6250451072559284E-01 
    9.3215666413640796E-01 
    9.0177650918251828E-01 
    8.7144421895803614E-01 
    8.4118510708996796E-01 
    8.1087539474801806E-01 
    7.8020300627551142E-01 
    7.4872640539514435E-01 
    7.1563159831687195E-01 
    6.7983237877896552E-01 
    6.3972391203879242E-01 
    5.9313965974617866E-01 
    5.3710184257357718E-01 
    3.2980374787859906E-01 
    9.4248425709492734E-01 
    9.3135929220451052E-01 
    9.0873353687795300E-01 
    8.8374186625143869E-01 
    8.5180178811633700E-01 
    8.2134753640556857E-01 
    7.9331435677622963E-01 
    7.6606792321403427E-01 
    7.3943543028390379E-01 
    7.1189688622207714E-01 
    6.8220546655601089E-01 
    6.5000103227042072E-01 
    6.1116799713058112E-01 
    5.6839168851406641E-01 
    5.1631820413416951E-01 
    2.5871586227443716E-01 
    8.5468657741727405E-01 
    8.3592872083560132E-01 
    8.0920123581763892E-01 
    7.7962737073175048E-01 
    7.5360228387364736E-01 
    7.3159357727266672E-01 
    7.1094643163997240E-01 
    6.9042198637445340E-01 
    6.7106524523772537E-01 
    6.5004454315293414E-01 
    6.2583769370330078E-01 
    5.9926784946428857E-01 
    5.6500768877442664E-01 
    5.3168505743381977E-01 
    4.7333777261939913E-01 
    1.2630615365024592E-01 
    7.8132026928501663E-01 
    7.6638795006974580E-01 
    7.3702922814396976E-01 
    7.0576745003708874E-01 
    6.8360510225770543E-01 
    6.6609597346341054E-01 
    6.4889235245371746E-01 
    6.3202741875581503E-01 
    6.1640803784524889E-01 
    5.9860148447997152E-01 
    5.7804308533414894E-01 
    5.5644216590466344E-01 
    5.3003450821263831E-01 
    5.0122254614558615E-01 
    3.8310088615385718E-01 
    2.6181459748600436E-02 
    7.2224608362971565E-01 
    7.1312332897151898E-01 
    6.8585300462843368E-01 
    6.5497087229557516E-01 
    6.3271424747417992E-01 
    6.1675486118503398E-01 
    6.0133849475621404E-01 
    5.8632515875793256E-01 
    5.7124094600574360E-01 
    5.5561054518894182E-01 
    5.3876417317796177E-01 
    5.2227373215388628E-01 
    5.0341702646708542E-01 
    4.5840236618740010E-01 
    1.9386628376139345E-01 
    4.0457884796619531E-04 
    6.7831477448475819E-01 
    6.7046908420905249E-01 
    6.4734019666518861E-01 
    6.1953884169699902E-01 
    5.9455550423342307E-01 
    5.7994251445796341E-01 
    5.6625675055189140E-01 
    5.5263149799532374E-01 
    5.3619417290943927E-01 
    5.2264863924418470E-01 
    5.0824825666611417E-01 
    4.9416133714007043E-01 
    4.7502734445559663E-01 
    3.6336840533423020E-01 
    4.1089246541977723E-02 
    1.4463578937917717E-05 
    6.4293070726480472E-01 
    6.3618400372783857E-01 
    6.2044632615123985E-01 
    6.0022433470955905E-01 
    5.7516415914015995E-01 
    5.5733031256919885E-01 
    5.4475891183376757E-01 
    5.3260514478531373E-01 
    5.1704180488541696E-01 
    5.0129172744967165E-01 
    4.8615796567311337E-01 
    4.6848965029874634E-01 
    4.3501078232504758E-01 
    1.9624240292775072E-01 
    3.5987420250295721E-04 
    1.0004985855968281E-06 
    6.0934160861208864E-01 
    6.0468291226651849E-01 
    5.9478426020761688E-01 
    5.8293544163460898E-01 
    5.6222191389037202E-01 
    5.3929314482082524E-01 
    5.2614227018759530E-01 
    5.1465685563726826E-01 
    5.0015420187949033E-01 
    4.8181153622518041E-01 
    4.6361467600192369E-01 
    4.2809975468366374E-01 
    3.0176709978362509E-01 
    2.7044034901834636E-02 
    9.7555950453338266E-07 
    1.0000000005566675E-06 
    5.7779248907700342E-01 
    5.7463092614367761E-01 
    5.6746637943692613E-01 
    5.5889694214346686E-01 
    5.4088039846740210E-01 
    5.1621452780779908E-01 
    5.0251082015241955E-01 
    4.9121944672437773E-01 
    4.7031462565536675E-01 
    4.4822437206069682E-01 
    3.9632662025610965E-01 
    2.5978266747570311E-01 
    2.8895282407170000E-02 
    6.0998318069812365E-05 
    9.9999999279985208E-07 
    9.9999999999999932E-07 
    5.4872251105048886E-01 
    5.4672486571529566E-01 
    5.4166124440373875E-01 
    5.3490255028326472E-01 
    5.2070260647461164E-01 
    4.9692472954187245E-01 
    4.8066380008114318E-01 
    4.5982304060870510E-01 
    4.2419090508288676E-01 
    3.8925467465608188E-01 
    2.6135688217812325E-01 
    3.6067878002406940E-02 
    8.9291662991364672E-05 
    1.0010228962088032E-06 
    1.0000000000269667E-06 
    9.9999999999999995E-07 
    5.1831105662469423E-01 
    5.1714074850933534E-01 
    5.1402714271194760E-01 
    5.0932584891906718E-01 
    5.0317479905247264E-01 
    4.8876868932624001E-01 
    4.7121778286175370E-01 
    4.5106389153113741E-01 
    4.1863905077878572E-01 
    3.2941099462306639E-01 
    6.1652909412509192E-02 
    1.8632807765497087E-04 
    1.0079578805478586E-06 
    1.0000000007353897E-06 
    9.9999999999999995E-07 
    9.9999999999999995E-07 
    4.6833844198876889E-01 
    4.6706767940575106E-01 
    4.6423054341603931E-01 
    4.5993886631747266E-01 
    4.5485152770798365E-01 
    4.4802647744252966E-01 
    4.3563285852956313E-01 
    4.1478831511462044E-01 
    3.6226847332758760E-01 
    1.8237810638293625E-01 
    2.3492240513109004E-03 
    1.0952696919372483E-06 
    1.0000000053577474E-06 
    1.0000000000000010E-06 
    9.9999999999999995E-07 
    9.9999999999999995E-07 
    2.8850468107489219E-01 
    2.8189832556393313E-01 
    2.7125013844211604E-01 
    2.5706796785514835E-01 
    2.4453926079252472E-01 
    2.3414864093972285E-01 
    2.0912414761041498E-01 
    1.5400534334718846E-01 
    6.8589211285618235E-02 
    3.8987595690907952E-03 
    1.5893271161042489E-06 
    1.0000000436089017E-06 
    1.0000000000000055E-06 
    9.9999999999999995E-07 
    9.9999999999999995E-07 
    9.9999999999999995E-07 
    4.5198555974288665E-03 
    3.6882870761203914E-03 
    2.5815960009503303E-03 
    1.5792679192364780E-03 
    9.6691696534235744E-04 
    6.3333373710461164E-04 
    2.6691726656666022E-04 
    8.8577728855522691E-05 
    1.1694281135549175E-04 
    1.3833544254121733E-06 
    1.0000000797711959E-06 
    1.0000000000000216E-06 
    9.9999999999999995E-07 
    9.9999999999999995E-07 
    9.9999999999999995E-07 
    9.9999999999999995E-07 
    1.0000000018840761E-06 
    1.0016447614166463E-06 
    1.0044228274470405E-06 
    1.0041305444423811E-06 
    1.0008208370595497E-06 
    1.0007535448233474E-06 
    1.0012770900534537E-06 
    1.0016283647949102E-06 
    1.0009942129709069E-06 
    1.0000000546619316E-06 
    1.0000000000000268E-06 
    9.9999999999999995E-07 
    9.9999999999999995E-07 
    9.9999999999999995E-07 
    9.9999999999999995E-07 
    9.9999999999999995E-07 
    1.0000000000000004E-06 
    1.0000000000960836E-06 
    1.0000000002336553E-06 
    1.0000000004774104E-06 
    1.0000000000844955E-06 
    1.0000000000864443E-06 
    1.0000000003072912E-06 
    1.0000000003538120E-06 
    1.0000000001079333E-06 
    1.0000000000000059E-06 
    9.9999999999999995E-07 
    9.9999999999999995E-07 
    9.9999999999999995E-07 
    9.9999999999999995E-07 
    9.9999999999999995E-07 
    1.0000004659007654E-06 
