# vtk DataFile Version 2.0
Pressure Field Data 
ASCII 
DATASET UNSTRUCTURED_GRID 

POINTS 289 double 

    0.0000000000000000E+00     0.0000000000000000E+00     0.0000000000000000E+00 
    1.0000000000000000E+00     0.0000000000000000E+00     0.0000000000000000E+00 
    1.0000000000000000E+00     1.0000000000000000E+00     0.0000000000000000E+00 
    0.0000000000000000E+00     1.0000000000000000E+00     0.0000000000000000E+00 
    6.2499999999872928E-02     0.0000000000000000E+00     0.0000000000000000E+00 
    1.2499999999977310E-01     0.0000000000000000E+00     0.0000000000000000E+00 
    1.8749999999959341E-01     0.0000000000000000E+00     0.0000000000000000E+00 
    2.4999999999941089E-01     0.0000000000000000E+00     0.0000000000000000E+00 
    3.1249999999922851E-01     0.0000000000000000E+00     0.0000000000000000E+00 
    3.7499999999904610E-01     0.0000000000000000E+00     0.0000000000000000E+00 
    4.3749999999886358E-01     0.0000000000000000E+00     0.0000000000000000E+00 
    4.9999999999869210E-01     0.0000000000000000E+00     0.0000000000000000E+00 
    5.6249999999884603E-01     0.0000000000000000E+00     0.0000000000000000E+00 
    6.2499999999901090E-01     0.0000000000000000E+00     0.0000000000000000E+00 
    6.8749999999917577E-01     0.0000000000000000E+00     0.0000000000000000E+00 
    7.4999999999934064E-01     0.0000000000000000E+00     0.0000000000000000E+00 
    8.1249999999950551E-01     0.0000000000000000E+00     0.0000000000000000E+00 
    8.7499999999967026E-01     0.0000000000000000E+00     0.0000000000000000E+00 
    9.3749999999983513E-01     0.0000000000000000E+00     0.0000000000000000E+00 
    1.0000000000000000E+00     6.2499999999872928E-02     0.0000000000000000E+00 
    1.0000000000000000E+00     1.2499999999977310E-01     0.0000000000000000E+00 
    1.0000000000000000E+00     1.8749999999959341E-01     0.0000000000000000E+00 
    1.0000000000000000E+00     2.4999999999941089E-01     0.0000000000000000E+00 
    1.0000000000000000E+00     3.1249999999922851E-01     0.0000000000000000E+00 
    1.0000000000000000E+00     3.7499999999904610E-01     0.0000000000000000E+00 
    1.0000000000000000E+00     4.3749999999886358E-01     0.0000000000000000E+00 
    1.0000000000000000E+00     4.9999999999869210E-01     0.0000000000000000E+00 
    1.0000000000000000E+00     5.6249999999884603E-01     0.0000000000000000E+00 
    1.0000000000000000E+00     6.2499999999901090E-01     0.0000000000000000E+00 
    1.0000000000000000E+00     6.8749999999917577E-01     0.0000000000000000E+00 
    1.0000000000000000E+00     7.4999999999934064E-01     0.0000000000000000E+00 
    1.0000000000000000E+00     8.1249999999950551E-01     0.0000000000000000E+00 
    1.0000000000000000E+00     8.7499999999967026E-01     0.0000000000000000E+00 
    1.0000000000000000E+00     9.3749999999983513E-01     0.0000000000000000E+00 
    9.3749999999973976E-01     1.0000000000000000E+00     0.0000000000000000E+00 
    8.7499999999950118E-01     1.0000000000000000E+00     0.0000000000000000E+00 
    8.1249999999991318E-01     1.0000000000000000E+00     0.0000000000000000E+00 
    7.5000000000034706E-01     1.0000000000000000E+00     0.0000000000000000E+00 
    6.8750000000078049E-01     1.0000000000000000E+00     0.0000000000000000E+00 
    6.2500000000121403E-01     1.0000000000000000E+00     0.0000000000000000E+00 
    5.6250000000164757E-01     1.0000000000000000E+00     0.0000000000000000E+00 
    5.0000000000205946E-01     1.0000000000000000E+00     0.0000000000000000E+00 
    4.3750000000182099E-01     1.0000000000000000E+00     0.0000000000000000E+00 
    3.7500000000156092E-01     1.0000000000000000E+00     0.0000000000000000E+00 
    3.1250000000130068E-01     1.0000000000000000E+00     0.0000000000000000E+00 
    2.5000000000104050E-01     1.0000000000000000E+00     0.0000000000000000E+00 
    1.8750000000078040E-01     1.0000000000000000E+00     0.0000000000000000E+00 
    1.2500000000052031E-01     1.0000000000000000E+00     0.0000000000000000E+00 
    6.2500000000260125E-02     1.0000000000000000E+00     0.0000000000000000E+00 
    0.0000000000000000E+00     9.3749999999973976E-01     0.0000000000000000E+00 
    0.0000000000000000E+00     8.7499999999950118E-01     0.0000000000000000E+00 
    0.0000000000000000E+00     8.1249999999991318E-01     0.0000000000000000E+00 
    0.0000000000000000E+00     7.5000000000034706E-01     0.0000000000000000E+00 
    0.0000000000000000E+00     6.8750000000078049E-01     0.0000000000000000E+00 
    0.0000000000000000E+00     6.2500000000121403E-01     0.0000000000000000E+00 
    0.0000000000000000E+00     5.6250000000164757E-01     0.0000000000000000E+00 
    0.0000000000000000E+00     5.0000000000205946E-01     0.0000000000000000E+00 
    0.0000000000000000E+00     4.3750000000182099E-01     0.0000000000000000E+00 
    0.0000000000000000E+00     3.7500000000156092E-01     0.0000000000000000E+00 
    0.0000000000000000E+00     3.1250000000130068E-01     0.0000000000000000E+00 
    0.0000000000000000E+00     2.5000000000104050E-01     0.0000000000000000E+00 
    0.0000000000000000E+00     1.8750000000078040E-01     0.0000000000000000E+00 
    0.0000000000000000E+00     1.2500000000052031E-01     0.0000000000000000E+00 
    0.0000000000000000E+00     6.2500000000260125E-02     0.0000000000000000E+00 
    6.2499999999897131E-02     6.2500000000235922E-02     0.0000000000000000E+00 
    6.2499999999921327E-02     1.2500000000047351E-01     0.0000000000000000E+00 
    6.2499999999945530E-02     1.8750000000070621E-01     0.0000000000000000E+00 
    6.2499999999969733E-02     2.5000000000093858E-01     0.0000000000000000E+00 
    6.2499999999993928E-02     3.1250000000117117E-01     0.0000000000000000E+00 
    6.2500000000018124E-02     3.7500000000140382E-01     0.0000000000000000E+00 
    6.2500000000042327E-02     4.3750000000163619E-01     0.0000000000000000E+00 
    6.2500000000066530E-02     5.0000000000184897E-01     0.0000000000000000E+00 
    6.2500000000090733E-02     5.6250000000147260E-01     0.0000000000000000E+00 
    6.2500000000114922E-02     6.2500000000107636E-01     0.0000000000000000E+00 
    6.2500000000139125E-02     6.8750000000068034E-01     0.0000000000000000E+00 
    6.2500000000163328E-02     7.5000000000028411E-01     0.0000000000000000E+00 
    6.2500000000187531E-02     8.1249999999988787E-01     0.0000000000000000E+00 
    6.2500000000211720E-02     8.7499999999951172E-01     0.0000000000000000E+00 
    6.2500000000235922E-02     9.3749999999974565E-01     0.0000000000000000E+00 
    1.2499999999981980E-01     6.2500000000211733E-02     0.0000000000000000E+00 
    1.2499999999986650E-01     1.2500000000042691E-01     0.0000000000000000E+00 
    1.2499999999991319E-01     1.8750000000063199E-01     0.0000000000000000E+00 
    1.2499999999995989E-01     2.5000000000083678E-01     0.0000000000000000E+00 
    1.2500000000000661E-01     3.1250000000104172E-01     0.0000000000000000E+00 
    1.2500000000005329E-01     3.7500000000124661E-01     0.0000000000000000E+00 
    1.2500000000010000E-01     4.3750000000145117E-01     0.0000000000000000E+00 
    1.2500000000014669E-01     5.0000000000163858E-01     0.0000000000000000E+00 
    1.2500000000019340E-01     5.6250000000129741E-01     0.0000000000000000E+00 
    1.2500000000024011E-01     6.2500000000093847E-01     0.0000000000000000E+00 
    1.2500000000028680E-01     6.8750000000057998E-01     0.0000000000000000E+00 
    1.2500000000033351E-01     7.5000000000022127E-01     0.0000000000000000E+00 
    1.2500000000038020E-01     8.1249999999986211E-01     0.0000000000000000E+00 
    1.2500000000042691E-01     8.7499999999952238E-01     0.0000000000000000E+00 
    1.2500000000047359E-01     9.3749999999975164E-01     0.0000000000000000E+00 
    1.8749999999966760E-01     6.2500000000187531E-02     0.0000000000000000E+00 
    1.8749999999974179E-01     1.2500000000038020E-01     0.0000000000000000E+00 
    1.8749999999981601E-01     1.8750000000055780E-01     0.0000000000000000E+00 
    1.8749999999989009E-01     2.5000000000073502E-01     0.0000000000000000E+00 
    1.8749999999996431E-01     3.1250000000091221E-01     0.0000000000000000E+00 
    1.8750000000003850E-01     3.7500000000108941E-01     0.0000000000000000E+00 
    1.8750000000011269E-01     4.3750000000126649E-01     0.0000000000000000E+00 
    1.8750000000018691E-01     5.0000000000142808E-01     0.0000000000000000E+00 
    1.8750000000026110E-01     5.6250000000112244E-01     0.0000000000000000E+00 
    1.8750000000033529E-01     6.2500000000080080E-01     0.0000000000000000E+00 
    1.8750000000040951E-01     6.8750000000047962E-01     0.0000000000000000E+00 
    1.8750000000048361E-01     7.5000000000015843E-01     0.0000000000000000E+00 
    1.8750000000055780E-01     8.1249999999983680E-01     0.0000000000000000E+00 
    1.8750000000063199E-01     8.7499999999953304E-01     0.0000000000000000E+00 
    1.8750000000070621E-01     9.3749999999975764E-01     0.0000000000000000E+00 
    2.4999999999951281E-01     6.2500000000163314E-02     0.0000000000000000E+00 
    2.4999999999961461E-01     1.2500000000033351E-01     0.0000000000000000E+00 
    2.4999999999971650E-01     1.8750000000048361E-01     0.0000000000000000E+00 
    2.4999999999981831E-01     2.5000000000063310E-01     0.0000000000000000E+00 
    2.4999999999992020E-01     3.1250000000078260E-01     0.0000000000000000E+00 
    2.5000000000002198E-01     3.7500000000093209E-01     0.0000000000000000E+00 
    2.5000000000012390E-01     4.3750000000108180E-01     0.0000000000000000E+00 
    2.5000000000022571E-01     5.0000000000121769E-01     0.0000000000000000E+00 
    2.5000000000032763E-01     5.6250000000094724E-01     0.0000000000000000E+00 
    2.5000000000042938E-01     6.2500000000066314E-01     0.0000000000000000E+00 
    2.5000000000053119E-01     6.8750000000037925E-01     0.0000000000000000E+00 
[...]
CELL_DATA 256 
SCALARS Pressure double 1 
LOOKUP_TABLE default 

    8.7789275054585447E-01 
    8.7605115494303520E-01 
    8.7436297037870547E-01 
    8.7277138445124203E-01 
    8.7125454677344683E-01 
    8.6981647422357278E-01 
    8.6847177168902867E-01 
    8.6723314656489470E-01 
    8.6611323942586826E-01 
    8.6511591691167966E-01 
    8.6424755265088238E-01 
    8.6351586085262477E-01 
    8.6293128709049438E-01 
    8.6249169874897380E-01 
    8.6215341100516751E-01 
    8.6199158204091941E-01 
    8.4985141414481602E-01 
    8.4977389798070668E-01 
    8.4963076640129664E-01 
    8.4942773318042253E-01 
    8.4917117737943193E-01 
    8.4887248896832468E-01 
    8.4854832836676342E-01 
    8.4821325109726076E-01 
    8.4788070239704583E-01 
    8.4756291825198027E-01 
    8.4727268029217540E-01 
    8.4702014886605848E-01 
    8.4680817110609297E-01 
    8.4662060798716621E-01 
    8.4645383395632767E-01 
    8.4636821986050181E-01 
    8.2418600254954821E-01 
    8.2416527751183621E-01 
    8.2412303500989215E-01 
    8.2405757914859989E-01 
    8.2396995677737950E-01 
    8.2386627670407941E-01 
    8.2375218266476091E-01 
    8.2363323327954008E-01 
    8.2351423013524250E-01 
    8.2339893613858861E-01 
    8.2328906567652860E-01 
    8.2318427798525462E-01 
    8.2306752595767207E-01 
    8.2292148292133538E-01 
    8.2278593293002944E-01 
    8.2270807569815985E-01 
    7.9258748655568645E-01 
    7.9256992983679486E-01 
    7.9253960439518645E-01 
    7.9250443031924445E-01 
    7.9247348964420317E-01 
    7.9245324196472100E-01 
    7.9243947477202892E-01 
    7.9242933133930182E-01 
    7.9241852439049421E-01 
    7.9240017505493643E-01 
    7.9235942463377029E-01 
    7.9227622681444443E-01 
    7.9213216064724545E-01 
    7.9196455914421593E-01 
    7.9183141135712187E-01 
    7.9173281717913402E-01 
    7.5162994628885849E-01 
    7.5163181290774883E-01 
    7.5163790729265523E-01 
    7.5165580396180520E-01 
    7.5169298678306951E-01 
    7.5175027548262585E-01 
    7.5181515846215463E-01 
    7.5187427217983416E-01 
    7.5190876745581403E-01 
    7.5188837195253500E-01 
    7.5177155502687076E-01 
    7.5156174813945853E-01 
    7.5131623518608315E-01 
    7.5110571717296992E-01 
    7.5093377203922340E-01 
    7.5078877131157151E-01 
    6.9835388726669057E-01 
    6.9839523919545710E-01 
    6.9845815077711848E-01 
    6.9852366857759018E-01 
    6.9856393622064528E-01 
    6.9853107080803201E-01 
    6.9839197758386207E-01 
    6.9813534155042978E-01 
    6.9776517798974425E-01 
    6.9729274002687269E-01 
    6.9676767664626549E-01 
    6.9627960251797583E-01 
    6.9589809648403034E-01 
    6.9562550409851531E-01 
    6.9545060291781202E-01 
    6.9538160015753780E-01 
    6.4027589232550863E-01 
    6.4012293771816420E-01 
    6.3981686052323439E-01 
    6.3935480201157979E-01 
    6.3872313169388784E-01 
    6.3793248978458095E-01 
    6.3707817699287184E-01 
    6.3621978203737017E-01 
    6.3540597721957137E-01 
    6.3468106076477193E-01 
    6.3411439296183292E-01 
    6.3370844466263254E-01 
    6.3342775922844763E-01 
    6.3324730945878405E-01 
    6.3315824395345643E-01 
    6.3315289298228050E-01 
    5.7297308666402269E-01 
    5.7280090924179483E-01 
    5.7248541561593602E-01 
    5.7206409925497581E-01 
    5.7158967893610224E-01 
    5.7113279963147212E-01 
    5.7076911385409212E-01 
    5.7052548547275705E-01 
    5.7039651595710439E-01 
    5.7033942982721064E-01 
    5.7031593042385675E-01 
    5.7031570113780816E-01 
    5.7033168642793930E-01 
    5.7035543215705853E-01 
    5.7037704828591318E-01 
    5.7038546028095916E-01 
    5.0604357077143047E-01 
    5.0598830996777766E-01 
    5.0592966496584135E-01 
    5.0592081347447615E-01 
    5.0601054589291838E-01 
    5.0620243937158660E-01 
    5.0646806661747912E-01 
    5.0679318155939934E-01 
    5.0716694728302514E-01 
    5.0753888094727362E-01 
    5.0784522633233231E-01 
    5.0808580661296132E-01 
    5.0825627354992264E-01 
    5.0834754913074198E-01 
    5.0834548038356764E-01 
    5.0823066480704449E-01 
    4.3434882206071307E-01 
    4.3440228575050238E-01 
    4.3449656553147137E-01 
    4.3461999736115314E-01 
    4.3476048822828622E-01 
    4.3490832663010709E-01 
    4.3504059089336128E-01 
    4.3513993736650475E-01 
    4.3518844721243594E-01 
    4.3516911320274487E-01 
    4.3509872764594953E-01 
    4.3499414372546513E-01 
    4.3486891726540711E-01 
    4.3473426881069560E-01 
    4.3459944564518205E-01 
    4.3447218271608090E-01 
    3.5017823569649820E-01 
    3.5017547072835031E-01 
    3.5015270655488007E-01 
    3.5008661325572960E-01 
    3.4994858486108937E-01 
    3.4970556756604143E-01 
    3.4942225350647266E-01 
    3.4911728500899003E-01 
    3.4880771947426070E-01 
    3.4851020518963449E-01 
    3.4828679700037224E-01 
    3.4813225267423220E-01 
    3.4804292619060895E-01 
    3.4801714301435310E-01 
    3.4805511188444993E-01 
    3.4815872508542961E-01 
    2.7288038956471627E-01 
    2.7288442082746739E-01 
    2.7288234188596466E-01 
    2.7286146854917326E-01 
    2.7280764913995259E-01 
    2.7270650626896259E-01 
    2.7257743853027588E-01 
    2.7243605189101777E-01 
    2.7229850752723578E-01 
    2.7218199672192445E-01 
    2.7211442112244377E-01 
    2.7209015188185603E-01 
    2.7210516664225931E-01 
    2.7215750692680357E-01 
    2.7224735080792140E-01 
    2.7237691255822499E-01 
    2.1027790457618473E-01 
    2.1027512348393432E-01 
    2.1026396199967531E-01 
    2.1023747900310877E-01 
    2.1018792836903638E-01 
    2.1010735402416905E-01 
    2.1000737862031918E-01 
    2.0989759894756790E-01 
    2.0978799788957889E-01 
    2.0968912289751748E-01 
    2.0961805728632282E-01 
    2.0957227436551942E-01 
    2.0955028851938079E-01 
    2.0955185102624302E-01 
    2.0957796823344266E-01 
    2.0963081071680323E-01 
    1.5426278780250124E-01 
    1.5422743094839581E-01 
    1.5415667213074777E-01 
    1.5405101392934475E-01 
    1.5391160470117540E-01 
    1.5374034639899739E-01 
    1.5354584902722046E-01 
    1.5333635475477739E-01 
    1.5312078314807573E-01 
    1.5290866108755755E-01 
    1.5271249489743627E-01 
    1.5253876177878253E-01 
    1.5239418425277892E-01 
    1.5228540207015070E-01 
    1.5221860765981191E-01 
    1.5219904530987030E-01 
    1.0236686266335286E-01 
    1.0222626224088674E-01 
    1.0195059675192408E-01 
    1.0154829450529480E-01 
    1.0103047909318238E-01 
    1.0041082690053578E-01 
    9.9697910804738582E-02 
    9.8903698155976424E-02 
    9.8043918792754453E-02 
    9.7138738904391148E-02 
    9.6212352417019767E-02 
    9.5301742313426405E-02 
    9.4450046466500223E-02 
    9.3707812966752513E-02 
    9.3134536162405523E-02 
    9.2800516289723078E-02 
    6.2652944173289607E-02 
    6.2196631667500391E-02 
    6.1292025015120245E-02 
    5.9944743569729605E-02 
    5.8157495349003399E-02 
    5.5920856455811206E-02 
    5.3196955266637910E-02 
    4.9943962498841810E-02 
    4.6115603870550706E-02 
    4.1685659907552117E-02 
    3.6617496938666463E-02 
    3.0867848394898950E-02 
    2.4385806917386180E-02 
    1.7111838108422584E-02 
    8.9767081940532040E-03 
    0.0000000000000000E+00 

SCALARS Saturarion double 1 
LOOKUP_TABLE default 

    1.0000000000039675E+00 
    9.7451382977840018E-01 
    9.3272707491354645E-01 
    8.8147584755446440E-01 
    8.3495841963764661E-01 
    7.9236436410184885E-01 
    7.5267599431878984E-01 
    7.1504259212696231E-01 
    6.7867350247954283E-01 
    6.4274944009831969E-01 
    6.0620314446302959E-01 
    5.6802777022442230E-01 
    5.2913160174243523E-01 
    4.8270499923364452E-01 
    2.7977711259633231E-01 
    7.5353345128130141E-04 
    9.1652596212664328E-01 
    8.9968368809648769E-01 
    8.6337993677880276E-01 
    8.1992944102122134E-01 
    7.7206784819892582E-01 
    7.3379872666687374E-01 
    6.9963012823703563E-01 
    6.6746862008977370E-01 
    6.3639344413786136E-01 
    6.0503158632420140E-01 
    5.7311895178548067E-01 
    5.4117016006391838E-01 
    5.0588431713607873E-01 
    4.1740157232552649E-01 
    1.2578743245934554E-01 
    1.5207786438569722E-04 
    8.1071973895677107E-01 
    7.8547544282811155E-01 
    7.4276258665432049E-01 
    6.9709787175569471E-01 
    6.6313595104765954E-01 
    6.3791521867139878E-01 
    6.1502102403486747E-01 
    5.9270360762837526E-01 
    5.7013348873509939E-01 
    5.4618248680993109E-01 
    5.2194079048758646E-01 
    4.9635191371240256E-01 
    4.2642515912632051E-01 
    1.8086583031940931E-01 
    2.7584866760646956E-03 
    1.0773910159097743E-06 
    7.0562485687997989E-01 
    6.9480498773558497E-01 
    6.6341898047249293E-01 
    6.2722321854189400E-01 
    6.0093791874685398E-01 
    5.7939785036405200E-01 
    5.6146060720239377E-01 
    5.4396733342422365E-01 
    5.2570133044918665E-01 
    5.0488383462936426E-01 
    4.7928498599789116E-01 
    4.2965309360773923E-01 
    2.0798359253339629E-01 
    4.6918314996939915E-03 
    1.3487554683131027E-06 
    1.0000000708620307E-06 
    6.3258469103425830E-01 
    6.2253225790771727E-01 
    6.0247498337931005E-01 
    5.8056151606621120E-01 
    5.5844304207604456E-01 
    5.3879892172144683E-01 
    5.2217930025886583E-01 
    5.0463404218768937E-01 
    4.8338109185763989E-01 
    4.5571592879792883E-01 
    3.9878944572898101E-01 
    2.3403695253328494E-01 
    1.9839025380535971E-02 
    7.9396382154473211E-06 
    1.0000016510991383E-06 
    1.0000000000000057E-06 
    5.7198258425017767E-01 
    5.6458462282824384E-01 
    5.5057932115019126E-01 
    5.3484870311180532E-01 
    5.0616166875552404E-01 
    4.8569972089619179E-01 
    4.6431016521710788E-01 
    4.3905118523439296E-01 
    3.8699502372376771E-01 
    2.8406126326658715E-01 
    1.3639044436618480E-01 
    1.1592147749831536E-02 
    2.3515197239184872E-05 
    1.0000359462740360E-06 
    1.0000000000008663E-06 
    9.9999999999999995E-07 
    4.9339781303898017E-01 
    4.8849613849270712E-01 
    4.7674490932223273E-01 
    4.6105176076574222E-01 
    4.1651988030514819E-01 
    3.2264955540649232E-01 
    2.4040666904671112E-01 
    1.6948504260205552E-01 
    7.5445244875594356E-02 
    9.6698012830979466E-03 
    2.4347679457520108E-04 
    6.3595508254932119E-06 
    1.0000605176617449E-06 
    1.0000000000101324E-06 
    9.9999999999999995E-07 
    9.9999999999999995E-07 
    2.2605349509039691E-01 
    2.1214401804852845E-01 
    1.8881482497082164E-01 
    1.5798641982820094E-01 
    8.0586661911720578E-02 
    1.3311264253846315E-02 
    1.4082187572830641E-03 
    1.6722350541601864E-04 
    1.1426852086785723E-04 
    5.3475515600088311E-06 
    1.0238974705952109E-06 
    1.0000041145220589E-06 
    1.0000000000004787E-06 
    9.9999999999999995E-07 
    9.9999999999999995E-07 
    9.9999999999999995E-07 
    2.6101689044633449E-04 
    1.0940105547749402E-04 
    3.6397828492882999E-05 
    2.7522726171607307E-05 
    1.5201099220933976E-04 
    7.1677113415841406E-06 
    1.0609984841106548E-06 
    1.0045465829312817E-06 
    1.0031445217366487E-06 
    1.0000030006679192E-06 
    1.0000000000000855E-06 
    1.0000000000000063E-06 
    9.9999999999999995E-07 
    9.9999999999999995E-07 
    9.9999999999999995E-07 
    9.9999999999999995E-07 
    1.0000000025284848E-06 
    1.0000228381398098E-06 
    1.0000851322933648E-06 
    1.0001661359476624E-06 
    1.0018657019376323E-06 
    1.0000045672816936E-06 
    1.0000000167376965E-06 
    1.0000000000068757E-06 
    1.0000000001431847E-06 
    1.0000000000000014E-06 
    9.9999999999999995E-07 
    9.9999999999999995E-07 
    9.9999999999999995E-07 
    9.9999999999999995E-07 
    9.9999999999999995E-07 
    9.9999999999999995E-07 
    1.0000000000000006E-06 
    1.0000000000092866E-06 
    1.0000000000977770E-06 
    1.0000000001030701E-06 
    1.0000000002824732E-06 
    9.9999999999999953E-07 
    9.9999999999999932E-07 
    9.9999999999999995E-07 
    9.9999999999999995E-07 
    9.9999999999999995E-07 
    9.9999999999999995E-07 
    9.9999999999999995E-07 
    9.9999999999999995E-07 
    9.9999999999999995E-07 
    9.9999999999999995E-07 
    9.9999999999999995E-07 
    9.9999999999999995E-07 
    9.9999999999999995E-07 
    9.9999999999999974E-07 
    9.9999999999999974E-07 
    9.9999999999999995E-07 
    9.9999999999999995E-07 
    9.9999999999999995E-07 
    9.9999999999999995E-07 
    9.9999999999999995E-07 
    9.9999999999999995E-07 
    9.9999999999999995E-07 
    9.9999999999999995E-07 
    9.9999999999999995E-07 
    9.9999999999999995E-07 
    9.9999999999999995E-07 
    9.9999999999999995E-07 
    9.9999999999999995E-07 
    9.9999999999999995E-07 
    9.9999999999999995E-07 
    9.9999999999999995E-07 
    9.9999999999999995E-07 
    9.9999999999999995E-07 
    9.9999999999999995E-07 
    9.9999999999999995E-07 
    9.9999999999999995E-07 
    9.9999999999999995E-07 
    9.9999999999999995E-07 
    9.9999999999999995E-07 
    9.9999999999999995E-07 
    9.9999999999999995E-07 
    9.9999999999999995E-07 
    9.9999999999999995E-07 
    9.9999999999999995E-07 
    9.9999999999999995E-07 
    9.9999999999999995E-07 
    9.9999999999999995E-07 
    9.9999999999999995E-07 
    9.9999999999999995E-07 
    9.9999999999999995E-07 
    9.9999999999999995E-07 
    9.9999999999999995E-07 
    9.9999999999999995E-07 
    9.9999999999999995E-07 
    9.9999999999999995E-07 
    9.9999999999999995E-07 
    9.9999999999999995E-07 
    9.9999999999999995E-07 
    9.9999999999999995E-07 
    9.9999999999999995E-07 
    9.9999999999999995E-07 
    9.9999999999999995E-07 
    9.9999999999999995E-07 
    9.9999999999999995E-07 
    9.9999999999999995E-07 
    9.9999999999999995E-07 
    9.9999999999999995E-07 
    9.9999999999999995E-07 
    9.9999999999999995E-07 
    9.9999999999999995E-07 
    9.9999999999999995E-07 
    9.9999999999999995E-07 
    9.9999999999999995E-07 
    9.9999999999999995E-07 
    9.9999999999999995E-07 
    9.9999999999999995E-07 
    9.9999999999999995E-07 
    9.9999999999999995E-07 
    9.9999999999999995E-07 
    9.9999999999999995E-07 
    9.9999999999999995E-07 
    9.9999999999999995E-07 
    9.9999999999999995E-07 
    9.9999999999999995E-07 
    9.9999999999999995E-07 
    9.9999999999999995E-07 
    9.9999999999999995E-07 
    9.9999999999999995E-07 
    9.9999999999999995E-07 
    9.9999999999999995E-07 
    1.0000002447514804E-06 
