# vtk DataFile Version 2.0
Pressure Field Data 
ASCII 
DATASET UNSTRUCTURED_GRID 

POINTS 289 double 

    0.0000000000000000E+00     0.0000000000000000E+00     0.0000000000000000E+00 
    1.0000000000000000E+00     0.0000000000000000E+00     0.0000000000000000E+00 
    1.0000000000000000E+00     1.0000000000000000E+00     0.0000000000000000E+00 
    0.0000000000000000E+00     1.0000000000000000E+00     0.0000000000000000E+00 
    6.2499999999872928E-02     0.0000000000000000E+00     0.0000000000000000E+00 
    1.2499999999977310E-01     0.0000000000000000E+00     0.0000000000000000E+00 
    1.8749999999959341E-01     0.0000000000000000E+00     0.0000000000000000E+00 
    2.4999999999941089E-01     0.0000000000000000E+00     0.0000000000000000E+00 
    3.1249999999922851E-01     0.0000000000000000E+00     0.0000000000000000E+00 
    3.7499999999904610E-01     0.0000000000000000E+00     0.0000000000000000E+00 
    4.3749999999886358E-01     0.0000000000000000E+00     0.0000000000000000E+00 
    4.9999999999869210E-01     0.0000000000000000E+00     0.0000000000000000E+00 
    5.6249999999884603E-01     0.0000000000000000E+00     0.0000000000000000E+00 
    6.2499999999901090E-01     0.0000000000000000E+00     0.0000000000000000E+00 
    6.8749999999917577E-01     0.0000000000000000E+00     0.0000000000000000E+00 
    7.4999999999934064E-01     0.0000000000000000E+00     0.0000000000000000E+00 
    8.1249999999950551E-01     0.0000000000000000E+00     0.0000000000000000E+00 
    8.7499999999967026E-01     0.0000000000000000E+00     0.0000000000000000E+00 
    9.3749999999983513E-01     0.0000000000000000E+00     0.0000000000000000E+00 
    1.0000000000000000E+00     6.2499999999872928E-02     0.0000000000000000E+00 
    1.0000000000000000E+00     1.2499999999977310E-01     0.0000000000000000E+00 
    1.0000000000000000E+00     1.8749999999959341E-01     0.0000000000000000E+00 
    1.0000000000000000E+00     2.4999999999941089E-01     0.0000000000000000E+00 
    1.0000000000000000E+00     3.1249999999922851E-01     0.0000000000000000E+00 
    1.0000000000000000E+00     3.7499999999904610E-01     0.0000000000000000E+00 
    1.0000000000000000E+00     4.3749999999886358E-01     0.0000000000000000E+00 
    1.0000000000000000E+00     4.9999999999869210E-01     0.0000000000000000E+00 
    1.0000000000000000E+00     5.6249999999884603E-01     0.0000000000000000E+00 
    1.0000000000000000E+00     6.2499999999901090E-01     0.0000000000000000E+00 
    1.0000000000000000E+00     6.8749999999917577E-01     0.0000000000000000E+00 
    1.0000000000000000E+00     7.4999999999934064E-01     0.0000000000000000E+00 
    1.0000000000000000E+00     8.1249999999950551E-01     0.0000000000000000E+00 
    1.0000000000000000E+00     8.7499999999967026E-01     0.0000000000000000E+00 
    1.0000000000000000E+00     9.3749999999983513E-01     0.0000000000000000E+00 
    9.3749999999973976E-01     1.0000000000000000E+00     0.0000000000000000E+00 
    8.7499999999950118E-01     1.0000000000000000E+00     0.0000000000000000E+00 
    8.1249999999991318E-01     1.0000000000000000E+00     0.0000000000000000E+00 
    7.5000000000034706E-01     1.0000000000000000E+00     0.0000000000000000E+00 
    6.8750000000078049E-01     1.0000000000000000E+00     0.0000000000000000E+00 
    6.2500000000121403E-01     1.0000000000000000E+00     0.0000000000000000E+00 
    5.6250000000164757E-01     1.0000000000000000E+00     0.0000000000000000E+00 
    5.0000000000205946E-01     1.0000000000000000E+00     0.0000000000000000E+00 
    4.3750000000182099E-01     1.0000000000000000E+00     0.0000000000000000E+00 
    3.7500000000156092E-01     1.0000000000000000E+00     0.0000000000000000E+00 
    3.1250000000130068E-01     1.0000000000000000E+00     0.0000000000000000E+00 
    2.5000000000104050E-01     1.0000000000000000E+00     0.0000000000000000E+00 
    1.8750000000078040E-01     1.0000000000000000E+00     0.0000000000000000E+00 
    1.2500000000052031E-01     1.0000000000000000E+00     0.0000000000000000E+00 
    6.2500000000260125E-02     1.0000000000000000E+00     0.0000000000000000E+00 
    0.0000000000000000E+00     9.3749999999973976E-01     0.0000000000000000E+00 
    0.0000000000000000E+00     8.7499999999950118E-01     0.0000000000000000E+00 
    0.0000000000000000E+00     8.1249999999991318E-01     0.0000000000000000E+00 
    0.0000000000000000E+00     7.5000000000034706E-01     0.0000000000000000E+00 
    0.0000000000000000E+00     6.8750000000078049E-01     0.0000000000000000E+00 
    0.0000000000000000E+00     6.2500000000121403E-01     0.0000000000000000E+00 
    0.0000000000000000E+00     5.6250000000164757E-01     0.0000000000000000E+00 
    0.0000000000000000E+00     5.0000000000205946E-01     0.0000000000000000E+00 
    0.0000000000000000E+00     4.3750000000182099E-01     0.0000000000000000E+00 
    0.0000000000000000E+00     3.7500000000156092E-01     0.0000000000000000E+00 
    0.0000000000000000E+00     3.1250000000130068E-01     0.0000000000000000E+00 
    0.0000000000000000E+00     2.5000000000104050E-01     0.0000000000000000E+00 
    0.0000000000000000E+00     1.8750000000078040E-01     0.0000000000000000E+00 
    0.0000000000000000E+00     1.2500000000052031E-01     0.0000000000000000E+00 
    0.0000000000000000E+00     6.2500000000260125E-02     0.0000000000000000E+00 
    6.2499999999897131E-02     6.2500000000235922E-02     0.0000000000000000E+00 
    6.2499999999921327E-02     1.2500000000047351E-01     0.0000000000000000E+00 
    6.2499999999945530E-02     1.8750000000070621E-01     0.0000000000000000E+00 
    6.2499999999969733E-02     2.5000000000093858E-01     0.0000000000000000E+00 
    6.2499999999993928E-02     3.1250000000117117E-01     0.0000000000000000E+00 
    6.2500000000018124E-02     3.7500000000140382E-01     0.0000000000000000E+00 
    6.2500000000042327E-02     4.3750000000163619E-01     0.0000000000000000E+00 
    6.2500000000066530E-02     5.0000000000184897E-01     0.0000000000000000E+00 
    6.2500000000090733E-02     5.6250000000147260E-01     0.0000000000000000E+00 
    6.2500000000114922E-02     6.2500000000107636E-01     0.0000000000000000E+00 
    6.2500000000139125E-02     6.8750000000068034E-01     0.0000000000000000E+00 
    6.2500000000163328E-02     7.5000000000028411E-01     0.0000000000000000E+00 
    6.2500000000187531E-02     8.1249999999988787E-01     0.0000000000000000E+00 
    6.2500000000211720E-02     8.7499999999951172E-01     0.0000000000000000E+00 
    6.2500000000235922E-02     9.3749999999974565E-01     0.0000000000000000E+00 
    1.2499999999981980E-01     6.2500000000211733E-02     0.0000000000000000E+00 
    1.2499999999986650E-01     1.2500000000042691E-01     0.0000000000000000E+00 
    1.2499999999991319E-01     1.8750000000063199E-01     0.0000000000000000E+00 
    1.2499999999995989E-01     2.5000000000083678E-01     0.0000000000000000E+00 
    1.2500000000000661E-01     3.1250000000104172E-01     0.0000000000000000E+00 
    1.2500000000005329E-01     3.7500000000124661E-01     0.0000000000000000E+00 
    1.2500000000010000E-01     4.3750000000145117E-01     0.0000000000000000E+00 
    1.2500000000014669E-01     5.0000000000163858E-01     0.0000000000000000E+00 
    1.2500000000019340E-01     5.6250000000129741E-01     0.0000000000000000E+00 
    1.2500000000024011E-01     6.2500000000093847E-01     0.0000000000000000E+00 
    1.2500000000028680E-01     6.8750000000057998E-01     0.0000000000000000E+00 
    1.2500000000033351E-01     7.5000000000022127E-01     0.0000000000000000E+00 
    1.2500000000038020E-01     8.1249999999986211E-01     0.0000000000000000E+00 
    1.2500000000042691E-01     8.7499999999952238E-01     0.0000000000000000E+00 
    1.2500000000047359E-01     9.3749999999975164E-01     0.0000000000000000E+00 
    1.8749999999966760E-01     6.2500000000187531E-02     0.0000000000000000E+00 
    1.8749999999974179E-01     1.2500000000038020E-01     0.0000000000000000E+00 
    1.8749999999981601E-01     1.8750000000055780E-01     0.0000000000000000E+00 
    1.8749999999989009E-01     2.5000000000073502E-01     0.0000000000000000E+00 
    1.8749999999996431E-01     3.1250000000091221E-01     0.0000000000000000E+00 
    1.8750000000003850E-01     3.7500000000108941E-01     0.0000000000000000E+00 
    1.8750000000011269E-01     4.3750000000126649E-01     0.0000000000000000E+00 
    1.8750000000018691E-01     5.0000000000142808E-01     0.0000000000000000E+00 
    1.8750000000026110E-01     5.6250000000112244E-01     0.0000000000000000E+00 
    1.8750000000033529E-01     6.2500000000080080E-01     0.0000000000000000E+00 
    1.8750000000040951E-01     6.8750000000047962E-01     0.0000000000000000E+00 
    1.8750000000048361E-01     7.5000000000015843E-01     0.0000000000000000E+00 
    1.8750000000055780E-01     8.1249999999983680E-01     0.0000000000000000E+00 
    1.8750000000063199E-01     8.7499999999953304E-01     0.0000000000000000E+00 
    1.8750000000070621E-01     9.3749999999975764E-01     0.0000000000000000E+00 
    2.4999999999951281E-01     6.2500000000163314E-02     0.0000000000000000E+00 
    2.4999999999961461E-01     1.2500000000033351E-01     0.0000000000000000E+00 
    2.4999999999971650E-01     1.8750000000048361E-01     0.0000000000000000E+00 
    2.4999999999981831E-01     2.5000000000063310E-01     0.0000000000000000E+00 
    2.4999999999992020E-01     3.1250000000078260E-01     0.0000000000000000E+00 
    2.5000000000002198E-01     3.7500000000093209E-01     0.0000000000000000E+00 
    2.5000000000012390E-01     4.3750000000108180E-01     0.0000000000000000E+00 
    2.5000000000022571E-01     5.0000000000121769E-01     0.0000000000000000E+00 
    2.5000000000032763E-01     5.6250000000094724E-01     0.0000000000000000E+00 
    2.5000000000042938E-01     6.2500000000066314E-01     0.0000000000000000E+00 
    2.5000000000053119E-01     6.8750000000037925E-01     0.0000000000000000E+00 
[...]
CELL_DATA 256 
SCALARS Pressure double 1 
LOOKUP_TABLE default 

    9.3872850105440375E-01 
    9.3686344651782183E-01 
    9.3511438422671589E-01 
    9.3340164320403796E-01 
    9.3171917065476328E-01 
    9.3009947998328657E-01 
    9.2857441571308141E-01 
    9.2716708846317086E-01 
    9.2589548047819448E-01 
    9.2476627281059776E-01 
    9.2378492748807384E-01 
    9.2293295248439289E-01 
    9.2213944259385394E-01 
    9.2145436170131167E-01 
    9.2100554651806055E-01 
    9.2079527695396390E-01 
    9.0483505419455168E-01 
    9.0473809784221171E-01 
    9.0455479365773028E-01 
    9.0428673534687354E-01 
    9.0394242352699672E-01 
    9.0354265940800838E-01 
    9.0311241754388838E-01 
    9.0267185372676417E-01 
    9.0223625829177856E-01 
    9.0181300290284472E-01 
    9.0139357804540310E-01 
    9.0095544755074231E-01 
    9.0050547736585596E-01 
    9.0013232410175759E-01 
    8.9988922508571434E-01 
    8.9976850737979752E-01 
    8.7110236145026831E-01 
    8.7105059197598578E-01 
    8.7094290449689449E-01 
    8.7077583523041091E-01 
    8.7055663421228102E-01 
    8.7029753797256382E-01 
    8.7000176818662567E-01 
    8.6966581349402605E-01 
    8.6927882449845939E-01 
    8.6883262236402559E-01 
    8.6832436507981992E-01 
    8.6779219026770182E-01 
    8.6733042387606163E-01 
    8.6699482839393993E-01 
    8.6677771958869365E-01 
    8.6666817726646661E-01 
    8.2881798536942841E-01 
    8.2872482078101906E-01 
    8.2853282665185835E-01 
    8.2824213928189505E-01 
    8.2786339273145171E-01 
    8.2740789920908953E-01 
    8.2687721006317649E-01 
    8.2627652554200659E-01 
    8.2561139025228414E-01 
    8.2491638272639634E-01 
    8.2425583138959291E-01 
    8.2369603297267480E-01 
    8.2326189206971312E-01 
    8.2293843488534890E-01 
    8.2271640118728562E-01 
    8.2259732799578988E-01 
    7.7095168049957252E-01 
    7.7084979337361503E-01 
    7.7064389755259821E-01 
    7.7034051576314577E-01 
    7.6995473667125114E-01 
    7.6951065426359899E-01 
    7.6903984378309687E-01 
    7.6857568457851799E-01 
    7.6815170551651724E-01 
    7.6779416376937348E-01 
    7.6749415558752798E-01 
    7.6723453262562336E-01 
    7.6700675845446054E-01 
    7.6681474035367425E-01 
    7.6666333869087999E-01 
    7.6655695351250019E-01 
    6.9939530125199711E-01 
    6.9945539687735891E-01 
    6.9955700947229693E-01 
    6.9968798605680049E-01 
    6.9983196441034046E-01 
    6.9996194692388392E-01 
    7.0006833802358748E-01 
    7.0013903177956938E-01 
    7.0016690036374640E-01 
    7.0015399908308862E-01 
    7.0011236256500964E-01 
    7.0005507879694384E-01 
    6.9999444928154864E-01 
    6.9994254434499459E-01 
    6.9991131435385145E-01 
    6.9991266317460077E-01 
    6.3498909879913923E-01 
    6.3494533180855661E-01 
    6.3485658360784858E-01 
    6.3471763552639160E-01 
    6.3452049259316390E-01 
    6.3428776252215791E-01 
    6.3407156808073806E-01 
    6.3387609462561012E-01 
    6.3370424200605990E-01 
    6.3355901707965812E-01 
    6.3346409867701770E-01 
    6.3341016039137266E-01 
    6.3338899749845257E-01 
    6.3339321107955548E-01 
    6.3341604328655943E-01 
    6.3345120538109012E-01 
    5.7056410670335422E-01 
    5.7049628099451744E-01 
    5.7038300273790887E-01 
    5.7024821284061389E-01 
    5.7011666556615781E-01 
    5.7001271626589312E-01 
    5.6995974292975149E-01 
    5.6995836559691671E-01 
    5.7000816575637414E-01 
    5.7008851681201178E-01 
    5.7017775368684798E-01 
    5.7026887065834864E-01 
    5.7035428548987899E-01 
    5.7042524331679889E-01 
    5.7047192910265843E-01 
    5.7048371156343036E-01 
    5.0699113795292294E-01 
    5.0692433561664674E-01 
    5.0683601552469448E-01 
    5.0677445319029013E-01 
    5.0679069902607055E-01 
    5.0690156701293410E-01 
    5.0709049970094222E-01 
    5.0734370009058305E-01 
    5.0764814651333923E-01 
    5.0795534158552524E-01 
    5.0820810753852841E-01 
    5.0840517358843262E-01 
    5.0854162664643476E-01 
    5.0860838696410771E-01 
    5.0859189115376235E-01 
    5.0847394382146938E-01 
    4.3434752413110622E-01 
    4.3439446841629253E-01 
    4.3447901662174626E-01 
    4.3459309952270780E-01 
    4.3472869150028109E-01 
    4.3488005427558807E-01 
    4.3502188174628198E-01 
    4.3513435522955712E-01 
    4.3519746652588787E-01 
    4.3519225910605253E-01 
    4.3513520880942147E-01 
    4.3504265707877771E-01 
    4.3492766327700533E-01 
    4.3480094913227518E-01 
    4.3467123846191391E-01 
    4.3454569056587811E-01 
    3.5015298451976290E-01 
    3.5014912496939299E-01 
    3.5012535107011067E-01 
    3.5005955697696234E-01 
    3.4992435352174767E-01 
    3.4968783698949313E-01 
    3.4941402421339435E-01 
    3.4912062381929188E-01 
    3.4882369938016339E-01 
    3.4853887338536876E-01 
    3.4832762287758889E-01 
    3.4818407446800403E-01 
    3.4810395310898662E-01 
    3.4808495021402208E-01 
    3.4812663837499608E-01 
    3.4823027741180074E-01 
    2.7288306822294733E-01 
    2.7288651301263872E-01 
    2.7288390950532621E-01 
    2.7286323520032574E-01 
    2.7281099841296597E-01 
    2.7271346358454768E-01 
    2.7259017280541520E-01 
    2.7245625714532606E-01 
    2.7232739361890990E-01 
    2.7222028851869212E-01 
    2.7216165712594870E-01 
    2.7214542713411849E-01 
    2.7216712836357448E-01 
    2.7222434716508642E-01 
    2.7231680277560566E-01 
    2.7244625276720691E-01 
    2.1029145957063891E-01 
    2.1028837313424062E-01 
    2.1027697008390445E-01 
    2.1025068773524555E-01 
    2.1020216170918049E-01 
    2.1012381408248978E-01 
    2.1002735349706900E-01 
    2.0992210095675426E-01 
    2.0981775571776304E-01 
    2.0972457388978458E-01 
    2.0965891639474685E-01 
    2.0961799306548490E-01 
    2.0960005175176671E-01 
    2.0960457335027138E-01 
    2.0963229202651512E-01 
    2.0968510771776688E-01 
    1.5428363546326007E-01 
    1.5424827011743591E-01 
    1.5417759352150900E-01 
    1.5407221072546773E-01 
    1.5393337414539207E-01 
    1.5376308923373974E-01 
    1.5356996276114659E-01 
    1.5336214183018443E-01 
    1.5314844987921455E-01 
    1.5293831450737233E-01 
    1.5274400578739822E-01 
    1.5257192200927996E-01 
    1.5242870391734095E-01 
    1.5232090830111264E-01 
    1.5225464414479972E-01 
    1.5223507293369221E-01 
    1.0239505944361178E-01 
    1.0225473758019045E-01 
    1.0197944657707368E-01 
    1.0157743331349048E-01 
    1.0105964802253903E-01 
    1.0043960929148837E-01 
    9.9725826251561470E-02 
    9.8930370367336984E-02 
    9.8069068955168398E-02 
    9.7162175344087456E-02 
    9.6234113239034302E-02 
    9.5321962389766521E-02 
    9.4468960245651892E-02 
    9.3725756732803936E-02 
    9.3151949317742483E-02 
    9.2817941222639866E-02 
    6.2691402163290902E-02 
    6.2235720896932391E-02 
    6.1331702186770504E-02 
    5.9984280224905200E-02 
    5.8195469018446619E-02 
    5.5955804480335741E-02 
    5.3227879574853816E-02 
    4.9970330289318118E-02 
    4.6137349187239038E-02 
    4.1702667541897095E-02 
    3.6629923493312559E-02 
    3.0876126123593830E-02 
    2.4390650841954787E-02 
    1.7114253352664709E-02 
    8.9779964407172997E-03 
    0.0000000000000000E+00 

SCALARS Saturarion double 1 
LOOKUP_TABLE default 

    9.9999999930769046E-01 
    9.5943730311183828E-01 
    8.9220269715581957E-01 
    8.1904435725559455E-01 
    7.6008798690908241E-01 
    7.1046090153453567E-01 
    6.6703434485755231E-01 
    6.2758738624342703E-01 
    5.9025400434959252E-01 
    5.5454611232451401E-01 
    5.2114786230645527E-01 
    4.8587864412472193E-01 
    3.9574025223366149E-01 
    6.9971232629260735E-02 
    1.3627419546137790E-06 
    1.0000000888738310E-06 
    8.8626536435656811E-01 
    8.6218116407946199E-01 
    8.1150653386372373E-01 
    7.4863741954088392E-01 
    6.9430388646790087E-01 
    6.5320456971308505E-01 
    6.1779033238929737E-01 
    5.8498097537994997E-01 
    5.5287914364823143E-01 
    5.2104169742204576E-01 
    4.8324098119617936E-01 
    3.9757309472415092E-01 
    1.6001339156444955E-01 
    2.1505345350269489E-03 
    1.0440293985608417E-06 
    1.0000000010237756E-06 
    7.5744783941556437E-01 
    7.3290938110006676E-01 
    6.7588183013960901E-01 
    6.2288292273834300E-01 
    5.8938862186657703E-01 
    5.6308250670469751E-01 
    5.4075352033956636E-01 
    5.1763759965636458E-01 
    4.8879917937587580E-01 
    4.4466655229976521E-01 
    3.3429074400516989E-01 
    1.2028117291719105E-01 
    1.5756964929397896E-03 
    1.1547813410498076E-06 
    1.0000000264827525E-06 
    1.0000000000000012E-06 
    6.1381015072025236E-01 
    5.9737630159887356E-01 
    5.6834214060664945E-01 
    5.4045130917469353E-01 
    5.1099728174397607E-01 
    4.7912699067531089E-01 
    4.4168825812636758E-01 
    3.8719185313610860E-01 
    2.9113046424384076E-01 
    1.6303642646864558E-01 
    3.2237146443307170E-02 
    3.2840885557972776E-04 
    1.1168987964138086E-06 
    1.0000000969610329E-06 
    1.0000000000000152E-06 
    9.9999999999999995E-07 
    4.1293118775088666E-01 
    3.9249294991900302E-01 
    3.5382005443622827E-01 
    3.0052478979506075E-01 
    2.3295731653439683E-01 
    1.6576075793356748E-01 
    9.7662819462070227E-02 
    3.7232358321327347E-02 
    6.2588119036996867E-03 
    2.9228210906945989E-04 
    4.6074125090849971E-05 
    1.0279945674226364E-06 
    1.0000000489299972E-06 
    1.0000000000000283E-06 
    9.9999999999999995E-07 
    9.9999999999999995E-07 
    3.8197130298907173E-02 
    2.8491078045015793E-02 
    1.4621551723878176E-02 
    4.7780182465205342E-03 
    6.4932598082316408E-04 
    9.7867390886365773E-05 
    6.9667680052672902E-05 
    3.7326875779181754E-05 
    2.4831587618078755E-06 
    1.0194860095705977E-06 
    1.0002062236536075E-06 
    1.0000000015263849E-06 
    1.0000000000000148E-06 
    9.9999999999999995E-07 
    9.9999999999999995E-07 
    9.9999999999999995E-07 
    1.0000015120281902E-06 
    2.8474807299754255E-06 
    3.0494624752038721E-06 
    1.4025656190648351E-06 
    1.0103753472742897E-06 
    1.0028276856482012E-06 
    1.0016764239813895E-06 
    1.0001680757055036E-06 
    1.0000004769301197E-06 
    1.0000000001096628E-06 
    9.9999999999999953E-07 
    9.9999999999999995E-07 
    9.9999999999999995E-07 
    9.9999999999999995E-07 
    9.9999999999999995E-07 
    9.9999999999999995E-07 
    1.0000000000011750E-06 
    1.0000004239469770E-06 
    1.0000008645954704E-06 
    1.0000000977062296E-06 
    1.0000000016674345E-06 
    9.9999999999999974E-07 
    1.0000000000009603E-06 
    1.0000000000000002E-06 
    9.9999999999999995E-07 
    9.9999999999999995E-07 
    9.9999999999999995E-07 
    9.9999999999999995E-07 
    9.9999999999999995E-07 
    9.9999999999999995E-07 
    9.9999999999999995E-07 
    9.9999999999999995E-07 
    9.9999999999999995E-07 
    1.0000000000001130E-06 
    9.9999999999999911E-07 
    1.0000000000000004E-06 
    1.0000000000000002E-06 
    9.9999999999999995E-07 
    9.9999999999999995E-07 
    9.9999999999999995E-07 
    9.9999999999999995E-07 
    9.9999999999999995E-07 
    9.9999999999999995E-07 
    9.9999999999999995E-07 
    9.9999999999999995E-07 
    9.9999999999999995E-07 
    9.9999999999999995E-07 
    9.9999999999999995E-07 
    9.9999999999999995E-07 
    9.9999999999999995E-07 
    9.9999999999999995E-07 
    9.9999999999999995E-07 
    9.9999999999999995E-07 
    9.9999999999999995E-07 
    9.9999999999999995E-07 
    9.9999999999999995E-07 
    9.9999999999999995E-07 
    9.9999999999999995E-07 
    9.9999999999999995E-07 
    9.9999999999999995E-07 
    9.9999999999999995E-07 
    9.9999999999999995E-07 
    9.9999999999999995E-07 
    9.9999999999999995E-07 
    9.9999999999999995E-07 
    9.9999999999999995E-07 
    9.9999999999999995E-07 
    9.9999999999999995E-07 
    9.9999999999999995E-07 
    9.9999999999999995E-07 
    9.9999999999999995E-07 
    9.9999999999999995E-07 
    9.9999999999999995E-07 
    9.9999999999999995E-07 
    9.9999999999999995E-07 
    9.9999999999999995E-07 
    9.9999999999999995E-07 
    9.9999999999999995E-07 
    9.9999999999999995E-07 
    9.9999999999999995E-07 
    9.9999999999999995E-07 
    9.9999999999999995E-07 
    9.9999999999999995E-07 
    9.9999999999999995E-07 
    9.9999999999999995E-07 
    9.9999999999999995E-07 
    9.9999999999999995E-07 
    9.9999999999999995E-07 
    9.9999999999999995E-07 
    9.9999999999999995E-07 
    9.9999999999999995E-07 
    9.9999999999999995E-07 
    9.9999999999999995E-07 
    9.9999999999999995E-07 
    9.9999999999999995E-07 
    9.9999999999999995E-07 
    9.9999999999999995E-07 
    9.9999999999999995E-07 
    9.9999999999999995E-07 
    9.9999999999999995E-07 
    9.9999999999999995E-07 
    9.9999999999999995E-07 
    9.9999999999999995E-07 
    9.9999999999999995E-07 
    9.9999999999999995E-07 
    9.9999999999999995E-07 
    9.9999999999999995E-07 
    9.9999999999999995E-07 
    9.9999999999999995E-07 
    9.9999999999999995E-07 
    9.9999999999999995E-07 
    9.9999999999999995E-07 
    9.9999999999999995E-07 
    9.9999999999999995E-07 
    9.9999999999999995E-07 
    9.9999999999999995E-07 
    9.9999999999999995E-07 
    9.9999999999999995E-07 
    9.9999999999999995E-07 
    9.9999999999999995E-07 
    9.9999999999999995E-07 
    9.9999999999999995E-07 
    9.9999999999999995E-07 
    9.9999999999999995E-07 
    9.9999999999999995E-07 
    9.9999999999999995E-07 
    9.9999999999999995E-07 
    9.9999999999999995E-07 
    9.9999999999999995E-07 
    9.9999999999999995E-07 
    9.9999999999999995E-07 
    9.9999999999999995E-07 
    9.9999999999999995E-07 
    9.9999999999999995E-07 
    9.9999999999999995E-07 
    9.9999999999999995E-07 
    9.9999999999999995E-07 
    9.9999999999999995E-07 
    9.9999999999999995E-07 
    9.9999999999999995E-07 
    9.9999999999999995E-07 
    9.9999999999999995E-07 
    9.9999999999999995E-07 
    9.9999999999999995E-07 
    9.9999999999999995E-07 
    9.9999999999999995E-07 
    9.9999999999999995E-07 
    9.9999999999999995E-07 
    9.9999999999999995E-07 
    9.9999999999999995E-07 
    9.9999999999999995E-07 
    9.9999999999999995E-07 
    9.9999999999999995E-07 
    9.9999999999999995E-07 
    9.9999999999999995E-07 
    9.9999999999999995E-07 
    9.9999999999999995E-07 
    9.9999999999999995E-07 
    9.9999999999999995E-07 
    1.0000001430529467E-06 
