# vtk DataFile Version 2.0
Pressure Field Data 
ASCII 
DATASET UNSTRUCTURED_GRID 

POINTS 289 double 

    0.0000000000000000E+00     0.0000000000000000E+00     0.0000000000000000E+00 
    1.0000000000000000E+00     0.0000000000000000E+00     0.0000000000000000E+00 
    1.0000000000000000E+00     1.0000000000000000E+00     0.0000000000000000E+00 
    0.0000000000000000E+00     1.0000000000000000E+00     0.0000000000000000E+00 
    6.2499999999872928E-02     0.0000000000000000E+00     0.0000000000000000E+00 
    1.2499999999977310E-01     0.0000000000000000E+00     0.0000000000000000E+00 
    1.8749999999959341E-01     0.0000000000000000E+00     0.0000000000000000E+00 
    2.4999999999941089E-01     0.0000000000000000E+00     0.0000000000000000E+00 
    3.1249999999922851E-01     0.0000000000000000E+00     0.0000000000000000E+00 
    3.7499999999904610E-01     0.0000000000000000E+00     0.0000000000000000E+00 
    4.3749999999886358E-01     0.0000000000000000E+00     0.0000000000000000E+00 
    4.9999999999869210E-01     0.0000000000000000E+00     0.0000000000000000E+00 
    5.6249999999884603E-01     0.0000000000000000E+00     0.0000000000000000E+00 
    6.2499999999901090E-01     0.0000000000000000E+00     0.0000000000000000E+00 
    6.8749999999917577E-01     0.0000000000000000E+00     0.0000000000000000E+00 
    7.4999999999934064E-01     0.0000000000000000E+00     0.0000000000000000E+00 
    8.1249999999950551E-01     0.0000000000000000E+00     0.0000000000000000E+00 
    8.7499999999967026E-01     0.0000000000000000E+00     0.0000000000000000E+00 
    9.3749999999983513E-01     0.0000000000000000E+00     0.0000000000000000E+00 
    1.0000000000000000E+00     6.2499999999872928E-02     0.0000000000000000E+00 
    1.0000000000000000E+00     1.2499999999977310E-01     0.0000000000000000E+00 
    1.0000000000000000E+00     1.8749999999959341E-01     0.0000000000000000E+00 
    1.0000000000000000E+00     2.4999999999941089E-01     0.0000000000000000E+00 
    1.0000000000000000E+00     3.1249999999922851E-01     0.0000000000000000E+00 
    1.0000000000000000E+00     3.7499999999904610E-01     0.0000000000000000E+00 
    1.0000000000000000E+00     4.3749999999886358E-01     0.0000000000000000E+00 
    1.0000000000000000E+00     4.9999999999869210E-01     0.0000000000000000E+00 
    1.0000000000000000E+00     5.6249999999884603E-01     0.0000000000000000E+00 
    1.0000000000000000E+00     6.2499999999901090E-01     0.0000000000000000E+00 
    1.0000000000000000E+00     6.8749999999917577E-01     0.0000000000000000E+00 
    1.0000000000000000E+00     7.4999999999934064E-01     0.0000000000000000E+00 
    1.0000000000000000E+00     8.1249999999950551E-01     0.0000000000000000E+00 
    1.0000000000000000E+00     8.7499999999967026E-01     0.0000000000000000E+00 
    1.0000000000000000E+00     9.3749999999983513E-01     0.0000000000000000E+00 
    9.3749999999973976E-01     1.0000000000000000E+00     0.0000000000000000E+00 
    8.7499999999950118E-01     1.0000000000000000E+00     0.0000000000000000E+00 
    8.1249999999991318E-01     1.0000000000000000E+00     0.0000000000000000E+00 
    7.5000000000034706E-01     1.0000000000000000E+00     0.0000000000000000E+00 
    6.8750000000078049E-01     1.0000000000000000E+00     0.0000000000000000E+00 
    6.2500000000121403E-01     1.0000000000000000E+00     0.0000000000000000E+00 
    5.6250000000164757E-01     1.0000000000000000E+00     0.0000000000000000E+00 
    5.0000000000205946E-01     1.0000000000000000E+00     0.0000000000000000E+00 
    4.3750000000182099E-01     1.0000000000000000E+00     0.0000000000000000E+00 
    3.7500000000156092E-01     1.0000000000000000E+00     0.0000000000000000E+00 
    3.1250000000130068E-01     1.0000000000000000E+00     0.0000000000000000E+00 
    2.5000000000104050E-01     1.0000000000000000E+00     0.0000000000000000E+00 
    1.8750000000078040E-01     1.0000000000000000E+00     0.0000000000000000E+00 
    1.2500000000052031E-01     1.0000000000000000E+00     0.0000000000000000E+00 
    6.2500000000260125E-02     1.0000000000000000E+00     0.0000000000000000E+00 
    0.0000000000000000E+00     9.3749999999973976E-01     0.0000000000000000E+00 
    0.0000000000000000E+00     8.7499999999950118E-01     0.0000000000000000E+00 
    0.0000000000000000E+00     8.1249999999991318E-01     0.0000000000000000E+00 
    0.0000000000000000E+00     7.5000000000034706E-01     0.0000000000000000E+00 
    0.0000000000000000E+00     6.8750000000078049E-01     0.0000000000000000E+00 
    0.0000000000000000E+00     6.2500000000121403E-01     0.0000000000000000E+00 
    0.0000000000000000E+00     5.6250000000164757E-01     0.0000000000000000E+00 
    0.0000000000000000E+00     5.0000000000205946E-01     0.0000000000000000E+00 
    0.0000000000000000E+00     4.3750000000182099E-01     0.0000000000000000E+00 
    0.0000000000000000E+00     3.7500000000156092E-01     0.0000000000000000E+00 
    0.0000000000000000E+00     3.1250000000130068E-01     0.0000000000000000E+00 
    0.0000000000000000E+00     2.5000000000104050E-01     0.0000000000000000E+00 
    0.0000000000000000E+00     1.8750000000078040E-01     0.0000000000000000E+00 
    0.0000000000000000E+00     1.2500000000052031E-01     0.0000000000000000E+00 
    0.0000000000000000E+00     6.2500000000260125E-02     0.0000000000000000E+00 
    6.2499999999897131E-02     6.2500000000235922E-02     0.0000000000000000E+00 
    6.2499999999921327E-02     1.2500000000047351E-01     0.0000000000000000E+00 
    6.2499999999945530E-02     1.8750000000070621E-01     0.0000000000000000E+00 
    6.2499999999969733E-02     2.5000000000093858E-01     0.0000000000000000E+00 
    6.2499999999993928E-02     3.1250000000117117E-01     0.0000000000000000E+00 
    6.2500000000018124E-02     3.7500000000140382E-01     0.0000000000000000E+00 
    6.2500000000042327E-02     4.3750000000163619E-01     0.0000000000000000E+00 
    6.2500000000066530E-02     5.0000000000184897E-01     0.0000000000000000E+00 
    6.2500000000090733E-02     5.6250000000147260E-01     0.0000000000000000E+00 
    6.2500000000114922E-02     6.2500000000107636E-01     0.0000000000000000E+00 
    6.2500000000139125E-02     6.8750000000068034E-01     0.0000000000000000E+00 
    6.2500000000163328E-02     7.5000000000028411E-01     0.0000000000000000E+00 
    6.2500000000187531E-02     8.1249999999988787E-01     0.0000000000000000E+00 
    6.2500000000211720E-02     8.7499999999951172E-01     0.0000000000000000E+00 
    6.2500000000235922E-02     9.3749999999974565E-01     0.0000000000000000E+00 
    1.2499999999981980E-01     6.2500000000211733E-02     0.0000000000000000E+00 
    1.2499999999986650E-01     1.2500000000042691E-01     0.0000000000000000E+00 
    1.2499999999991319E-01     1.8750000000063199E-01     0.0000000000000000E+00 
    1.2499999999995989E-01     2.5000000000083678E-01     0.0000000000000000E+00 
    1.2500000000000661E-01     3.1250000000104172E-01     0.0000000000000000E+00 
    1.2500000000005329E-01     3.7500000000124661E-01     0.0000000000000000E+00 
    1.2500000000010000E-01     4.3750000000145117E-01     0.0000000000000000E+00 
    1.2500000000014669E-01     5.0000000000163858E-01     0.0000000000000000E+00 
    1.2500000000019340E-01     5.6250000000129741E-01     0.0000000000000000E+00 
    1.2500000000024011E-01     6.2500000000093847E-01     0.0000000000000000E+00 
    1.2500000000028680E-01     6.8750000000057998E-01     0.0000000000000000E+00 
    1.2500000000033351E-01     7.5000000000022127E-01     0.0000000000000000E+00 
    1.2500000000038020E-01     8.1249999999986211E-01     0.0000000000000000E+00 
    1.2500000000042691E-01     8.7499999999952238E-01     0.0000000000000000E+00 
    1.2500000000047359E-01     9.3749999999975164E-01     0.0000000000000000E+00 
    1.8749999999966760E-01     6.2500000000187531E-02     0.0000000000000000E+00 
    1.8749999999974179E-01     1.2500000000038020E-01     0.0000000000000000E+00 
    1.8749999999981601E-01     1.8750000000055780E-01     0.0000000000000000E+00 
    1.8749999999989009E-01     2.5000000000073502E-01     0.0000000000000000E+00 
    1.8749999999996431E-01     3.1250000000091221E-01     0.0000000000000000E+00 
    1.8750000000003850E-01     3.7500000000108941E-01     0.0000000000000000E+00 
    1.8750000000011269E-01     4.3750000000126649E-01     0.0000000000000000E+00 
    1.8750000000018691E-01     5.0000000000142808E-01     0.0000000000000000E+00 
    1.8750000000026110E-01     5.6250000000112244E-01     0.0000000000000000E+00 
    1.8750000000033529E-01     6.2500000000080080E-01     0.0000000000000000E+00 
    1.8750000000040951E-01     6.8750000000047962E-01     0.0000000000000000E+00 
    1.8750000000048361E-01     7.5000000000015843E-01     0.0000000000000000E+00 
    1.8750000000055780E-01     8.1249999999983680E-01     0.0000000000000000E+00 
    1.8750000000063199E-01     8.7499999999953304E-01     0.0000000000000000E+00 
    1.8750000000070621E-01     9.3749999999975764E-01     0.0000000000000000E+00 
    2.4999999999951281E-01     6.2500000000163314E-02     0.0000000000000000E+00 
    2.4999999999961461E-01     1.2500000000033351E-01     0.0000000000000000E+00 
    2.4999999999971650E-01     1.8750000000048361E-01     0.0000000000000000E+00 
    2.4999999999981831E-01     2.5000000000063310E-01     0.0000000000000000E+00 
    2.4999999999992020E-01     3.1250000000078260E-01     0.0000000000000000E+00 
    2.5000000000002198E-01     3.7500000000093209E-01     0.0000000000000000E+00 
    2.5000000000012390E-01     4.3750000000108180E-01     0.0000000000000000E+00 
    2.5000000000022571E-01     5.0000000000121769E-01     0.0000000000000000E+00 
    2.5000000000032763E-01     5.6250000000094724E-01     0.0000000000000000E+00 
    2.5000000000042938E-01     6.2500000000066314E-01     0.0000000000000000E+00 
    2.5000000000053119E-01     6.8750000000037925E-01     0.0000000000000000E+00 
[...]
CELL_DATA 256 
SCALARS Pressure double 1 
LOOKUP_TABLE default 

    9.6987706582276878E-01 
    9.6797886629522290E-01 
    9.6613257613630832E-01 
    9.6423262355612815E-01 
    9.6230690544301567E-01 
    9.6042480852194112E-01 
    9.5863718646759599E-01 
    9.5697599140814626E-01 
    9.5546353308216159E-01 
    9.5408133195875455E-01 
    9.5277410378980087E-01 
    9.5146048528486327E-01 
    9.5034490494619128E-01 
    9.4956473449740386E-01 
    9.4905115766789527E-01 
    9.4880308068877106E-01 
    9.3197357412439863E-01 
    9.3184573277449423E-01 
    9.3159556561209533E-01 
    9.3121948505544838E-01 
    9.3073082230974358E-01 
    9.3015485521125219E-01 
    9.2950955094265131E-01 
    9.2880085445997274E-01 
    9.2803577310288266E-01 
    9.2721974004380980E-01 
    9.2636651905464196E-01 
    9.2556358925901683E-01 
    9.2492608435211887E-01 
    9.2446157188535760E-01 
    9.2415097602395835E-01 
    9.2399536786642111E-01 
    8.9215342295782307E-01 
    8.9201862622865358E-01 
    8.9173420342575438E-01 
    8.9128494571999706E-01 
    8.9068661314425623E-01 
    8.8997208450725740E-01 
    8.8915818331196406E-01 
    8.8825850192697076E-01 
    8.8731173400425856E-01 
    8.8639456864864019E-01 
    8.8557556829271167E-01 
    8.8490845084734659E-01 
    8.8439381885501001E-01 
    8.8401045446306092E-01 
    8.8375714301153652E-01 
    8.8363416453199328E-01 
    8.3701385483962576E-01 
    8.3682081005769116E-01 
    8.3644199489825166E-01 
    8.3591090746182717E-01 
    8.3528798965952822E-01 
    8.3463166022644186E-01 
    8.3397673734084565E-01 
    8.3336135215660911E-01 
    8.3282208743261166E-01 
    8.3237373287062266E-01 
    8.3199484245159316E-01 
    8.3167025085685975E-01 
    8.3140032112494011E-01 
    8.3118904847600128E-01 
    8.3103961129048820E-01 
    8.3095438962670420E-01 
    7.6880232577811025E-01 
    7.6882758313237665E-01 
    7.6888423372744341E-01 
    7.6898043765558621E-01 
    7.6911589996821728E-01 
    7.6927884867693508E-01 
    7.6944449670461756E-01 
    7.6959414806900983E-01 
    7.6971742918179309E-01 
    7.6980850052763994E-01 
    7.6985395291132031E-01 
    7.6986253392985959E-01 
    7.6984203138779983E-01 
    7.6979917434120448E-01 
    7.6973955332843069E-01 
    7.6966758437943983E-01 
    7.0050324775935735E-01 
    7.0060408276189678E-01 
    7.0076937424859365E-01 
    7.0096255559058229E-01 
    7.0114709653425455E-01 
    7.0128812330932622E-01 
    7.0138492693791243E-01 
    7.0143979693262803E-01 
    7.0145577508862189E-01 
    7.0143777820697006E-01 
    7.0139624980139414E-01 
    7.0134241151370169E-01 
    7.0128715325629842E-01 
    7.0124152168311205E-01 
    7.0121681874921327E-01 
    7.0122466363137248E-01 
    6.3523277328082950E-01 
    6.3518743488463192E-01 
    6.3509554980253813E-01 
    6.3495183133430244E-01 
    6.3474747360904338E-01 
    6.3450497692070040E-01 
    6.3427783915712821E-01 
    6.3407089120912274E-01 
    6.3388776472764008E-01 
    6.3373278949433964E-01 
    6.3363072805943887E-01 
    6.3357235261845291E-01 
    6.3354955887436060E-01 
    6.3355505738547457E-01 
    6.3358220478276406E-01 
    6.3362482288058752E-01 
    5.7038111600953079E-01 
    5.7031279837537663E-01 
    5.7019825868844276E-01 
    5.7006113893381360E-01 
    5.6992590302716251E-01 
    5.6981725401485783E-01 
    5.6975898447792983E-01 
    5.6975207792637461E-01 
    5.6979652540487380E-01 
    5.6987231560865237E-01 
    5.6995838728793735E-01 
    5.7004775191722823E-01 
    5.7013284509261231E-01 
    5.7020491982586641E-01 
    5.7025415269715984E-01 
    5.7026988137330947E-01 
    5.0679475992894862E-01 
    5.0672666699032376E-01 
    5.0663609688738531E-01 
    5.0657164435242230E-01 
    5.0658472640312047E-01 
    5.0669272696178069E-01 
    5.0687919834586870E-01 
    5.0713059853218845E-01 
    5.0743423127330067E-01 
    5.0774161613181268E-01 
    5.0799508113335778E-01 
    5.0819330392755135E-01 
    5.0833126001425621E-01 
    5.0839968727903773E-01 
    5.0838475646450554E-01 
    5.0826790835759772E-01 
    4.3426396778673165E-01 
    4.3431153763274405E-01 
    4.3439706339821871E-01 
    4.3451218583316104E-01 
    4.3464853801310543E-01 
    4.3480000611854469E-01 
    4.3494147214172563E-01 
    4.3505326893785906E-01 
    4.3511548419128432E-01 
    4.3510925060671701E-01 
    4.3505108446379726E-01 
    4.3495739957832685E-01 
    4.3484132951994525E-01 
    4.3471367748041473E-01 
    4.3458326368763434E-01 
    4.3445736721088951E-01 
    3.5014343356119315E-01 
    3.5013994351797190E-01 
    3.5011683134241356E-01 
    3.5005191788461881E-01 
    3.4991774044738394E-01 
    3.4968231914934833E-01 
    3.4940948767415275E-01 
    3.4911689226419301E-01 
    3.4882053921086192E-01 
    3.4853600043500238E-01 
    3.4832465216984604E-01 
    3.4818071025125585E-01 
    3.4809999338997255E-01 
    3.4808029333039053E-01 
    3.4812129177080497E-01 
    3.4822436819500785E-01 
    2.7289933965606877E-01 
    2.7290304720670094E-01 
    2.7290092726775766E-01 
    2.7288091655331170E-01 
    2.7282947877445085E-01 
    2.7273282517573288E-01 
    2.7261035634658065E-01 
    2.7247713951807984E-01 
    2.7234878171115212E-01 
    2.7224191457591052E-01 
    2.7218327156454231E-01 
    2.7216684085004950E-01 
    2.7218821681394206E-01 
    2.7224505541106525E-01 
    2.7233715160638522E-01 
    2.7246634570392236E-01 
    2.1030910419298340E-01 
    2.1030617882404343E-01 
    2.1029507295747474E-01 
    2.1026919935276650E-01 
    2.1022116648434569E-01 
    2.1014336385863194E-01 
    2.1004741640615071E-01 
    2.0994260758259753E-01 
    2.0983859557300741E-01 
    2.0974559341234927E-01 
    2.0967997573063246E-01 
    2.0963898824995433E-01 
    2.0962091696318100E-01 
    2.0962528379003362E-01 
    2.0965286740851027E-01 
    2.0970561624936782E-01 
    1.5429674915694683E-01 
    1.5426144190843513E-01 
    1.5419087211896149E-01 
    1.5408563507047218E-01 
    1.5394697225689291E-01 
    1.5377687633602224E-01 
    1.5358392789307423E-01 
    1.5337626262032850E-01 
    1.5316269148925488E-01 
    1.5295262935043932E-01 
    1.5275835154741563E-01 
    1.5258626616784751E-01 
    1.5244302463233306E-01 
    1.5233519558259562E-01 
    1.5226890117662689E-01 
    1.5224931750369661E-01 
    1.0240272434020310E-01 
    1.0226235185241687E-01 
    1.0198696706164120E-01 
    1.0158482317485705E-01 
    1.0106687674241449E-01 
    1.0044665357116803E-01 
    9.9732693762467697E-02 
    9.8937083589799468E-02 
    9.8075666710003631E-02 
    9.7168713533572537E-02 
    9.6240644359705765E-02 
    9.5328522675469735E-02 
    9.4475569850474034E-02 
    9.3732419440802628E-02 
    9.3158651808338308E-02 
    9.2824651944498529E-02 
    6.2694135753597363E-02 
    6.2238283174029262E-02 
    6.1333959526013178E-02 
    5.9986138375917784E-02 
    5.8196879595685112E-02 
    5.5956723601847239E-02 
    5.3228319579629306E-02 
    4.9970362104428206E-02 
    4.6137102966304827E-02 
    4.1702286412654152E-02 
    3.6629519933510726E-02 
    3.0875781201341126E-02 
    2.4390412645292001E-02 
    1.7114134490054545E-02 
    8.9779706508145585E-03 
    0.0000000000000000E+00 

SCALARS Saturarion double 1 
LOOKUP_TABLE default 

    9.9999884780711856E-01 
    9.4191349177026051E-01 
    8.4528628676755913E-01 
    7.5601946206287274E-01 
    6.9244194730718323E-01 
    6.4276279040175965E-01 
    6.0051019441047315E-01 
    5.6247190863844054E-01 
    5.2834598032688274E-01 
    4.9576547052557673E-01 
    4.4306130179088454E-01 
    2.2483862401042390E-01 
    4.0744410555356624E-04 
    1.0000162019306861E-06 
    1.0000000000002947E-06 
    9.9999999999999995E-07 
    8.5371218510965363E-01 
    8.2059169484314043E-01 
    7.5311471379882799E-01 
    6.7920445917764716E-01 
    6.2478072147300601E-01 
    5.8399013667074418E-01 
    5.4801968702424297E-01 
    5.1203033630448891E-01 
    4.6924531305919115E-01 
    3.8548775981613043E-01 
    2.1103424846178193E-01 
    2.8439833384708273E-02 
    2.7262833927242186E-05 
    1.0000369466662475E-06 
    1.0000000000000019E-06 
    9.9999999999999995E-07 
    6.8057692469619568E-01 
    6.5391669222269422E-01 
    5.9082062126924140E-01 
    5.3714090002129833E-01 
    4.9558578352073607E-01 
    4.5189302443497736E-01 
    3.9088686161598513E-01 
    2.9782310083434899E-01 
    1.8404113225825749E-01 
    5.1152027293027667E-02 
    1.4537975540829125E-03 
    1.9705205807207758E-05 
    1.0000542921274149E-06 
    1.0000000000050442E-06 
    9.9999999999999995E-07 
    9.9999999999999995E-07 
    3.5263533418754445E-01 
    3.1684132821679306E-01 
    2.6471072547207941E-01 
    2.0653038154262682E-01 
    1.4320299576131404E-01 
    7.9762192750079008E-02 
    2.9161705438260646E-02 
    5.1624302552703318E-03 
    3.5216586671698343E-04 
    7.8838471768846610E-05 
    1.0413360320997448E-06 
    1.0000235152550061E-06 
    1.0000000000032710E-06 
    9.9999999999999995E-07 
    9.9999999999999995E-07 
    9.9999999999999995E-07 
    6.3207030251621046E-03 
    3.6120415687006758E-03 
    1.1477966144033389E-03 
    2.1219731883911436E-04 
    6.1129639436770179E-05 
    5.6276284898531153E-05 
    2.1599184747604358E-05 
    1.9351251363597879E-06 
    1.0072557880382742E-06 
    1.0007854856235712E-06 
    1.0000000073001134E-06 
    1.0000000000000016E-06 
    9.9999999999999995E-07 
    9.9999999999999995E-07 
    9.9999999999999995E-07 
    9.9999999999999995E-07 
    1.0000007196094979E-06 
    1.0644260923615331E-06 
    1.0236699715475198E-06 
    1.0025612357737159E-06 
    1.0015353699218693E-06 
    1.0007865107230002E-06 
    1.0000538953832048E-06 
    1.0000002968166786E-06 
    1.0000000008821272E-06 
    9.9999999999999974E-07 
    1.0000000000000002E-06 
    9.9999999999999995E-07 
    9.9999999999999995E-07 
    9.9999999999999995E-07 
    9.9999999999999995E-07 
    9.9999999999999995E-07 
    1.0000000000002971E-06 
    1.0000000061233489E-06 
    1.0000000051734286E-06 
    1.0000000005024813E-06 
    1.0000000000702933E-06 
    9.9999999999999995E-07 
    9.9999999999999974E-07 
    9.9999999999999974E-07 
    9.9999999999999974E-07 
    9.9999999999999995E-07 
    9.9999999999999995E-07 
    9.9999999999999995E-07 
    9.9999999999999995E-07 
    9.9999999999999995E-07 
    9.9999999999999995E-07 
    9.9999999999999995E-07 
    9.9999999999999995E-07 
    1.0000000000000002E-06 
    9.9999999999999974E-07 
    9.9999999999999974E-07 
    9.9999999999999995E-07 
    9.9999999999999995E-07 
    9.9999999999999995E-07 
    9.9999999999999995E-07 
    9.9999999999999995E-07 
    9.9999999999999995E-07 
    9.9999999999999995E-07 
    9.9999999999999995E-07 
    9.9999999999999995E-07 
    9.9999999999999995E-07 
    9.9999999999999995E-07 
    9.9999999999999995E-07 
    9.9999999999999995E-07 
    9.9999999999999995E-07 
    9.9999999999999995E-07 
    9.9999999999999995E-07 
    9.9999999999999995E-07 
    9.9999999999999995E-07 
    9.9999999999999995E-07 
    9.9999999999999995E-07 
    9.9999999999999995E-07 
    9.9999999999999995E-07 
    9.9999999999999995E-07 
    9.9999999999999995E-07 
    9.9999999999999995E-07 
    9.9999999999999995E-07 
    9.9999999999999995E-07 
    9.9999999999999995E-07 
    9.9999999999999995E-07 
    9.9999999999999995E-07 
    9.9999999999999995E-07 
    9.9999999999999995E-07 
    9.9999999999999995E-07 
    9.9999999999999995E-07 
    9.9999999999999995E-07 
    9.9999999999999995E-07 
    9.9999999999999995E-07 
    9.9999999999999995E-07 
    9.9999999999999995E-07 
    9.9999999999999995E-07 
    9.9999999999999995E-07 
    9.9999999999999995E-07 
    9.9999999999999995E-07 
    9.9999999999999995E-07 
    9.9999999999999995E-07 
    9.9999999999999995E-07 
    9.9999999999999995E-07 
    9.9999999999999995E-07 
    9.9999999999999995E-07 
    9.9999999999999995E-07 
    9.9999999999999995E-07 
    9.9999999999999995E-07 
    9.9999999999999995E-07 
    9.9999999999999995E-07 
    9.9999999999999995E-07 
    9.9999999999999995E-07 
    9.9999999999999995E-07 
    9.9999999999999995E-07 
    9.9999999999999995E-07 
    9.9999999999999995E-07 
    9.9999999999999995E-07 
    9.9999999999999995E-07 
    9.9999999999999995E-07 
    9.9999999999999995E-07 
    9.9999999999999995E-07 
    9.9999999999999995E-07 
    9.9999999999999995E-07 
    9.9999999999999995E-07 
    9.9999999999999995E-07 
    9.9999999999999995E-07 
    9.9999999999999995E-07 
    9.9999999999999995E-07 
    9.9999999999999995E-07 
    9.9999999999999995E-07 
    9.9999999999999995E-07 
    9.9999999999999995E-07 
    9.9999999999999995E-07 
    9.9999999999999995E-07 
    9.9999999999999995E-07 
    9.9999999999999995E-07 
    9.9999999999999995E-07 
    9.9999999999999995E-07 
    9.9999999999999995E-07 
    9.9999999999999995E-07 
    9.9999999999999995E-07 
    9.9999999999999995E-07 
    9.9999999999999995E-07 
    9.9999999999999995E-07 
    9.9999999999999995E-07 
    9.9999999999999995E-07 
    9.9999999999999995E-07 
    9.9999999999999995E-07 
    9.9999999999999995E-07 
    9.9999999999999995E-07 
    9.9999999999999995E-07 
    9.9999999999999995E-07 
    9.9999999999999995E-07 
    9.9999999999999995E-07 
    9.9999999999999995E-07 
    9.9999999999999995E-07 
    9.9999999999999995E-07 
    9.9999999999999995E-07 
    9.9999999999999995E-07 
    9.9999999999999995E-07 
    9.9999999999999995E-07 
    9.9999999999999995E-07 
    9.9999999999999995E-07 
    9.9999999999999995E-07 
    9.9999999999999995E-07 
    9.9999999999999995E-07 
    9.9999999999999995E-07 
    9.9999999999999995E-07 
    9.9999999999999995E-07 
    9.9999999999999995E-07 
    9.9999999999999995E-07 
    9.9999999999999995E-07 
    9.9999999999999995E-07 
    9.9999999999999995E-07 
    9.9999999999999995E-07 
    9.9999999999999995E-07 
    9.9999999999999995E-07 
    9.9999999999999995E-07 
    9.9999999999999995E-07 
    9.9999999999999995E-07 
    9.9999999999999995E-07 
    9.9999999999999995E-07 
    9.9999999999999995E-07 
    9.9999999999999995E-07 
    9.9999999999999995E-07 
    9.9999999999999995E-07 
    9.9999999999999995E-07 
    9.9999999999999995E-07 
    9.9999999999999995E-07 
    9.9999999999999995E-07 
    9.9999999999999995E-07 
    9.9999999999999995E-07 
    9.9999999999999995E-07 
    9.9999999999999995E-07 
    9.9999999999999995E-07 
    1.0000000933455945E-06 
