# vtk DataFile Version 2.0
Pressure Field Data 
ASCII 
DATASET UNSTRUCTURED_GRID 

POINTS 289 double 

    0.0000000000000000E+00     0.0000000000000000E+00     0.0000000000000000E+00 
    1.0000000000000000E+00     0.0000000000000000E+00     0.0000000000000000E+00 
    1.0000000000000000E+00     1.0000000000000000E+00     0.0000000000000000E+00 
    0.0000000000000000E+00     1.0000000000000000E+00     0.0000000000000000E+00 
    6.2499999999872928E-02     0.0000000000000000E+00     0.0000000000000000E+00 
    1.2499999999977310E-01     0.0000000000000000E+00     0.0000000000000000E+00 
    1.8749999999959341E-01     0.0000000000000000E+00     0.0000000000000000E+00 
    2.4999999999941089E-01     0.0000000000000000E+00     0.0000000000000000E+00 
    3.1249999999922851E-01     0.0000000000000000E+00     0.0000000000000000E+00 
    3.7499999999904610E-01     0.0000000000000000E+00     0.0000000000000000E+00 
    4.3749999999886358E-01     0.0000000000000000E+00     0.0000000000000000E+00 
    4.9999999999869210E-01     0.0000000000000000E+00     0.0000000000000000E+00 
    5.6249999999884603E-01     0.0000000000000000E+00     0.0000000000000000E+00 
    6.2499999999901090E-01     0.0000000000000000E+00     0.0000000000000000E+00 
    6.8749999999917577E-01     0.0000000000000000E+00     0.0000000000000000E+00 
    7.4999999999934064E-01     0.0000000000000000E+00     0.0000000000000000E+00 
    8.1249999999950551E-01     0.0000000000000000E+00     0.0000000000000000E+00 
    8.7499999999967026E-01     0.0000000000000000E+00     0.0000000000000000E+00 
    9.3749999999983513E-01     0.0000000000000000E+00     0.0000000000000000E+00 
    1.0000000000000000E+00     6.2499999999872928E-02     0.0000000000000000E+00 
    1.0000000000000000E+00     1.2499999999977310E-01     0.0000000000000000E+00 
    1.0000000000000000E+00     1.8749999999959341E-01     0.0000000000000000E+00 
    1.0000000000000000E+00     2.4999999999941089E-01     0.0000000000000000E+00 
    1.0000000000000000E+00     3.1249999999922851E-01     0.0000000000000000E+00 
    1.0000000000000000E+00     3.7499999999904610E-01     0.0000000000000000E+00 
    1.0000000000000000E+00     4.3749999999886358E-01     0.0000000000000000E+00 
    1.0000000000000000E+00     4.9999999999869210E-01     0.0000000000000000E+00 
    1.0000000000000000E+00     5.6249999999884603E-01     0.0000000000000000E+00 
    1.0000000000000000E+00     6.2499999999901090E-01     0.0000000000000000E+00 
    1.0000000000000000E+00     6.8749999999917577E-01     0.0000000000000000E+00 
    1.0000000000000000E+00     7.4999999999934064E-01     0.0000000000000000E+00 
    1.0000000000000000E+00     8.1249999999950551E-01     0.0000000000000000E+00 
    1.0000000000000000E+00     8.7499999999967026E-01     0.0000000000000000E+00 
    1.0000000000000000E+00     9.3749999999983513E-01     0.0000000000000000E+00 
    9.3749999999973976E-01     1.0000000000000000E+00     0.0000000000000000E+00 
    8.7499999999950118E-01     1.0000000000000000E+00     0.0000000000000000E+00 
    8.1249999999991318E-01     1.0000000000000000E+00     0.0000000000000000E+00 
    7.5000000000034706E-01     1.0000000000000000E+00     0.0000000000000000E+00 
    6.8750000000078049E-01     1.0000000000000000E+00     0.0000000000000000E+00 
    6.2500000000121403E-01     1.0000000000000000E+00     0.0000000000000000E+00 
    5.6250000000164757E-01     1.0000000000000000E+00     0.0000000000000000E+00 
    5.0000000000205946E-01     1.0000000000000000E+00     0.0000000000000000E+00 
    4.3750000000182099E-01     1.0000000000000000E+00     0.0000000000000000E+00 
    3.7500000000156092E-01     1.0000000000000000E+00     0.0000000000000000E+00 
    3.1250000000130068E-01     1.0000000000000000E+00     0.0000000000000000E+00 
    2.5000000000104050E-01     1.0000000000000000E+00     0.0000000000000000E+00 
    1.8750000000078040E-01     1.0000000000000000E+00     0.0000000000000000E+00 
    1.2500000000052031E-01     1.0000000000000000E+00     0.0000000000000000E+00 
    6.2500000000260125E-02     1.0000000000000000E+00     0.0000000000000000E+00 
    0.0000000000000000E+00     9.3749999999973976E-01     0.0000000000000000E+00 
    0.0000000000000000E+00     8.7499999999950118E-01     0.0000000000000000E+00 
    0.0000000000000000E+00     8.1249999999991318E-01     0.0000000000000000E+00 
    0.0000000000000000E+00     7.5000000000034706E-01     0.0000000000000000E+00 
    0.0000000000000000E+00     6.8750000000078049E-01     0.0000000000000000E+00 
    0.0000000000000000E+00     6.2500000000121403E-01     0.0000000000000000E+00 
    0.0000000000000000E+00     5.6250000000164757E-01     0.0000000000000000E+00 
    0.0000000000000000E+00     5.0000000000205946E-01     0.0000000000000000E+00 
    0.0000000000000000E+00     4.3750000000182099E-01     0.0000000000000000E+00 
    0.0000000000000000E+00     3.7500000000156092E-01     0.0000000000000000E+00 
    0.0000000000000000E+00     3.1250000000130068E-01     0.0000000000000000E+00 
    0.0000000000000000E+00     2.5000000000104050E-01     0.0000000000000000E+00 
    0.0000000000000000E+00     1.8750000000078040E-01     0.0000000000000000E+00 
    0.0000000000000000E+00     1.2500000000052031E-01     0.0000000000000000E+00 
    0.0000000000000000E+00     6.2500000000260125E-02     0.0000000000000000E+00 
    6.2499999999897131E-02     6.2500000000235922E-02     0.0000000000000000E+00 
    6.2499999999921327E-02     1.2500000000047351E-01     0.0000000000000000E+00 
    6.2499999999945530E-02     1.8750000000070621E-01     0.0000000000000000E+00 
    6.2499999999969733E-02     2.5000000000093858E-01     0.0000000000000000E+00 
    6.2499999999993928E-02     3.1250000000117117E-01     0.0000000000000000E+00 
    6.2500000000018124E-02     3.7500000000140382E-01     0.0000000000000000E+00 
    6.2500000000042327E-02     4.3750000000163619E-01     0.0000000000000000E+00 
    6.2500000000066530E-02     5.0000000000184897E-01     0.0000000000000000E+00 
    6.2500000000090733E-02     5.6250000000147260E-01     0.0000000000000000E+00 
    6.2500000000114922E-02     6.2500000000107636E-01     0.0000000000000000E+00 
    6.2500000000139125E-02     6.8750000000068034E-01     0.0000000000000000E+00 
    6.2500000000163328E-02     7.5000000000028411E-01     0.0000000000000000E+00 
    6.2500000000187531E-02     8.1249999999988787E-01     0.0000000000000000E+00 
    6.2500000000211720E-02     8.7499999999951172E-01     0.0000000000000000E+00 
    6.2500000000235922E-02     9.3749999999974565E-01     0.0000000000000000E+00 
    1.2499999999981980E-01     6.2500000000211733E-02     0.0000000000000000E+00 
    1.2499999999986650E-01     1.2500000000042691E-01     0.0000000000000000E+00 
    1.2499999999991319E-01     1.8750000000063199E-01     0.0000000000000000E+00 
    1.2499999999995989E-01     2.5000000000083678E-01     0.0000000000000000E+00 
    1.2500000000000661E-01     3.1250000000104172E-01     0.0000000000000000E+00 
    1.2500000000005329E-01     3.7500000000124661E-01     0.0000000000000000E+00 
    1.2500000000010000E-01     4.3750000000145117E-01     0.0000000000000000E+00 
    1.2500000000014669E-01     5.0000000000163858E-01     0.0000000000000000E+00 
    1.2500000000019340E-01     5.6250000000129741E-01     0.0000000000000000E+00 
    1.2500000000024011E-01     6.2500000000093847E-01     0.0000000000000000E+00 
    1.2500000000028680E-01     6.8750000000057998E-01     0.0000000000000000E+00 
    1.2500000000033351E-01     7.5000000000022127E-01     0.0000000000000000E+00 
    1.2500000000038020E-01     8.1249999999986211E-01     0.0000000000000000E+00 
    1.2500000000042691E-01     8.7499999999952238E-01     0.0000000000000000E+00 
    1.2500000000047359E-01     9.3749999999975164E-01     0.0000000000000000E+00 
    1.8749999999966760E-01     6.2500000000187531E-02     0.0000000000000000E+00 
    1.8749999999974179E-01     1.2500000000038020E-01     0.0000000000000000E+00 
    1.8749999999981601E-01     1.8750000000055780E-01     0.0000000000000000E+00 
    1.8749999999989009E-01     2.5000000000073502E-01     0.0000000000000000E+00 
    1.8749999999996431E-01     3.1250000000091221E-01     0.0000000000000000E+00 
    1.8750000000003850E-01     3.7500000000108941E-01     0.0000000000000000E+00 
    1.8750000000011269E-01     4.3750000000126649E-01     0.0000000000000000E+00 
    1.8750000000018691E-01     5.0000000000142808E-01     0.0000000000000000E+00 
    1.8750000000026110E-01     5.6250000000112244E-01     0.0000000000000000E+00 
    1.8750000000033529E-01     6.2500000000080080E-01     0.0000000000000000E+00 
    1.8750000000040951E-01     6.8750000000047962E-01     0.0000000000000000E+00 
    1.8750000000048361E-01     7.5000000000015843E-01     0.0000000000000000E+00 
    1.8750000000055780E-01     8.1249999999983680E-01     0.0000000000000000E+00 
    1.8750000000063199E-01     8.7499999999953304E-01     0.0000000000000000E+00 
    1.8750000000070621E-01     9.3749999999975764E-01     0.0000000000000000E+00 
    2.4999999999951281E-01     6.2500000000163314E-02     0.0000000000000000E+00 
    2.4999999999961461E-01     1.2500000000033351E-01     0.0000000000000000E+00 
    2.4999999999971650E-01     1.8750000000048361E-01     0.0000000000000000E+00 
    2.4999999999981831E-01     2.5000000000063310E-01     0.0000000000000000E+00 
    2.4999999999992020E-01     3.1250000000078260E-01     0.0000000000000000E+00 
    2.5000000000002198E-01     3.7500000000093209E-01     0.0000000000000000E+00 
    2.5000000000012390E-01     4.3750000000108180E-01     0.0000000000000000E+00 
    2.5000000000022571E-01     5.0000000000121769E-01     0.0000000000000000E+00 
    2.5000000000032763E-01     5.6250000000094724E-01     0.0000000000000000E+00 
    2.5000000000042938E-01     6.2500000000066314E-01     0.0000000000000000E+00 
    2.5000000000053119E-01     6.8750000000037925E-01     0.0000000000000000E+00 
[...]
CELL_DATA 256 
SCALARS Pressure double 1 
LOOKUP_TABLE default 

    6.7888509577328970E-01 
    6.7704729289743015E-01 
    6.7537765746031764E-01 
    6.7384803719707953E-01 
    6.7244492855304239E-01 
    6.7115887913269245E-01 
    6.6999029451932823E-01 
    6.6894219614728312E-01 
    6.6801895361829766E-01 
    6.6721946865003157E-01 
    6.6654114149959331E-01 
    6.6598160408013030E-01 
    6.6553847129302202E-01 
    6.6521058540807432E-01 
    6.6499931571123727E-01 
    6.6488928742522380E-01 
    6.5483822691322358E-01 
    6.5476586019605265E-01 
    6.5463641339793444E-01 
    6.5446146118701909E-01 
    6.5425137982207582E-01 
    6.5401603828255361E-01 
    6.5376769823264347E-01 
    6.5351674322367359E-01 
    6.5327291537458831E-01 
    6.5304521091234502E-01 
    6.5284103107951741E-01 
    6.5266511831380125E-01 
    6.5252094271531891E-01 
    6.5241173090273485E-01 
    6.5234184819763241E-01 
    6.5230674702240588E-01 
    6.3456190154597769E-01 
    6.3456041388349227E-01 
    6.3455488298613583E-01 
    6.3454203699131750E-01 
    6.3451934228338058E-01 
    6.3448638224712384E-01 
    6.3444254382335397E-01 
    6.3438969896337949E-01 
    6.3432975437336370E-01 
    6.3426462489475355E-01 
    6.3419726050838565E-01 
    6.3413146061460568E-01 
    6.3407090863868976E-01 
    6.3402003467488988E-01 
    6.3398390450305020E-01 
    6.3396201530978935E-01 
    6.1059885418608184E-01 
    6.1062043049360215E-01 
    6.1066063330306508E-01 
    6.1071505579503560E-01 
    6.1077727952179572E-01 
    6.1084105181867410E-01 
    6.1089543520868994E-01 
    6.1093682613530120E-01 
    6.1096120540917009E-01 
    6.1096444852079035E-01 
    6.1094628828915176E-01 
    6.1091096331877937E-01 
    6.1086407162425327E-01 
    6.1081267414409157E-01 
    6.1075958794763940E-01 
    6.1070633830622600E-01 
    5.8040213170507249E-01 
    5.8044899069043876E-01 
    5.8053560040523777E-01 
    5.8065437437665413E-01 
    5.8079193849212096E-01 
    5.8093118875911776E-01 
    5.8106188398022451E-01 
    5.8117618730983933E-01 
    5.8126595706518636E-01 
    5.8132290791938457E-01 
    5.8134139345257085E-01 
    5.8132859761693167E-01 
    5.8129426435391107E-01 
    5.8124911236142507E-01 
    5.8118949250908669E-01 
    5.8111546191867292E-01 
    5.4302478072288141E-01 
    5.4309294544297027E-01 
    5.4320858373698355E-01 
    5.4335289620229354E-01 
    5.4350154965135611E-01 
    5.4362357844512432E-01 
    5.4371194615967833E-01 
    5.4376542059054356E-01 
    5.4378420069895506E-01 
    5.4376953272604600E-01 
    5.4373157096275559E-01 
    5.4368267958772376E-01 
    5.4363694326509893E-01 
    5.4360586521136645E-01 
    5.4358675816197988E-01 
    5.4360077229264603E-01 
    5.0851689307719516E-01 
    5.0845585463754983E-01 
    5.0833659627902616E-01 
    5.0815920327938735E-01 
    5.0792039233455866E-01 
    5.0764340953306164E-01 
    5.0738602285476997E-01 
    5.0715487765360623E-01 
    5.0695454634233994E-01 
    5.0678688203844757E-01 
    5.0667558425402137E-01 
    5.0661249687951815E-01 
    5.0658725254748527E-01 
    5.0657489209147799E-01 
    5.0655662335373142E-01 
    5.0655934089995769E-01 
    4.7001601266708770E-01 
    4.6995369750047000E-01 
    4.6984912308552729E-01 
    4.6972573461096523E-01 
    4.6960956308794150E-01 
    4.6952895086797541E-01 
    4.6951178918473463E-01 
    4.6955917262462299E-01 
    4.6967043919300433E-01 
    4.6982293704147210E-01 
    4.6999008842891976E-01 
    4.7015482415020921E-01 
    4.7028963117376682E-01 
    4.7036497055193477E-01 
    4.7037399165338356E-01 
    4.7033285343707470E-01 
    4.2794852903993857E-01 
    4.2790318287590962E-01 
    4.2785281524821267E-01 
    4.2784170016814149E-01 
    4.2791944077556882E-01 
    4.2811152458055135E-01 
    4.2840383907638424E-01 
    4.2877919597046171E-01 
    4.2922060109628762E-01 
    4.2967014129018843E-01 
    4.3005744073278834E-01 
    4.3037063882977566E-01 
    4.3057873242846106E-01 
    4.3066081875941092E-01 
    4.3062193227946471E-01 
    4.3044924149875946E-01 
    3.7252457708377151E-01 
    3.7258239611160415E-01 
    3.7268870665180615E-01 
    3.7283641596806261E-01 
    3.7302099247749237E-01 
    3.7324135532623587E-01 
    3.7346831721053297E-01 
    3.7367534857119566E-01 
    3.7383604792639430E-01 
    3.7391458977489900E-01 
    3.7391464137452263E-01 
    3.7383034205655158E-01 
    3.7366415144242282E-01 
    3.7348633434041950E-01 
    3.7332621326985760E-01 
    3.7317411019541202E-01 
    3.0494396234848925E-01 
    3.0490614274420691E-01 
    3.0481377692910200E-01 
    3.0464443282526371E-01 
    3.0437005493704289E-01 
    3.0395564753533716E-01 
    3.0348584114880955E-01 
    3.0298689347368118E-01 
    3.0248034643284477E-01 
    3.0199428850109405E-01 
    3.0159807147400336E-01 
    3.0122949615107358E-01 
    3.0094747373536657E-01 
    3.0081477234861659E-01 
    3.0080265958383295E-01 
    3.0090235838686286E-01 
    2.4162467855033154E-01 
    2.4158188919671914E-01 
    2.4148764418261454E-01 
    2.4133246091571159E-01 
    2.4110725820106499E-01 
    2.4080434317524621E-01 
    2.4045326504018638E-01 
    2.4008230698552729E-01 
    2.3971891377950555E-01 
    2.3939122680985248E-01 
    2.3911846524476144E-01 
    2.3886763176126266E-01 
    2.3870266342748883E-01 
    2.3865201227753291E-01 
    2.3869224220709959E-01 
    2.3882288467859777E-01 
    1.9293197647397398E-01 
    1.9289413771743794E-01 
    1.9281312991091604E-01 
    1.9268320234205785E-01 
    1.9249855070004943E-01 
    1.9225388588015804E-01 
    1.9196499639851250E-01 
    1.9164931778130198E-01 
    1.9132413582629887E-01 
    1.9100045940730279E-01 
    1.9066954260665139E-01 
    1.9033723752619716E-01 
    1.9009221579956653E-01 
    1.8995025443248734E-01 
    1.8989274160929920E-01 
    1.8992031219133609E-01 
    1.4914181638113030E-01 
    1.4906878081247271E-01 
    1.4892167905782930E-01 
    1.4869999519629581E-01 
    1.4840388590654402E-01 
    1.4803438499565638E-01 
    1.4759828035803116E-01 
    1.4710427491480380E-01 
    1.4656283303107939E-01 
    1.4598316917897572E-01 
    1.4537201546883477E-01 
    1.4481582902475337E-01 
    1.4439232579532377E-01 
    1.4408670279988320E-01 
    1.4389458709632674E-01 
    1.4382033134228292E-01 
    1.0185585900398639E-01 
    1.0168694196785852E-01 
    1.0135425764273913E-01 
    1.0086582215269106E-01 
    1.0023236797712484E-01 
    9.9467426490698924E-02 
    9.8578807773585880E-02 
    9.7578413970718883E-02 
    9.6484101274804931E-02 
    9.5327698274659256E-02 
    9.4162844472577237E-02 
    9.3078375622004994E-02 
    9.2112239238228880E-02 
    9.1281809360352059E-02 
    9.0646782694606409E-02 
    9.0279398047100001E-02 
    6.3121940798656614E-02 
    6.2644883149770222E-02 
    6.1702645697563320E-02 
    6.0304406519153843E-02 
    5.8456184865663868E-02 
    5.6147127169454379E-02 
    5.3341233166706442E-02 
    4.9999300329089474E-02 
    4.6080969100007287E-02 
    4.1581971445638848E-02 
    3.6514375732184766E-02 
    3.0812783102509470E-02 
    2.4363532785055864E-02 
    1.7101205536185646E-02 
    8.9590414741960722E-03 
    0.0000000000000000E+00 

SCALARS Saturarion double 1 
LOOKUP_TABLE default 

    1.0000000000003650E+00 
    9.8792742054022253E-01 
    9.6819406633163374E-01 
    9.4224851980697621E-01 
    9.1580275240883402E-01 
    8.8886881253916283E-01 
    8.6148462149731864E-01 
    8.3360361920253601E-01 
    8.0499681618844676E-01 
    7.7530404562198318E-01 
    7.4377287492251243E-01 
    7.0932610248974082E-01 
    6.7033253892914191E-01 
    6.2490520884538103E-01 
    5.6879480004052241E-01 
    4.0079684304100194E-01 
    9.4819830452048415E-01 
    9.3835151238461489E-01 
    9.1882023074411578E-01 
    8.9740518262300151E-01 
    8.7057015558610040E-01 
    8.4282572394394806E-01 
    8.1686922282234964E-01 
    7.9143972287605002E-01 
    7.6616397780593437E-01 
    7.3988909500673672E-01 
    7.1140253517274332E-01 
    6.8023706539959738E-01 
    6.4209522524068907E-01 
    5.9891626380022900E-01 
    5.4788565657067312E-01 
    3.6945275577595499E-01 
    8.6558558599211310E-01 
    8.4917058337880080E-01 
    8.2602460215354334E-01 
    8.0031749308562961E-01 
    7.7772811964239441E-01 
    7.5697236378499433E-01 
    7.3747327132663865E-01 
    7.1809282014143927E-01 
    6.9946955716146109E-01 
    6.7951647855880049E-01 
    6.5642732111038227E-01 
    6.3075156855341441E-01 
    5.9572185889235652E-01 
    5.5829471359548288E-01 
    5.1471278313054480E-01 
    2.4628622781789547E-01 
    7.9830740367495812E-01 
    7.8259455569781389E-01 
    7.5545996796319326E-01 
    7.2773142094084453E-01 
    7.0879805626684989E-01 
    6.9245413062548289E-01 
    6.7616645866250225E-01 
    6.6017222744144977E-01 
    6.4543433104378600E-01 
    6.2882240637969267E-01 
    6.0911999268983508E-01 
    5.8776793462675458E-01 
    5.5764218195968196E-01 
    5.2839081248191333E-01 
    4.7876664971520849E-01 
    1.6205905376023913E-01 
    7.4433144271886109E-01 
    7.3357781380146714E-01 
    7.0536543423930598E-01 
    6.7616006713419108E-01 
    6.5621655255654687E-01 
    6.4169468017065900E-01 
    6.2715769718278280E-01 
    6.1317201847212122E-01 
    5.9947302483994913E-01 
    5.8481931896282180E-01 
    5.6808172605067886E-01 
    5.5066952444235817E-01 
    5.2913770650153968E-01 
    5.0266520626579836E-01 
    4.1936615512793518E-01 
    2.9906472244285772E-02 
    7.0319985368692484E-01 
    6.9465906542794287E-01 
    6.6824183781973923E-01 
    6.3862895570977674E-01 
    6.1465188825669170E-01 
    6.0149734557442169E-01 
    5.8861305600207092E-01 
    5.7590521573702491E-01 
    5.6083921947413740E-01 
    5.4805056329157231E-01 
    5.3413571461730136E-01 
    5.2057266893205001E-01 
    5.0683752604340060E-01 
    4.7477685678787640E-01 
    2.6371846561622619E-01 
    1.8785417756634170E-03 
    6.7000194375108968E-01 
    6.6336001761073271E-01 
    6.4485915780404479E-01 
    6.2024627663512988E-01 
    5.9356682518143078E-01 
    5.7632732134324827E-01 
    5.6400991442456083E-01 
    5.5223997008697423E-01 
    5.3757309493683370E-01 
    5.2329607533989286E-01 
    5.0990981049742212E-01 
    4.9619670867788934E-01 
    4.8545350767582801E-01 
    4.4120365742246315E-01 
    1.3992835180730662E-01 
    2.7342734082030687E-05 
    6.3837715487711177E-01 
    6.3379685692716448E-01 
    6.2295270542256054E-01 
    6.0770383436406761E-01 
    5.8525517333063182E-01 
    5.6163851125198860E-01 
    5.4743039794018622E-01 
    5.3509502299283895E-01 
    5.2059558991360588E-01 
    5.0456479354922490E-01 
    4.8918967015987785E-01 
    4.7366319429886838E-01 
    4.4377131217630650E-01 
    3.0257997763297789E-01 
    6.5087913730246128E-03 
    1.0008318545283194E-06 
    6.0848428860766490E-01 
    6.0461282870278299E-01 
    5.9615722212636046E-01 
    5.8556783359219855E-01 
    5.6482729517372943E-01 
    5.4091256140035726E-01 
    5.2640984196391483E-01 
    5.1170073596968513E-01 
    4.9350818615319458E-01 
    4.7628000871012860E-01 
    4.5278054966046455E-01 
    4.0780595846008444E-01 
    2.8282322687873662E-01 
    4.1834842936717125E-02 
    2.6842605162113735E-06 
    1.0000000000099941E-06 
    5.8245399035149426E-01 
    5.7898547985338888E-01 
    5.7166748287712943E-01 
    5.6225448472010997E-01 
    5.4018069550552505E-01 
    5.1976487312186082E-01 
    5.0748062265588367E-01 
    4.8381848819204409E-01 
    4.5346126512019391E-01 
    4.3961261758735576E-01 
    3.9973769401781611E-01 
    2.8480081034934523E-01 
    5.1380164114738419E-02 
    1.8698121490739574E-04 
    1.0011775108026476E-06 
    9.9999999999965521E-07 
    5.5933618853184808E-01 
    5.5716839180793443E-01 
    5.5207079151422922E-01 
    5.4507413513794656E-01 
    5.2989610532048292E-01 
    5.0951871011362149E-01 
    4.9615016605425655E-01 
    4.7994497941570075E-01 
    4.5430642093712720E-01 
    4.3374053126273893E-01 
    3.8985419940684307E-01 
    2.1755814463285550E-01 
    1.3168172796870054E-03 
    1.0196366448205971E-06 
    1.0000000018487815E-06 
    9.9999999999999995E-07 
    5.3491465872077926E-01 
    5.3401502169640536E-01 
    5.3155937996166081E-01 
    5.2763074769936502E-01 
    5.2225724794810346E-01 
    5.0952525838418228E-01 
    4.9382451290692425E-01 
    4.8098874934861030E-01 
    4.6193963507334901E-01 
    4.3869268439795922E-01 
    3.9161834114937505E-01 
    1.5191151606616926E-01 
    8.4467562302345843E-05 
    1.0005813668236787E-06 
    1.0000000000085872E-06 
    9.9999999999999995E-07 
    5.0626237617867531E-01 
    5.0571216111134132E-01 
    5.0429788058726099E-01 
    5.0184017231821498E-01 
    4.9852194873477423E-01 
    4.9342664037341116E-01 
    4.8350446922400259E-01 
    4.7105229626732209E-01 
    4.5680729617546489E-01 
    4.3263257075091582E-01 
    3.6457134741357483E-01 
    7.7335065544886006E-02 
    5.1097830302972693E-05 
    1.0003501122976231E-06 
    1.0000000000000002E-06 
    9.9999999999999995E-07 
    4.5686138214343502E-01 
    4.5601777514685793E-01 
    4.5428599931403885E-01 
    4.5172376237635875E-01 
    4.4806823877003565E-01 
    4.4341045911072002E-01 
    4.3723771567103675E-01 
    4.2819922067042498E-01 
    4.1632814732497148E-01 
    3.8928700422576773E-01 
    2.7254162228786227E-01 
    2.1613907571443682E-02 
    1.7804974574746131E-05 
    1.0000151003091921E-06 
    9.9999999999999995E-07 
    9.9999999999999995E-07 
    2.5156484030991627E-01 
    2.4833347992542615E-01 
    2.4332617562213490E-01 
    2.3677928730698447E-01 
    2.2995640706796650E-01 
    2.2050009835312787E-01 
    2.1304349720978610E-01 
    2.0351172336675627E-01 
    1.8946537996060242E-01 
    1.4748226948560714E-01 
    3.8967915457620378E-02 
    1.6309739646287090E-04 
    1.0015046867545887E-06 
    1.0000000000777775E-06 
    9.9999999999999995E-07 
    9.9999999999999995E-07 
    8.5048234339902705E-04 
    7.5577689024316390E-04 
    6.2620366909033423E-04 
    4.7508160591908175E-04 
    4.2763395293574465E-04 
    3.1121031987044385E-04 
    2.4821331276456810E-04 
    1.8939455580021175E-04 
    1.2792743842639134E-04 
    1.2207830722011783E-04 
    6.0300046842279034E-05 
    1.0062770707010469E-06 
    1.0000000063165574E-06 
    9.9999999999999911E-07 
    9.9999999999999995E-07 
    1.0000005566215878E-06 
