# vtk DataFile Version 2.0
Pressure Field Data 
ASCII 
DATASET UNSTRUCTURED_GRID 

POINTS 289 double 

    0.0000000000000000E+00     0.0000000000000000E+00     0.0000000000000000E+00 
    1.0000000000000000E+00     0.0000000000000000E+00     0.0000000000000000E+00 
    1.0000000000000000E+00     1.0000000000000000E+00     0.0000000000000000E+00 
    0.0000000000000000E+00     1.0000000000000000E+00     0.0000000000000000E+00 
    6.2499999999872928E-02     0.0000000000000000E+00     0.0000000000000000E+00 
    1.2499999999977310E-01     0.0000000000000000E+00     0.0000000000000000E+00 
    1.8749999999959341E-01     0.0000000000000000E+00     0.0000000000000000E+00 
    2.4999999999941089E-01     0.0000000000000000E+00     0.0000000000000000E+00 
    3.1249999999922851E-01     0.0000000000000000E+00     0.0000000000000000E+00 
    3.7499999999904610E-01     0.0000000000000000E+00     0.0000000000000000E+00 
    4.3749999999886358E-01     0.0000000000000000E+00     0.0000000000000000E+00 
    4.9999999999869210E-01     0.0000000000000000E+00     0.0000000000000000E+00 
    5.6249999999884603E-01     0.0000000000000000E+00     0.0000000000000000E+00 
    6.2499999999901090E-01     0.0000000000000000E+00     0.0000000000000000E+00 
    6.8749999999917577E-01     0.0000000000000000E+00     0.0000000000000000E+00 
    7.4999999999934064E-01     0.0000000000000000E+00     0.0000000000000000E+00 
    8.1249999999950551E-01     0.0000000000000000E+00     0.0000000000000000E+00 
    8.7499999999967026E-01     0.0000000000000000E+00     0.0000000000000000E+00 
    9.3749999999983513E-01     0.0000000000000000E+00     0.0000000000000000E+00 
    1.0000000000000000E+00     6.2499999999872928E-02     0.0000000000000000E+00 
    1.0000000000000000E+00     1.2499999999977310E-01     0.0000000000000000E+00 
    1.0000000000000000E+00     1.8749999999959341E-01     0.0000000000000000E+00 
    1.0000000000000000E+00     2.4999999999941089E-01     0.0000000000000000E+00 
    1.0000000000000000E+00     3.1249999999922851E-01     0.0000000000000000E+00 
    1.0000000000000000E+00     3.7499999999904610E-01     0.0000000000000000E+00 
    1.0000000000000000E+00     4.3749999999886358E-01     0.0000000000000000E+00 
    1.0000000000000000E+00     4.9999999999869210E-01     0.0000000000000000E+00 
    1.0000000000000000E+00     5.6249999999884603E-01     0.0000000000000000E+00 
    1.0000000000000000E+00     6.2499999999901090E-01     0.0000000000000000E+00 
    1.0000000000000000E+00     6.8749999999917577E-01     0.0000000000000000E+00 
    1.0000000000000000E+00     7.4999999999934064E-01     0.0000000000000000E+00 
    1.0000000000000000E+00     8.1249999999950551E-01     0.0000000000000000E+00 
    1.0000000000000000E+00     8.7499999999967026E-01     0.0000000000000000E+00 
    1.0000000000000000E+00     9.3749999999983513E-01     0.0000000000000000E+00 
    9.3749999999973976E-01     1.0000000000000000E+00     0.0000000000000000E+00 
    8.7499999999950118E-01     1.0000000000000000E+00     0.0000000000000000E+00 
    8.1249999999991318E-01     1.0000000000000000E+00     0.0000000000000000E+00 
    7.5000000000034706E-01     1.0000000000000000E+00     0.0000000000000000E+00 
    6.8750000000078049E-01     1.0000000000000000E+00     0.0000000000000000E+00 
    6.2500000000121403E-01     1.0000000000000000E+00     0.0000000000000000E+00 
    5.6250000000164757E-01     1.0000000000000000E+00     0.0000000000000000E+00 
    5.0000000000205946E-01     1.0000000000000000E+00     0.0000000000000000E+00 
    4.3750000000182099E-01     1.0000000000000000E+00     0.0000000000000000E+00 
    3.7500000000156092E-01     1.0000000000000000E+00     0.0000000000000000E+00 
    3.1250000000130068E-01     1.0000000000000000E+00     0.0000000000000000E+00 
    2.5000000000104050E-01     1.0000000000000000E+00     0.0000000000000000E+00 
    1.8750000000078040E-01     1.0000000000000000E+00     0.0000000000000000E+00 
    1.2500000000052031E-01     1.0000000000000000E+00     0.0000000000000000E+00 
    6.2500000000260125E-02     1.0000000000000000E+00     0.0000000000000000E+00 
    0.0000000000000000E+00     9.3749999999973976E-01     0.0000000000000000E+00 
    0.0000000000000000E+00     8.7499999999950118E-01     0.0000000000000000E+00 
    0.0000000000000000E+00     8.1249999999991318E-01     0.0000000000000000E+00 
    0.0000000000000000E+00     7.5000000000034706E-01     0.0000000000000000E+00 
    0.0000000000000000E+00     6.8750000000078049E-01     0.0000000000000000E+00 
    0.0000000000000000E+00     6.2500000000121403E-01     0.0000000000000000E+00 
    0.0000000000000000E+00     5.6250000000164757E-01     0.0000000000000000E+00 
    0.0000000000000000E+00     5.0000000000205946E-01     0.0000000000000000E+00 
    0.0000000000000000E+00     4.3750000000182099E-01     0.0000000000000000E+00 
    0.0000000000000000E+00     3.7500000000156092E-01     0.0000000000000000E+00 
    0.0000000000000000E+00     3.1250000000130068E-01     0.0000000000000000E+00 
    0.0000000000000000E+00     2.5000000000104050E-01     0.0000000000000000E+00 
    0.0000000000000000E+00     1.8750000000078040E-01     0.0000000000000000E+00 
    0.0000000000000000E+00     1.2500000000052031E-01     0.0000000000000000E+00 
    0.0000000000000000E+00     6.2500000000260125E-02     0.0000000000000000E+00 
    6.2499999999897131E-02     6.2500000000235922E-02     0.0000000000000000E+00 
    6.2499999999921327E-02     1.2500000000047351E-01     0.0000000000000000E+00 
    6.2499999999945530E-02     1.8750000000070621E-01     0.0000000000000000E+00 
    6.2499999999969733E-02     2.5000000000093858E-01     0.0000000000000000E+00 
    6.2499999999993928E-02     3.1250000000117117E-01     0.0000000000000000E+00 
    6.2500000000018124E-02     3.7500000000140382E-01     0.0000000000000000E+00 
    6.2500000000042327E-02     4.3750000000163619E-01     0.0000000000000000E+00 
    6.2500000000066530E-02     5.0000000000184897E-01     0.0000000000000000E+00 
    6.2500000000090733E-02     5.6250000000147260E-01     0.0000000000000000E+00 
    6.2500000000114922E-02     6.2500000000107636E-01     0.0000000000000000E+00 
    6.2500000000139125E-02     6.8750000000068034E-01     0.0000000000000000E+00 
    6.2500000000163328E-02     7.5000000000028411E-01     0.0000000000000000E+00 
    6.2500000000187531E-02     8.1249999999988787E-01     0.0000000000000000E+00 
    6.2500000000211720E-02     8.7499999999951172E-01     0.0000000000000000E+00 
    6.2500000000235922E-02     9.3749999999974565E-01     0.0000000000000000E+00 
    1.2499999999981980E-01     6.2500000000211733E-02     0.0000000000000000E+00 
    1.2499999999986650E-01     1.2500000000042691E-01     0.0000000000000000E+00 
    1.2499999999991319E-01     1.8750000000063199E-01     0.0000000000000000E+00 
    1.2499999999995989E-01     2.5000000000083678E-01     0.0000000000000000E+00 
    1.2500000000000661E-01     3.1250000000104172E-01     0.0000000000000000E+00 
    1.2500000000005329E-01     3.7500000000124661E-01     0.0000000000000000E+00 
    1.2500000000010000E-01     4.3750000000145117E-01     0.0000000000000000E+00 
    1.2500000000014669E-01     5.0000000000163858E-01     0.0000000000000000E+00 
    1.2500000000019340E-01     5.6250000000129741E-01     0.0000000000000000E+00 
    1.2500000000024011E-01     6.2500000000093847E-01     0.0000000000000000E+00 
    1.2500000000028680E-01     6.8750000000057998E-01     0.0000000000000000E+00 
    1.2500000000033351E-01     7.5000000000022127E-01     0.0000000000000000E+00 
    1.2500000000038020E-01     8.1249999999986211E-01     0.0000000000000000E+00 
    1.2500000000042691E-01     8.7499999999952238E-01     0.0000000000000000E+00 
    1.2500000000047359E-01     9.3749999999975164E-01     0.0000000000000000E+00 
    1.8749999999966760E-01     6.2500000000187531E-02     0.0000000000000000E+00 
    1.8749999999974179E-01     1.2500000000038020E-01     0.0000000000000000E+00 
    1.8749999999981601E-01     1.8750000000055780E-01     0.0000000000000000E+00 
    1.8749999999989009E-01     2.5000000000073502E-01     0.0000000000000000E+00 
    1.8749999999996431E-01     3.1250000000091221E-01     0.0000000000000000E+00 
    1.8750000000003850E-01     3.7500000000108941E-01     0.0000000000000000E+00 
    1.8750000000011269E-01     4.3750000000126649E-01     0.0000000000000000E+00 
    1.8750000000018691E-01     5.0000000000142808E-01     0.0000000000000000E+00 
    1.8750000000026110E-01     5.6250000000112244E-01     0.0000000000000000E+00 
    1.8750000000033529E-01     6.2500000000080080E-01     0.0000000000000000E+00 
    1.8750000000040951E-01     6.8750000000047962E-01     0.0000000000000000E+00 
    1.8750000000048361E-01     7.5000000000015843E-01     0.0000000000000000E+00 
    1.8750000000055780E-01     8.1249999999983680E-01     0.0000000000000000E+00 
    1.8750000000063199E-01     8.7499999999953304E-01     0.0000000000000000E+00 
    1.8750000000070621E-01     9.3749999999975764E-01     0.0000000000000000E+00 
    2.4999999999951281E-01     6.2500000000163314E-02     0.0000000000000000E+00 
    2.4999999999961461E-01     1.2500000000033351E-01     0.0000000000000000E+00 
    2.4999999999971650E-01     1.8750000000048361E-01     0.0000000000000000E+00 
    2.4999999999981831E-01     2.5000000000063310E-01     0.0000000000000000E+00 
    2.4999999999992020E-01     3.1250000000078260E-01     0.0000000000000000E+00 
    2.5000000000002198E-01     3.7500000000093209E-01     0.0000000000000000E+00 
    2.5000000000012390E-01     4.3750000000108180E-01     0.0000000000000000E+00 
    2.5000000000022571E-01     5.0000000000121769E-01     0.0000000000000000E+00 
    2.5000000000032763E-01     5.6250000000094724E-01     0.0000000000000000E+00 
    2.5000000000042938E-01     6.2500000000066314E-01     0.0000000000000000E+00 
    2.5000000000053119E-01     6.8750000000037925E-01     0.0000000000000000E+00 
[...]
CELL_DATA 256 
SCALARS Pressure double 1 
LOOKUP_TABLE default 

    6.7126617723900395E-01 
    6.6942977146172344E-01 
    6.6776256995760741E-01 
    6.6623652714422155E-01 
    6.6483788272331346E-01 
    6.6355700937129924E-01 
    6.6239387727643173E-01 
    6.6135111526640633E-01 
    6.6043272262965003E-01 
    6.5963740062087595E-01 
    6.5896249308812516E-01 
    6.5840560847317053E-01 
    6.5796435499952843E-01 
    6.5763756972047549E-01 
    6.5742650763059185E-01 
    6.5731671824773852E-01 
    6.4732101340855841E-01 
    6.4724906373389735E-01 
    6.4712046320672911E-01 
    6.4694683457862345E-01 
    6.4673858010141938E-01 
    6.4650550864737277E-01 
    6.4625965026515364E-01 
    6.4601126027622435E-01 
    6.4576995163696704E-01 
    6.4554458724278307E-01 
    6.4534248802907024E-01 
    6.4516836717584691E-01 
    6.4502566686782492E-01 
    6.4491752776237521E-01 
    6.4484822116785301E-01 
    6.4481352222249178E-01 
    6.2718971897298326E-01 
    6.2718792187106442E-01 
    6.2718187205089759E-01 
    6.2716844345533351E-01 
    6.2714527583326729E-01 
    6.2711207796416546E-01 
    6.2706836997923276E-01 
    6.2701601420776742E-01 
    6.2695691093979544E-01 
    6.2689297687281165E-01 
    6.2682710885656068E-01 
    6.2676304956901896E-01 
    6.2670438688721719E-01 
    6.2665534009296897E-01 
    6.2662105106551846E-01 
    6.2660106524537373E-01 
    6.0344028094198410E-01 
    6.0346072125694616E-01 
    6.0349878907187648E-01 
    6.0355020625291655E-01 
    6.0360886036340222E-01 
    6.0366894744642641E-01 
    6.0372015678566437E-01 
    6.0375899652405973E-01 
    6.0378156835069585E-01 
    6.0378387379294640E-01 
    6.0376553886023276E-01 
    6.0373059618522473E-01 
    6.0368431935123446E-01 
    6.0363343667324398E-01 
    6.0358193524662507E-01 
    6.0353177586574280E-01 
    5.7355312722894680E-01 
    5.7359773753158705E-01 
    5.7368040645680907E-01 
    5.7379390377085160E-01 
    5.7392542164468141E-01 
    5.7405883071574004E-01 
    5.7418420685961069E-01 
    5.7429393670725482E-01 
    5.7438010288286312E-01 
    5.7443464902892805E-01 
    5.7445177462722341E-01 
    5.7443828520932816E-01 
    5.7440347731508501E-01 
    5.7435790750769844E-01 
    5.7429903576765728E-01 
    5.7422673067405772E-01 
    5.3655330245855515E-01 
    5.3661934509853948E-01 
    5.3673153928103601E-01 
    5.3687164002333010E-01 
    5.3701576370148629E-01 
    5.3713369352332518E-01 
    5.3721862350716798E-01 
    5.3726950861009271E-01 
    5.3728670334794448E-01 
    5.3727162801324102E-01 
    5.3723411336745552E-01 
    5.3718621455730009E-01 
    5.3714189315875405E-01 
    5.3711395277158425E-01 
    5.3709920838323855E-01 
    5.3711269940770578E-01 
    5.0225348639060918E-01 
    5.0219498489114500E-01 
    5.0208057436921349E-01 
    5.0191012202072105E-01 
    5.0168004797494692E-01 
    5.0141255091446790E-01 
    5.0116346136862466E-01 
    5.0093905559145979E-01 
    5.0074369595486146E-01 
    5.0057920914077625E-01 
    5.0046894642704320E-01 
    5.0040513826927180E-01 
    5.0037880930192913E-01 
    5.0036914019065426E-01 
    5.0035753810670247E-01 
    5.0036326676495979E-01 
    4.6408921595240293E-01 
    4.6403064619475781E-01 
    4.6393275649015159E-01 
    4.6381819314507056E-01 
    4.6371219201350294E-01 
    4.6364175302341420E-01 
    4.6363301527712431E-01 
    4.6368659850061117E-01 
    4.6380156353870039E-01 
    4.6395572339929025E-01 
    4.6412340886084724E-01 
    4.6428890595043643E-01 
    4.6442702709980760E-01 
    4.6450680932539401E-01 
    4.6451790256157188E-01 
    4.6447730292695161E-01 
    4.2245670566029747E-01 
    4.2241638519738750E-01 
    4.2237444823807563E-01 
    4.2237359282837184E-01 
    4.2246196002798786E-01 
    4.2266361284353932E-01 
    4.2296443183770199E-01 
    4.2334724768839965E-01 
    4.2379492545268987E-01 
    4.2424998635058636E-01 
    4.2464367954911975E-01 
    4.2496403911380720E-01 
    4.2518382447221664E-01 
    4.2527562457304457E-01 
    4.2523727626069280E-01 
    4.2506490902934457E-01 
    3.6767257814302101E-01 
    3.6773273989496913E-01 
    3.6784335895153819E-01 
    3.6799697618952965E-01 
    3.6818868444879971E-01 
    3.6841657862782773E-01 
    3.6865141903298876E-01 
    3.6886732755067397E-01 
    3.6903821077156029E-01 
    3.6912814881497846E-01 
    3.6914087268879547E-01 
    3.6907091773963951E-01 
    3.6891489034560027E-01 
    3.6873766021967569E-01 
    3.6858007027735318E-01 
    3.6843214920020534E-01 
    3.0123474972293945E-01 
    3.0119502603095422E-01 
    3.0109984981402832E-01 
    3.0092776828014889E-01 
    3.0065151490862729E-01 
    3.0023649634061667E-01 
    2.9976757992042791E-01 
    2.9927100505918242E-01 
    2.9876799661853731E-01 
    2.9828723539182772E-01 
    2.9790257857409380E-01 
    2.9754973597888268E-01 
    2.9726790007681392E-01 
    2.9713179133943463E-01 
    2.9711964523458201E-01 
    2.9721765402118250E-01 
    2.3875270571865756E-01 
    2.3870765566593521E-01 
    2.3860976214245730E-01 
    2.3845054350322950E-01 
    2.3822204200070696E-01 
    2.3791760459273617E-01 
    2.3756777713188940E-01 
    2.3720105088020707E-01 
    2.3684475101573693E-01 
    2.3652863803723995E-01 
    2.3628073954243003E-01 
    2.3605653921154821E-01 
    2.3590043877903363E-01 
    2.3585240661956797E-01 
    2.3589376054098621E-01 
    2.3602354844616738E-01 
    1.9067849676705836E-01 
    1.9063998487833519E-01 
    1.9055809832781267E-01 
    1.9042771145293244E-01 
    1.9024385056347987E-01 
    1.9000227283634513E-01 
    1.8972018871114843E-01 
    1.8941604894496572E-01 
    1.8910888781758381E-01 
    1.8881590556285008E-01 
    1.8854186023925737E-01 
    1.8826387148426438E-01 
    1.8804831341366607E-01 
    1.8792869746213312E-01 
    1.8788491138514246E-01 
    1.8791766473908372E-01 
    1.4797632701811439E-01 
    1.4791366252115279E-01 
    1.4778704259814404E-01 
    1.4759546751520172E-01 
    1.4733860803766971E-01 
    1.4701675034254910E-01 
    1.4663601824365755E-01 
    1.4620472550906807E-01 
    1.4573321541295808E-01 
    1.4522823593623876E-01 
    1.4468298984815095E-01 
    1.4413669552476205E-01 
    1.4370191987176628E-01 
    1.4339743403510213E-01 
    1.4320452790755001E-01 
    1.4312708798727108E-01 
    1.0234351812229690E-01 
    1.0218204406848781E-01 
    1.0186354194369882E-01 
    1.0139484507630374E-01 
    1.0078523816969351E-01 
    1.0004591882308962E-01 
    9.9181228514748337E-02 
    9.8200205442356969E-02 
    9.7115911216886536E-02 
    9.5941289354262924E-02 
    9.4700122816346710E-02 
    9.3516852820853022E-02 
    9.2485649146311896E-02 
    9.1617161984926629E-02 
    9.0956766049508114E-02 
    9.0576506793523040E-02 
    6.3628194187980228E-02 
    6.3150659692310859E-02 
    6.2207596748556679E-02 
    6.0808034968241227E-02 
    5.8957441380379512E-02 
    5.6643177833655863E-02 
    5.3824863485531407E-02 
    5.0458807854123357E-02 
    4.6496375775346578E-02 
    4.1903380742976525E-02 
    3.6664740546364788E-02 
    3.0845253488471672E-02 
    2.4381789119175282E-02 
    1.7110475360593281E-02 
    8.9651955328810106E-03 
    0.0000000000000000E+00 

SCALARS Saturarion double 1 
LOOKUP_TABLE default 

    1.0000000000002132E+00 
    9.8815287247621775E-01 
    9.6878366347372513E-01 
    9.4329836005856715E-01 
    9.1727354955139240E-01 
    8.9071567137544050E-01 
    8.6365994426082948E-01 
    8.3606415115664856E-01 
    8.0770611360872691E-01 
    7.7823335308602493E-01 
    7.4690349778594500E-01 
    7.1264495515938564E-01 
    6.7382021816572235E-01 
    6.2856094497884429E-01 
    5.7242742470986874E-01 
    4.0805075701607857E-01 
    9.4882296518509446E-01 
    9.3911592868893567E-01 
    9.1991748905601944E-01 
    8.9887437752800803E-01 
    8.7254104739705540E-01 
    8.4513912992245066E-01 
    8.1940990237207323E-01 
    7.9419178840425597E-01 
    7.6908852719915322E-01 
    7.4296352350231709E-01 
    7.1462533706008469E-01 
    6.8359468102205212E-01 
    6.4559867619550082E-01 
    6.0250220245362451E-01 
    5.5129447537692222E-01 
    3.7897640367525226E-01 
    8.6682481769200148E-01 
    8.5068236391978957E-01 
    8.2792980608096034E-01 
    8.0264832992007573E-01 
    7.8039276115312439E-01 
    7.5976854638525659E-01 
    7.4040357727615647E-01 
    7.2115605030205709E-01 
    7.0262597385281200E-01 
    6.8277920852161911E-01 
    6.5981017787846796E-01 
    6.3423403072239470E-01 
    5.9924658604218772E-01 
    5.6150254757747997E-01 
    5.1825369694728818E-01 
    2.5950599283037351E-01 
    8.0014577527516706E-01 
    7.8440472960178398E-01 
    7.5759746350572266E-01 
    7.3029356349844110E-01 
    7.1168664582157282E-01 
    6.9546504853801328E-01 
    6.7928162448658613E-01 
    6.6338404026756925E-01 
    6.4872872559210404E-01 
    6.3224228452470321E-01 
    6.1265557114426850E-01 
    5.9137715991289208E-01 
    5.6105872353330799E-01 
    5.3127026490131657E-01 
    4.8428265754300748E-01 
    1.8255734266130222E-01 
    7.4672357062620176E-01 
    7.3578637408622338E-01 
    7.0761809422926869E-01 
    6.7873014389522490E-01 
    6.5909290829714196E-01 
    6.4470726635539910E-01 
    6.3026860161109766E-01 
    6.1638886237792390E-01 
    6.0282145878321169E-01 
    5.8828235820558683E-01 
    5.7159013227209965E-01 
    5.5413630274726344E-01 
    5.3214289719472552E-01 
    5.0608470198343702E-01 
    4.3359558207487853E-01 
    4.0604068483392639E-02 
    7.0588975743200411E-01 
    6.9722289487698319E-01 
    6.7053968611367332E-01 
    6.4096527754823807E-01 
    6.1725494879322973E-01 
    6.0425054187684102E-01 
    5.9146077536471364E-01 
    5.7887769493653629E-01 
    5.6394667396112574E-01 
    5.5125101872295956E-01 
    5.3733950455748880E-01 
    5.2369088619262971E-01 
    5.0981293521014459E-01 
    4.7931252689511211E-01 
    2.9433497336020081E-01 
    3.7935038850712430E-03 
    6.7292209339269071E-01 
    6.6624525419900205E-01 
    6.4738076521999610E-01 
    6.2236221496111466E-01 
    5.9555555538829852E-01 
    5.7853823216515776E-01 
    5.6632870362713916E-01 
    5.5465584844924010E-01 
    5.4010654654922075E-01 
    5.2600119382259292E-01 
    5.1273545648550700E-01 
    4.9927781565624241E-01 
    4.8902969311581485E-01 
    4.5081578815482809E-01 
    1.6525832179841995E-01 
    3.4450255043021564E-05 
    6.4154613142336958E-01 
    6.3697256030526384E-01 
    6.2595837296119206E-01 
    6.1021434878516367E-01 
    5.8743516796963502E-01 
    5.6386974476168195E-01 
    5.4964623988311001E-01 
    5.3731825287208324E-01 
    5.2290350171043087E-01 
    5.0706289734832011E-01 
    4.9196453862424344E-01 
    4.7727874975494872E-01 
    4.5191852100160640E-01 
    3.3790559299761075E-01 
    1.8597718520557863E-02 
    1.0008572894992615E-06 
    6.1187025619773638E-01 
    6.0796266849625336E-01 
    5.9939301933832256E-01 
    5.8847388917606902E-01 
    5.6740810101054662E-01 
    5.4346987374057942E-01 
    5.2878667494180187E-01 
    5.1390574306221437E-01 
    4.9586876541688968E-01 
    4.7982979719098801E-01 
    4.5742507741805805E-01 
    4.1856328648466484E-01 
    3.0417451420796399E-01 
    6.8274977373102327E-02 
    2.3487922564009427E-05 
    1.0000000001956785E-06 
    5.8604532831945844E-01 
    5.8243636732194137E-01 
    5.7492284256511705E-01 
    5.6513570315239348E-01 
    5.4268901863554520E-01 
    5.2251813197125363E-01 
    5.0981257637873911E-01 
    4.8591043726172550E-01 
    4.5651065141259156E-01 
    4.4314902629983816E-01 
    4.0578491638042791E-01 
    3.1343236019920251E-01 
    8.0014719446537388E-02 
    3.9216562435126848E-04 
    1.0076345009031683E-06 
    1.0000000000009325E-06 
    5.6325191789262585E-01 
    5.6091624809439466E-01 
    5.5555264183668063E-01 
    5.4817650981461929E-01 
    5.3219490412423542E-01 
    5.1178982720715671E-01 
    4.9877541021524552E-01 
    4.8253015112236014E-01 
    4.5674121693300301E-01 
    4.3778988996009394E-01 
    3.9660778982822631E-01 
    2.5432289884802506E-01 
    4.5744268003264366E-03 
    1.1875144446518331E-06 
    1.0000000246867691E-06 
    1.0000000000000002E-06 
    5.3938867026628390E-01 
    5.3841749273845974E-01 
    5.3577230349725957E-01 
    5.3163546845799925E-01 
    5.2573607189931681E-01 
    5.1189211398135370E-01 
    4.9603377268799920E-01 
    4.8378251735072236E-01 
    4.6376044844745595E-01 
    4.4236281298750596E-01 
    4.0207728269147491E-01 
    1.9374510541464696E-01 
    3.3980958302371925E-04 
    1.0023658297197499E-06 
    1.0000000002057775E-06 
    9.9999999999999995E-07 
    5.1238746422634696E-01 
    5.1186066583298206E-01 
    5.1046973788201644E-01 
    5.0799541603833298E-01 
    5.0478871889006471E-01 
    4.9947539828896176E-01 
    4.8894858177979711E-01 
    4.7618954786517342E-01 
    4.6241346785198179E-01 
    4.3933690277711718E-01 
    3.8560340376637620E-01 
    1.2271427971712751E-01 
    5.5376440573770994E-05 
    1.0008328344948520E-06 
    1.0000000000000002E-06 
    9.9999999999999995E-07 
    4.7145808154870084E-01 
    4.7081847456107684E-01 
    4.6941358028303826E-01 
    4.6726554581553581E-01 
    4.6426647247206621E-01 
    4.6024620336768196E-01 
    4.5423248268795585E-01 
    4.4551343942865596E-01 
    4.3528497700378177E-01 
    4.1602615651458308E-01 
    3.4542689833010437E-01 
    7.3012760788022837E-02 
    1.3589930382415427E-04 
    1.0009251618773511E-06 
    1.0000000000477163E-06 
    9.9999999999999995E-07 
    3.2765047784598728E-01 
    3.2533770085753400E-01 
    3.2170526641968111E-01 
    3.1691597490366230E-01 
    3.1261344520607703E-01 
    3.0532584922807993E-01 
    2.9868004437922724E-01 
    2.9193835071423790E-01 
    2.8575428506776668E-01 
    2.6004498064797038E-01 
    1.5958793159049345E-01 
    7.0188320843389057E-03 
    2.6383539659294126E-06 
    1.0000003708697220E-06 
    1.0000000000000040E-06 
    9.9999999999999995E-07 
    1.0791434572683436E-02 
    1.0174793711933862E-02 
    9.2336038210699516E-03 
    8.1411497818381084E-03 
    7.7676431097393464E-03 
    6.5883197756040493E-03 
    5.9686918964603789E-03 
    5.4269425335538310E-03 
    5.2060784660770288E-03 
    3.3956499751086043E-03 
    3.9267151089964359E-04 
    3.3471622729265438E-06 
    1.0000064100491077E-06 
    1.0000000000009588E-06 
    9.9999999999999995E-07 
    1.0000005679805482E-06 
