# vtk DataFile Version 2.0
Pressure Field Data 
ASCII 
DATASET UNSTRUCTURED_GRID 

POINTS 289 double 

    0.0000000000000000E+00     0.0000000000000000E+00     0.0000000000000000E+00 
    1.0000000000000000E+00     0.0000000000000000E+00     0.0000000000000000E+00 
    1.0000000000000000E+00     1.0000000000000000E+00     0.0000000000000000E+00 
    0.0000000000000000E+00     1.0000000000000000E+00     0.0000000000000000E+00 
    6.2499999999872928E-02     0.0000000000000000E+00     0.0000000000000000E+00 
    1.2499999999977310E-01     0.0000000000000000E+00     0.0000000000000000E+00 
    1.8749999999959341E-01     0.0000000000000000E+00     0.0000000000000000E+00 
    2.4999999999941089E-01     0.0000000000000000E+00     0.0000000000000000E+00 
    3.1249999999922851E-01     0.0000000000000000E+00     0.0000000000000000E+00 
    3.7499999999904610E-01     0.0000000000000000E+00     0.0000000000000000E+00 
    4.3749999999886358E-01     0.0000000000000000E+00     0.0000000000000000E+00 
    4.9999999999869210E-01     0.0000000000000000E+00     0.0000000000000000E+00 
    5.6249999999884603E-01     0.0000000000000000E+00     0.0000000000000000E+00 
    6.2499999999901090E-01     0.0000000000000000E+00     0.0000000000000000E+00 
    6.8749999999917577E-01     0.0000000000000000E+00     0.0000000000000000E+00 
    7.4999999999934064E-01     0.0000000000000000E+00     0.0000000000000000E+00 
    8.1249999999950551E-01     0.0000000000000000E+00     0.0000000000000000E+00 
    8.7499999999967026E-01     0.0000000000000000E+00     0.0000000000000000E+00 
    9.3749999999983513E-01     0.0000000000000000E+00     0.0000000000000000E+00 
    1.0000000000000000E+00     6.2499999999872928E-02     0.0000000000000000E+00 
    1.0000000000000000E+00     1.2499999999977310E-01     0.0000000000000000E+00 
    1.0000000000000000E+00     1.8749999999959341E-01     0.0000000000000000E+00 
    1.0000000000000000E+00     2.4999999999941089E-01     0.0000000000000000E+00 
    1.0000000000000000E+00     3.1249999999922851E-01     0.0000000000000000E+00 
    1.0000000000000000E+00     3.7499999999904610E-01     0.0000000000000000E+00 
    1.0000000000000000E+00     4.3749999999886358E-01     0.0000000000000000E+00 
    1.0000000000000000E+00     4.9999999999869210E-01     0.0000000000000000E+00 
    1.0000000000000000E+00     5.6249999999884603E-01     0.0000000000000000E+00 
    1.0000000000000000E+00     6.2499999999901090E-01     0.0000000000000000E+00 
    1.0000000000000000E+00     6.8749999999917577E-01     0.0000000000000000E+00 
    1.0000000000000000E+00     7.4999999999934064E-01     0.0000000000000000E+00 
    1.0000000000000000E+00     8.1249999999950551E-01     0.0000000000000000E+00 
    1.0000000000000000E+00     8.7499999999967026E-01     0.0000000000000000E+00 
    1.0000000000000000E+00     9.3749999999983513E-01     0.0000000000000000E+00 
    9.3749999999973976E-01     1.0000000000000000E+00     0.0000000000000000E+00 
    8.7499999999950118E-01     1.0000000000000000E+00     0.0000000000000000E+00 
    8.1249999999991318E-01     1.0000000000000000E+00     0.0000000000000000E+00 
    7.5000000000034706E-01     1.0000000000000000E+00     0.0000000000000000E+00 
    6.8750000000078049E-01     1.0000000000000000E+00     0.0000000000000000E+00 
    6.2500000000121403E-01     1.0000000000000000E+00     0.0000000000000000E+00 
    5.6250000000164757E-01     1.0000000000000000E+00     0.0000000000000000E+00 
    5.0000000000205946E-01     1.0000000000000000E+00     0.0000000000000000E+00 
    4.3750000000182099E-01     1.0000000000000000E+00     0.0000000000000000E+00 
    3.7500000000156092E-01     1.0000000000000000E+00     0.0000000000000000E+00 
    3.1250000000130068E-01     1.0000000000000000E+00     0.0000000000000000E+00 
    2.5000000000104050E-01     1.0000000000000000E+00     0.0000000000000000E+00 
    1.8750000000078040E-01     1.0000000000000000E+00     0.0000000000000000E+00 
    1.2500000000052031E-01     1.0000000000000000E+00     0.0000000000000000E+00 
    6.2500000000260125E-02     1.0000000000000000E+00     0.0000000000000000E+00 
    0.0000000000000000E+00     9.3749999999973976E-01     0.0000000000000000E+00 
    0.0000000000000000E+00     8.7499999999950118E-01     0.0000000000000000E+00 
    0.0000000000000000E+00     8.1249999999991318E-01     0.0000000000000000E+00 
    0.0000000000000000E+00     7.5000000000034706E-01     0.0000000000000000E+00 
    0.0000000000000000E+00     6.8750000000078049E-01     0.0000000000000000E+00 
    0.0000000000000000E+00     6.2500000000121403E-01     0.0000000000000000E+00 
    0.0000000000000000E+00     5.6250000000164757E-01     0.0000000000000000E+00 
    0.0000000000000000E+00     5.0000000000205946E-01     0.0000000000000000E+00 
    0.0000000000000000E+00     4.3750000000182099E-01     0.0000000000000000E+00 
    0.0000000000000000E+00     3.7500000000156092E-01     0.0000000000000000E+00 
    0.0000000000000000E+00     3.1250000000130068E-01     0.0000000000000000E+00 
    0.0000000000000000E+00     2.5000000000104050E-01     0.0000000000000000E+00 
    0.0000000000000000E+00     1.8750000000078040E-01     0.0000000000000000E+00 
    0.0000000000000000E+00     1.2500000000052031E-01     0.0000000000000000E+00 
    0.0000000000000000E+00     6.2500000000260125E-02     0.0000000000000000E+00 
    6.2499999999897131E-02     6.2500000000235922E-02     0.0000000000000000E+00 
    6.2499999999921327E-02     1.2500000000047351E-01     0.0000000000000000E+00 
    6.2499999999945530E-02     1.8750000000070621E-01     0.0000000000000000E+00 
    6.2499999999969733E-02     2.5000000000093858E-01     0.0000000000000000E+00 
    6.2499999999993928E-02     3.1250000000117117E-01     0.0000000000000000E+00 
    6.2500000000018124E-02     3.7500000000140382E-01     0.0000000000000000E+00 
    6.2500000000042327E-02     4.3750000000163619E-01     0.0000000000000000E+00 
    6.2500000000066530E-02     5.0000000000184897E-01     0.0000000000000000E+00 
    6.2500000000090733E-02     5.6250000000147260E-01     0.0000000000000000E+00 
    6.2500000000114922E-02     6.2500000000107636E-01     0.0000000000000000E+00 
    6.2500000000139125E-02     6.8750000000068034E-01     0.0000000000000000E+00 
    6.2500000000163328E-02     7.5000000000028411E-01     0.0000000000000000E+00 
    6.2500000000187531E-02     8.1249999999988787E-01     0.0000000000000000E+00 
    6.2500000000211720E-02     8.7499999999951172E-01     0.0000000000000000E+00 
    6.2500000000235922E-02     9.3749999999974565E-01     0.0000000000000000E+00 
    1.2499999999981980E-01     6.2500000000211733E-02     0.0000000000000000E+00 
    1.2499999999986650E-01     1.2500000000042691E-01     0.0000000000000000E+00 
    1.2499999999991319E-01     1.8750000000063199E-01     0.0000000000000000E+00 
    1.2499999999995989E-01     2.5000000000083678E-01     0.0000000000000000E+00 
    1.2500000000000661E-01     3.1250000000104172E-01     0.0000000000000000E+00 
    1.2500000000005329E-01     3.7500000000124661E-01     0.0000000000000000E+00 
    1.2500000000010000E-01     4.3750000000145117E-01     0.0000000000000000E+00 
    1.2500000000014669E-01     5.0000000000163858E-01     0.0000000000000000E+00 
    1.2500000000019340E-01     5.6250000000129741E-01     0.0000000000000000E+00 
    1.2500000000024011E-01     6.2500000000093847E-01     0.0000000000000000E+00 
    1.2500000000028680E-01     6.8750000000057998E-01     0.0000000000000000E+00 
    1.2500000000033351E-01     7.5000000000022127E-01     0.0000000000000000E+00 
    1.2500000000038020E-01     8.1249999999986211E-01     0.0000000000000000E+00 
    1.2500000000042691E-01     8.7499999999952238E-01     0.0000000000000000E+00 
    1.2500000000047359E-01     9.3749999999975164E-01     0.0000000000000000E+00 
    1.8749999999966760E-01     6.2500000000187531E-02     0.0000000000000000E+00 
    1.8749999999974179E-01     1.2500000000038020E-01     0.0000000000000000E+00 
    1.8749999999981601E-01     1.8750000000055780E-01     0.0000000000000000E+00 
    1.8749999999989009E-01     2.5000000000073502E-01     0.0000000000000000E+00 
    1.8749999999996431E-01     3.1250000000091221E-01     0.0000000000000000E+00 
    1.8750000000003850E-01     3.7500000000108941E-01     0.0000000000000000E+00 
    1.8750000000011269E-01     4.3750000000126649E-01     0.0000000000000000E+00 
    1.8750000000018691E-01     5.0000000000142808E-01     0.0000000000000000E+00 
    1.8750000000026110E-01     5.6250000000112244E-01     0.0000000000000000E+00 
    1.8750000000033529E-01     6.2500000000080080E-01     0.0000000000000000E+00 
    1.8750000000040951E-01     6.8750000000047962E-01     0.0000000000000000E+00 
    1.8750000000048361E-01     7.5000000000015843E-01     0.0000000000000000E+00 
    1.8750000000055780E-01     8.1249999999983680E-01     0.0000000000000000E+00 
    1.8750000000063199E-01     8.7499999999953304E-01     0.0000000000000000E+00 
    1.8750000000070621E-01     9.3749999999975764E-01     0.0000000000000000E+00 
    2.4999999999951281E-01     6.2500000000163314E-02     0.0000000000000000E+00 
    2.4999999999961461E-01     1.2500000000033351E-01     0.0000000000000000E+00 
    2.4999999999971650E-01     1.8750000000048361E-01     0.0000000000000000E+00 
    2.4999999999981831E-01     2.5000000000063310E-01     0.0000000000000000E+00 
    2.4999999999992020E-01     3.1250000000078260E-01     0.0000000000000000E+00 
    2.5000000000002198E-01     3.7500000000093209E-01     0.0000000000000000E+00 
    2.5000000000012390E-01     4.3750000000108180E-01     0.0000000000000000E+00 
    2.5000000000022571E-01     5.0000000000121769E-01     0.0000000000000000E+00 
    2.5000000000032763E-01     5.6250000000094724E-01     0.0000000000000000E+00 
    2.5000000000042938E-01     6.2500000000066314E-01     0.0000000000000000E+00 
    2.5000000000053119E-01     6.8750000000037925E-01     0.0000000000000000E+00 
[...]
CELL_DATA 256 
SCALARS Pressure double 1 
LOOKUP_TABLE default 

    1.5005560656212462E+00 
    1.2538989301223011E+00 
    1.1016151380046908E+00 
    9.9398649279173357E-01 
    9.1049344482820760E-01 
    8.4179614653610146E-01 
    7.8336485314403326E-01 
    7.3282432135498454E-01 
    6.8793461923856791E-01 
    6.6419591622541896E-01 
    6.5075592060277965E-01 
    6.4150607341670873E-01 
    6.3549065880232536E-01 
    6.3201646262309263E-01 
    6.3040011472245661E-01 
    6.2996448440284858E-01 
    1.2539122408614700E+00 
    1.2033256810065291E+00 
    1.1053705567806802E+00 
    1.0119935940988716E+00 
    9.3118056915950220E-01 
    8.6177691062070028E-01 
    8.0159105614794401E-01 
    7.4886845160821469E-01 
    7.0057880296107289E-01 
    6.6994749455295544E-01 
    6.5382767379368656E-01 
    6.4311611929434065E-01 
    6.3606696948239727E-01 
    6.3191659524174970E-01 
    6.2996395882732592E-01 
    6.2952870415376794E-01 
    1.1016393559353430E+00 
    1.1053841328437031E+00 
    1.0614463759140362E+00 
    9.9766002827879019E-01 
    9.3078581581686493E-01 
    8.6739946000649515E-01 
    8.0943550051675817E-01 
    7.5711517549302831E-01 
    7.0865510325855885E-01 
    6.7213374907076429E-01 
    6.5363647792289770E-01 
    6.4205664998208689E-01 
    6.3440003581089821E-01 
    6.2994491134739694E-01 
    6.2800580434373543E-01 
    6.2791140158864878E-01 
    9.9401988871093083E-01 
    1.0120191309370807E+00 
    9.9767529147773060E-01 
    9.6010365312088231E-01 
    9.1081014691785478E-01 
    8.5782107590808698E-01 
    8.0556680438234318E-01 
    7.5622183023300626E-01 
    7.0990108716789135E-01 
    6.6956008299433822E-01 
    6.4913684903075020E-01 
    6.3748105412556899E-01 
    6.2975024303738358E-01 
    6.2540701225106876E-01 
    6.2384802633775871E-01 
    6.2443880069580404E-01 
    9.1053694669884855E-01 
    9.3121925402271788E-01 
    9.3081902914560433E-01 
    9.1083273766950434E-01 
    8.7692170130129321E-01 
    8.3518995397370865E-01 
    7.9037205372989727E-01 
    7.4564765176244086E-01 
    7.0257604594926015E-01 
    6.6118709313983859E-01 
    6.3986803751482435E-01 
    6.2877379928197485E-01 
    6.2146707037108040E-01 
    6.1764526227179417E-01 
    6.1683126528900667E-01 
    6.1844864543112521E-01 
    8.4184900480642078E-01 
    8.6183128524822994E-01 
    8.6745289300316919E-01 
    8.5786847289713908E-01 
    8.3521831221848108E-01 
    8.0323593473203270E-01 
    7.6579756149945277E-01 
    7.2616416601575073E-01 
    6.8660988392298827E-01 
    6.4683589830241595E-01 
    6.2582480761248616E-01 
    6.1562621357880309E-01 
    6.0906633045741043E-01 
    6.0608275487589769E-01 
    6.0633589858729864E-01 
    6.0930345987670864E-01 
    7.8341961707319441E-01 
    8.0165930782818207E-01 
    8.0950381984074005E-01 
    8.0562758562997772E-01 
    7.9042015680349365E-01 
    7.6581910822088561E-01 
    7.3457272014578134E-01 
    6.9948066665975506E-01 
    6.6257583440287282E-01 
    6.2686908830023946E-01 
    6.0731378389541013E-01 
    5.9802258078308723E-01 
    5.9225263681282947E-01 
    5.9024062371969499E-01 
    5.9178844545725573E-01 
    5.9639468185013322E-01 
    7.3287328213080771E-01 
    7.4894056760148453E-01 
    7.5718049908259177E-01 
    7.5626107125869424E-01 
    7.4567673453231820E-01 
    7.2618379793645194E-01 
    6.9948930504695717E-01 
    6.6802538388627353E-01 
    6.3227244583430808E-01 
    6.0251295472678390E-01 
    5.8515860466006442E-01 
    5.7630225014325942E-01 
    5.7093805293259592E-01 
    5.6973062800381546E-01 
    5.7263973567179349E-01 
    5.7912269847169584E-01 
    6.8792167874981514E-01 
    7.0061794548609269E-01 
    7.0873886101701167E-01 
    7.0993523886882359E-01 
    7.0256773521539406E-01 
    6.8659690125665007E-01 
    6.6257213346428134E-01 
    6.3225620088999746E-01 
    6.0185136605508938E-01 
    5.7761144254666896E-01 
    5.6148192691874754E-01 
    5.5138876600928810E-01 
    5.4530873308742855E-01 
    5.4423866827855105E-01 
    5.4830626783916847E-01 
    5.5683633580080616E-01 
    6.6414680068766152E-01 
    6.6989882160719882E-01 
    6.7207666952443523E-01 
    6.6949027086068891E-01 
    6.6113092893832315E-01 
    6.4679089781218635E-01 
    6.2682885294844648E-01 
    6.0246770636243074E-01 
    5.7758367019383450E-01 
    5.5564822190188001E-01 
    5.3830462288973868E-01 
    5.2453902456668233E-01 
    5.1579372883671093E-01 
    5.1347027474124163E-01 
    5.1805049404401815E-01 
    5.2870169600692662E-01 
    6.5069748071606792E-01 
    6.5376660939724662E-01 
    6.5356025867446543E-01 
    6.4903156733925282E-01 
    6.3977766701119709E-01 
    6.2576586137845414E-01 
    6.0726867580872224E-01 
    5.8510970055280709E-01 
    5.6144186799903328E-01 
    5.3828874197332377E-01 
    5.1616575114071916E-01 
    4.9691268990589277E-01 
    4.8302103552094516E-01 
    4.7710598671495469E-01 
    4.8078745898347613E-01 
    4.9344877040303464E-01 
    6.4144437489886452E-01 
    6.4305322666394560E-01 
    6.4198759880681566E-01 
    6.3740059122016268E-01 
    6.2869450418596429E-01 
    6.1556102464363660E-01 
    5.9797083380227078E-01 
    5.7625561238928780E-01 
    5.5134958403192924E-01 
    5.2451352479328184E-01 
    4.9690107865330918E-01 
    4.7043611861823642E-01 
    4.4834550563235581E-01 
    4.3507229599479796E-01 
    4.3489379954922147E-01 
    4.4890685923864720E-01 
    6.3542774345360709E-01 
    6.3600352830890716E-01 
    6.3433412172406523E-01 
    6.2967986915621410E-01 
    6.2139601420457402E-01 
    6.0900129119179447E-01 
    5.9219667873622694E-01 
    5.7088977916304529E-01 
    5.4526816374994280E-01 
    5.1576312788833045E-01 
    4.8300155181102522E-01 
    4.4833654123255262E-01 
    4.1485147241521664E-01 
    3.8853423866779774E-01 
    3.7825651026235180E-01 
    3.9108531639799504E-01 
    6.3195311482756744E-01 
    6.3185301821316997E-01 
    6.2988037845542655E-01 
    6.2534085598839906E-01 
    6.1757885353701980E-01 
    6.0601942697117894E-01 
    5.9018325921332238E-01 
    5.6968023353622310E-01 
    5.4419574100033807E-01 
    5.1343584953709898E-01 
    4.7708092096527527E-01 
    4.3505659305548344E-01 
    3.8852706056595776E-01 
    3.4234294375220553E-01 
    3.0953028333108823E-01 
    3.1210711871317082E-01 
    6.3033662162853477E-01 
    6.2990035282256274E-01 
    6.2794182469250970E-01 
    6.2378352036359741E-01 
    6.1676694475967253E-01 
    6.0627360859970769E-01 
    5.9173036059032269E-01 
    5.7258743027845860E-01 
    5.4826075439790811E-01 
    5.1801265132350327E-01 
    4.8075798305890094E-01 
    4.3487289246365535E-01 
    3.7824372842925069E-01 
    3.0952460571501000E-01 
    2.3467111247997821E-01 
    1.9504947663026567E-01 
    6.2990095300855264E-01 
    6.2946510449890414E-01 
    6.2784760673737650E-01 
    6.2437477659321261E-01 
    6.1838484994771648E-01 
    6.0924112409259412E-01 
    5.9633552899411635E-01 
    5.7906835663551870E-01 
    5.5678806909448297E-01 
    5.2866049208369648E-01 
    4.9341537267233637E-01 
    4.4888162517514202E-01 
    3.9106807040388286E-01 
    3.1209710959845360E-01 
    1.9504540569079387E-01 
    0.0000000000000000E+00 

SCALARS Saturarion double 1 
LOOKUP_TABLE default 

    1.0000000000000000E+00 
    9.9240632294203879E-01 
    9.7346314031557724E-01 
    9.4696881926542353E-01 
    9.1458004680535854E-01 
    8.7781039522398796E-01 
    8.3818479123584666E-01 
    7.9180480828145028E-01 
    4.2809533036469805E-01 
    3.8025768087999239E-05 
    1.0000000086928873E-06 
    1.0000000000000002E-06 
    9.9999999999999995E-07 
    9.9999999999999995E-07 
    9.9999999999999995E-07 
    9.9999999999999995E-07 
    9.9239218120702599E-01 
    9.8695938468757904E-01 
    9.7102615576676887E-01 
    9.4761626362591778E-01 
    9.1823748623127033E-01 
    8.8402205450010363E-01 
    8.4616933633564728E-01 
    8.0328721906638256E-01 
    6.4347286199093490E-01 
    5.6620338398461964E-02 
    8.0090709973733237E-06 
    1.0000009234463351E-06 
    9.9999999999999995E-07 
    9.9999999999999995E-07 
    9.9999999999999995E-07 
    9.9999999999999995E-07 
    9.7341256158233969E-01 
    9.7099978205255733E-01 
    9.6015075234888403E-01 
    9.4200566510624550E-01 
    9.1728026736289014E-01 
    8.8737997219492204E-01 
    8.5345761840230483E-01 
    8.1702630567110146E-01 
    7.4152210412097563E-01 
    1.9859817206924393E-01 
    1.9842687113740733E-04 
    1.0013365755134318E-06 
    1.0000000000026003E-06 
    9.9999999999999995E-07 
    9.9999999999999995E-07 
    9.9999999999999995E-07 
    9.4689226840404783E-01 
    9.4756485008635627E-01 
    9.4198881987925176E-01 
    9.2836531606312078E-01 
    9.0894211315693585E-01 
    8.8375995665095175E-01 
    8.5428304382317244E-01 
    8.2100180385947885E-01 
    7.6550754567390455E-01 
    3.4280791941455480E-01 
    1.4873325216213022E-04 
    1.0024275956286007E-06 
    1.0000000000065878E-06 
    9.9999999999999995E-07 
    9.9999999999999995E-07 
    9.9999999999999995E-07 
    9.1448408297296069E-01 
    9.1821934747420686E-01 
    9.1727736749440758E-01 
    9.0891714010169544E-01 
    8.9414802477032673E-01 
    8.7434584316885477E-01 
    8.4968085497635526E-01 
    8.2109722367526394E-01 
    7.7891178484494250E-01 
    4.7338896098648742E-01 
    1.9461178975289425E-03 
    1.0037234987016195E-06 
    1.0000000000392500E-06 
    9.9999999999999995E-07 
    9.9999999999999995E-07 
    9.9999999999999995E-07 
    8.7770541256607282E-01 
    8.8405195632012479E-01 
    8.8742142185248085E-01 
    8.8368849752573475E-01 
    8.7418692143810262E-01 
    8.5933865919576324E-01 
    8.3991618210674912E-01 
    8.1549035914496948E-01 
    7.8106057721508060E-01 
    5.3160125937867320E-01 
    5.1538439368289920E-03 
    1.0013303597380117E-06 
    1.0000000000249275E-06 
    9.9999999999999995E-07 
    9.9999999999999995E-07 
    9.9999999999999995E-07 
    8.3812179522065600E-01 
    8.4621892249182928E-01 
    8.5337895319944945E-01 
    8.5402274963789382E-01 
    8.4921015443273107E-01 
    8.3964666751987294E-01 
    8.2539016047572400E-01 
    8.0544423288646239E-01 
    7.7131694263645667E-01 
    4.9501742320598868E-01 
    2.8589709328478903E-03 
    1.0094106277367378E-06 
    1.0000000001523179E-06 
    9.9999999999999995E-07 
    9.9999999999999995E-07 
    9.9999999999999995E-07 
    7.9202224738841065E-01 
    8.0350070939067786E-01 
    8.1584865545430207E-01 
    8.2069200000836873E-01 
    8.2001092980512569E-01 
    8.1444336066233047E-01 
    8.0526942783281652E-01 
    7.8878187792266929E-01 
    7.4825429226475138E-01 
    3.4263674984307396E-01 
    2.2971868378262369E-04 
    1.0050124502453124E-06 
    1.0000000000009391E-06 
    9.9999999999999995E-07 
    9.9999999999999995E-07 
    9.9999999999999995E-07 
    4.2892975546431944E-01 
    6.3797907745516580E-01 
    7.3966917923118114E-01 
    7.6686293379619630E-01 
    7.7855713112295033E-01 
    7.8026890959791728E-01 
    7.7036590481275402E-01 
    7.4765896409796451E-01 
    6.0758779404015961E-01 
    5.9874998053748622E-02 
    8.1115562629118396E-05 
    1.0000437678700316E-06 
    1.0000000000002638E-06 
    9.9999999999999995E-07 
    9.9999999999999995E-07 
    9.9999999999999995E-07 
    4.0146176183994556E-05 
    5.5340415170156171E-02 
    2.0635367501768798E-01 
    3.4974231895953545E-01 
    4.7304139829339825E-01 
    5.2623066762292836E-01 
    4.9728651421661707E-01 
    3.4499757661645353E-01 
    5.9494208022538263E-02 
    2.0116148927757846E-04 
    1.0005986992007867E-06 
    1.0000000000123995E-06 
    9.9999999999999995E-07 
    9.9999999999999995E-07 
    9.9999999999999995E-07 
    9.9999999999999995E-07 
    1.0000000096569017E-06 
    7.9375899291036584E-06 
    2.1011581997134462E-04 
    1.5690997121550732E-04 
    1.8010090449495648E-03 
    4.6633061437362519E-03 
    2.5027538016654943E-03 
    2.4132668544160664E-04 
    7.9422073115624950E-05 
    1.0005916158637917E-06 
    1.0000000000370153E-06 
    1.0000000000000002E-06 
    9.9999999999999995E-07 
    9.9999999999999995E-07 
    9.9999999999999995E-07 
    9.9999999999999995E-07 
    1.0000000000000004E-06 
    1.0000008856434427E-06 
    1.0015544309939234E-06 
    1.0024390821626412E-06 
    1.0030979119833488E-06 
    1.0013820517918605E-06 
    1.0077841294955183E-06 
    1.0055083529616301E-06 
    1.0000340254315800E-06 
    1.0000000000116568E-06 
    1.0000000000000002E-06 
    9.9999999999999995E-07 
    9.9999999999999995E-07 
    9.9999999999999995E-07 
    9.9999999999999995E-07 
    9.9999999999999995E-07 
    9.9999999999999995E-07 
    9.9999999999999995E-07 
    1.0000000000036507E-06 
    1.0000000000127614E-06 
    1.0000000000333144E-06 
    1.0000000000278938E-06 
    1.0000000001340433E-06 
    1.0000000000010119E-06 
    1.0000000000002551E-06 
    9.9999999999999995E-07 
    9.9999999999999995E-07 
    9.9999999999999995E-07 
    9.9999999999999995E-07 
    9.9999999999999995E-07 
    9.9999999999999995E-07 
    9.9999999999999995E-07 
    9.9999999999999995E-07 
    9.9999999999999995E-07 
    9.9999999999999995E-07 
    9.9999999999999995E-07 
    9.9999999999999995E-07 
    9.9999999999999995E-07 
    9.9999999999999995E-07 
    9.9999999999999995E-07 
    9.9999999999999995E-07 
    9.9999999999999995E-07 
    9.9999999999999995E-07 
    9.9999999999999995E-07 
    9.9999999999999995E-07 
    9.9999999999999995E-07 
    9.9999999999999995E-07 
    9.9999999999999995E-07 
    9.9999999999999995E-07 
    9.9999999999999995E-07 
    9.9999999999999995E-07 
    9.9999999999999995E-07 
    9.9999999999999995E-07 
    9.9999999999999995E-07 
    9.9999999999999995E-07 
    9.9999999999999995E-07 
    9.9999999999999995E-07 
    9.9999999999999995E-07 
    9.9999999999999995E-07 
    9.9999999999999995E-07 
    9.9999999999999995E-07 
    9.9999999999999995E-07 
    9.9999999999999995E-07 
    9.9999999999999995E-07 
    9.9999999999999995E-07 
    9.9999999999999995E-07 
    9.9999999999999995E-07 
    9.9999999999999995E-07 
    9.9999999999999995E-07 
    9.9999999999999995E-07 
    9.9999999999999995E-07 
    9.9999999999999995E-07 
    9.9999999999999995E-07 
    9.9999999999999995E-07 
    9.9999999999999995E-07 
    9.9999999999999995E-07 
    9.9999999999999995E-07 
    9.9999999999999995E-07 
    9.9999999999999995E-07 
    1.0000000143205988E-06 
