# vtk DataFile Version 2.0
Pressure Field Data 
ASCII 
DATASET UNSTRUCTURED_GRID 

POINTS 289 double 

    0.0000000000000000E+00     0.0000000000000000E+00     0.0000000000000000E+00 
    1.0000000000000000E+00     0.0000000000000000E+00     0.0000000000000000E+00 
    1.0000000000000000E+00     1.0000000000000000E+00     0.0000000000000000E+00 
    0.0000000000000000E+00     1.0000000000000000E+00     0.0000000000000000E+00 
    6.2499999999872928E-02     0.0000000000000000E+00     0.0000000000000000E+00 
    1.2499999999977310E-01     0.0000000000000000E+00     0.0000000000000000E+00 
    1.8749999999959341E-01     0.0000000000000000E+00     0.0000000000000000E+00 
    2.4999999999941089E-01     0.0000000000000000E+00     0.0000000000000000E+00 
    3.1249999999922851E-01     0.0000000000000000E+00     0.0000000000000000E+00 
    3.7499999999904610E-01     0.0000000000000000E+00     0.0000000000000000E+00 
    4.3749999999886358E-01     0.0000000000000000E+00     0.0000000000000000E+00 
    4.9999999999869210E-01     0.0000000000000000E+00     0.0000000000000000E+00 
    5.6249999999884603E-01     0.0000000000000000E+00     0.0000000000000000E+00 
    6.2499999999901090E-01     0.0000000000000000E+00     0.0000000000000000E+00 
    6.8749999999917577E-01     0.0000000000000000E+00     0.0000000000000000E+00 
    7.4999999999934064E-01     0.0000000000000000E+00     0.0000000000000000E+00 
    8.1249999999950551E-01     0.0000000000000000E+00     0.0000000000000000E+00 
    8.7499999999967026E-01     0.0000000000000000E+00     0.0000000000000000E+00 
    9.3749999999983513E-01     0.0000000000000000E+00     0.0000000000000000E+00 
    1.0000000000000000E+00     6.2499999999872928E-02     0.0000000000000000E+00 
    1.0000000000000000E+00     1.2499999999977310E-01     0.0000000000000000E+00 
    1.0000000000000000E+00     1.8749999999959341E-01     0.0000000000000000E+00 
    1.0000000000000000E+00     2.4999999999941089E-01     0.0000000000000000E+00 
    1.0000000000000000E+00     3.1249999999922851E-01     0.0000000000000000E+00 
    1.0000000000000000E+00     3.7499999999904610E-01     0.0000000000000000E+00 
    1.0000000000000000E+00     4.3749999999886358E-01     0.0000000000000000E+00 
    1.0000000000000000E+00     4.9999999999869210E-01     0.0000000000000000E+00 
    1.0000000000000000E+00     5.6249999999884603E-01     0.0000000000000000E+00 
    1.0000000000000000E+00     6.2499999999901090E-01     0.0000000000000000E+00 
    1.0000000000000000E+00     6.8749999999917577E-01     0.0000000000000000E+00 
    1.0000000000000000E+00     7.4999999999934064E-01     0.0000000000000000E+00 
    1.0000000000000000E+00     8.1249999999950551E-01     0.0000000000000000E+00 
    1.0000000000000000E+00     8.7499999999967026E-01     0.0000000000000000E+00 
    1.0000000000000000E+00     9.3749999999983513E-01     0.0000000000000000E+00 
    9.3749999999973976E-01     1.0000000000000000E+00     0.0000000000000000E+00 
    8.7499999999950118E-01     1.0000000000000000E+00     0.0000000000000000E+00 
    8.1249999999991318E-01     1.0000000000000000E+00     0.0000000000000000E+00 
    7.5000000000034706E-01     1.0000000000000000E+00     0.0000000000000000E+00 
    6.8750000000078049E-01     1.0000000000000000E+00     0.0000000000000000E+00 
    6.2500000000121403E-01     1.0000000000000000E+00     0.0000000000000000E+00 
    5.6250000000164757E-01     1.0000000000000000E+00     0.0000000000000000E+00 
    5.0000000000205946E-01     1.0000000000000000E+00     0.0000000000000000E+00 
    4.3750000000182099E-01     1.0000000000000000E+00     0.0000000000000000E+00 
    3.7500000000156092E-01     1.0000000000000000E+00     0.0000000000000000E+00 
    3.1250000000130068E-01     1.0000000000000000E+00     0.0000000000000000E+00 
    2.5000000000104050E-01     1.0000000000000000E+00     0.0000000000000000E+00 
    1.8750000000078040E-01     1.0000000000000000E+00     0.0000000000000000E+00 
    1.2500000000052031E-01     1.0000000000000000E+00     0.0000000000000000E+00 
    6.2500000000260125E-02     1.0000000000000000E+00     0.0000000000000000E+00 
    0.0000000000000000E+00     9.3749999999973976E-01     0.0000000000000000E+00 
    0.0000000000000000E+00     8.7499999999950118E-01     0.0000000000000000E+00 
    0.0000000000000000E+00     8.1249999999991318E-01     0.0000000000000000E+00 
    0.0000000000000000E+00     7.5000000000034706E-01     0.0000000000000000E+00 
    0.0000000000000000E+00     6.8750000000078049E-01     0.0000000000000000E+00 
    0.0000000000000000E+00     6.2500000000121403E-01     0.0000000000000000E+00 
    0.0000000000000000E+00     5.6250000000164757E-01     0.0000000000000000E+00 
    0.0000000000000000E+00     5.0000000000205946E-01     0.0000000000000000E+00 
    0.0000000000000000E+00     4.3750000000182099E-01     0.0000000000000000E+00 
    0.0000000000000000E+00     3.7500000000156092E-01     0.0000000000000000E+00 
    0.0000000000000000E+00     3.1250000000130068E-01     0.0000000000000000E+00 
    0.0000000000000000E+00     2.5000000000104050E-01     0.0000000000000000E+00 
    0.0000000000000000E+00     1.8750000000078040E-01     0.0000000000000000E+00 
    0.0000000000000000E+00     1.2500000000052031E-01     0.0000000000000000E+00 
    0.0000000000000000E+00     6.2500000000260125E-02     0.0000000000000000E+00 
    6.2499999999897131E-02     6.2500000000235922E-02     0.0000000000000000E+00 
    6.2499999999921327E-02     1.2500000000047351E-01     0.0000000000000000E+00 
    6.2499999999945530E-02     1.8750000000070621E-01     0.0000000000000000E+00 
    6.2499999999969733E-02     2.5000000000093858E-01     0.0000000000000000E+00 
    6.2499999999993928E-02     3.1250000000117117E-01     0.0000000000000000E+00 
    6.2500000000018124E-02     3.7500000000140382E-01     0.0000000000000000E+00 
    6.2500000000042327E-02     4.3750000000163619E-01     0.0000000000000000E+00 
    6.2500000000066530E-02     5.0000000000184897E-01     0.0000000000000000E+00 
    6.2500000000090733E-02     5.6250000000147260E-01     0.0000000000000000E+00 
    6.2500000000114922E-02     6.2500000000107636E-01     0.0000000000000000E+00 
    6.2500000000139125E-02     6.8750000000068034E-01     0.0000000000000000E+00 
    6.2500000000163328E-02     7.5000000000028411E-01     0.0000000000000000E+00 
    6.2500000000187531E-02     8.1249999999988787E-01     0.0000000000000000E+00 
    6.2500000000211720E-02     8.7499999999951172E-01     0.0000000000000000E+00 
    6.2500000000235922E-02     9.3749999999974565E-01     0.0000000000000000E+00 
    1.2499999999981980E-01     6.2500000000211733E-02     0.0000000000000000E+00 
    1.2499999999986650E-01     1.2500000000042691E-01     0.0000000000000000E+00 
    1.2499999999991319E-01     1.8750000000063199E-01     0.0000000000000000E+00 
    1.2499999999995989E-01     2.5000000000083678E-01     0.0000000000000000E+00 
    1.2500000000000661E-01     3.1250000000104172E-01     0.0000000000000000E+00 
    1.2500000000005329E-01     3.7500000000124661E-01     0.0000000000000000E+00 
    1.2500000000010000E-01     4.3750000000145117E-01     0.0000000000000000E+00 
    1.2500000000014669E-01     5.0000000000163858E-01     0.0000000000000000E+00 
    1.2500000000019340E-01     5.6250000000129741E-01     0.0000000000000000E+00 
    1.2500000000024011E-01     6.2500000000093847E-01     0.0000000000000000E+00 
    1.2500000000028680E-01     6.8750000000057998E-01     0.0000000000000000E+00 
    1.2500000000033351E-01     7.5000000000022127E-01     0.0000000000000000E+00 
    1.2500000000038020E-01     8.1249999999986211E-01     0.0000000000000000E+00 
    1.2500000000042691E-01     8.7499999999952238E-01     0.0000000000000000E+00 
    1.2500000000047359E-01     9.3749999999975164E-01     0.0000000000000000E+00 
    1.8749999999966760E-01     6.2500000000187531E-02     0.0000000000000000E+00 
    1.8749999999974179E-01     1.2500000000038020E-01     0.0000000000000000E+00 
    1.8749999999981601E-01     1.8750000000055780E-01     0.0000000000000000E+00 
    1.8749999999989009E-01     2.5000000000073502E-01     0.0000000000000000E+00 
    1.8749999999996431E-01     3.1250000000091221E-01     0.0000000000000000E+00 
    1.8750000000003850E-01     3.7500000000108941E-01     0.0000000000000000E+00 
    1.8750000000011269E-01     4.3750000000126649E-01     0.0000000000000000E+00 
    1.8750000000018691E-01     5.0000000000142808E-01     0.0000000000000000E+00 
    1.8750000000026110E-01     5.6250000000112244E-01     0.0000000000000000E+00 
    1.8750000000033529E-01     6.2500000000080080E-01     0.0000000000000000E+00 
    1.8750000000040951E-01     6.8750000000047962E-01     0.0000000000000000E+00 
    1.8750000000048361E-01     7.5000000000015843E-01     0.0000000000000000E+00 
    1.8750000000055780E-01     8.1249999999983680E-01     0.0000000000000000E+00 
    1.8750000000063199E-01     8.7499999999953304E-01     0.0000000000000000E+00 
    1.8750000000070621E-01     9.3749999999975764E-01     0.0000000000000000E+00 
    2.4999999999951281E-01     6.2500000000163314E-02     0.0000000000000000E+00 
    2.4999999999961461E-01     1.2500000000033351E-01     0.0000000000000000E+00 
    2.4999999999971650E-01     1.8750000000048361E-01     0.0000000000000000E+00 
    2.4999999999981831E-01     2.5000000000063310E-01     0.0000000000000000E+00 
    2.4999999999992020E-01     3.1250000000078260E-01     0.0000000000000000E+00 
    2.5000000000002198E-01     3.7500000000093209E-01     0.0000000000000000E+00 
    2.5000000000012390E-01     4.3750000000108180E-01     0.0000000000000000E+00 
    2.5000000000022571E-01     5.0000000000121769E-01     0.0000000000000000E+00 
    2.5000000000032763E-01     5.6250000000094724E-01     0.0000000000000000E+00 
    2.5000000000042938E-01     6.2500000000066314E-01     0.0000000000000000E+00 
    2.5000000000053119E-01     6.8750000000037925E-01     0.0000000000000000E+00 
[...]
CELL_DATA 256 
SCALARS Pressure double 1 
LOOKUP_TABLE default 

    1.4478131080009686E+00 
    1.1754885490143883E+00 
    9.8391255822438628E-01 
    8.5463986440058470E-01 
    7.8899562689203750E-01 
    7.4642118720918937E-01 
    7.1283890196003241E-01 
    6.8631577299547353E-01 
    6.6557937581055493E-01 
    6.4971208413862358E-01 
    6.3797876910797291E-01 
    6.2973033382554688E-01 
    6.2435229584366070E-01 
    6.2124035773345698E-01 
    6.1979119906691960E-01 
    6.1940053532861894E-01 
    1.1754418044815704E+00 
    1.1156265740438900E+00 
    9.8400408261180783E-01 
    8.7278083630589753E-01 
    8.0444886854633135E-01 
    7.5894808433112271E-01 
    7.2286920815571154E-01 
    6.9411978250821971E-01 
    6.7139963279670090E-01 
    6.5379692192286654E-01 
    6.4059137700334745E-01 
    6.3114940117414298E-01 
    6.2486869435603398E-01 
    6.2115243347672622E-01 
    6.1940064739382328E-01 
    6.1900990398177347E-01 
    9.8410870587530330E-01 
    9.8412390529628657E-01 
    9.2625001063821588E-01 
    8.5823765239311334E-01 
    8.0474509288900065E-01 
    7.6249577418155623E-01 
    7.2682076491044079E-01 
    6.9738750004270589E-01 
    6.7358930507686676E-01 
    6.5483643474244591E-01 
    6.4058137676690408E-01 
    6.3029086242286902E-01 
    6.2342025619460140E-01 
    6.1940244610523199E-01 
    6.1764950981289024E-01 
    6.1756079775450479E-01 
    8.5465709866071249E-01 
    8.7283529643246072E-01 
    8.5828414505106265E-01 
    8.2625442321908371E-01 
    7.9125196388869790E-01 
    7.5600672478906072E-01 
    7.2352903019319115E-01 
    6.9518454012568842E-01 
    6.7140185958739618E-01 
    6.5218887712470730E-01 
    6.3735067912469490E-01 
    6.2656600316828626E-01 
    6.1941366248869201E-01 
    6.1539048185598388E-01 
    6.1393403268025559E-01 
    6.1444841571651621E-01 
    7.8894788643752367E-01 
    8.0441574950058092E-01 
    8.0472946000774714E-01 
    7.9123136179963072E-01 
    7.6830743594071593E-01 
    7.4103270278319622E-01 
    7.1325836391850361E-01 
    6.8730728241146744E-01 
    6.6447682155905430E-01 
    6.4542780494321395E-01 
    6.3042384012325836E-01 
    6.1945272934719842E-01 
    6.1228704570232939E-01 
    6.0852777166377980E-01 
    6.0765236136265888E-01 
    6.0906757226200081E-01 
    7.4638751488225452E-01 
    7.5891800446417479E-01 
    7.6247449089246322E-01 
    7.5598966196709205E-01 
    7.4102459570316426E-01 
    7.2051191411753357E-01 
    6.9748717444427721E-01 
    6.7439878746959159E-01 
    6.5300246216732172E-01 
    6.3447463733169707E-01 
    6.1953946648165215E-01 
    6.0855048852252258E-01 
    6.0153660607637938E-01 
    5.9824461623492553E-01 
    5.9820330256388132E-01 
    6.0080961888650697E-01 
    7.1281300186753560E-01 
    7.2284388019048662E-01 
    7.2679951200737292E-01 
    7.2351217222919606E-01 
    7.1324722256029205E-01 
    6.9748214561817368E-01 
    6.7828237399531155E-01 
    6.5774581198326643E-01 
    6.3771053292941804E-01 
    6.1966261848884174E-01 
    6.0472234207614339E-01 
    5.9363376892047282E-01 
    5.8674307019574345E-01 
    5.8399361611158618E-01 
    5.8497705461461325E-01 
    5.8905165431701245E-01 
    6.8629454163563608E-01 
    6.9409836707378447E-01 
    6.9736795931846407E-01 
    6.9516808144802500E-01 
    6.8729484209183545E-01 
    6.7439088846547346E-01 
    6.5774222820112083E-01 
    6.3896637684181945E-01 
    6.1975826032241432E-01 
    6.0173414645685186E-01 
    5.8633052286138343E-01 
    5.7470196019550179E-01 
    5.6759651515982756E-01 
    5.6524318045038502E-01 
    5.6732937759842617E-01 
    5.7312925353446587E-01 
    6.6556111666880158E-01 
    6.7138107039396278E-01 
    6.7357164628044841E-01 
    6.7138618138835893E-01 
    6.6446396802599095E-01 
    6.5299298796728888E-01 
    6.3770456595226921E-01 
    6.1975552759982688E-01 
    6.0058745115735235E-01 
    5.8181045529540287E-01 
    5.6509816576190730E-01 
    5.5204351091748061E-01 
    5.4393298784925281E-01 
    5.4146280867505847E-01 
    5.4452858862167930E-01 
    5.5227857753974530E-01 
    6.4969578167000697E-01 
    6.5378036365832881E-01 
    6.5482036071601224E-01 
    6.5217408288861245E-01 
    6.4541499801371738E-01 
    6.3446435036875604E-01 
    6.1965512374346410E-01 
    6.0172942959799702E-01 
    5.8180827664163381E-01 
    5.6136630074772498E-01 
    5.4220354362666268E-01 
    5.2635263044806324E-01 
    5.1582274086016455E-01 
    5.1211936206092468E-01 
    5.1566407057583075E-01 
    5.2552351524892715E-01 
    6.3796376827472057E-01 
    6.4057620013531569E-01 
    6.4056650635956669E-01 
    6.3733668071459104E-01 
    6.3041126986292040E-01 
    6.1952879439812980E-01 
    6.0471388348965238E-01 
    5.8632439778124246E-01 
    5.6509430726894871E-01 
    5.4220174974852853E-01 
    5.1936970088827494E-01 
    4.9894430401032530E-01 
    4.8379021931992228E-01 
    4.7674666484261441E-01 
    4.7951047822556220E-01 
    4.9145978663358419E-01 
    6.2971618739540081E-01 
    6.3113515159512656E-01 
    6.3027684550035690E-01 
    6.2655262797996225E-01 
    6.1944042344876615E-01 
    6.0853964510822045E-01 
    5.9362469498166281E-01 
    5.7469483569714686E-01 
    5.5203837400638678E-01 
    5.2634939432666372E-01 
    4.9894279514264894E-01 
    4.7208136024324865E-01 
    4.4929521730011146E-01 
    4.3525589919191005E-01 
    4.3437935266253669E-01 
    4.4782820508512222E-01 
    6.2433868575497697E-01 
    6.2485503695874012E-01 
    6.2340679832004930E-01 
    6.1940071426514054E-01 
    6.1227494103228897E-01 
    6.0152566742495417E-01 
    5.8673357450773411E-01 
    5.6758866036521005E-01 
    5.4392687077102742E-01 
    5.1581835387039043E-01 
    4.8378746553281587E-01 
    4.4929393740113166E-01 
    4.1560473245004198E-01 
    3.8889093244559730E-01 
    3.7817071120510548E-01 
    3.9061252117643719E-01 
    6.2122705498273234E-01 
    6.2113912122548043E-01 
    6.1938931090159011E-01 
    6.1537777139268568E-01 
    6.0851575832958604E-01 
    5.9823356922441540E-01 
    5.8398378018448505E-01 
    5.6523475181283322E-01 
    5.4145591428646744E-01 
    5.1211404622729950E-01 
    4.7674288885693117E-01 
    4.3525355387356901E-01 
    3.8888985653530367E-01 
    3.4262403634808064E-01 
    3.0960739454819286E-01 
    3.1196691770603052E-01 
    6.1977804072486431E-01 
    6.1938750135716913E-01 
    6.1763651545925768E-01 
    6.1392139396499568E-01 
    6.0764031219387726E-01 
    5.9819207885590153E-01 
    5.8496687868101593E-01 
    5.6732044063833764E-01 
    5.4452103378366967E-01 
    5.1565797631016186E-01 
    4.7950584959161696E-01 
    4.3437612303585926E-01 
    3.7816875115870940E-01 
    3.0960652421845297E-01 
    2.3474047980440416E-01 
    1.9503784625409909E-01 
    6.1938741238322903E-01 
    6.1899679915400097E-01 
    6.1754781113648793E-01 
    6.1443571537753439E-01 
    6.0905536327947130E-01 
    6.0079812053965476E-01 
    5.8904108112920273E-01 
    5.7311979997081430E-01 
    5.5227040148879181E-01 
    5.2551672126762783E-01 
    4.9145441426911102E-01 
    4.4782422381839021E-01 
    3.9060983426145240E-01 
    3.1196536795000335E-01 
    1.9503721681876954E-01 
    0.0000000000000000E+00 

SCALARS Saturarion double 1 
LOOKUP_TABLE default 

    9.9740249959545535E-01 
    9.2333122729136796E-01 
    8.0934677069187289E-01 
    2.9839419940874745E-01 
    1.0005390879239109E-06 
    1.0000000000862226E-06 
    9.9999999999999995E-07 
    9.9999999999999995E-07 
    9.9999999999999995E-07 
    9.9999999999999995E-07 
    9.9999999999999995E-07 
    9.9999999999999995E-07 
    9.9999999999999995E-07 
    9.9999999999999995E-07 
    9.9999999999999995E-07 
    9.9999999999999995E-07 
    9.2350668954935855E-01 
    8.8525967626917179E-01 
    7.9742579576238870E-01 
    3.0648447737304862E-01 
    4.8333624971356709E-05 
    1.0001738110399943E-06 
    1.0000000000000002E-06 
    9.9999999999999995E-07 
    9.9999999999999995E-07 
    9.9999999999999995E-07 
    9.9999999999999995E-07 
    9.9999999999999995E-07 
    9.9999999999999995E-07 
    9.9999999999999995E-07 
    9.9999999999999995E-07 
    9.9999999999999995E-07 
    8.0999214156679167E-01 
    7.9998933068893796E-01 
    6.7255386369970971E-01 
    7.5049406296983756E-02 
    8.9650183029467420E-05 
    1.0000557091895661E-06 
    1.0000000000004237E-06 
    9.9999999999999995E-07 
    9.9999999999999995E-07 
    9.9999999999999995E-07 
    9.9999999999999995E-07 
    9.9999999999999995E-07 
    9.9999999999999995E-07 
    9.9999999999999995E-07 
    9.9999999999999995E-07 
    9.9999999999999995E-07 
    3.0178594851129648E-01 
    3.0740964230536233E-01 
    7.7412272667561288E-02 
    2.2411734671685344E-04 
    1.0007680041180630E-06 
    1.0000000000112246E-06 
    9.9999999999999995E-07 
    9.9999999999999995E-07 
    9.9999999999999995E-07 
    9.9999999999999995E-07 
    9.9999999999999995E-07 
    9.9999999999999995E-07 
    9.9999999999999995E-07 
    9.9999999999999995E-07 
    9.9999999999999995E-07 
    9.9999999999999995E-07 
    1.0010856374323613E-06 
    5.3276512306817231E-05 
    9.3084250452961178E-05 
    1.0007409815790573E-06 
    1.0000000000226776E-06 
    9.9999999999999995E-07 
    9.9999999999999995E-07 
    9.9999999999999995E-07 
    9.9999999999999995E-07 
    9.9999999999999995E-07 
    9.9999999999999995E-07 
    9.9999999999999995E-07 
    9.9999999999999995E-07 
    9.9999999999999995E-07 
    9.9999999999999995E-07 
    9.9999999999999995E-07 
    1.0000000000001202E-06 
    1.0001930173413379E-06 
    1.0001482699425478E-06 
    1.0000000000112327E-06 
    9.9999999999999995E-07 
    9.9999999999999995E-07 
    9.9999999999999995E-07 
    9.9999999999999995E-07 
    9.9999999999999995E-07 
    9.9999999999999995E-07 
    9.9999999999999995E-07 
    9.9999999999999995E-07 
    9.9999999999999995E-07 
    9.9999999999999995E-07 
    9.9999999999999995E-07 
    9.9999999999999995E-07 
    9.9999999999999995E-07 
    1.0000000000003574E-06 
    1.0000000000006886E-06 
    9.9999999999999995E-07 
    9.9999999999999995E-07 
    9.9999999999999995E-07 
    9.9999999999999995E-07 
    9.9999999999999995E-07 
    9.9999999999999995E-07 
    9.9999999999999995E-07 
    9.9999999999999995E-07 
    9.9999999999999995E-07 
    9.9999999999999995E-07 
    9.9999999999999995E-07 
    9.9999999999999995E-07 
    9.9999999999999995E-07 
    9.9999999999999995E-07 
    9.9999999999999995E-07 
    9.9999999999999995E-07 
    9.9999999999999995E-07 
    9.9999999999999995E-07 
    9.9999999999999995E-07 
    9.9999999999999995E-07 
    9.9999999999999995E-07 
    9.9999999999999995E-07 
    9.9999999999999995E-07 
    9.9999999999999995E-07 
    9.9999999999999995E-07 
    9.9999999999999995E-07 
    9.9999999999999995E-07 
    9.9999999999999995E-07 
    9.9999999999999995E-07 
    9.9999999999999995E-07 
    9.9999999999999995E-07 
    9.9999999999999995E-07 
    9.9999999999999995E-07 
    9.9999999999999995E-07 
    9.9999999999999995E-07 
    9.9999999999999995E-07 
    9.9999999999999995E-07 
    9.9999999999999995E-07 
    9.9999999999999995E-07 
    9.9999999999999995E-07 
    9.9999999999999995E-07 
    9.9999999999999995E-07 
    9.9999999999999995E-07 
    9.9999999999999995E-07 
    9.9999999999999995E-07 
    9.9999999999999995E-07 
    9.9999999999999995E-07 
    9.9999999999999995E-07 
    9.9999999999999995E-07 
    9.9999999999999995E-07 
    9.9999999999999995E-07 
    9.9999999999999995E-07 
    9.9999999999999995E-07 
    9.9999999999999995E-07 
    9.9999999999999995E-07 
    9.9999999999999995E-07 
    9.9999999999999995E-07 
    9.9999999999999995E-07 
    9.9999999999999995E-07 
    9.9999999999999995E-07 
    9.9999999999999995E-07 
    9.9999999999999995E-07 
    9.9999999999999995E-07 
    9.9999999999999995E-07 
    9.9999999999999995E-07 
    9.9999999999999995E-07 
    9.9999999999999995E-07 
    9.9999999999999995E-07 
    9.9999999999999995E-07 
    9.9999999999999995E-07 
    9.9999999999999995E-07 
    9.9999999999999995E-07 
    9.9999999999999995E-07 
    9.9999999999999995E-07 
    9.9999999999999995E-07 
    9.9999999999999995E-07 
    9.9999999999999995E-07 
    9.9999999999999995E-07 
    9.9999999999999995E-07 
    9.9999999999999995E-07 
    9.9999999999999995E-07 
    9.9999999999999995E-07 
    9.9999999999999995E-07 
    9.9999999999999995E-07 
    9.9999999999999995E-07 
    9.9999999999999995E-07 
    9.9999999999999995E-07 
    9.9999999999999995E-07 
    9.9999999999999995E-07 
    9.9999999999999995E-07 
    9.9999999999999995E-07 
    9.9999999999999995E-07 
    9.9999999999999995E-07 
    9.9999999999999995E-07 
    9.9999999999999995E-07 
    9.9999999999999995E-07 
    9.9999999999999995E-07 
    9.9999999999999995E-07 
    9.9999999999999995E-07 
    9.9999999999999995E-07 
    9.9999999999999995E-07 
    9.9999999999999995E-07 
    9.9999999999999995E-07 
    9.9999999999999995E-07 
    9.9999999999999995E-07 
    9.9999999999999995E-07 
    9.9999999999999995E-07 
    9.9999999999999995E-07 
    9.9999999999999995E-07 
    9.9999999999999995E-07 
    9.9999999999999995E-07 
    9.9999999999999995E-07 
    9.9999999999999995E-07 
    9.9999999999999995E-07 
    9.9999999999999995E-07 
    9.9999999999999995E-07 
    9.9999999999999995E-07 
    9.9999999999999995E-07 
    9.9999999999999995E-07 
    9.9999999999999995E-07 
    9.9999999999999995E-07 
    9.9999999999999995E-07 
    9.9999999999999995E-07 
    9.9999999999999995E-07 
    9.9999999999999995E-07 
    9.9999999999999995E-07 
    9.9999999999999995E-07 
    9.9999999999999995E-07 
    9.9999999999999995E-07 
    9.9999999999999995E-07 
    9.9999999999999995E-07 
    9.9999999999999995E-07 
    9.9999999999999995E-07 
    9.9999999999999995E-07 
    9.9999999999999995E-07 
    9.9999999999999995E-07 
    9.9999999999999995E-07 
    9.9999999999999995E-07 
    9.9999999999999995E-07 
    9.9999999999999995E-07 
    9.9999999999999995E-07 
    9.9999999999999995E-07 
    9.9999999999999995E-07 
    9.9999999999999995E-07 
    9.9999999999999995E-07 
    9.9999999999999995E-07 
    9.9999999999999995E-07 
    9.9999999999999995E-07 
    9.9999999999999995E-07 
    9.9999999999999995E-07 
    9.9999999999999995E-07 
    9.9999999999999995E-07 
    9.9999999999999995E-07 
    9.9999999999999995E-07 
    9.9999999999999995E-07 
    9.9999999999999995E-07 
    1.0000000017449077E-06 
