# vtk DataFile Version 2.0
Pressure Field Data 
ASCII 
DATASET UNSTRUCTURED_GRID 

POINTS 289 double 

    0.0000000000000000E+00     0.0000000000000000E+00     0.0000000000000000E+00 
    1.0000000000000000E+00     0.0000000000000000E+00     0.0000000000000000E+00 
    1.0000000000000000E+00     1.0000000000000000E+00     0.0000000000000000E+00 
    0.0000000000000000E+00     1.0000000000000000E+00     0.0000000000000000E+00 
    6.2499999999872928E-02     0.0000000000000000E+00     0.0000000000000000E+00 
    1.2499999999977310E-01     0.0000000000000000E+00     0.0000000000000000E+00 
    1.8749999999959341E-01     0.0000000000000000E+00     0.0000000000000000E+00 
    2.4999999999941089E-01     0.0000000000000000E+00     0.0000000000000000E+00 
    3.1249999999922851E-01     0.0000000000000000E+00     0.0000000000000000E+00 
    3.7499999999904610E-01     0.0000000000000000E+00     0.0000000000000000E+00 
    4.3749999999886358E-01     0.0000000000000000E+00     0.0000000000000000E+00 
    4.9999999999869210E-01     0.0000000000000000E+00     0.0000000000000000E+00 
    5.6249999999884603E-01     0.0000000000000000E+00     0.0000000000000000E+00 
    6.2499999999901090E-01     0.0000000000000000E+00     0.0000000000000000E+00 
    6.8749999999917577E-01     0.0000000000000000E+00     0.0000000000000000E+00 
    7.4999999999934064E-01     0.0000000000000000E+00     0.0000000000000000E+00 
    8.1249999999950551E-01     0.0000000000000000E+00     0.0000000000000000E+00 
    8.7499999999967026E-01     0.0000000000000000E+00     0.0000000000000000E+00 
    9.3749999999983513E-01     0.0000000000000000E+00     0.0000000000000000E+00 
    1.0000000000000000E+00     6.2499999999872928E-02     0.0000000000000000E+00 
    1.0000000000000000E+00     1.2499999999977310E-01     0.0000000000000000E+00 
    1.0000000000000000E+00     1.8749999999959341E-01     0.0000000000000000E+00 
    1.0000000000000000E+00     2.4999999999941089E-01     0.0000000000000000E+00 
    1.0000000000000000E+00     3.1249999999922851E-01     0.0000000000000000E+00 
    1.0000000000000000E+00     3.7499999999904610E-01     0.0000000000000000E+00 
    1.0000000000000000E+00     4.3749999999886358E-01     0.0000000000000000E+00 
    1.0000000000000000E+00     4.9999999999869210E-01     0.0000000000000000E+00 
    1.0000000000000000E+00     5.6249999999884603E-01     0.0000000000000000E+00 
    1.0000000000000000E+00     6.2499999999901090E-01     0.0000000000000000E+00 
    1.0000000000000000E+00     6.8749999999917577E-01     0.0000000000000000E+00 
    1.0000000000000000E+00     7.4999999999934064E-01     0.0000000000000000E+00 
    1.0000000000000000E+00     8.1249999999950551E-01     0.0000000000000000E+00 
    1.0000000000000000E+00     8.7499999999967026E-01     0.0000000000000000E+00 
    1.0000000000000000E+00     9.3749999999983513E-01     0.0000000000000000E+00 
    9.3749999999973976E-01     1.0000000000000000E+00     0.0000000000000000E+00 
    8.7499999999950118E-01     1.0000000000000000E+00     0.0000000000000000E+00 
    8.1249999999991318E-01     1.0000000000000000E+00     0.0000000000000000E+00 
    7.5000000000034706E-01     1.0000000000000000E+00     0.0000000000000000E+00 
    6.8750000000078049E-01     1.0000000000000000E+00     0.0000000000000000E+00 
    6.2500000000121403E-01     1.0000000000000000E+00     0.0000000000000000E+00 
    5.6250000000164757E-01     1.0000000000000000E+00     0.0000000000000000E+00 
    5.0000000000205946E-01     1.0000000000000000E+00     0.0000000000000000E+00 
    4.3750000000182099E-01     1.0000000000000000E+00     0.0000000000000000E+00 
    3.7500000000156092E-01     1.0000000000000000E+00     0.0000000000000000E+00 
    3.1250000000130068E-01     1.0000000000000000E+00     0.0000000000000000E+00 
    2.5000000000104050E-01     1.0000000000000000E+00     0.0000000000000000E+00 
    1.8750000000078040E-01     1.0000000000000000E+00     0.0000000000000000E+00 
    1.2500000000052031E-01     1.0000000000000000E+00     0.0000000000000000E+00 
    6.2500000000260125E-02     1.0000000000000000E+00     0.0000000000000000E+00 
    0.0000000000000000E+00     9.3749999999973976E-01     0.0000000000000000E+00 
    0.0000000000000000E+00     8.7499999999950118E-01     0.0000000000000000E+00 
    0.0000000000000000E+00     8.1249999999991318E-01     0.0000000000000000E+00 
    0.0000000000000000E+00     7.5000000000034706E-01     0.0000000000000000E+00 
    0.0000000000000000E+00     6.8750000000078049E-01     0.0000000000000000E+00 
    0.0000000000000000E+00     6.2500000000121403E-01     0.0000000000000000E+00 
    0.0000000000000000E+00     5.6250000000164757E-01     0.0000000000000000E+00 
    0.0000000000000000E+00     5.0000000000205946E-01     0.0000000000000000E+00 
    0.0000000000000000E+00     4.3750000000182099E-01     0.0000000000000000E+00 
    0.0000000000000000E+00     3.7500000000156092E-01     0.0000000000000000E+00 
    0.0000000000000000E+00     3.1250000000130068E-01     0.0000000000000000E+00 
    0.0000000000000000E+00     2.5000000000104050E-01     0.0000000000000000E+00 
    0.0000000000000000E+00     1.8750000000078040E-01     0.0000000000000000E+00 
    0.0000000000000000E+00     1.2500000000052031E-01     0.0000000000000000E+00 
    0.0000000000000000E+00     6.2500000000260125E-02     0.0000000000000000E+00 
    6.2499999999897131E-02     6.2500000000235922E-02     0.0000000000000000E+00 
    6.2499999999921327E-02     1.2500000000047351E-01     0.0000000000000000E+00 
    6.2499999999945530E-02     1.8750000000070621E-01     0.0000000000000000E+00 
    6.2499999999969733E-02     2.5000000000093858E-01     0.0000000000000000E+00 
    6.2499999999993928E-02     3.1250000000117117E-01     0.0000000000000000E+00 
    6.2500000000018124E-02     3.7500000000140382E-01     0.0000000000000000E+00 
    6.2500000000042327E-02     4.3750000000163619E-01     0.0000000000000000E+00 
    6.2500000000066530E-02     5.0000000000184897E-01     0.0000000000000000E+00 
    6.2500000000090733E-02     5.6250000000147260E-01     0.0000000000000000E+00 
    6.2500000000114922E-02     6.2500000000107636E-01     0.0000000000000000E+00 
    6.2500000000139125E-02     6.8750000000068034E-01     0.0000000000000000E+00 
    6.2500000000163328E-02     7.5000000000028411E-01     0.0000000000000000E+00 
    6.2500000000187531E-02     8.1249999999988787E-01     0.0000000000000000E+00 
    6.2500000000211720E-02     8.7499999999951172E-01     0.0000000000000000E+00 
    6.2500000000235922E-02     9.3749999999974565E-01     0.0000000000000000E+00 
    1.2499999999981980E-01     6.2500000000211733E-02     0.0000000000000000E+00 
    1.2499999999986650E-01     1.2500000000042691E-01     0.0000000000000000E+00 
    1.2499999999991319E-01     1.8750000000063199E-01     0.0000000000000000E+00 
    1.2499999999995989E-01     2.5000000000083678E-01     0.0000000000000000E+00 
    1.2500000000000661E-01     3.1250000000104172E-01     0.0000000000000000E+00 
    1.2500000000005329E-01     3.7500000000124661E-01     0.0000000000000000E+00 
    1.2500000000010000E-01     4.3750000000145117E-01     0.0000000000000000E+00 
    1.2500000000014669E-01     5.0000000000163858E-01     0.0000000000000000E+00 
    1.2500000000019340E-01     5.6250000000129741E-01     0.0000000000000000E+00 
    1.2500000000024011E-01     6.2500000000093847E-01     0.0000000000000000E+00 
    1.2500000000028680E-01     6.8750000000057998E-01     0.0000000000000000E+00 
    1.2500000000033351E-01     7.5000000000022127E-01     0.0000000000000000E+00 
    1.2500000000038020E-01     8.1249999999986211E-01     0.0000000000000000E+00 
    1.2500000000042691E-01     8.7499999999952238E-01     0.0000000000000000E+00 
    1.2500000000047359E-01     9.3749999999975164E-01     0.0000000000000000E+00 
    1.8749999999966760E-01     6.2500000000187531E-02     0.0000000000000000E+00 
    1.8749999999974179E-01     1.2500000000038020E-01     0.0000000000000000E+00 
    1.8749999999981601E-01     1.8750000000055780E-01     0.0000000000000000E+00 
    1.8749999999989009E-01     2.5000000000073502E-01     0.0000000000000000E+00 
    1.8749999999996431E-01     3.1250000000091221E-01     0.0000000000000000E+00 
    1.8750000000003850E-01     3.7500000000108941E-01     0.0000000000000000E+00 
    1.8750000000011269E-01     4.3750000000126649E-01     0.0000000000000000E+00 
    1.8750000000018691E-01     5.0000000000142808E-01     0.0000000000000000E+00 
    1.8750000000026110E-01     5.6250000000112244E-01     0.0000000000000000E+00 
    1.8750000000033529E-01     6.2500000000080080E-01     0.0000000000000000E+00 
    1.8750000000040951E-01     6.8750000000047962E-01     0.0000000000000000E+00 
    1.8750000000048361E-01     7.5000000000015843E-01     0.0000000000000000E+00 
    1.8750000000055780E-01     8.1249999999983680E-01     0.0000000000000000E+00 
    1.8750000000063199E-01     8.7499999999953304E-01     0.0000000000000000E+00 
    1.8750000000070621E-01     9.3749999999975764E-01     0.0000000000000000E+00 
    2.4999999999951281E-01     6.2500000000163314E-02     0.0000000000000000E+00 
    2.4999999999961461E-01     1.2500000000033351E-01     0.0000000000000000E+00 
    2.4999999999971650E-01     1.8750000000048361E-01     0.0000000000000000E+00 
    2.4999999999981831E-01     2.5000000000063310E-01     0.0000000000000000E+00 
    2.4999999999992020E-01     3.1250000000078260E-01     0.0000000000000000E+00 
    2.5000000000002198E-01     3.7500000000093209E-01     0.0000000000000000E+00 
    2.5000000000012390E-01     4.3750000000108180E-01     0.0000000000000000E+00 
    2.5000000000022571E-01     5.0000000000121769E-01     0.0000000000000000E+00 
    2.5000000000032763E-01     5.6250000000094724E-01     0.0000000000000000E+00 
    2.5000000000042938E-01     6.2500000000066314E-01     0.0000000000000000E+00 
    2.5000000000053119E-01     6.8750000000037925E-01     0.0000000000000000E+00 
[...]
CELL_DATA 256 
SCALARS Pressure double 1 
LOOKUP_TABLE default 

    1.5221160745215740E+00 
    1.2762562690138539E+00 
    1.1256474111880914E+00 
    1.0204516949512101E+00 
    9.3993105013176925E-01 
    8.7458475977892047E-01 
    8.1967443249210181E-01 
    7.7269668605761277E-01 
    7.3222005104675325E-01 
    6.9554137412173833E-01 
    6.7473358525010341E-01 
    6.6398645959366132E-01 
    6.5726734044687851E-01 
    6.5338413185930277E-01 
    6.5157675931251624E-01 
    6.5108959794327337E-01 
    1.2762614812191910E+00 
    1.2259617972914210E+00 
    1.1292219793662559E+00 
    1.0378830409500286E+00 
    9.5973732955586577E-01 
    8.9347751690328570E-01 
    8.3675130481876858E-01 
    7.8772967298849683E-01 
    7.4516693400762224E-01 
    7.0672916325900870E-01 
    6.7921118642975442E-01 
    6.6585725476211988E-01 
    6.5793078121103965E-01 
    6.5327787517845359E-01 
    6.5109038022704857E-01 
    6.5060266112708676E-01 
    1.1256547521139617E+00 
    1.1292259679543821E+00 
    1.0860493386946655E+00 
    1.0238579986294696E+00 
    9.5925976708203553E-01 
    8.9868814413832765E-01 
    8.4393305530163887E-01 
    7.9513635222927737E-01 
    7.5201127439126803E-01 
    7.1342287112347169E-01 
    6.8074242495333037E-01 
    6.6465055461997691E-01 
    6.5606434231518651E-01 
    6.5107445531663721E-01 
    6.4890076541041730E-01 
    6.4879376104292719E-01 
    1.0204586476818411E+00 
    1.0378882239395812E+00 
    1.0238609268396917E+00 
    9.8743268214020186E-01 
    9.3999025380693702E-01 
    8.8942032668908910E-01 
    8.3999738343178754E-01 
    7.9375811437312616E-01 
    7.5162353057123099E-01 
    7.1357770548619637E-01 
    6.7849974273261615E-01 
    6.5973959756262956E-01 
    6.5089325452145996E-01 
    6.4600554990432346E-01 
    6.4425000327458004E-01 
    6.4490817504290021E-01 
    9.3993708187391223E-01 
    9.5974246424438980E-01 
    9.5926460639323063E-01 
    9.3999392118806824E-01 
    9.0752079230740756E-01 
    8.6781695658097102E-01 
    8.2544662733492569E-01 
    7.8340899739734138E-01 
    7.4355394801648578E-01 
    7.0675599165141323E-01 
    6.7198681742976074E-01 
    6.5081889675716698E-01 
    6.4175761975169499E-01 
    6.3735237348663321E-01 
    6.3640247917936688E-01 
    6.3820384608083203E-01 
    8.7458834948022812E-01 
    8.9348283014963625E-01 
    8.9869517015895017E-01 
    8.8942819866595113E-01 
    8.6782219106341707E-01 
    8.3750989515130503E-01 
    8.0219599694728505E-01 
    7.6495228288340322E-01 
    7.2809137445266148E-01 
    6.9315351282017768E-01 
    6.6013174009916986E-01 
    6.3703582936740255E-01 
    6.2784930094258218E-01 
    6.2438602855752590E-01 
    6.2463721571156439E-01 
    6.2795456906667846E-01 
    8.1967540914091053E-01 
    8.3675690433043015E-01 
    8.4394405937648453E-01 
    8.4001006898260466E-01 
    8.2545590786433820E-01 
    8.0219735912903944E-01 
    7.7282774585996339E-01 
    7.4000113631827502E-01 
    7.0610314944917851E-01 
    6.7307004162542006E-01 
    6.4175325257392934E-01 
    6.1740509177512626E-01 
    6.0836489838159691E-01 
    6.0639442891277462E-01 
    6.0825374810311206E-01 
    6.1345405950422949E-01 
    7.7269722392177964E-01 
    7.8773803708743828E-01 
    7.9515530617342600E-01 
    7.9377641090298057E-01 
    7.8341865565265878E-01 
    7.6494401814942603E-01 
    7.3998355699043195E-01 
    7.1059342855579233E-01 
    6.7897985793300986E-01 
    6.4723190358873406E-01 
    6.1674238209376453E-01 
    5.9190739372974888E-01 
    5.8325492493277786E-01 
    5.8292430679929708E-01 
    5.8664223749107858E-01 
    5.9404105525650075E-01 
    7.3223026670324365E-01 
    7.4518994932065208E-01 
    7.5205062594852456E-01 
    7.5166210745290096E-01 
    7.4357664939344270E-01 
    7.2807018949704427E-01 
    7.0605199173931898E-01 
    6.7894449546201119E-01 
    6.4861850039414071E-01 
    6.1711539209560140E-01 
    5.8576281415876696E-01 
    5.6116141826699950E-01 
    5.5286589925420671E-01 
    5.5377365121725919E-01 
    5.5928496950868556E-01 
    5.6909276304323131E-01 
    6.9551508670159290E-01 
    7.0669283050505516E-01 
    7.1342750374835850E-01 
    7.1361543555413209E-01 
    7.0679740053971130E-01 
    6.9312177680821940E-01 
    6.7296485323119504E-01 
    6.4714978693831648E-01 
    6.1709076275309294E-01 
    5.8478252535317232E-01 
    5.5065421693114780E-01 
    5.2669412364676127E-01 
    5.1798349490997253E-01 
    5.1894588076575254E-01 
    5.2566411860925011E-01 
    5.3793105774533723E-01 
    6.7474290477382437E-01 
    6.7922467534542486E-01 
    6.8076896058169667E-01 
    6.7854089037277221E-01 
    6.7200368376666220E-01 
    6.6010252599901387E-01 
    6.4168719305826993E-01 
    6.1670580743912151E-01 
    5.8576653356531649E-01 
    5.5066773676473402E-01 
    5.1678948926088308E-01 
    4.9268019773097205E-01 
    4.8092343096849105E-01 
    4.7891049771617572E-01 
    4.8515013567654042E-01 
    4.9960733010339076E-01 
    6.6399530937401741E-01 
    6.6587313408666615E-01 
    6.6467757085761914E-01 
    6.5974932245146900E-01 
    6.5078768744708337E-01 
    6.3696994534090690E-01 
    6.1734357174336052E-01 
    5.9189526470370823E-01 
    5.6119553372733866E-01 
    5.2672591191678231E-01 
    4.9269402538548857E-01 
    4.6428239477788041E-01 
    4.4487065495223665E-01 
    4.3458440189717618E-01 
    4.3671310684176701E-01 
    4.5239153537762744E-01 
    6.5727122542079741E-01 
    6.5793652807680769E-01 
    6.5607110097368093E-01 
    6.5088822119407763E-01 
    6.4172256443496767E-01 
    6.2778651104560546E-01 
    6.0831401438877797E-01 
    5.8321965060349079E-01 
    5.5286013006496182E-01 
    5.1799409934055529E-01 
    4.8093713718532322E-01 
    4.4487596533041807E-01 
    4.1210927467503466E-01 
    3.8728787958561833E-01 
    3.7856245212399553E-01 
    3.9264032070787019E-01 
    6.5338509822426571E-01 
    6.5327910156104030E-01 
    6.5107456655114948E-01 
    6.4599914839208938E-01 
    6.3733127267718137E-01 
    6.2434868261463972E-01 
    6.0635444258627769E-01 
    5.8289141244226739E-01 
    5.5375571034365656E-01 
    5.1894170151137631E-01 
    4.7891380841348519E-01 
    4.3458797849222719E-01 
    3.8728935568540013E-01 
    3.4136325600714124E-01 
    3.0926034291794036E-01 
    3.1256302326725438E-01 
    6.5157634085394300E-01 
    6.5108965814562447E-01 
    6.4889845490129505E-01 
    6.4424322856519667E-01 
    6.3638713889346288E-01 
    6.2461162418632532E-01 
    6.0822278387696960E-01 
    5.8661280138726390E-01 
    5.5926316363632889E-01 
    5.2565206315966306E-01 
    4.8514589616937831E-01 
    4.3671270992193056E-01 
    3.7856292708851830E-01 
    3.0926056879022168E-01 
    2.3443561263226659E-01 
    1.9508112070102399E-01 
    6.5108880257166390E-01 
    6.5060150406054285E-01 
    6.4879120769936904E-01 
    6.4490222589099300E-01 
    6.3819172499190613E-01 
    6.2793457758868787E-01 
    6.1342812978224892E-01 
    5.9401384005488767E-01 
    5.6906941692201218E-01 
    5.3791478748500399E-01 
    4.9959833915238944E-01 
    4.5238772508332875E-01 
    3.9263913708512932E-01 
    3.1256274859314170E-01 
    1.9508104715397748E-01 
    0.0000000000000000E+00 

SCALARS Saturarion double 1 
LOOKUP_TABLE default 

    1.0000000000000000E+00 
    9.9447817908724834E-01 
    9.8076305618235504E-01 
    9.6050558626842530E-01 
    9.3522491791326978E-01 
    9.0590628667622286E-01 
    8.7322033076614436E-01 
    8.3804508386616894E-01 
    7.9696231098372494E-01 
    5.5400377506198584E-01 
    4.1308928292370511E-03 
    1.0000058089387275E-06 
    1.0000000000001128E-06 
    9.9999999999999995E-07 
    9.9999999999999995E-07 
    9.9999999999999995E-07 
    9.9446919730912320E-01 
    9.9063910384158516E-01 
    9.7889103450071147E-01 
    9.6102015169577415E-01 
    9.3818928435228166E-01 
    9.1095051763934909E-01 
    8.8002456469256218E-01 
    8.4604025720375187E-01 
    8.0953101807853300E-01 
    7.0576581593509546E-01 
    1.6517976950286403E-01 
    8.3841660861029690E-05 
    1.0001677738858402E-06 
    9.9999999999999995E-07 
    9.9999999999999995E-07 
    9.9999999999999995E-07 
    9.8073181917907737E-01 
    9.7887302049746772E-01 
    9.7068660661473749E-01 
    9.5673505075428356E-01 
    9.3734668666647569E-01 
    9.1359213132240424E-01 
    8.8596071430584666E-01 
    8.5495649963764198E-01 
    8.2166709998747378E-01 
    7.6639856966855324E-01 
    3.8342297847577561E-01 
    4.5237724368904963E-04 
    1.0145386516092377E-06 
    1.0000000000162524E-06 
    9.9999999999999995E-07 
    9.9999999999999995E-07 
    9.6045368082515004E-01 
    9.6098433935289795E-01 
    9.5671916601235674E-01 
    9.4591654599472419E-01 
    9.3071194938922042E-01 
    9.1064984565523444E-01 
    8.8655359950082369E-01 
    8.5892231096047456E-01 
    8.2905822556554054E-01 
    7.8730436605123089E-01 
    5.5884730831533602E-01 
    1.2625266281049700E-02 
    1.6356737762539236E-06 
    1.0000000243233688E-06 
    9.9999999999999995E-07 
    9.9999999999999995E-07 
    9.3515014551477615E-01 
    9.3816364918637229E-01 
    9.3732767159618413E-01 
    9.3069102541619286E-01 
    9.1867356461489280E-01 
    9.0262811668984910E-01 
    8.8236457407112201E-01 
    8.5846226529934677E-01 
    8.3164321823265208E-01 
    7.9562967844651744E-01 
    6.8218317709222975E-01 
    6.4765115718737207E-02 
    3.5404389232616416E-05 
    1.0000209756701874E-06 
    9.9999999999999995E-07 
    9.9999999999999995E-07 
    9.0577577254972641E-01 
    9.1094677559030335E-01 
    9.1361512031913283E-01 
    9.1061990933699988E-01 
    9.0260158490034004E-01 
    8.9023800312598800E-01 
    8.7408387666369280E-01 
    8.5406713096048292E-01 
    8.3077665780483556E-01 
    8.0187005455954541E-01 
    7.3595806165255118E-01 
    1.8235358530993578E-01 
    1.1076083566875184E-04 
    1.0004348014217503E-06 
    1.0000000000024788E-06 
    9.9999999999999995E-07 
    8.7315438931572364E-01 
    8.8005145432746534E-01 
    8.8597717981439184E-01 
    8.8658311268174306E-01 
    8.8226031257766624E-01 
    8.7397258780598164E-01 
    8.6168360934900878E-01 
    8.4591128391435200E-01 
    8.2614566271143330E-01 
    8.0192011930061313E-01 
    7.5601420412974307E-01 
    2.8544474882081611E-01 
    4.6229943890238567E-05 
    1.0001677590365956E-06 
    1.0000000000001812E-06 
    9.9999999999999995E-07 
    8.3807707771535211E-01 
    8.4623443915750163E-01 
    8.5498789553886789E-01 
    8.5895318727021974E-01 
    8.5824066443863700E-01 
    8.5375188315404149E-01 
    8.4569245290725847E-01 
    8.3404617545933357E-01 
    8.1848577731857852E-01 
    7.9728365985266791E-01 
    7.5618948559836341E-01 
    3.4137490822664018E-01 
    5.1395376907799681E-06 
    1.0000030765221495E-06 
    9.9999999999999995E-07 
    9.9999999999999995E-07 
    7.9740423936380989E-01 
    8.1046271241172696E-01 
    8.2188560844558023E-01 
    8.2900352580469672E-01 
    8.3182115023517700E-01 
    8.3042293065124761E-01 
    8.2579894904861373E-01 
    8.1854450769780740E-01 
    8.0783628029737842E-01 
    7.9136614297385044E-01 
    7.5205144714147831E-01 
    3.5370239227974948E-01 
    2.7841831119686246E-05 
    1.0001052954171999E-06 
    1.0000000000000133E-06 
    9.9999999999999995E-07 
    5.6541441578043816E-01 
    7.0334311267487093E-01 
    7.6309777187793104E-01 
    7.8630918696707142E-01 
    7.9504442059496083E-01 
    8.0050696012393718E-01 
    8.0159173685762841E-01 
    7.9724791783296622E-01 
    7.9155510565289544E-01 
    7.7905646087210023E-01 
    7.3023931426684341E-01 
    2.8110208582267826E-01 
    1.1383597472679554E-04 
    1.0009199124599773E-06 
    9.9999999999999995E-07 
    9.9999999999999995E-07 
    4.9823906643909959E-03 
    1.5800005522956614E-01 
    3.7910437176541817E-01 
    5.5920775575752713E-01 
    6.7513951423571839E-01 
    7.2756722720919698E-01 
    7.5735153442617953E-01 
    7.6196128981818478E-01 
    7.5456604714016062E-01 
    7.3006934862267880E-01 
    6.3591025207254470E-01 
    7.9229708835561283E-02 
    8.1670463955282351E-05 
    1.0001358945887340E-06 
    1.0000000000000285E-06 
    9.9999999999999995E-07 
    1.0000040655221710E-06 
    8.1156425545702077E-05 
    4.6258883592423326E-04 
    1.5455064419598362E-02 
    7.3939412167634430E-02 
    1.8450423487130616E-01 
    2.8908461187959456E-01 
    3.4315804483738205E-01 
    3.5420165789777874E-01 
    2.8003417743206305E-01 
    7.9288878510480304E-02 
    3.6679254639008466E-04 
    1.0025554825582335E-06 
    1.0000000000658837E-06 
    9.9999999999999995E-07 
    9.9999999999999995E-07 
    1.0000000000000836E-06 
    1.0001583402859916E-06 
    1.0163819009977653E-06 
    1.8896693370175704E-06 
    2.7959246116593256E-05 
    1.0924809488664492E-04 
    4.3076190383166337E-05 
    4.4556159229058875E-06 
    3.5886062458170907E-05 
    1.0623322633670548E-04 
    8.1873296009582372E-05 
    1.0025553854432593E-06 
    1.0000000002406645E-06 
    1.0000000000000002E-06 
    9.9999999999999995E-07 
    9.9999999999999995E-07 
    9.9999999999999995E-07 
    9.9999999999999995E-07 
    1.0000000000024132E-06 
    1.0000000359409829E-06 
    1.0000161030823545E-06 
    1.0004437755614808E-06 
    1.0001553661812882E-06 
    1.0000022629585593E-06 
    1.0001201296460058E-06 
    1.0008363945179165E-06 
    1.0001361560747638E-06 
    1.0000000000658341E-06 
    9.9999999999999974E-07 
    9.9999999999999995E-07 
    9.9999999999999995E-07 
    9.9999999999999995E-07 
    9.9999999999999995E-07 
    9.9999999999999995E-07 
    9.9999999999999995E-07 
    9.9999999999999995E-07 
    9.9999999999999995E-07 
    1.0000000000025322E-06 
    1.0000000000012658E-06 
    9.9999999999999995E-07 
    1.0000000000007758E-06 
    1.0000000000011346E-06 
    1.0000000000000285E-06 
    9.9999999999999995E-07 
    9.9999999999999995E-07 
    9.9999999999999995E-07 
    9.9999999999999995E-07 
    9.9999999999999995E-07 
    9.9999999999999995E-07 
    9.9999999999999995E-07 
    9.9999999999999995E-07 
    9.9999999999999995E-07 
    9.9999999999999995E-07 
    9.9999999999999995E-07 
    9.9999999999999995E-07 
    9.9999999999999995E-07 
    9.9999999999999995E-07 
    9.9999999999999995E-07 
    9.9999999999999995E-07 
    9.9999999999999995E-07 
    9.9999999999999995E-07 
    9.9999999999999995E-07 
    9.9999999999999995E-07 
    1.0000000197797799E-06 
