# vtk DataFile Version 2.0
Pressure Field Data 
ASCII 
DATASET UNSTRUCTURED_GRID 

POINTS 289 double 

    0.0000000000000000E+00     0.0000000000000000E+00     0.0000000000000000E+00 
    1.0000000000000000E+00     0.0000000000000000E+00     0.0000000000000000E+00 
    1.0000000000000000E+00     1.0000000000000000E+00     0.0000000000000000E+00 
    0.0000000000000000E+00     1.0000000000000000E+00     0.0000000000000000E+00 
    6.2499999999872928E-02     0.0000000000000000E+00     0.0000000000000000E+00 
    1.2499999999977310E-01     0.0000000000000000E+00     0.0000000000000000E+00 
    1.8749999999959341E-01     0.0000000000000000E+00     0.0000000000000000E+00 
    2.4999999999941089E-01     0.0000000000000000E+00     0.0000000000000000E+00 
    3.1249999999922851E-01     0.0000000000000000E+00     0.0000000000000000E+00 
    3.7499999999904610E-01     0.0000000000000000E+00     0.0000000000000000E+00 
    4.3749999999886358E-01     0.0000000000000000E+00     0.0000000000000000E+00 
    4.9999999999869210E-01     0.0000000000000000E+00     0.0000000000000000E+00 
    5.6249999999884603E-01     0.0000000000000000E+00     0.0000000000000000E+00 
    6.2499999999901090E-01     0.0000000000000000E+00     0.0000000000000000E+00 
    6.8749999999917577E-01     0.0000000000000000E+00     0.0000000000000000E+00 
    7.4999999999934064E-01     0.0000000000000000E+00     0.0000000000000000E+00 
    8.1249999999950551E-01     0.0000000000000000E+00     0.0000000000000000E+00 
    8.7499999999967026E-01     0.0000000000000000E+00     0.0000000000000000E+00 
    9.3749999999983513E-01     0.0000000000000000E+00     0.0000000000000000E+00 
    1.0000000000000000E+00     6.2499999999872928E-02     0.0000000000000000E+00 
    1.0000000000000000E+00     1.2499999999977310E-01     0.0000000000000000E+00 
    1.0000000000000000E+00     1.8749999999959341E-01     0.0000000000000000E+00 
    1.0000000000000000E+00     2.4999999999941089E-01     0.0000000000000000E+00 
    1.0000000000000000E+00     3.1249999999922851E-01     0.0000000000000000E+00 
    1.0000000000000000E+00     3.7499999999904610E-01     0.0000000000000000E+00 
    1.0000000000000000E+00     4.3749999999886358E-01     0.0000000000000000E+00 
    1.0000000000000000E+00     4.9999999999869210E-01     0.0000000000000000E+00 
    1.0000000000000000E+00     5.6249999999884603E-01     0.0000000000000000E+00 
    1.0000000000000000E+00     6.2499999999901090E-01     0.0000000000000000E+00 
    1.0000000000000000E+00     6.8749999999917577E-01     0.0000000000000000E+00 
    1.0000000000000000E+00     7.4999999999934064E-01     0.0000000000000000E+00 
    1.0000000000000000E+00     8.1249999999950551E-01     0.0000000000000000E+00 
    1.0000000000000000E+00     8.7499999999967026E-01     0.0000000000000000E+00 
    1.0000000000000000E+00     9.3749999999983513E-01     0.0000000000000000E+00 
    9.3749999999973976E-01     1.0000000000000000E+00     0.0000000000000000E+00 
    8.7499999999950118E-01     1.0000000000000000E+00     0.0000000000000000E+00 
    8.1249999999991318E-01     1.0000000000000000E+00     0.0000000000000000E+00 
    7.5000000000034706E-01     1.0000000000000000E+00     0.0000000000000000E+00 
    6.8750000000078049E-01     1.0000000000000000E+00     0.0000000000000000E+00 
    6.2500000000121403E-01     1.0000000000000000E+00     0.0000000000000000E+00 
    5.6250000000164757E-01     1.0000000000000000E+00     0.0000000000000000E+00 
    5.0000000000205946E-01     1.0000000000000000E+00     0.0000000000000000E+00 
    4.3750000000182099E-01     1.0000000000000000E+00     0.0000000000000000E+00 
    3.7500000000156092E-01     1.0000000000000000E+00     0.0000000000000000E+00 
    3.1250000000130068E-01     1.0000000000000000E+00     0.0000000000000000E+00 
    2.5000000000104050E-01     1.0000000000000000E+00     0.0000000000000000E+00 
    1.8750000000078040E-01     1.0000000000000000E+00     0.0000000000000000E+00 
    1.2500000000052031E-01     1.0000000000000000E+00     0.0000000000000000E+00 
    6.2500000000260125E-02     1.0000000000000000E+00     0.0000000000000000E+00 
    0.0000000000000000E+00     9.3749999999973976E-01     0.0000000000000000E+00 
    0.0000000000000000E+00     8.7499999999950118E-01     0.0000000000000000E+00 
    0.0000000000000000E+00     8.1249999999991318E-01     0.0000000000000000E+00 
    0.0000000000000000E+00     7.5000000000034706E-01     0.0000000000000000E+00 
    0.0000000000000000E+00     6.8750000000078049E-01     0.0000000000000000E+00 
    0.0000000000000000E+00     6.2500000000121403E-01     0.0000000000000000E+00 
    0.0000000000000000E+00     5.6250000000164757E-01     0.0000000000000000E+00 
    0.0000000000000000E+00     5.0000000000205946E-01     0.0000000000000000E+00 
    0.0000000000000000E+00     4.3750000000182099E-01     0.0000000000000000E+00 
    0.0000000000000000E+00     3.7500000000156092E-01     0.0000000000000000E+00 
    0.0000000000000000E+00     3.1250000000130068E-01     0.0000000000000000E+00 
    0.0000000000000000E+00     2.5000000000104050E-01     0.0000000000000000E+00 
    0.0000000000000000E+00     1.8750000000078040E-01     0.0000000000000000E+00 
    0.0000000000000000E+00     1.2500000000052031E-01     0.0000000000000000E+00 
    0.0000000000000000E+00     6.2500000000260125E-02     0.0000000000000000E+00 
    6.2499999999897131E-02     6.2500000000235922E-02     0.0000000000000000E+00 
    6.2499999999921327E-02     1.2500000000047351E-01     0.0000000000000000E+00 
    6.2499999999945530E-02     1.8750000000070621E-01     0.0000000000000000E+00 
    6.2499999999969733E-02     2.5000000000093858E-01     0.0000000000000000E+00 
    6.2499999999993928E-02     3.1250000000117117E-01     0.0000000000000000E+00 
    6.2500000000018124E-02     3.7500000000140382E-01     0.0000000000000000E+00 
    6.2500000000042327E-02     4.3750000000163619E-01     0.0000000000000000E+00 
    6.2500000000066530E-02     5.0000000000184897E-01     0.0000000000000000E+00 
    6.2500000000090733E-02     5.6250000000147260E-01     0.0000000000000000E+00 
    6.2500000000114922E-02     6.2500000000107636E-01     0.0000000000000000E+00 
    6.2500000000139125E-02     6.8750000000068034E-01     0.0000000000000000E+00 
    6.2500000000163328E-02     7.5000000000028411E-01     0.0000000000000000E+00 
    6.2500000000187531E-02     8.1249999999988787E-01     0.0000000000000000E+00 
    6.2500000000211720E-02     8.7499999999951172E-01     0.0000000000000000E+00 
    6.2500000000235922E-02     9.3749999999974565E-01     0.0000000000000000E+00 
    1.2499999999981980E-01     6.2500000000211733E-02     0.0000000000000000E+00 
    1.2499999999986650E-01     1.2500000000042691E-01     0.0000000000000000E+00 
    1.2499999999991319E-01     1.8750000000063199E-01     0.0000000000000000E+00 
    1.2499999999995989E-01     2.5000000000083678E-01     0.0000000000000000E+00 
    1.2500000000000661E-01     3.1250000000104172E-01     0.0000000000000000E+00 
    1.2500000000005329E-01     3.7500000000124661E-01     0.0000000000000000E+00 
    1.2500000000010000E-01     4.3750000000145117E-01     0.0000000000000000E+00 
    1.2500000000014669E-01     5.0000000000163858E-01     0.0000000000000000E+00 
    1.2500000000019340E-01     5.6250000000129741E-01     0.0000000000000000E+00 
    1.2500000000024011E-01     6.2500000000093847E-01     0.0000000000000000E+00 
    1.2500000000028680E-01     6.8750000000057998E-01     0.0000000000000000E+00 
    1.2500000000033351E-01     7.5000000000022127E-01     0.0000000000000000E+00 
    1.2500000000038020E-01     8.1249999999986211E-01     0.0000000000000000E+00 
    1.2500000000042691E-01     8.7499999999952238E-01     0.0000000000000000E+00 
    1.2500000000047359E-01     9.3749999999975164E-01     0.0000000000000000E+00 
    1.8749999999966760E-01     6.2500000000187531E-02     0.0000000000000000E+00 
    1.8749999999974179E-01     1.2500000000038020E-01     0.0000000000000000E+00 
    1.8749999999981601E-01     1.8750000000055780E-01     0.0000000000000000E+00 
    1.8749999999989009E-01     2.5000000000073502E-01     0.0000000000000000E+00 
    1.8749999999996431E-01     3.1250000000091221E-01     0.0000000000000000E+00 
    1.8750000000003850E-01     3.7500000000108941E-01     0.0000000000000000E+00 
    1.8750000000011269E-01     4.3750000000126649E-01     0.0000000000000000E+00 
    1.8750000000018691E-01     5.0000000000142808E-01     0.0000000000000000E+00 
    1.8750000000026110E-01     5.6250000000112244E-01     0.0000000000000000E+00 
    1.8750000000033529E-01     6.2500000000080080E-01     0.0000000000000000E+00 
    1.8750000000040951E-01     6.8750000000047962E-01     0.0000000000000000E+00 
    1.8750000000048361E-01     7.5000000000015843E-01     0.0000000000000000E+00 
    1.8750000000055780E-01     8.1249999999983680E-01     0.0000000000000000E+00 
    1.8750000000063199E-01     8.7499999999953304E-01     0.0000000000000000E+00 
    1.8750000000070621E-01     9.3749999999975764E-01     0.0000000000000000E+00 
    2.4999999999951281E-01     6.2500000000163314E-02     0.0000000000000000E+00 
    2.4999999999961461E-01     1.2500000000033351E-01     0.0000000000000000E+00 
    2.4999999999971650E-01     1.8750000000048361E-01     0.0000000000000000E+00 
    2.4999999999981831E-01     2.5000000000063310E-01     0.0000000000000000E+00 
    2.4999999999992020E-01     3.1250000000078260E-01     0.0000000000000000E+00 
    2.5000000000002198E-01     3.7500000000093209E-01     0.0000000000000000E+00 
    2.5000000000012390E-01     4.3750000000108180E-01     0.0000000000000000E+00 
    2.5000000000022571E-01     5.0000000000121769E-01     0.0000000000000000E+00 
    2.5000000000032763E-01     5.6250000000094724E-01     0.0000000000000000E+00 
    2.5000000000042938E-01     6.2500000000066314E-01     0.0000000000000000E+00 
    2.5000000000053119E-01     6.8750000000037925E-01     0.0000000000000000E+00 
[...]
CELL_DATA 256 
SCALARS Pressure double 1 
LOOKUP_TABLE default 

    1.5304218218221066E+00 
    1.2847048335585258E+00 
    1.1343980741796269E+00 
    1.0296433164032635E+00 
    9.4965992141451960E-01 
    8.8490938712184797E-01 
    8.3061533277749866E-01 
    7.8420993636962488E-01 
    7.4421635317098822E-01 
    7.0872077143586487E-01 
    6.8544420117670291E-01 
    6.7367754793138479E-01 
    6.6665822974191957E-01 
    6.6261097429237714E-01 
    6.6072754234637032E-01 
    6.6021990031415045E-01 
    1.2847165327939614E+00 
    1.2344683686674847E+00 
    1.1379498055380770E+00 
    1.0469833710055061E+00 
    9.6932572751058732E-01 
    9.0363503351141461E-01 
    8.4752835441662044E-01 
    7.9913807876041409E-01 
    7.5721582166597812E-01 
    7.2025090158350935E-01 
    6.9057183558760316E-01 
    6.7566948019502593E-01 
    6.6735011881125994E-01 
    6.6250000525550179E-01 
    6.6022061357368189E-01 
    6.5971246282728280E-01 
    1.1344220058800383E+00 
    1.1379632487227107E+00 
    1.0949297062335437E+00 
    1.0330364178329190E+00 
    9.6886232757060953E-01 
    9.0881290097151890E-01 
    8.5465119847200943E-01 
    8.0648680013758678E-01 
    7.6401019008844595E-01 
    7.2654021477151753E-01 
    6.9313036444387011E-01 
    6.7451759467205508E-01 
    6.6539121906835208E-01 
    6.6019903596468898E-01 
    6.5793764261128385E-01 
    6.5782716721336032E-01 
    1.0296796690002123E+00 
    1.0470103923743803E+00 
    1.0330516752248360E+00 
    9.9684493673249519E-01 
    9.4975590274528976E-01 
    8.9964812070207456E-01 
    8.5077309945460933E-01 
    8.0514218848502395E-01 
    7.6364788598770639E-01 
    7.2647900201114035E-01 
    6.9241274054728419E-01 
    6.6996892589946999E-01 
    6.6001817457031242E-01 
    6.5491660728402179E-01 
    6.5309134845450756E-01 
    6.5377867999229922E-01 
    9.4970946326171402E-01 
    9.6936698956640899E-01 
    9.6889436816220154E-01 
    9.4977514384092010E-01 
    9.1758589536381363E-01 
    8.7827784952790799E-01 
    8.3639601473389957E-01 
    7.9491995520465442E-01 
    7.5569071248731023E-01 
    7.1972901475363049E-01 
    6.8675638290213403E-01 
    6.6106097097871541E-01 
    6.5032288468437993E-01 
    6.4584924696409329E-01 
    6.4490386288762214E-01 
    6.4679177722536751E-01 
    8.8497136673766796E-01 
    9.0369170979796876E-01 
    9.0886376854875750E-01 
    8.9969016405826086E-01 
    8.7830380852845935E-01 
    8.4832230769536610E-01 
    8.1343169729257025E-01 
    7.7667924073094619E-01 
    7.4036099666813338E-01 
    7.0610303899404570E-01 
    6.7458439682782800E-01 
    6.4669206220789854E-01 
    6.3547727729972325E-01 
    6.3223465423792335E-01 
    6.3262828561514539E-01 
    6.3611590180360822E-01 
    8.3068819902040036E-01 
    8.4759994090366275E-01 
    8.5472214594413887E-01 
    8.5084009005523975E-01 
    8.3645266588521305E-01 
    8.1346485277845049E-01 
    7.8446066121787683E-01 
    7.5206739432679670E-01 
    7.1862479020429670E-01 
    6.8606923203742420E-01 
    6.5568581023065564E-01 
    6.2681285291792666E-01 
    6.1542183645854676E-01 
    6.1357893426239651E-01 
    6.1562403823732026E-01 
    6.2106020996286981E-01 
    7.8429478761909921E-01 
    7.9922471581697418E-01 
    8.0657879514720821E-01 
    8.0523416958935412E-01 
    7.9500816830414633E-01 
    7.7674775370624927E-01 
    7.5210037059172652E-01 
    7.2311977204125577E-01 
    6.9195063321330952E-01 
    6.6063013453715602E-01 
    6.3074917938664365E-01 
    6.0140820917162119E-01 
    5.8997706842047382E-01 
    5.8946842120265475E-01 
    5.9331958339522561E-01 
    6.0098622821345049E-01 
    7.4431449685052709E-01 
    7.5732288090839450E-01 
    7.6413503448302988E-01 
    7.6376928725676563E-01 
    7.5581380908506024E-01 
    7.4047153586379755E-01 
    7.1869177531716932E-01 
    6.9197833217305038E-01 
    6.6214850511672207E-01 
    6.3120717202881926E-01 
    6.0098531935836763E-01 
    5.7078531766644536E-01 
    5.5903444905768673E-01 
    5.5948603040097744E-01 
    5.6512967952002791E-01 
    5.7524716656039176E-01 
    7.0888609742235753E-01 
    7.2036769261075806E-01 
    7.2666238753135670E-01 
    7.2659561340115464E-01 
    7.1987785159196238E-01 
    7.0626285581403492E-01 
    6.8616931047835950E-01 
    6.6068719722523161E-01 
    6.3123782879292267E-01 
    5.9956080770464582E-01 
    5.6770095923217068E-01 
    5.3571325387759439E-01 
    5.2284605601895384E-01 
    5.2340469644442800E-01 
    5.3042154722482293E-01 
    5.4310007964008222E-01 
    6.8553991061131192E-01 
    6.9068814503926024E-01 
    6.9325639822265739E-01 
    6.9251618456461916E-01 
    6.8686838887576973E-01 
    6.7473730611331473E-01 
    6.5580277910002127E-01 
    6.3085349814257707E-01 
    6.0106966552935626E-01 
    5.6772315838062282E-01 
    5.3148206650868390E-01 
    4.9820265879974357E-01 
    4.8277080118949461E-01 
    4.8143882475755739E-01 
    4.8846694488951647E-01 
    5.0353910557016401E-01 
    6.7373993915090125E-01 
    6.7574531620593259E-01 
    6.7461750556658961E-01 
    6.7005447551910080E-01 
    6.6114900817801414E-01 
    6.4683224205286427E-01 
    6.2695543251360453E-01 
    6.0157352559760013E-01 
    5.7089390260262984E-01 
    5.3569779645443383E-01 
    4.9815764250114286E-01 
    4.6410551866423988E-01 
    4.4264064620270360E-01 
    4.3485166127713698E-01 
    4.3837869695674092E-01 
    4.5490550066314939E-01 
    6.6672373545891161E-01 
    6.6741968484573388E-01 
    6.6546888127325188E-01 
    6.6009146811999875E-01 
    6.5038894631001065E-01 
    6.3557384879120915E-01 
    6.1551355036378819E-01 
    5.9003990761041558E-01 
    5.5901267349538308E-01 
    5.2272072911910761E-01 
    4.8264912162704082E-01 
    4.4258992653392970E-01 
    4.0918002695552419E-01 
    3.8630737936678644E-01 
    3.7892697765986455E-01 
    3.9386253782246727E-01 
    6.6267730343253406E-01 
    6.6256757628683305E-01 
    6.6026935435416423E-01 
    6.5498600956680619E-01 
    6.4591448211076441E-01 
    6.3230388952861238E-01 
    6.1364137812136521E-01 
    5.8949832475840502E-01 
    5.5944374144837838E-01 
    5.2328021494864030E-01 
    4.8130733378988372E-01 
    4.3477212181909902E-01 
    3.8627277962959083E-01 
    3.4052518636532397E-01 
    3.0906831260099443E-01 
    3.1294296242201020E-01 
    6.6079404324041802E-01 
    6.6028745781660081E-01 
    6.5800521698392744E-01 
    6.5315819870391534E-01 
    6.4496754542988732E-01 
    6.3268871441039098E-01 
    6.1567557900941949E-01 
    5.9334833515801233E-01 
    5.6511582891480761E-01 
    5.3035637455644213E-01 
    4.8837652498819728E-01 
    4.3829988289364918E-01 
    3.7887565850652599E-01 
    3.0904554864936096E-01 
    2.3424951557041074E-01 
    1.9511514049547679E-01 
    6.6028643249979169E-01 
    6.5977911227767672E-01 
    6.5789401978861406E-01 
    6.5384491670495126E-01 
    6.4685558674998178E-01 
    6.3617559373743093E-01 
    6.2111147071856587E-01 
    6.0101968574902664E-01 
    5.7524951545343683E-01 
    5.4306299862783391E-01 
    5.0347282309995700E-01 
    4.5483370513244131E-01 
    3.9380442212670824E-01 
    3.1290677342459672E-01 
    1.9510019794737379E-01 
    0.0000000000000000E+00 

SCALARS Saturarion double 1 
LOOKUP_TABLE default 

    1.0000000000000000E+00 
    9.9485784233450769E-01 
    9.8210961102130767E-01 
    9.6306220375068219E-01 
    9.3918664385902539E-01 
    9.1132710071533607E-01 
    8.8020566134291345E-01 
    8.4635189039861736E-01 
    8.0914202150400460E-01 
    7.1725825944550436E-01 
    5.4676509227464712E-02 
    1.0004758833733025E-06 
    1.0000000000327763E-06 
    9.9999999999999995E-07 
    9.9999999999999995E-07 
    9.9999999999999995E-07 
    9.9484974677569127E-01 
    9.9130405146434886E-01 
    9.8034472912970627E-01 
    9.6355465157479780E-01 
    9.4201079799508969E-01 
    9.1614726347735220E-01 
    8.8672031474675284E-01 
    8.5409544571081120E-01 
    8.1973245044921816E-01 
    7.5944451006037483E-01 
    3.3732355683661253E-01 
    2.5760110019479386E-04 
    1.0045205667600756E-06 
    9.9999999999999995E-07 
    9.9999999999999995E-07 
    9.9999999999999995E-07 
    9.8208162235589691E-01 
    9.8032818106958075E-01 
    9.7266379523071866E-01 
    9.5952189186837888E-01 
    9.4121528985262037E-01 
    9.1865870747597622E-01 
    8.9237864075436268E-01 
    8.6262871913137495E-01 
    8.3075671355836567E-01 
    7.8833980325305875E-01 
    5.6145516378539373E-01 
    1.9823708736285556E-02 
    2.2987133005341361E-06 
    1.0000000559401507E-06 
    9.9999999999999995E-07 
    9.9999999999999995E-07 
    9.6301531837684018E-01 
    9.6352223574309936E-01 
    9.5950702229212037E-01 
    9.4930344076198736E-01 
    9.3488865627242335E-01 
    9.1587320078231627E-01 
    8.9295777100680773E-01 
    8.6649227969280440E-01 
    8.3776493199061886E-01 
    8.0351250973242994E-01 
    7.0195730856761418E-01 
    1.0056641837583422E-01 
    7.4527202823659546E-05 
    1.0001049484359775E-06 
    9.9999999999999995E-07 
    9.9999999999999995E-07 
    9.3911486926237220E-01 
    9.4198367124303672E-01 
    9.4119438803296718E-01 
    9.3486738904957289E-01 
    9.2346879117216585E-01 
    9.0822313074853733E-01 
    8.8888095756726104E-01 
    8.6599142119568628E-01 
    8.4014091426187421E-01 
    8.0850855882436523E-01 
    7.4207064054927263E-01 
    2.6490778091366851E-01 
    2.3906046475109837E-04 
    1.0038975726369892E-06 
    1.0000000000035253E-06 
    9.9999999999999995E-07 
    9.1120652362178045E-01 
    9.1614210796690243E-01 
    9.1867550781531959E-01 
    9.1584692212458985E-01 
    9.0819587419291370E-01 
    8.9632456068630773E-01 
    8.8092367449447584E-01 
    8.6174523758631172E-01 
    8.3933468708635417E-01 
    8.1251126137934215E-01 
    7.6833234739513001E-01 
    3.9947497820355155E-01 
    3.8400978432708428E-04 
    1.0041898737666379E-06 
    1.0000000000168587E-06 
    9.9999999999999995E-07 
    8.8011513143110987E-01 
    8.8672493557754128E-01 
    8.9239551248683824E-01 
    8.9295579457419516E-01 
    8.8881395183554157E-01 
    8.8084522642102725E-01 
    8.6906185365867861E-01 
    8.5386154256808611E-01 
    8.3501324658971698E-01 
    8.1260032827238016E-01 
    7.7863835205935217E-01 
    5.2426164315718538E-01 
    2.7803403633517611E-03 
    1.0435441562831012E-06 
    1.0000000013231656E-06 
    9.9999999999999995E-07 
    8.4639949325272079E-01 
    8.5421636696178638E-01 
    8.6262837910146195E-01 
    8.6654802832922340E-01 
    8.6590222979911946E-01 
    8.6148523173027025E-01 
    8.5370212669854806E-01 
    8.4246415435213073E-01 
    8.2770503557327413E-01 
    8.0857657029844721E-01 
    7.7999221536099250E-01 
    6.0839195338199870E-01 
    2.0616173848829630E-02 
    1.7945688956950455E-06 
    1.0000000273457018E-06 
    1.0000000000000002E-06 
    8.0944109055743640E-01 
    8.2002931172855575E-01 
    8.3124655345815723E-01 
    8.3787691334420356E-01 
    8.4014679826806005E-01 
    8.3902773852614088E-01 
    8.3470757237727888E-01 
    8.2762697081839032E-01 
    8.1718823275758445E-01 
    8.0246628944646203E-01 
    7.7660670982038649E-01 
    6.4885797851104809E-01 
    3.7136329547104573E-02 
    1.3480038698353015E-06 
    1.0000000120504493E-06 
    9.9999999999999995E-07 
    7.2201060614538271E-01 
    7.5979168987704937E-01 
    7.8663333019780401E-01 
    8.0133041725276999E-01 
    8.0900016885754344E-01 
    8.1218089510835867E-01 
    8.1168592345798762E-01 
    8.0830723808155447E-01 
    8.0270366147193539E-01 
    7.9360988444284741E-01 
    7.7137480374085132E-01 
    6.5143287236738279E-01 
    4.4499377283996826E-02 
    1.7589247453849783E-06 
    1.0000000693286872E-06 
    9.9999999999999995E-07 
    6.2466164263752781E-02 
    3.3024637137872992E-01 
    5.5533006907305926E-01 
    6.9991802445822870E-01 
    7.4626504866723964E-01 
    7.6286708930860081E-01 
    7.7577800108879313E-01 
    7.8096523860517275E-01 
    7.7701908200316350E-01 
    7.7140520360431752E-01 
    7.5066965641902172E-01 
    5.8386879524484514E-01 
    2.0711639254370674E-02 
    2.4672711490083839E-06 
    1.0000000714909501E-06 
    9.9999999999999995E-07 
    1.0003015980556762E-06 
    2.4347785339538236E-04 
    1.9767477253469078E-02 
    1.0482961534838281E-01 
    2.6134470005541188E-01 
    4.0003569281305773E-01 
    5.2851728570220746E-01 
    6.1155310934329632E-01 
    6.4291509289383775E-01 
    6.4123435257495054E-01 
    5.8302818768730047E-01 
    2.0833838130008467E-01 
    6.7918280524214495E-04 
    1.0214229851451145E-06 
    1.0000000001443443E-06 
    9.9999999999999995E-07 
    1.0000000000207249E-06 
    1.0040636415370017E-06 
    2.3231832677627244E-06 
    8.0981263489789167E-05 
    1.9509952409019855E-04 
    4.1926738868478393E-04 
    4.7655747634219748E-03 
    2.6640467853545485E-02 
    4.5644805781393946E-02 
    4.9702187885486263E-02 
    2.0754978929773717E-02 
    6.8416298269177299E-04 
    1.0649484481396930E-06 
    1.0000000060758952E-06 
    9.9999999999999995E-07 
    9.9999999999999995E-07 
    9.9999999999999995E-07 
    9.9999999999999995E-07 
    1.0000000575940399E-06 
    1.0001321529253353E-06 
    1.0021835472297054E-06 
    1.0033294849511007E-06 
    1.0984199111313819E-06 
    2.0834236020694009E-06 
    1.3329775257056380E-06 
    2.0988211580817832E-06 
    2.6098549752864505E-06 
    1.0221060131956100E-06 
    1.0000000065904673E-06 
    1.0000000000000008E-06 
    9.9999999999999995E-07 
    9.9999999999999995E-07 
    9.9999999999999995E-07 
    9.9999999999999995E-07 
    9.9999999999999995E-07 
    9.9999999999999995E-07 
    1.0000000000022473E-06 
    1.0000000000210881E-06 
    1.0000000027159152E-06 
    1.0000000410518179E-06 
    1.0000000122784331E-06 
    1.0000000959454281E-06 
    1.0000000782186059E-06 
    1.0000000000016843E-06 
    1.0000000000000002E-06 
    9.9999999999999995E-07 
    9.9999999999999995E-07 
    9.9999999999999995E-07 
    9.9999999999999995E-07 
    9.9999999999999995E-07 
    9.9999999999999995E-07 
    9.9999999999999995E-07 
    9.9999999999999995E-07 
    9.9999999999999995E-07 
    9.9999999999999995E-07 
    1.0000000000000002E-06 
    9.9999999999999995E-07 
    9.9999999999999974E-07 
    9.9999999999999995E-07 
    9.9999999999999995E-07 
    9.9999999999999995E-07 
    9.9999999999999995E-07 
    9.9999999999999995E-07 
    1.0000000212636197E-06 
