# vtk DataFile Version 2.0
Pressure Field Data 
ASCII 
DATASET UNSTRUCTURED_GRID 

POINTS 289 double 

    0.0000000000000000E+00     0.0000000000000000E+00     0.0000000000000000E+00 
    1.0000000000000000E+00     0.0000000000000000E+00     0.0000000000000000E+00 
    1.0000000000000000E+00     1.0000000000000000E+00     0.0000000000000000E+00 
    0.0000000000000000E+00     1.0000000000000000E+00     0.0000000000000000E+00 
    6.2499999999872928E-02     0.0000000000000000E+00     0.0000000000000000E+00 
    1.2499999999977310E-01     0.0000000000000000E+00     0.0000000000000000E+00 
    1.8749999999959341E-01     0.0000000000000000E+00     0.0000000000000000E+00 
    2.4999999999941089E-01     0.0000000000000000E+00     0.0000000000000000E+00 
    3.1249999999922851E-01     0.0000000000000000E+00     0.0000000000000000E+00 
    3.7499999999904610E-01     0.0000000000000000E+00     0.0000000000000000E+00 
    4.3749999999886358E-01     0.0000000000000000E+00     0.0000000000000000E+00 
    4.9999999999869210E-01     0.0000000000000000E+00     0.0000000000000000E+00 
    5.6249999999884603E-01     0.0000000000000000E+00     0.0000000000000000E+00 
    6.2499999999901090E-01     0.0000000000000000E+00     0.0000000000000000E+00 
    6.8749999999917577E-01     0.0000000000000000E+00     0.0000000000000000E+00 
    7.4999999999934064E-01     0.0000000000000000E+00     0.0000000000000000E+00 
    8.1249999999950551E-01     0.0000000000000000E+00     0.0000000000000000E+00 
    8.7499999999967026E-01     0.0000000000000000E+00     0.0000000000000000E+00 
    9.3749999999983513E-01     0.0000000000000000E+00     0.0000000000000000E+00 
    1.0000000000000000E+00     6.2499999999872928E-02     0.0000000000000000E+00 
    1.0000000000000000E+00     1.2499999999977310E-01     0.0000000000000000E+00 
    1.0000000000000000E+00     1.8749999999959341E-01     0.0000000000000000E+00 
    1.0000000000000000E+00     2.4999999999941089E-01     0.0000000000000000E+00 
    1.0000000000000000E+00     3.1249999999922851E-01     0.0000000000000000E+00 
    1.0000000000000000E+00     3.7499999999904610E-01     0.0000000000000000E+00 
    1.0000000000000000E+00     4.3749999999886358E-01     0.0000000000000000E+00 
    1.0000000000000000E+00     4.9999999999869210E-01     0.0000000000000000E+00 
    1.0000000000000000E+00     5.6249999999884603E-01     0.0000000000000000E+00 
    1.0000000000000000E+00     6.2499999999901090E-01     0.0000000000000000E+00 
    1.0000000000000000E+00     6.8749999999917577E-01     0.0000000000000000E+00 
    1.0000000000000000E+00     7.4999999999934064E-01     0.0000000000000000E+00 
    1.0000000000000000E+00     8.1249999999950551E-01     0.0000000000000000E+00 
    1.0000000000000000E+00     8.7499999999967026E-01     0.0000000000000000E+00 
    1.0000000000000000E+00     9.3749999999983513E-01     0.0000000000000000E+00 
    9.3749999999973976E-01     1.0000000000000000E+00     0.0000000000000000E+00 
    8.7499999999950118E-01     1.0000000000000000E+00     0.0000000000000000E+00 
    8.1249999999991318E-01     1.0000000000000000E+00     0.0000000000000000E+00 
    7.5000000000034706E-01     1.0000000000000000E+00     0.0000000000000000E+00 
    6.8750000000078049E-01     1.0000000000000000E+00     0.0000000000000000E+00 
    6.2500000000121403E-01     1.0000000000000000E+00     0.0000000000000000E+00 
    5.6250000000164757E-01     1.0000000000000000E+00     0.0000000000000000E+00 
    5.0000000000205946E-01     1.0000000000000000E+00     0.0000000000000000E+00 
    4.3750000000182099E-01     1.0000000000000000E+00     0.0000000000000000E+00 
    3.7500000000156092E-01     1.0000000000000000E+00     0.0000000000000000E+00 
    3.1250000000130068E-01     1.0000000000000000E+00     0.0000000000000000E+00 
    2.5000000000104050E-01     1.0000000000000000E+00     0.0000000000000000E+00 
    1.8750000000078040E-01     1.0000000000000000E+00     0.0000000000000000E+00 
    1.2500000000052031E-01     1.0000000000000000E+00     0.0000000000000000E+00 
    6.2500000000260125E-02     1.0000000000000000E+00     0.0000000000000000E+00 
    0.0000000000000000E+00     9.3749999999973976E-01     0.0000000000000000E+00 
    0.0000000000000000E+00     8.7499999999950118E-01     0.0000000000000000E+00 
    0.0000000000000000E+00     8.1249999999991318E-01     0.0000000000000000E+00 
    0.0000000000000000E+00     7.5000000000034706E-01     0.0000000000000000E+00 
    0.0000000000000000E+00     6.8750000000078049E-01     0.0000000000000000E+00 
    0.0000000000000000E+00     6.2500000000121403E-01     0.0000000000000000E+00 
    0.0000000000000000E+00     5.6250000000164757E-01     0.0000000000000000E+00 
    0.0000000000000000E+00     5.0000000000205946E-01     0.0000000000000000E+00 
    0.0000000000000000E+00     4.3750000000182099E-01     0.0000000000000000E+00 
    0.0000000000000000E+00     3.7500000000156092E-01     0.0000000000000000E+00 
    0.0000000000000000E+00     3.1250000000130068E-01     0.0000000000000000E+00 
    0.0000000000000000E+00     2.5000000000104050E-01     0.0000000000000000E+00 
    0.0000000000000000E+00     1.8750000000078040E-01     0.0000000000000000E+00 
    0.0000000000000000E+00     1.2500000000052031E-01     0.0000000000000000E+00 
    0.0000000000000000E+00     6.2500000000260125E-02     0.0000000000000000E+00 
    6.2499999999897131E-02     6.2500000000235922E-02     0.0000000000000000E+00 
    6.2499999999921327E-02     1.2500000000047351E-01     0.0000000000000000E+00 
    6.2499999999945530E-02     1.8750000000070621E-01     0.0000000000000000E+00 
    6.2499999999969733E-02     2.5000000000093858E-01     0.0000000000000000E+00 
    6.2499999999993928E-02     3.1250000000117117E-01     0.0000000000000000E+00 
    6.2500000000018124E-02     3.7500000000140382E-01     0.0000000000000000E+00 
    6.2500000000042327E-02     4.3750000000163619E-01     0.0000000000000000E+00 
    6.2500000000066530E-02     5.0000000000184897E-01     0.0000000000000000E+00 
    6.2500000000090733E-02     5.6250000000147260E-01     0.0000000000000000E+00 
    6.2500000000114922E-02     6.2500000000107636E-01     0.0000000000000000E+00 
    6.2500000000139125E-02     6.8750000000068034E-01     0.0000000000000000E+00 
    6.2500000000163328E-02     7.5000000000028411E-01     0.0000000000000000E+00 
    6.2500000000187531E-02     8.1249999999988787E-01     0.0000000000000000E+00 
    6.2500000000211720E-02     8.7499999999951172E-01     0.0000000000000000E+00 
    6.2500000000235922E-02     9.3749999999974565E-01     0.0000000000000000E+00 
    1.2499999999981980E-01     6.2500000000211733E-02     0.0000000000000000E+00 
    1.2499999999986650E-01     1.2500000000042691E-01     0.0000000000000000E+00 
    1.2499999999991319E-01     1.8750000000063199E-01     0.0000000000000000E+00 
    1.2499999999995989E-01     2.5000000000083678E-01     0.0000000000000000E+00 
    1.2500000000000661E-01     3.1250000000104172E-01     0.0000000000000000E+00 
    1.2500000000005329E-01     3.7500000000124661E-01     0.0000000000000000E+00 
    1.2500000000010000E-01     4.3750000000145117E-01     0.0000000000000000E+00 
    1.2500000000014669E-01     5.0000000000163858E-01     0.0000000000000000E+00 
    1.2500000000019340E-01     5.6250000000129741E-01     0.0000000000000000E+00 
    1.2500000000024011E-01     6.2500000000093847E-01     0.0000000000000000E+00 
    1.2500000000028680E-01     6.8750000000057998E-01     0.0000000000000000E+00 
    1.2500000000033351E-01     7.5000000000022127E-01     0.0000000000000000E+00 
    1.2500000000038020E-01     8.1249999999986211E-01     0.0000000000000000E+00 
    1.2500000000042691E-01     8.7499999999952238E-01     0.0000000000000000E+00 
    1.2500000000047359E-01     9.3749999999975164E-01     0.0000000000000000E+00 
    1.8749999999966760E-01     6.2500000000187531E-02     0.0000000000000000E+00 
    1.8749999999974179E-01     1.2500000000038020E-01     0.0000000000000000E+00 
    1.8749999999981601E-01     1.8750000000055780E-01     0.0000000000000000E+00 
    1.8749999999989009E-01     2.5000000000073502E-01     0.0000000000000000E+00 
    1.8749999999996431E-01     3.1250000000091221E-01     0.0000000000000000E+00 
    1.8750000000003850E-01     3.7500000000108941E-01     0.0000000000000000E+00 
    1.8750000000011269E-01     4.3750000000126649E-01     0.0000000000000000E+00 
    1.8750000000018691E-01     5.0000000000142808E-01     0.0000000000000000E+00 
    1.8750000000026110E-01     5.6250000000112244E-01     0.0000000000000000E+00 
    1.8750000000033529E-01     6.2500000000080080E-01     0.0000000000000000E+00 
    1.8750000000040951E-01     6.8750000000047962E-01     0.0000000000000000E+00 
    1.8750000000048361E-01     7.5000000000015843E-01     0.0000000000000000E+00 
    1.8750000000055780E-01     8.1249999999983680E-01     0.0000000000000000E+00 
    1.8750000000063199E-01     8.7499999999953304E-01     0.0000000000000000E+00 
    1.8750000000070621E-01     9.3749999999975764E-01     0.0000000000000000E+00 
    2.4999999999951281E-01     6.2500000000163314E-02     0.0000000000000000E+00 
    2.4999999999961461E-01     1.2500000000033351E-01     0.0000000000000000E+00 
    2.4999999999971650E-01     1.8750000000048361E-01     0.0000000000000000E+00 
    2.4999999999981831E-01     2.5000000000063310E-01     0.0000000000000000E+00 
    2.4999999999992020E-01     3.1250000000078260E-01     0.0000000000000000E+00 
    2.5000000000002198E-01     3.7500000000093209E-01     0.0000000000000000E+00 
    2.5000000000012390E-01     4.3750000000108180E-01     0.0000000000000000E+00 
    2.5000000000022571E-01     5.0000000000121769E-01     0.0000000000000000E+00 
    2.5000000000032763E-01     5.6250000000094724E-01     0.0000000000000000E+00 
    2.5000000000042938E-01     6.2500000000066314E-01     0.0000000000000000E+00 
    2.5000000000053119E-01     6.8750000000037925E-01     0.0000000000000000E+00 
[...]
CELL_DATA 256 
SCALARS Pressure double 1 
LOOKUP_TABLE default 

    1.4826247202851406E+00 
    1.2340361619906919E+00 
    1.0780134292849060E+00 
    9.6519281313138705E-01 
    8.7562106825809649E-01 
    8.0051263919997118E-01 
    7.3340339499784823E-01 
    6.9245073465796803E-01 
    6.6947861139191900E-01 
    6.5293897255380418E-01 
    6.4076722198284075E-01 
    6.3223949951413660E-01 
    6.2669152459677924E-01 
    6.2348527965445322E-01 
    6.2199305307613095E-01 
    6.2159083637553947E-01 
    1.2340378358808941E+00 
    1.1827542769023200E+00 
    1.0820412168111730E+00 
    9.8424743169018591E-01 
    8.9786925255245498E-01 
    8.2224312600308347E-01 
    7.5388408087215220E-01 
    7.0279190271951963E-01 
    6.7560721902171428E-01 
    6.5715757519815010E-01 
    6.4344572786453080E-01 
    6.3368944042755160E-01 
    6.2721682499786646E-01 
    6.2339216032447708E-01 
    6.2159022241871209E-01 
    6.2118844461617018E-01 
    1.0780009441161689E+00 
    1.0820342903546605E+00 
    1.0363190523189292E+00 
    9.6902134844875554E-01 
    8.9734945108723296E-01 
    8.2836857451073753E-01 
    7.6367520117418819E-01 
    7.0775152082429404E-01 
    6.7723329844785063E-01 
    6.5794567431722095E-01 
    6.4329597391861093E-01 
    6.3273701956681627E-01 
    6.2569504068214588E-01 
    6.2157933353050754E-01 
    6.1978448936472774E-01 
    6.1969586015040368E-01 
    9.6515920834278468E-01 
    9.8422679568274785E-01 
    9.6901558853636083E-01 
    9.2883826879304054E-01 
    8.7558241673362791E-01 
    8.1766683058225953E-01 
    7.5960131477792658E-01 
    7.0521774848557239E-01 
    6.7380710399927402E-01 
    6.5459643814527313E-01 
    6.3965072417118096E-01 
    6.2874733116545267E-01 
    6.2150300821254068E-01 
    6.1742596750493628E-01 
    6.1595511618430465E-01 
    6.1649195392350009E-01 
    8.7557089771272745E-01 
    8.9783459504459451E-01 
    8.9733202112992727E-01 
    8.7557174646186420E-01 
    8.3852054181385460E-01 
    7.9254073362905797E-01 
    7.4136403155437480E-01 
    6.9446560089420040E-01 
    6.6515523781768915E-01 
    6.4677421595778817E-01 
    6.3205582393764548E-01 
    6.2119489634357050E-01 
    6.1406960812514233E-01 
    6.1033356034996988E-01 
    6.0949046874614632E-01 
    6.1096042805231010E-01 
    8.0043224155178094E-01 
    8.2218210892205579E-01 
    8.2830877958888660E-01 
    8.1760856750927802E-01 
    7.9250743543906288E-01 
    7.5703957198523109E-01 
    7.1345669421296964E-01 
    6.7688656180245599E-01 
    6.5197773974375473E-01 
    6.3465309512981216E-01 
    6.2037096328828667E-01 
    6.0973397097917836E-01 
    6.0291464887047219E-01 
    5.9974187904412479E-01 
    5.9979202974933488E-01 
    6.0249083142067417E-01 
    7.3332039684949346E-01 
    7.5382597871745827E-01 
    7.6364798647966825E-01 
    7.5954291686276076E-01 
    7.4138032912804275E-01 
    7.1349488970270825E-01 
    6.8284537505075549E-01 
    6.5626813489167812E-01 
    6.3584875516277772E-01 
    6.1897273291560928E-01 
    6.0482762368688225E-01 
    5.9424675999426502E-01 
    5.8767585616254392E-01 
    5.8513453820552364E-01 
    5.8626766802895325E-01 
    5.9047049430082788E-01 
    6.9249532107493916E-01 
    7.0281102791914363E-01 
    7.0775651182237453E-01 
    7.0523023392294315E-01 
    6.9449836498519568E-01 
    6.7692599020838573E-01 
    6.5627131426069063E-01 
    6.3600752828789731E-01 
    6.1783993106169832E-01 
    6.0063791414977719E-01 
    5.8593926112303152E-01 
    5.7484189184431966E-01 
    5.6811372699621254E-01 
    5.6602479478186885E-01 
    5.6830292187993747E-01 
    5.7425649930240030E-01 
    6.6954187792916908E-01 
    6.7566149132402165E-01 
    6.7726795890974478E-01 
    6.7381797913893937E-01 
    6.6517873251816528E-01 
    6.5200541408461854E-01 
    6.3583950305827375E-01 
    6.1783576152905439E-01 
    5.9894762117882538E-01 
    5.8066447462293569E-01 
    5.6446752278510803E-01 
    5.5186686743904634E-01 
    5.4411956412912510E-01 
    5.4192585124360970E-01 
    5.4519993805947242E-01 
    5.5311295548382244E-01 
    6.5298877303179426E-01 
    6.5720514793589258E-01 
    6.5798390565545117E-01 
    6.5462162197043583E-01 
    6.4679625204566427E-01 
    6.3467430171146366E-01 
    6.1898103795329562E-01 
    6.0064012962225644E-01 
    5.8066564085091255E-01 
    5.6040923253500829E-01 
    5.4154738318280371E-01 
    5.2602162742224745E-01 
    5.1578931183303112E-01 
    5.1233453418513331E-01 
    5.1607680502935571E-01 
    5.2609111219922700E-01 
    6.4080961550874582E-01 
    6.4348771111128789E-01 
    6.4333349818311114E-01 
    6.3968084665317171E-01 
    6.3208042378184925E-01 
    6.2039184682626458E-01 
    6.0484190432069684E-01 
    5.8594752894888813E-01 
    5.6447220939527576E-01 
    5.4154968527230285E-01 
    5.1883106920881461E-01 
    4.9859239621688523E-01 
    4.8364532313283276E-01 
    4.7679618277925301E-01 
    4.7972564466433798E-01 
    4.9180725002396913E-01 
    6.3227766216751458E-01 
    6.3372757577562167E-01 
    6.3277285152890062E-01 
    6.2877875615150203E-01 
    6.2122153616232323E-01 
    6.0975630130891945E-01 
    5.9426416985330865E-01 
    5.7485427838663516E-01 
    5.5187513725503412E-01 
    5.2602673248886922E-01 
    4.9859484453106379E-01 
    4.7179899096897709E-01 
    4.4912707470995761E-01 
    4.3521721258667567E-01 
    4.3446263745127695E-01 
    4.4801260295360468E-01 
    6.2672727891810009E-01 
    6.2725253426585048E-01 
    6.2572936863411843E-01 
    6.2153450821391398E-01 
    6.1409741377474869E-01 
    6.0293850613812949E-01 
    5.8769549247603614E-01 
    5.6812901972177443E-01 
    5.4413083757833569E-01 
    5.1579713341766054E-01 
    4.8365020124599484E-01 
    4.4912937304371164E-01 
    4.1547355640985906E-01 
    3.8882602519288817E-01 
    3.7818160091482855E-01 
    3.9069104663648435E-01 
    6.2351975013474337E-01 
    6.2342648898053410E-01 
    6.2161267732258874E-01 
    6.1745731885337418E-01 
    6.1036206453320840E-01 
    5.9976700290892704E-01 
    5.8515594332377319E-01 
    5.6604231130612348E-01 
    5.4193956580769842E-01 
    5.1234475499674192E-01 
    4.7680330306519192E-01 
    4.3522161235891210E-01 
    3.8882805396258741E-01 
    3.4257462810608991E-01 
    3.0959202829477439E-01 
    3.1198868280294079E-01 
    6.2202695017900356E-01 
    6.2162391518553295E-01 
    6.1981739811729775E-01 
    6.1598649816291640E-01 
    6.0951957627572118E-01 
    5.9981825642490938E-01 
    5.8629058515375565E-01 
    5.6832227936071733E-01 
    5.4521568896589889E-01 
    5.1608909601711250E-01 
    4.7973475301755691E-01 
    4.3446890064587729E-01 
    3.7818537976948668E-01 
    3.0959370697274891E-01 
    2.3472821580063183E-01 
    1.9503867141799153E-01 
    6.2162457692380935E-01 
    6.2122200387722581E-01 
    6.1972880910807138E-01 
    6.1652369233153059E-01 
    6.1099028248575649E-01 
    6.0251818014426717E-01 
    5.9049484440284850E-01 
    5.7427752133965793E-01 
    5.5313050377400863E-01 
    5.2610522399681259E-01 
    4.9181811114471785E-01 
    4.4802049526472698E-01 
    3.9069630915173553E-01 
    3.1199170080775324E-01 
    1.9503989559853691E-01 
    0.0000000000000000E+00 

SCALARS Saturarion double 1 
LOOKUP_TABLE default 

    1.0000000000000624E+00 
    9.8727862813801059E-01 
    9.5719339240577783E-01 
    9.1779734342144703E-01 
    8.7146757143949349E-01 
    8.2172477211911155E-01 
    6.9847452947170019E-01 
    2.0735641915482994E-02 
    1.0000274437816334E-06 
    1.0000000000014266E-06 
    9.9999999999999995E-07 
    9.9999999999999995E-07 
    9.9999999999999995E-07 
    9.9999999999999995E-07 
    9.9999999999999995E-07 
    9.9999999999999995E-07 
    9.8725014521741727E-01 
    9.7820732778712238E-01 
    9.5355200753461866E-01 
    9.1871257460336397E-01 
    8.7667590504312853E-01 
    8.3008233371127349E-01 
    7.5498247680412600E-01 
    2.1851428630198547E-01 
    1.6093053139295665E-04 
    1.0007034155278938E-06 
    1.0000000000052454E-06 
    9.9999999999999995E-07 
    9.9999999999999995E-07 
    9.9999999999999995E-07 
    9.9999999999999995E-07 
    9.9999999999999995E-07 
    9.5709433260922250E-01 
    9.5350930647189713E-01 
    9.3732724116682864E-01 
    9.1088398845125473E-01 
    8.7552997217253181E-01 
    8.3498199422858221E-01 
    7.7899579174161304E-01 
    3.5673866655800662E-01 
    9.6125796919073868E-05 
    1.0010082361178628E-06 
    1.0000000000001399E-06 
    9.9999999999999995E-07 
    9.9999999999999995E-07 
    9.9999999999999995E-07 
    9.9999999999999995E-07 
    9.9999999999999995E-07 
    9.1769933072581034E-01 
    9.1867783911134915E-01 
    9.1089061395869930E-01 
    8.9199020659603334E-01 
    8.6506037886129350E-01 
    8.3116000592985917E-01 
    7.8506813945242737E-01 
    4.3660521460874002E-01 
    2.3102081331222775E-04 
    1.0000185968292290E-06 
    1.0000000000002087E-06 
    9.9999999999999995E-07 
    9.9999999999999995E-07 
    9.9999999999999995E-07 
    9.9999999999999995E-07 
    9.9999999999999995E-07 
    8.7150385395215091E-01 
    8.7670403164814215E-01 
    8.7553405699766651E-01 
    8.6475136286254195E-01 
    8.4592521101577478E-01 
    8.1880019619622268E-01 
    7.7442627232284789E-01 
    4.1403364155616018E-01 
    2.2027996879258805E-04 
    1.0018867978012698E-06 
    1.0000000000021762E-06 
    9.9999999999999995E-07 
    9.9999999999999995E-07 
    9.9999999999999995E-07 
    9.9999999999999995E-07 
    9.9999999999999995E-07 
    8.2162369505224098E-01 
    8.2991292981784759E-01 
    8.3469930558283978E-01 
    8.3022788514800872E-01 
    8.1856197643249984E-01 
    7.9677376344193163E-01 
    7.3101210940893213E-01 
    2.1533143419903705E-01 
    2.0714214284810176E-04 
    1.0018529026436514E-06 
    9.9999999999999974E-07 
    9.9999999999999995E-07 
    9.9999999999999995E-07 
    9.9999999999999995E-07 
    9.9999999999999995E-07 
    9.9999999999999995E-07 
    7.0326429996478923E-01 
    7.5292802690846228E-01 
    7.8063979748046386E-01 
    7.8578478589542522E-01 
    7.7555223793625205E-01 
    7.3284817107696365E-01 
    4.5936563299925692E-01 
    1.0827226530597896E-02 
    3.1556542622500120E-06 
    1.0000000176610367E-06 
    1.0000000000000002E-06 
    9.9999999999999995E-07 
    9.9999999999999995E-07 
    9.9999999999999995E-07 
    9.9999999999999995E-07 
    9.9999999999999995E-07 
    1.7951860410242441E-02 
    2.1405683994781052E-01 
    3.6164426598709448E-01 
    4.3838665708402302E-01 
    4.0774227098234295E-01 
    2.2008199229657940E-01 
    1.1430950729218766E-02 
    5.6213737217873840E-06 
    1.0000002249684428E-06 
    1.0000000000000040E-06 
    9.9999999999999995E-07 
    9.9999999999999995E-07 
    9.9999999999999995E-07 
    9.9999999999999995E-07 
    9.9999999999999995E-07 
    9.9999999999999995E-07 
    1.0000394572380218E-06 
    1.4184654746900662E-04 
    1.0885059569995054E-04 
    2.2677411097008605E-04 
    1.5679365165211683E-04 
    2.0953086160335860E-04 
    3.4291201491618710E-06 
    1.0000002606705732E-06 
    1.0000000000000086E-06 
    9.9999999999999995E-07 
    9.9999999999999995E-07 
    9.9999999999999995E-07 
    9.9999999999999995E-07 
    9.9999999999999995E-07 
    9.9999999999999995E-07 
    9.9999999999999995E-07 
    1.0000000000022823E-06 
    1.0005791843958618E-06 
    1.0011001366574785E-06 
    1.0000131731904105E-06 
    1.0013955113937983E-06 
    1.0019060344915652E-06 
    1.0000000204288367E-06 
    1.0000000000000038E-06 
    9.9999999999999995E-07 
    9.9999999999999995E-07 
    9.9999999999999995E-07 
    9.9999999999999995E-07 
    9.9999999999999995E-07 
    9.9999999999999995E-07 
    9.9999999999999995E-07 
    9.9999999999999995E-07 
    9.9999999999999995E-07 
    1.0000000000030793E-06 
    1.0000000000043063E-06 
    1.0000000000001312E-06 
    1.0000000000009145E-06 
    1.0000000000000019E-06 
    1.0000000000000002E-06 
    9.9999999999999995E-07 
    9.9999999999999995E-07 
    9.9999999999999995E-07 
    9.9999999999999995E-07 
    9.9999999999999995E-07 
    9.9999999999999995E-07 
    9.9999999999999995E-07 
    9.9999999999999995E-07 
    9.9999999999999995E-07 
    9.9999999999999995E-07 
    9.9999999999999995E-07 
    9.9999999999999995E-07 
    9.9999999999999995E-07 
    9.9999999999999995E-07 
    9.9999999999999995E-07 
    9.9999999999999995E-07 
    9.9999999999999995E-07 
    9.9999999999999995E-07 
    9.9999999999999995E-07 
    9.9999999999999995E-07 
    9.9999999999999995E-07 
    9.9999999999999995E-07 
    9.9999999999999995E-07 
    9.9999999999999995E-07 
    9.9999999999999995E-07 
    9.9999999999999995E-07 
    9.9999999999999995E-07 
    9.9999999999999995E-07 
    9.9999999999999995E-07 
    9.9999999999999995E-07 
    9.9999999999999995E-07 
    9.9999999999999995E-07 
    9.9999999999999995E-07 
    9.9999999999999995E-07 
    9.9999999999999995E-07 
    9.9999999999999995E-07 
    9.9999999999999995E-07 
    9.9999999999999995E-07 
    9.9999999999999995E-07 
    9.9999999999999995E-07 
    9.9999999999999995E-07 
    9.9999999999999995E-07 
    9.9999999999999995E-07 
    9.9999999999999995E-07 
    9.9999999999999995E-07 
    9.9999999999999995E-07 
    9.9999999999999995E-07 
    9.9999999999999995E-07 
    9.9999999999999995E-07 
    9.9999999999999995E-07 
    9.9999999999999995E-07 
    9.9999999999999995E-07 
    9.9999999999999995E-07 
    9.9999999999999995E-07 
    9.9999999999999995E-07 
    9.9999999999999995E-07 
    9.9999999999999995E-07 
    9.9999999999999995E-07 
    9.9999999999999995E-07 
    9.9999999999999995E-07 
    9.9999999999999995E-07 
    9.9999999999999995E-07 
    9.9999999999999995E-07 
    9.9999999999999995E-07 
    9.9999999999999995E-07 
    9.9999999999999995E-07 
    9.9999999999999995E-07 
    9.9999999999999995E-07 
    9.9999999999999995E-07 
    9.9999999999999995E-07 
    9.9999999999999995E-07 
    9.9999999999999995E-07 
    9.9999999999999995E-07 
    9.9999999999999995E-07 
    9.9999999999999995E-07 
    9.9999999999999995E-07 
    9.9999999999999995E-07 
    9.9999999999999995E-07 
    9.9999999999999995E-07 
    9.9999999999999995E-07 
    9.9999999999999995E-07 
    9.9999999999999995E-07 
    9.9999999999999995E-07 
    9.9999999999999995E-07 
    9.9999999999999995E-07 
    9.9999999999999995E-07 
    9.9999999999999995E-07 
    9.9999999999999995E-07 
    1.0000000087484711E-06 
