# vtk DataFile Version 2.0
Pressure Field Data 
ASCII 
DATASET UNSTRUCTURED_GRID 

POINTS 289 double 

    0.0000000000000000E+00     0.0000000000000000E+00     0.0000000000000000E+00 
    1.0000000000000000E+00     0.0000000000000000E+00     0.0000000000000000E+00 
    1.0000000000000000E+00     1.0000000000000000E+00     0.0000000000000000E+00 
    0.0000000000000000E+00     1.0000000000000000E+00     0.0000000000000000E+00 
    6.2499999999872928E-02     0.0000000000000000E+00     0.0000000000000000E+00 
    1.2499999999977310E-01     0.0000000000000000E+00     0.0000000000000000E+00 
    1.8749999999959341E-01     0.0000000000000000E+00     0.0000000000000000E+00 
    2.4999999999941089E-01     0.0000000000000000E+00     0.0000000000000000E+00 
    3.1249999999922851E-01     0.0000000000000000E+00     0.0000000000000000E+00 
    3.7499999999904610E-01     0.0000000000000000E+00     0.0000000000000000E+00 
    4.3749999999886358E-01     0.0000000000000000E+00     0.0000000000000000E+00 
    4.9999999999869210E-01     0.0000000000000000E+00     0.0000000000000000E+00 
    5.6249999999884603E-01     0.0000000000000000E+00     0.0000000000000000E+00 
    6.2499999999901090E-01     0.0000000000000000E+00     0.0000000000000000E+00 
    6.8749999999917577E-01     0.0000000000000000E+00     0.0000000000000000E+00 
    7.4999999999934064E-01     0.0000000000000000E+00     0.0000000000000000E+00 
    8.1249999999950551E-01     0.0000000000000000E+00     0.0000000000000000E+00 
    8.7499999999967026E-01     0.0000000000000000E+00     0.0000000000000000E+00 
    9.3749999999983513E-01     0.0000000000000000E+00     0.0000000000000000E+00 
    1.0000000000000000E+00     6.2499999999872928E-02     0.0000000000000000E+00 
    1.0000000000000000E+00     1.2499999999977310E-01     0.0000000000000000E+00 
    1.0000000000000000E+00     1.8749999999959341E-01     0.0000000000000000E+00 
    1.0000000000000000E+00     2.4999999999941089E-01     0.0000000000000000E+00 
    1.0000000000000000E+00     3.1249999999922851E-01     0.0000000000000000E+00 
    1.0000000000000000E+00     3.7499999999904610E-01     0.0000000000000000E+00 
    1.0000000000000000E+00     4.3749999999886358E-01     0.0000000000000000E+00 
    1.0000000000000000E+00     4.9999999999869210E-01     0.0000000000000000E+00 
    1.0000000000000000E+00     5.6249999999884603E-01     0.0000000000000000E+00 
    1.0000000000000000E+00     6.2499999999901090E-01     0.0000000000000000E+00 
    1.0000000000000000E+00     6.8749999999917577E-01     0.0000000000000000E+00 
    1.0000000000000000E+00     7.4999999999934064E-01     0.0000000000000000E+00 
    1.0000000000000000E+00     8.1249999999950551E-01     0.0000000000000000E+00 
    1.0000000000000000E+00     8.7499999999967026E-01     0.0000000000000000E+00 
    1.0000000000000000E+00     9.3749999999983513E-01     0.0000000000000000E+00 
    9.3749999999973976E-01     1.0000000000000000E+00     0.0000000000000000E+00 
    8.7499999999950118E-01     1.0000000000000000E+00     0.0000000000000000E+00 
    8.1249999999991318E-01     1.0000000000000000E+00     0.0000000000000000E+00 
    7.5000000000034706E-01     1.0000000000000000E+00     0.0000000000000000E+00 
    6.8750000000078049E-01     1.0000000000000000E+00     0.0000000000000000E+00 
    6.2500000000121403E-01     1.0000000000000000E+00     0.0000000000000000E+00 
    5.6250000000164757E-01     1.0000000000000000E+00     0.0000000000000000E+00 
    5.0000000000205946E-01     1.0000000000000000E+00     0.0000000000000000E+00 
    4.3750000000182099E-01     1.0000000000000000E+00     0.0000000000000000E+00 
    3.7500000000156092E-01     1.0000000000000000E+00     0.0000000000000000E+00 
    3.1250000000130068E-01     1.0000000000000000E+00     0.0000000000000000E+00 
    2.5000000000104050E-01     1.0000000000000000E+00     0.0000000000000000E+00 
    1.8750000000078040E-01     1.0000000000000000E+00     0.0000000000000000E+00 
    1.2500000000052031E-01     1.0000000000000000E+00     0.0000000000000000E+00 
    6.2500000000260125E-02     1.0000000000000000E+00     0.0000000000000000E+00 
    0.0000000000000000E+00     9.3749999999973976E-01     0.0000000000000000E+00 
    0.0000000000000000E+00     8.7499999999950118E-01     0.0000000000000000E+00 
    0.0000000000000000E+00     8.1249999999991318E-01     0.0000000000000000E+00 
    0.0000000000000000E+00     7.5000000000034706E-01     0.0000000000000000E+00 
    0.0000000000000000E+00     6.8750000000078049E-01     0.0000000000000000E+00 
    0.0000000000000000E+00     6.2500000000121403E-01     0.0000000000000000E+00 
    0.0000000000000000E+00     5.6250000000164757E-01     0.0000000000000000E+00 
    0.0000000000000000E+00     5.0000000000205946E-01     0.0000000000000000E+00 
    0.0000000000000000E+00     4.3750000000182099E-01     0.0000000000000000E+00 
    0.0000000000000000E+00     3.7500000000156092E-01     0.0000000000000000E+00 
    0.0000000000000000E+00     3.1250000000130068E-01     0.0000000000000000E+00 
    0.0000000000000000E+00     2.5000000000104050E-01     0.0000000000000000E+00 
    0.0000000000000000E+00     1.8750000000078040E-01     0.0000000000000000E+00 
    0.0000000000000000E+00     1.2500000000052031E-01     0.0000000000000000E+00 
    0.0000000000000000E+00     6.2500000000260125E-02     0.0000000000000000E+00 
    6.2499999999897131E-02     6.2500000000235922E-02     0.0000000000000000E+00 
    6.2499999999921327E-02     1.2500000000047351E-01     0.0000000000000000E+00 
    6.2499999999945530E-02     1.8750000000070621E-01     0.0000000000000000E+00 
    6.2499999999969733E-02     2.5000000000093858E-01     0.0000000000000000E+00 
    6.2499999999993928E-02     3.1250000000117117E-01     0.0000000000000000E+00 
    6.2500000000018124E-02     3.7500000000140382E-01     0.0000000000000000E+00 
    6.2500000000042327E-02     4.3750000000163619E-01     0.0000000000000000E+00 
    6.2500000000066530E-02     5.0000000000184897E-01     0.0000000000000000E+00 
    6.2500000000090733E-02     5.6250000000147260E-01     0.0000000000000000E+00 
    6.2500000000114922E-02     6.2500000000107636E-01     0.0000000000000000E+00 
    6.2500000000139125E-02     6.8750000000068034E-01     0.0000000000000000E+00 
    6.2500000000163328E-02     7.5000000000028411E-01     0.0000000000000000E+00 
    6.2500000000187531E-02     8.1249999999988787E-01     0.0000000000000000E+00 
    6.2500000000211720E-02     8.7499999999951172E-01     0.0000000000000000E+00 
    6.2500000000235922E-02     9.3749999999974565E-01     0.0000000000000000E+00 
    1.2499999999981980E-01     6.2500000000211733E-02     0.0000000000000000E+00 
    1.2499999999986650E-01     1.2500000000042691E-01     0.0000000000000000E+00 
    1.2499999999991319E-01     1.8750000000063199E-01     0.0000000000000000E+00 
    1.2499999999995989E-01     2.5000000000083678E-01     0.0000000000000000E+00 
    1.2500000000000661E-01     3.1250000000104172E-01     0.0000000000000000E+00 
    1.2500000000005329E-01     3.7500000000124661E-01     0.0000000000000000E+00 
    1.2500000000010000E-01     4.3750000000145117E-01     0.0000000000000000E+00 
    1.2500000000014669E-01     5.0000000000163858E-01     0.0000000000000000E+00 
    1.2500000000019340E-01     5.6250000000129741E-01     0.0000000000000000E+00 
    1.2500000000024011E-01     6.2500000000093847E-01     0.0000000000000000E+00 
    1.2500000000028680E-01     6.8750000000057998E-01     0.0000000000000000E+00 
    1.2500000000033351E-01     7.5000000000022127E-01     0.0000000000000000E+00 
    1.2500000000038020E-01     8.1249999999986211E-01     0.0000000000000000E+00 
    1.2500000000042691E-01     8.7499999999952238E-01     0.0000000000000000E+00 
    1.2500000000047359E-01     9.3749999999975164E-01     0.0000000000000000E+00 
    1.8749999999966760E-01     6.2500000000187531E-02     0.0000000000000000E+00 
    1.8749999999974179E-01     1.2500000000038020E-01     0.0000000000000000E+00 
    1.8749999999981601E-01     1.8750000000055780E-01     0.0000000000000000E+00 
    1.8749999999989009E-01     2.5000000000073502E-01     0.0000000000000000E+00 
    1.8749999999996431E-01     3.1250000000091221E-01     0.0000000000000000E+00 
    1.8750000000003850E-01     3.7500000000108941E-01     0.0000000000000000E+00 
    1.8750000000011269E-01     4.3750000000126649E-01     0.0000000000000000E+00 
    1.8750000000018691E-01     5.0000000000142808E-01     0.0000000000000000E+00 
    1.8750000000026110E-01     5.6250000000112244E-01     0.0000000000000000E+00 
    1.8750000000033529E-01     6.2500000000080080E-01     0.0000000000000000E+00 
    1.8750000000040951E-01     6.8750000000047962E-01     0.0000000000000000E+00 
    1.8750000000048361E-01     7.5000000000015843E-01     0.0000000000000000E+00 
    1.8750000000055780E-01     8.1249999999983680E-01     0.0000000000000000E+00 
    1.8750000000063199E-01     8.7499999999953304E-01     0.0000000000000000E+00 
    1.8750000000070621E-01     9.3749999999975764E-01     0.0000000000000000E+00 
    2.4999999999951281E-01     6.2500000000163314E-02     0.0000000000000000E+00 
    2.4999999999961461E-01     1.2500000000033351E-01     0.0000000000000000E+00 
    2.4999999999971650E-01     1.8750000000048361E-01     0.0000000000000000E+00 
    2.4999999999981831E-01     2.5000000000063310E-01     0.0000000000000000E+00 
    2.4999999999992020E-01     3.1250000000078260E-01     0.0000000000000000E+00 
    2.5000000000002198E-01     3.7500000000093209E-01     0.0000000000000000E+00 
    2.5000000000012390E-01     4.3750000000108180E-01     0.0000000000000000E+00 
    2.5000000000022571E-01     5.0000000000121769E-01     0.0000000000000000E+00 
    2.5000000000032763E-01     5.6250000000094724E-01     0.0000000000000000E+00 
    2.5000000000042938E-01     6.2500000000066314E-01     0.0000000000000000E+00 
    2.5000000000053119E-01     6.8750000000037925E-01     0.0000000000000000E+00 
[...]
CELL_DATA 256 
SCALARS Pressure double 1 
LOOKUP_TABLE default 

    2.4341253086710690E+00 
    2.3233528649381112E+00 
    2.2470876712352297E+00 
    2.1870966056244594E+00 
    2.1356508350575059E+00 
    2.0893723447562178E+00 
    2.0466927541846558E+00 
    2.0068899439538304E+00 
    1.9696734975938990E+00 
    1.9349653688287640E+00 
    1.9027227975629484E+00 
    1.8726797012548759E+00 
    1.8440064371123110E+00 
    1.8185284902879197E+00 
    1.8016357827672105E+00 
    1.7936036759337706E+00 
    2.3233528649387183E+00 
    2.2753899021294695E+00 
    2.2218949430807311E+00 
    2.1713098866061027E+00 
    2.1242918083741262E+00 
    2.0803083538032308E+00 
    2.0388751271318348E+00 
    1.9997353226262502E+00 
    1.9628234115559033E+00 
    1.9281827138795851E+00 
    1.8958387288274197E+00 
    1.8655457630279644E+00 
    1.8364299463478568E+00 
    1.8106631083143367E+00 
    1.7936778269256950E+00 
    1.7855827608463841E+00 
    2.2470876712361272E+00 
    2.2218949430811730E+00 
    2.1852147777052759E+00 
    2.1447591274300488E+00 
    2.1036800379967673E+00 
    2.0631840313362191E+00 
    2.0237705609934400E+00 
    1.9857253435174489E+00 
    1.9492923419428783E+00 
    1.9147017501862535E+00 
    1.8820926504052855E+00 
    1.8512576297287133E+00 
    1.8212675269037968E+00 
    1.7949259291962780E+00 
    1.7777182751394114E+00 
    1.7694796548221752E+00 
    2.1870966056255852E+00 
    2.1713098866068696E+00 
    2.1447591274304174E+00 
    2.1121819784462437E+00 
    2.0765667142027580E+00 
    2.0396306297168469E+00 
    2.0023862395084722E+00 
    1.9655029564481870E+00 
    1.9294931278349035E+00 
    1.8947751447526915E+00 
    1.8616157722568711E+00 
    1.8298517540144104E+00 
    1.7985039777127414E+00 
    1.7712557457451503E+00 
    1.7536378796151351E+00 
    1.7451493579176156E+00 
    2.1356508350588328E+00 
    2.1242918083751432E+00 
    2.1036800379974299E+00 
    2.0765667142030724E+00 
    2.0452140921745205E+00 
    2.0112559120980240E+00 
    1.9758497602762646E+00 
    1.9398566996765849E+00 
    1.9039671866660406E+00 
    1.8687513647909748E+00 
    1.8345933498573839E+00 
    1.8013621114562166E+00 
    1.7680591235716034E+00 
    1.7395024681318483E+00 
    1.7212211436247151E+00 
    1.7123390247548702E+00 
    2.0893723447577330E+00 
    2.0803083538044587E+00 
    2.0631840313371246E+00 
    2.0396306297174287E+00 
    2.0112559120983020E+00 
    1.9794231844875680E+00 
    1.9452374891984354E+00 
    1.9096083649692972E+00 
    1.8733152346332533E+00 
    1.8370301753686566E+00 
    1.8012277166739097E+00 
    1.7657719554192333E+00 
    1.7297548693622464E+00 
    1.6994038276905246E+00 
    1.6801227843750937E+00 
    1.6706516975418109E+00 
    2.0466927541863487E+00 
    2.0388751271332506E+00 
    2.0237705609945529E+00 
    2.0023862395092813E+00 
    1.9758497602767862E+00 
    1.9452374891986892E+00 
    1.9115178428426325E+00 
    1.8755596869721709E+00 
    1.8381590461343005E+00 
    1.8000371503077608E+00 
    1.7617156133030623E+00 
    1.7229654835543489E+00 
    1.6832759417288821E+00 
    1.6505615023023616E+00 
    1.6298291149255868E+00 
    1.6194956915435350E+00 
    2.0068899439556729E+00 
    1.9997353226278194E+00 
    1.9857253435187330E+00 
    1.9655029564491910E+00 
    1.9398566996773239E+00 
    1.9096083649697855E+00 
    1.8755596869724165E+00 
    1.8384835919047087E+00 
    1.7991327110424669E+00 
    1.7582197825104411E+00 
    1.7162462068172033E+00 
    1.6726999831459459E+00 
    1.6281781376612958E+00 
    1.5924504665978696E+00 
    1.5696142036358161E+00 
    1.5580070691100762E+00 
    1.9696734975955412E+00 
    1.9628234115573209E+00 
    1.9492923419440746E+00 
    1.9294931278358918E+00 
    1.9039671866668355E+00 
    1.8733152346338655E+00 
    1.8381590461347321E+00 
    1.7991327110427087E+00 
    1.7568851304346889E+00 
    1.7120449124303736E+00 
    1.6649848646362071E+00 
    1.6146580772164518E+00 
    1.5640814013978406E+00 
    1.5245132337081977E+00 
    1.4984787986377823E+00 
    1.4849114741535097E+00 
    1.9349653688299797E+00 
    1.9281827138806487E+00 
    1.9147017501871828E+00 
    1.8947751447535086E+00 
    1.8687513647917002E+00 
    1.8370301753693039E+00 
    1.8000371503083357E+00 
    1.7582197825109362E+00 
    1.7120449124306913E+00 
    1.6619169170162049E+00 
    1.6077721259765139E+00 
    1.5485047093807494E+00 
    1.4911187467093909E+00 
    1.4462992026362727E+00 
    1.4150141519070039E+00 
    1.3982485677719463E+00 
    1.9027227975637706E+00 
    1.8958387288281540E+00 
    1.8820926504059621E+00 
    1.8616157722575244E+00 
    1.8345933498580420E+00 
    1.8012277166745982E+00 
    1.7617156133038010E+00 
    1.7162462068179971E+00 
    1.6649848646369152E+00 
    1.6077721259769224E+00 
    1.5437741739712030E+00 
    1.4745129702667177E+00 
    1.4101240388718004E+00 
    1.3571479596776750E+00 
    1.3170598456350511E+00 
    1.2948200773761336E+00 
    1.8726797012553456E+00 
    1.8655457630284014E+00 
    1.8512576297291621E+00 
    1.8298517540149195E+00 
    1.8013621114568286E+00 
    1.7657719554199909E+00 
    1.7229654835552910E+00 
    1.6726999831471028E+00 
    1.6146580772176446E+00 
    1.5485047093816846E+00 
    1.4745129702672668E+00 
    1.3972724481425212E+00 
    1.3233613430194484E+00 
    1.2561159305590965E+00 
    1.2012580642359003E+00 
    1.1691518187220422E+00 
    1.8440064371124647E+00 
    1.8364299463480289E+00 
    1.8212675269040435E+00 
    1.7985039777131298E+00 
    1.7680591235721952E+00 
    1.7297548693631073E+00 
    1.6832759417300813E+00 
    1.6281781376628990E+00 
    1.5640814013996349E+00 
    1.4911187467109830E+00 
    1.4101240388730349E+00 
    1.3233613430201521E+00 
    1.2330245534633328E+00 
    1.1427341951665533E+00 
    1.0627046620332798E+00 
    1.0113773145548797E+00 
    1.8185284902878172E+00 
    1.8106631083142968E+00 
    1.7949259291963704E+00 
    1.7712557457454612E+00 
    1.7395024681324613E+00 
    1.6994038276915298E+00 
    1.6505615023038600E+00 
    1.5924504665999619E+00 
    1.5245132337106295E+00 
    1.4462992026385546E+00 
    1.3571479596796507E+00 
    1.2561159305606051E+00 
    1.1427341951674079E+00 
    1.0190916346718490E+00 
    8.9544907417612862E-01 
    8.0227546291037610E-01 
    1.8016357827670608E+00 
    1.7936778269256275E+00 
    1.7777182751395104E+00 
    1.7536378796155057E+00 
    1.7212211436254607E+00 
    1.6801227843763276E+00 
    1.6298291149274360E+00 
    1.5696142036384158E+00 
    1.4984787986408377E+00 
    1.4150141519099340E+00 
    1.3170598456376992E+00 
    1.2012580642380963E+00 
    1.0627046620347913E+00 
    8.9544907417664232E-01 
    6.9772453708844107E-01 
    5.0000000000028799E-01 
    1.7936036759336456E+00 
    1.7855827608463517E+00 
    1.7694796548223339E+00 
    1.7451493579180890E+00 
    1.7123390247557797E+00 
    1.6706516975432899E+00 
    1.6194956915457364E+00 
    1.5580070691131660E+00 
    1.4849114741571534E+00 
    1.3982485677754721E+00 
    1.2948200773793714E+00 
    1.1691518187247965E+00 
    1.0113773145568408E+00 
    8.0227546291097118E-01 
    4.9999999999964057E-01 
    0.0000000000000000E+00 

SCALARS Saturarion double 1 
LOOKUP_TABLE default 

    1.0000000000000000E+00 
    9.2813336533323865E-01 
    8.7097283439140583E-01 
    8.1466694381309857E-01 
    7.6111351092125024E-01 
    7.1086084543560657E-01 
    6.6353942466530813E-01 
    6.1828864741176104E-01 
    5.7385717951330306E-01 
    5.2834202784456807E-01 
    4.7817403200543807E-01 
    4.1465409822227922E-01 
    3.1152320782128551E-01 
    1.1983621583422017E-01 
    4.6365242743154188E-03 
    8.8132699461076340E-07 
    9.2813336533356494E-01 
    8.8396270214972961E-01 
    8.3576971443195991E-01 
    7.8695076557627452E-01 
    7.3937936207452259E-01 
    6.9376307504510726E-01 
    6.5002380423831740E-01 
    6.0756323244637578E-01 
    5.6531685737761950E-01 
    5.2148244055889714E-01 
    4.7245889459600077E-01 
    4.0913516313335280E-01 
    3.0321242880385790E-01 
    1.0706273311790324E-01 
    3.2544536236754412E-03 
    3.6965440193715408E-07 
    8.7097283439207029E-01 
    8.3576971443231285E-01 
    7.9562157468011008E-01 
    7.5400790857610556E-01 
    7.1261347360622485E-01 
    6.7213711209606763E-01 
    6.3262188603377800E-01 
    5.9362290855684885E-01 
    5.5420365253693493E-01 
    5.1262790711026385E-01 
    4.6521989061983854E-01 
    4.0230484681310846E-01 
    2.9265358708089817E-01 
    9.1660152947963786E-02 
    2.0055359870012322E-03 
    1.1166991014899702E-07 
    8.1466694381414673E-01 
    7.8695076557692123E-01 
    7.5400790857640543E-01 
    7.1901031096019430E-01 
    6.8348296560641142E-01 
    6.4809463762078767E-01 
    6.1294170843683060E-01 
    5.7766242231947063E-01 
    5.4139227720512295E-01 
    5.0241557357049749E-01 
    4.5692159831302598E-01 
    3.9447348811931104E-01 
    2.7975874963453634E-01 
    7.4785541391060875E-02 
    1.0766894745038403E-03 
    2.3769553062563690E-08 
    7.6111351092254431E-01 
    7.3937936207547650E-01 
    7.1261347360682636E-01 
    6.8348296560671962E-01 
    6.5332122600612896E-01 
    6.2274251169592054E-01 
    5.9185710753866261E-01 
    5.6034208523857565E-01 
    5.2736338148697492E-01 
    4.9118397614624909E-01 
    4.4778993117203147E-01 
    3.8572441550504322E-01 
    2.6404609588783279E-01 
    5.7529307852294043E-02 
    4.9120286844005212E-04 
    3.3103245966586155E-09 
    7.1086084543714889E-01 
    6.9376307504630552E-01 
    6.7213711209690918E-01 
    6.4809463762129016E-01 
    6.2274251169612271E-01 
    5.9661190808483133E-01 
    5.6979759763294613E-01 
    5.4198602070448543E-01 
    5.1234454414415520E-01 
    4.7907957673072293E-01 
    4.3789978247443906E-01 
    3.7598323464018557E-01 
    2.4464053883305045E-01 
    4.0936912203402745E-02 
    1.8073815319473761E-04 
    2.5711428194074754E-10 
    6.6353942466707649E-01 
    6.5002380423971728E-01 
    6.3262188603484459E-01 
    6.1294170843756512E-01 
    5.9185710753913179E-01 
    5.6979759763316451E-01 
    5.4682232858716484E-01 
    5.2260796929744435E-01 
    4.9630334016120686E-01 
    4.6602742930268953E-01 
    4.2712326043119109E-01 
    3.6489714015513880E-01 
    2.1993838708520574E-01 
    2.5914977664420965E-02 
    4.7916330746255972E-05 
    7.8744042256261528E-12 
    6.1828864741373524E-01 
    6.0756323244796639E-01 
    5.9362290855809507E-01 
    5.7766242232041232E-01 
    5.6034208523923446E-01 
    5.4198602070490176E-01 
    5.2260796929763753E-01 
    5.0186393156968767E-01 
    4.7886966398950975E-01 
    4.5162427043140435E-01 
    4.1497490350869271E-01 
    3.5146970761967827E-01 
    1.8682019230349722E-01 
    1.3335709644600659E-02 
    7.0227672143786438E-06 
    4.1128184740336022E-14 
    5.7385717951489079E-01 
    5.6531685737893089E-01 
    5.5420365253799642E-01 
    5.4139227720593663E-01 
    5.2736338148756412E-01 
    5.1234454414456321E-01 
    4.9630334016145028E-01 
    4.7886966398961150E-01 
    4.5911164146220085E-01 
    4.3485622798783147E-01 
    4.0019737536019245E-01 
    3.3290491439757902E-01 
    1.3958524781668596E-01 
    4.4133843951168093E-03 
    2.7522503655609540E-07 
    2.8641440786074409E-18 
    5.2834202784580131E-01 
    5.2148244055994109E-01 
    5.1262790711111217E-01 
    5.0241557357116295E-01 
    4.9118397614673692E-01 
    4.7907957673107360E-01 
    4.6602742930292340E-01 
    4.5162427043154502E-01 
    4.3485622798786955E-01 
    4.1323640552498747E-01 
    3.7940353769590235E-01 
    2.9981021438017397E-01 
    7.3471978607481211E-02 
    4.4395747329895095E-04 
    1.9442315514549239E-10 
    1.5881763496844587E-28 
    4.7817403200635955E-01 
    4.7245889459678719E-01 
    4.6521989062048907E-01 
    4.5692159831353302E-01 
    4.4778993117242127E-01 
    4.3789978247472439E-01 
    4.2712326043138749E-01 
    4.1497490350882910E-01 
    4.0019737536021266E-01 
    3.7940353769585783E-01 
    3.4062577425317531E-01 
    2.0534662407875476E-01 
    1.0225745807921115E-02 
    4.1903789863699066E-07 
    6.7119093454599162E-21 
    9.0866872683642828E-66 
    4.1465409822293919E-01 
    4.0913516313392367E-01 
    4.0230484681358458E-01 
    3.9447348811969346E-01 
    3.8572441550534281E-01 
    3.7598323464040151E-01 
    3.6489714015529123E-01 
    3.5146970761977991E-01 
    3.3290491439744319E-01 
    2.9981021437975863E-01 
    2.0534662407817120E-01 
    2.2607960767667582E-02 
    3.7176824085411102E-06 
    9.7038618442647095E-19 
    5.0142073550659250E-61 
   1.1685727699904041E-204 
    3.1152320782180726E-01 
    3.0321242880431537E-01 
    2.9265358708131239E-01 
    2.7975874963488484E-01 
    2.6404609588810124E-01 
    2.4464053883321268E-01 
    2.1993838708523547E-01 
    1.8682019230338254E-01 
    1.3958524781598750E-01 
    7.3471978606775679E-02 
    1.0225745807800342E-02 
    3.7176824085201537E-06 
    2.5610338922182620E-18 
    6.7815125482004121E-60 
   5.3777622707512520E-202 
    0.0000000000000000E+00 
    1.1983621583464488E-01 
    1.0706273311825715E-01 
    9.1660152948269638E-02 
    7.4785541391279908E-02 
    5.7529307852410790E-02 
    4.0936912203425241E-02 
    2.5914977664380216E-02 
    1.3335709644547679E-02 
    4.4133843950402950E-03 
    4.4395747328675991E-04 
    4.1903789862556837E-07 
    9.7038618441345533E-19 
    6.7815125481738508E-60 
   1.6461050220793218E-201 
    0.0000000000000000E+00 
    0.0000000000000000E+00 
    4.6365242743960037E-03 
    3.2544536237270804E-03 
    2.0055359870318019E-03 
    1.0766894745181674E-03 
    4.9120286844502742E-04 
    1.8073815319572363E-04 
    4.7916330746226881E-05 
    7.0227672143300377E-06 
    2.7522503654497994E-07 
    1.9442315513305725E-10 
    6.7119093450657799E-21 
    5.0142073549071480E-61 
   5.3777622706838864E-202 
    0.0000000000000000E+00 
    0.0000000000000000E+00 
    0.0000000000000000E+00 
    8.8132699465357138E-07 
    3.6965440195353602E-07 
    1.1166991015373527E-07 
    2.3769553063457426E-08 
    3.3103245967585116E-09 
    2.5711428194581071E-10 
    7.8744042256771682E-12 
    4.1128184740084433E-14 
    2.8641440783654767E-18 
    1.5881763494682796E-28 
    9.0866872672525174E-66 
   1.1685727699083057E-204 
    0.0000000000000000E+00 
    0.0000000000000000E+00 
    0.0000000000000000E+00 
    0.0000000000000000E+00 
