# vtk DataFile Version 2.0
Pressure Field Data 
ASCII 
DATASET UNSTRUCTURED_GRID 

POINTS 289 double 

    0.0000000000000000E+00     0.0000000000000000E+00     0.0000000000000000E+00 
    1.0000000000000000E+00     0.0000000000000000E+00     0.0000000000000000E+00 
    1.0000000000000000E+00     1.0000000000000000E+00     0.0000000000000000E+00 
    0.0000000000000000E+00     1.0000000000000000E+00     0.0000000000000000E+00 
    6.2499999999872928E-02     0.0000000000000000E+00     0.0000000000000000E+00 
    1.2499999999977310E-01     0.0000000000000000E+00     0.0000000000000000E+00 
    1.8749999999959341E-01     0.0000000000000000E+00     0.0000000000000000E+00 
    2.4999999999941089E-01     0.0000000000000000E+00     0.0000000000000000E+00 
    3.1249999999922851E-01     0.0000000000000000E+00     0.0000000000000000E+00 
    3.7499999999904610E-01     0.0000000000000000E+00     0.0000000000000000E+00 
    4.3749999999886358E-01     0.0000000000000000E+00     0.0000000000000000E+00 
    4.9999999999869210E-01     0.0000000000000000E+00     0.0000000000000000E+00 
    5.6249999999884603E-01     0.0000000000000000E+00     0.0000000000000000E+00 
    6.2499999999901090E-01     0.0000000000000000E+00     0.0000000000000000E+00 
    6.8749999999917577E-01     0.0000000000000000E+00     0.0000000000000000E+00 
    7.4999999999934064E-01     0.0000000000000000E+00     0.0000000000000000E+00 
    8.1249999999950551E-01     0.0000000000000000E+00     0.0000000000000000E+00 
    8.7499999999967026E-01     0.0000000000000000E+00     0.0000000000000000E+00 
    9.3749999999983513E-01     0.0000000000000000E+00     0.0000000000000000E+00 
    1.0000000000000000E+00     6.2499999999872928E-02     0.0000000000000000E+00 
    1.0000000000000000E+00     1.2499999999977310E-01     0.0000000000000000E+00 
    1.0000000000000000E+00     1.8749999999959341E-01     0.0000000000000000E+00 
    1.0000000000000000E+00     2.4999999999941089E-01     0.0000000000000000E+00 
    1.0000000000000000E+00     3.1249999999922851E-01     0.0000000000000000E+00 
    1.0000000000000000E+00     3.7499999999904610E-01     0.0000000000000000E+00 
    1.0000000000000000E+00     4.3749999999886358E-01     0.0000000000000000E+00 
    1.0000000000000000E+00     4.9999999999869210E-01     0.0000000000000000E+00 
    1.0000000000000000E+00     5.6249999999884603E-01     0.0000000000000000E+00 
    1.0000000000000000E+00     6.2499999999901090E-01     0.0000000000000000E+00 
    1.0000000000000000E+00     6.8749999999917577E-01     0.0000000000000000E+00 
    1.0000000000000000E+00     7.4999999999934064E-01     0.0000000000000000E+00 
    1.0000000000000000E+00     8.1249999999950551E-01     0.0000000000000000E+00 
    1.0000000000000000E+00     8.7499999999967026E-01     0.0000000000000000E+00 
    1.0000000000000000E+00     9.3749999999983513E-01     0.0000000000000000E+00 
    9.3749999999973976E-01     1.0000000000000000E+00     0.0000000000000000E+00 
    8.7499999999950118E-01     1.0000000000000000E+00     0.0000000000000000E+00 
    8.1249999999991318E-01     1.0000000000000000E+00     0.0000000000000000E+00 
    7.5000000000034706E-01     1.0000000000000000E+00     0.0000000000000000E+00 
    6.8750000000078049E-01     1.0000000000000000E+00     0.0000000000000000E+00 
    6.2500000000121403E-01     1.0000000000000000E+00     0.0000000000000000E+00 
    5.6250000000164757E-01     1.0000000000000000E+00     0.0000000000000000E+00 
    5.0000000000205946E-01     1.0000000000000000E+00     0.0000000000000000E+00 
    4.3750000000182099E-01     1.0000000000000000E+00     0.0000000000000000E+00 
    3.7500000000156092E-01     1.0000000000000000E+00     0.0000000000000000E+00 
    3.1250000000130068E-01     1.0000000000000000E+00     0.0000000000000000E+00 
    2.5000000000104050E-01     1.0000000000000000E+00     0.0000000000000000E+00 
    1.8750000000078040E-01     1.0000000000000000E+00     0.0000000000000000E+00 
    1.2500000000052031E-01     1.0000000000000000E+00     0.0000000000000000E+00 
    6.2500000000260125E-02     1.0000000000000000E+00     0.0000000000000000E+00 
    0.0000000000000000E+00     9.3749999999973976E-01     0.0000000000000000E+00 
    0.0000000000000000E+00     8.7499999999950118E-01     0.0000000000000000E+00 
    0.0000000000000000E+00     8.1249999999991318E-01     0.0000000000000000E+00 
    0.0000000000000000E+00     7.5000000000034706E-01     0.0000000000000000E+00 
    0.0000000000000000E+00     6.8750000000078049E-01     0.0000000000000000E+00 
    0.0000000000000000E+00     6.2500000000121403E-01     0.0000000000000000E+00 
    0.0000000000000000E+00     5.6250000000164757E-01     0.0000000000000000E+00 
    0.0000000000000000E+00     5.0000000000205946E-01     0.0000000000000000E+00 
    0.0000000000000000E+00     4.3750000000182099E-01     0.0000000000000000E+00 
    0.0000000000000000E+00     3.7500000000156092E-01     0.0000000000000000E+00 
    0.0000000000000000E+00     3.1250000000130068E-01     0.0000000000000000E+00 
    0.0000000000000000E+00     2.5000000000104050E-01     0.0000000000000000E+00 
    0.0000000000000000E+00     1.8750000000078040E-01     0.0000000000000000E+00 
    0.0000000000000000E+00     1.2500000000052031E-01     0.0000000000000000E+00 
    0.0000000000000000E+00     6.2500000000260125E-02     0.0000000000000000E+00 
    6.2499999999897131E-02     6.2500000000235922E-02     0.0000000000000000E+00 
    6.2499999999921327E-02     1.2500000000047351E-01     0.0000000000000000E+00 
    6.2499999999945530E-02     1.8750000000070621E-01     0.0000000000000000E+00 
    6.2499999999969733E-02     2.5000000000093858E-01     0.0000000000000000E+00 
    6.2499999999993928E-02     3.1250000000117117E-01     0.0000000000000000E+00 
    6.2500000000018124E-02     3.7500000000140382E-01     0.0000000000000000E+00 
    6.2500000000042327E-02     4.3750000000163619E-01     0.0000000000000000E+00 
    6.2500000000066530E-02     5.0000000000184897E-01     0.0000000000000000E+00 
    6.2500000000090733E-02     5.6250000000147260E-01     0.0000000000000000E+00 
    6.2500000000114922E-02     6.2500000000107636E-01     0.0000000000000000E+00 
    6.2500000000139125E-02     6.8750000000068034E-01     0.0000000000000000E+00 
    6.2500000000163328E-02     7.5000000000028411E-01     0.0000000000000000E+00 
    6.2500000000187531E-02     8.1249999999988787E-01     0.0000000000000000E+00 
    6.2500000000211720E-02     8.7499999999951172E-01     0.0000000000000000E+00 
    6.2500000000235922E-02     9.3749999999974565E-01     0.0000000000000000E+00 
    1.2499999999981980E-01     6.2500000000211733E-02     0.0000000000000000E+00 
    1.2499999999986650E-01     1.2500000000042691E-01     0.0000000000000000E+00 
    1.2499999999991319E-01     1.8750000000063199E-01     0.0000000000000000E+00 
    1.2499999999995989E-01     2.5000000000083678E-01     0.0000000000000000E+00 
    1.2500000000000661E-01     3.1250000000104172E-01     0.0000000000000000E+00 
    1.2500000000005329E-01     3.7500000000124661E-01     0.0000000000000000E+00 
    1.2500000000010000E-01     4.3750000000145117E-01     0.0000000000000000E+00 
    1.2500000000014669E-01     5.0000000000163858E-01     0.0000000000000000E+00 
    1.2500000000019340E-01     5.6250000000129741E-01     0.0000000000000000E+00 
    1.2500000000024011E-01     6.2500000000093847E-01     0.0000000000000000E+00 
    1.2500000000028680E-01     6.8750000000057998E-01     0.0000000000000000E+00 
    1.2500000000033351E-01     7.5000000000022127E-01     0.0000000000000000E+00 
    1.2500000000038020E-01     8.1249999999986211E-01     0.0000000000000000E+00 
    1.2500000000042691E-01     8.7499999999952238E-01     0.0000000000000000E+00 
    1.2500000000047359E-01     9.3749999999975164E-01     0.0000000000000000E+00 
    1.8749999999966760E-01     6.2500000000187531E-02     0.0000000000000000E+00 
    1.8749999999974179E-01     1.2500000000038020E-01     0.0000000000000000E+00 
    1.8749999999981601E-01     1.8750000000055780E-01     0.0000000000000000E+00 
    1.8749999999989009E-01     2.5000000000073502E-01     0.0000000000000000E+00 
    1.8749999999996431E-01     3.1250000000091221E-01     0.0000000000000000E+00 
    1.8750000000003850E-01     3.7500000000108941E-01     0.0000000000000000E+00 
    1.8750000000011269E-01     4.3750000000126649E-01     0.0000000000000000E+00 
    1.8750000000018691E-01     5.0000000000142808E-01     0.0000000000000000E+00 
    1.8750000000026110E-01     5.6250000000112244E-01     0.0000000000000000E+00 
    1.8750000000033529E-01     6.2500000000080080E-01     0.0000000000000000E+00 
    1.8750000000040951E-01     6.8750000000047962E-01     0.0000000000000000E+00 
    1.8750000000048361E-01     7.5000000000015843E-01     0.0000000000000000E+00 
    1.8750000000055780E-01     8.1249999999983680E-01     0.0000000000000000E+00 
    1.8750000000063199E-01     8.7499999999953304E-01     0.0000000000000000E+00 
    1.8750000000070621E-01     9.3749999999975764E-01     0.0000000000000000E+00 
    2.4999999999951281E-01     6.2500000000163314E-02     0.0000000000000000E+00 
    2.4999999999961461E-01     1.2500000000033351E-01     0.0000000000000000E+00 
    2.4999999999971650E-01     1.8750000000048361E-01     0.0000000000000000E+00 
    2.4999999999981831E-01     2.5000000000063310E-01     0.0000000000000000E+00 
    2.4999999999992020E-01     3.1250000000078260E-01     0.0000000000000000E+00 
    2.5000000000002198E-01     3.7500000000093209E-01     0.0000000000000000E+00 
    2.5000000000012390E-01     4.3750000000108180E-01     0.0000000000000000E+00 
    2.5000000000022571E-01     5.0000000000121769E-01     0.0000000000000000E+00 
    2.5000000000032763E-01     5.6250000000094724E-01     0.0000000000000000E+00 
    2.5000000000042938E-01     6.2500000000066314E-01     0.0000000000000000E+00 
    2.5000000000053119E-01     6.8750000000037925E-01     0.0000000000000000E+00 
[...]
CELL_DATA 256 
SCALARS Pressure double 1 
LOOKUP_TABLE default 

    2.5110472568754578E+00 
    2.3979232051300299E+00 
    2.3180620442673439E+00 
    2.2539891507231036E+00 
    2.1981039232830275E+00 
    2.1470790305836918E+00 
    2.0993548329047851E+00 
    2.0541756119868491E+00 
    2.0111496157300222E+00 
    1.9699534311166853E+00 
    1.9299383987114749E+00 
    1.8896631293269066E+00 
    1.8528942020026256E+00 
    1.8264173335417879E+00 
    1.8095554696108167E+00 
    1.8011202889357434E+00 
    2.3979232051306574E+00 
    2.3480809024122196E+00 
    2.2914287287611144E+00 
    2.2370242331464789E+00 
    2.1857299821254332E+00 
    2.1371053403562672E+00 
    2.0906943401866269E+00 
    2.0462149440398369E+00 
    2.0034997404123267E+00 
    1.9623298662089150E+00 
    1.9220546271248562E+00 
    1.8811768206296033E+00 
    1.8443302772917625E+00 
    1.8180205997919197E+00 
    1.8011398373591552E+00 
    1.7926851083237085E+00 
    2.3180620442682920E+00 
    2.2914287287615855E+00 
    2.2521152974817613E+00 
    2.2082256675682719E+00 
    2.1631402970135998E+00 
    2.1181869224543957E+00 
    2.0739135670769322E+00 
    2.0305896739760523E+00 
    1.9883517860425712E+00 
    1.9471304735730370E+00 
    1.9062476780696560E+00 
    1.8642935016654321E+00 
    1.8273549566206970E+00 
    1.8012649580420581E+00 
    1.7843067994971631E+00 
    1.7757951987424192E+00 
    2.2539891507243159E+00 
    2.2370242331473085E+00 
    2.2082256675686747E+00 
    2.1725700318717984E+00 
    2.1332311600516687E+00 
    2.0920431738944019E+00 
    2.0500711918913068E+00 
    2.0079675013475797E+00 
    1.9661187273745864E+00 
    1.9245724306840237E+00 
    1.8825148682494537E+00 
    1.8391363587126419E+00 
    1.8021634893452461E+00 
    1.7761884128469170E+00 
    1.7590310744295545E+00 
    1.7503936884158988E+00 
    2.1981039232844792E+00 
    2.1857299821265510E+00 
    2.1631402970143330E+00 
    2.1332311600520182E+00 
    2.0983993000803123E+00 
    2.0603729796391410E+00 
    2.0203513822865538E+00 
    1.9791644380730617E+00 
    1.9373396188944971E+00 
    1.8949514740160176E+00 
    1.8508338324206610E+00 
    1.8058284276899945E+00 
    1.7689464552154903E+00 
    1.7428056633475146E+00 
    1.7252363771348502E+00 
    1.7163547920760143E+00 
    2.1470790305853744E+00 
    2.1371053403576350E+00 
    2.1181869224554077E+00 
    2.0920431738950538E+00 
    2.0603729796394532E+00 
    2.0246059657194588E+00 
    1.9858670813183648E+00 
    1.9450059663438566E+00 
    1.9025722084203849E+00 
    1.8585217154526248E+00 
    1.8112991859203629E+00 
    1.7647421522094595E+00 
    1.7279255457301466E+00 
    1.7010841308793285E+00 
    1.6827540810288302E+00 
    1.6734343106773597E+00 
    2.0993548329066933E+00 
    2.0906943401882239E+00 
    2.0739135670781912E+00 
    2.0500711918922265E+00 
    2.0203513822871497E+00 
    1.9858670813186554E+00 
    1.9475750004556422E+00 
    1.9062328092704965E+00 
    1.8622676910205587E+00 
    1.8151458862256844E+00 
    1.7640483623559340E+00 
    1.7165214358076444E+00 
    1.6792905091096668E+00 
    1.6509109829950606E+00 
    1.6312615076736674E+00 
    1.6211940589273353E+00 
    2.0541756119889589E+00 
    2.0462149440416364E+00 
    2.0305896739775271E+00 
    2.0079675013487357E+00 
    1.9791644380739157E+00 
    1.9450059663444224E+00 
    1.9062328092707819E+00 
    1.8634108259172564E+00 
    1.8166032593450325E+00 
    1.7646252976540664E+00 
    1.7099745637444821E+00 
    1.6619608727378501E+00 
    1.6230379711311136E+00 
    1.5920130880005798E+00 
    1.5701869077452422E+00 
    1.5588863584311339E+00 
    2.0111496157319402E+00 
    2.0034997404139827E+00 
    1.9883517860439710E+00 
    1.9661187273757443E+00 
    1.9373396188954290E+00 
    1.9025722084211016E+00 
    1.8622676910210649E+00 
    1.8166032593453179E+00 
    1.7648719668873729E+00 
    1.7074714914064173E+00 
    1.6513211553092824E+00 
    1.6019529556331213E+00 
    1.5591620433949511E+00 
    1.5239165282204450E+00 
    1.4985866768758420E+00 
    1.4852781086214042E+00 
    1.9699534311181419E+00 
    1.9623298662101887E+00 
    1.9471304735741493E+00 
    1.9245724306850016E+00 
    1.8949514740168829E+00 
    1.8585217154533944E+00 
    1.8151458862263703E+00 
    1.7646252976546590E+00 
    1.7074714914067937E+00 
    1.6477778346301113E+00 
    1.5906374882457313E+00 
    1.5369763658282691E+00 
    1.4877471338295121E+00 
    1.4459043046108018E+00 
    1.4149651629167379E+00 
    1.3983612905581111E+00 
    1.9299383987124965E+00 
    1.9220546271257666E+00 
    1.9062476780704927E+00 
    1.8825148682502602E+00 
    1.8508338324214706E+00 
    1.8112991859212018E+00 
    1.7640483623568224E+00 
    1.7099745637454111E+00 
    1.6513211553100813E+00 
    1.5906374882461751E+00 
    1.5291039410370004E+00 
    1.4676375018841463E+00 
    1.4089458215255484E+00 
    1.3569883934765126E+00 
    1.3170083796223748E+00 
    1.2948406001367594E+00 
    1.8896631293275192E+00 
    1.8811768206301680E+00 
    1.8642935016659974E+00 
    1.8391363587132656E+00 
    1.8058284276907235E+00 
    1.7647421522103386E+00 
    1.7165214358087117E+00 
    1.6619608727391217E+00 
    1.6019529556343910E+00 
    1.5369763658292359E+00 
    1.4676375018846939E+00 
    1.3955238793984066E+00 
    1.3234102569120478E+00 
    1.2560950681473242E+00 
    1.2012393619597010E+00 
    1.1691521302304289E+00 
    1.8528942020028090E+00 
    1.8443302772919625E+00 
    1.8273549566209750E+00 
    1.8021634893456770E+00 
    1.7689464552161398E+00 
    1.7279255457310796E+00 
    1.6792905091109460E+00 
    1.6230379711327882E+00 
    1.5591620433967741E+00 
    1.4877471338310926E+00 
    1.4089458215267563E+00 
    1.3234102569127382E+00 
    1.2330762585769353E+00 
    1.1427422602410440E+00 
    1.0627018698389570E+00 
    1.0113764285956131E+00 
    1.8264173335416738E+00 
    1.8180205997918752E+00 
    1.8012649580421596E+00 
    1.7761884128472574E+00 
    1.7428056633481774E+00 
    1.7010841308803981E+00 
    1.6509109829966229E+00 
    1.5920130880027188E+00 
    1.5239165282228853E+00 
    1.4459043046130657E+00 
    1.3569883934784661E+00 
    1.2560950681488214E+00 
    1.1427422602418948E+00 
    1.0190958444009350E+00 
    8.9544942855981280E-01 
    8.0227528571851237E-01 
    1.8095554696106668E+00 
    1.8011398373590946E+00 
    1.7843067994972810E+00 
    1.7590310744299609E+00 
    1.7252363771356467E+00 
    1.6827540810301236E+00 
    1.6312615076755745E+00 
    1.5701869077478845E+00 
    1.4985866768789131E+00 
    1.4149651629196651E+00 
    1.3170083796250136E+00 
    1.2012393619618893E+00 
    1.0627018698404642E+00 
    8.9544942856032483E-01 
    6.9772471428027805E-01 
    5.0000000000027922E-01 
    1.8011202889356206E+00 
    1.7926851083236850E+00 
    1.7757951987425986E+00 
    1.7503936884164080E+00 
    1.7163547920769731E+00 
    1.6734343106788960E+00 
    1.6211940589295926E+00 
    1.5588863584342676E+00 
    1.4852781086250697E+00 
    1.3983612905616412E+00 
    1.2948406001399935E+00 
    1.1691521302331778E+00 
    1.0113764285975702E+00 
    8.0227528571910534E-01 
    4.9999999999963096E-01 
    0.0000000000000000E+00 

SCALARS Saturarion double 1 
LOOKUP_TABLE default 

    1.0000000000000000E+00 
    9.1367797650657379E-01 
    8.4823572940298697E-01 
    7.8577031423160237E-01 
    7.2761438287039204E-01 
    6.7372074646872993E-01 
    6.2317278547257282E-01 
    5.7453910847312684E-01 
    5.2572898492612441E-01 
    4.7303323623823745E-01 
    4.0756940625713151E-01 
    3.0104177101112850E-01 
    1.0375847616843308E-01 
    2.7788761446368767E-03 
    2.0684233245717741E-07 
    2.2700488689045706E-17 
    9.1367797650691784E-01 
    8.6290430513104210E-01 
    8.0897406953407147E-01 
    7.5553327691826599E-01 
    7.0424569881299803E-01 
    6.5547095083912355E-01 
    6.0873385015909753E-01 
    5.6293530415958526E-01 
    5.1616555523045105E-01 
    4.6466155120476893E-01 
    3.9876118729475024E-01 
    2.8586658660531056E-01 
    8.2591856100380306E-02 
    1.3606376446697013E-03 
    3.3096965534467044E-08 
    2.2435270362347630E-19 
    8.4823572940376202E-01 
    8.0897406953444273E-01 
    7.6491802065578818E-01 
    7.1991004246969315E-01 
    6.7556461698969472E-01 
    6.3236440417367890E-01 
    5.9004665738939677E-01 
    5.4770416531561639E-01 
    5.0351433766833464E-01 
    4.5352226389218897E-01 
    3.8673307231883725E-01 
    2.6293871089748616E-01 
    5.6429711784855500E-02 
    4.2401638322445747E-04 
    1.5979467866545735E-09 
    9.0538272983591439E-23 
    7.8577031423267907E-01 
    7.5553327691905536E-01 
    7.1991004247002377E-01 
    6.8238148815946387E-01 
    6.4445476141788571E-01 
    6.0664637068262328E-01 
    5.6878975337489257E-01 
    5.3006103560982776E-01 
    4.8861535659649297E-01 
    4.4009477766723420E-01 
    3.7123013751487854E-01 
    2.2883805850620431E-01 
    3.0474246641598347E-02 
    6.8384359715431190E-05 
    1.2910333150280507E-11 
    2.5795371603518945E-28 
    7.2761438287175706E-01 
    7.0424569881400345E-01 
    6.7556461699032844E-01 
    6.4445476141818103E-01 
    6.1223647522191471E-01 
    5.7939262819694148E-01 
    5.4577630138215194E-01 
    5.1056243657430056E-01 
    4.7176325552767612E-01 
    4.2428390637434588E-01 
    3.5072355064464700E-01 
    1.7784069142716100E-01 
    1.0989634647020465E-02 
    3.6659694223703727E-06 
    4.6264855541695558E-15 
    7.5070301346028963E-38 
    6.7372074647037805E-01 
    6.5547095084035756E-01 
    6.3236440417454931E-01 
    6.0664637068315652E-01 
    5.7939262819720450E-01 
    5.5099551411213499E-01 
    5.2126633671971667E-01 
    4.8929935813690290E-01 
    4.5280123713039211E-01 
    4.0532271049215740E-01 
    3.2085740544066466E-01 
    1.0864817222232774E-01 
    1.8829815509821017E-03 
    2.3501186464580842E-08 
    2.4149395233753101E-21 
    4.8469331906633146E-56 
    6.2317278547442800E-01 
    6.0873385016058723E-01 
    5.9004665739054074E-01 
    5.6878975337569826E-01 
    5.4577630138266064E-01 
    5.2126633671997058E-01 
    4.9497142099984509E-01 
    4.6580123943542090E-01 
    4.3085445726245414E-01 
    3.8089874787313144E-01 
    2.6802061890662759E-01 
    3.9477569385162822E-02 
    6.4173119588773736E-05 
    9.7992625469672496E-13 
    1.1457418494572962E-34 
    1.1380296710126261E-97 
    5.7453910847524414E-01 
    5.6293530416131488E-01 
    5.4770416531702537E-01 
    5.3006103561090590E-01 
    5.1056243657505385E-01 
    4.8929935813738795E-01 
    4.6580123943566243E-01 
    4.3857769999091567E-01 
    4.0332486140658402E-01 
    3.4315128575899745E-01 
    1.5471956899059258E-01 
    3.5455821517361387E-03 
    2.7074936818267681E-08 
    1.0726701399685096E-23 
    6.5951587903476322E-71 
   1.0964651492791336E-218 
    5.2572898492786135E-01 
    5.1616555523192098E-01 
    5.0351433766954434E-01 
    4.8861535659744221E-01 
    4.7176325552838766E-01 
    4.5280123713090964E-01 
    4.3085445726277638E-01 
    4.0332486140673002E-01 
    3.6134573822333083E-01 
    2.5139319119807813E-01 
    2.3482341029075798E-02 
    3.3254784295617880E-06 
    9.7407959237985239E-19 
    8.3614901028815378E-60 
   8.7358814140694290E-195 
    0.0000000000000000E+00 
    4.7303323623966015E-01 
    4.6466155120600089E-01 
    4.5352226389323708E-01 
    4.4009477766807631E-01 
    4.2428390637502600E-01 
    4.0532271049270385E-01 
    3.8089874787357592E-01 
    3.4315128575943277E-01 
    2.5139319119844100E-01 
    4.0954649180053086E-02 
    1.7246826593822328E-05 
    3.9978437268169985E-17 
    2.3396865533098581E-56 
   1.3846990739725248E-187 
    0.0000000000000000E+00 
    0.0000000000000000E+00 
    4.0756940625839000E-01 
    3.9876118729587651E-01 
    3.8673307231984594E-01 
    3.7123013751578038E-01 
    3.5072355064549732E-01 
    3.2085740544154573E-01 
    2.6802061890771345E-01 
    1.5471956899173184E-01 
    2.3482341029212692E-02 
    1.7246826593842602E-05 
    8.8252201377098510E-17 
    1.7639782139610391E-55 
   1.1384121824305903E-185 
    0.0000000000000000E+00 
    0.0000000000000000E+00 
    0.0000000000000000E+00 
    3.0104177101272844E-01 
    2.8586658660685227E-01 
    2.6293871089904497E-01 
    2.2883805850781069E-01 
    1.7784069142875158E-01 
    1.0864817222357187E-01 
    3.9477569385763710E-02 
    3.5455821518079172E-03 
    3.3254784296016765E-06 
    3.9978437268128095E-17 
    1.7639782139572314E-55 
   2.7334189515908716E-185 
    0.0000000000000000E+00 
    0.0000000000000000E+00 
    0.0000000000000000E+00 
    0.0000000000000000E+00 
    1.0375847617036138E-01 
    8.2591856101964276E-02 
    5.6429711786058948E-02 
    3.0474246642345063E-02 
    1.0989634647337383E-02 
    1.8829815510472648E-03 
    6.4173119591628915E-05 
    2.7074936819774350E-08 
    9.7407959240124659E-19 
    2.3396865533008088E-56 
   1.1384121824245488E-185 
    0.0000000000000000E+00 
    0.0000000000000000E+00 
    0.0000000000000000E+00 
    0.0000000000000000E+00 
    0.0000000000000000E+00 
    2.7788761447932681E-03 
    1.3606376447466643E-03 
    4.2401638325047973E-04 
    6.8384359720140232E-05 
    3.6659694226636486E-06 
    2.3501186466920400E-08 
    9.7992625482361681E-13 
    1.0726701401409421E-23 
    8.3614901033458868E-60 
   1.3846990739718418E-187 
    0.0000000000000000E+00 
    0.0000000000000000E+00 
    0.0000000000000000E+00 
    0.0000000000000000E+00 
    0.0000000000000000E+00 
    0.0000000000000000E+00 
    2.0684233248891690E-07 
    3.3096965539566791E-08 
    1.5979467869228253E-09 
    1.2910333152742562E-11 
    4.6264855552322304E-15 
    2.4149395240929824E-21 
    1.1457418499261218E-34 
    6.5951587933224106E-71 
   8.7358814155115834E-195 
    0.0000000000000000E+00 
    0.0000000000000000E+00 
    0.0000000000000000E+00 
    0.0000000000000000E+00 
    0.0000000000000000E+00 
    0.0000000000000000E+00 
    0.0000000000000000E+00 
    2.2700488698186530E-17 
    2.2435270371532347E-19 
    9.0538273024654207E-23 
    2.5795371617186740E-28 
    7.5070301396012785E-38 
    4.8469331949770308E-56 
    1.1380296724254660E-97 
   1.0964651506399161E-218 
    0.0000000000000000E+00 
    0.0000000000000000E+00 
    0.0000000000000000E+00 
    0.0000000000000000E+00 
    0.0000000000000000E+00 
    0.0000000000000000E+00 
    0.0000000000000000E+00 
    0.0000000000000000E+00 
