# vtk DataFile Version 2.0
Pressure Field Data 
ASCII 
DATASET UNSTRUCTURED_GRID 

POINTS 289 double 

    0.0000000000000000E+00     0.0000000000000000E+00     0.0000000000000000E+00 
    1.0000000000000000E+00     0.0000000000000000E+00     0.0000000000000000E+00 
    1.0000000000000000E+00     1.0000000000000000E+00     0.0000000000000000E+00 
    0.0000000000000000E+00     1.0000000000000000E+00     0.0000000000000000E+00 
    6.2499999999872928E-02     0.0000000000000000E+00     0.0000000000000000E+00 
    1.2499999999977310E-01     0.0000000000000000E+00     0.0000000000000000E+00 
    1.8749999999959341E-01     0.0000000000000000E+00     0.0000000000000000E+00 
    2.4999999999941089E-01     0.0000000000000000E+00     0.0000000000000000E+00 
    3.1249999999922851E-01     0.0000000000000000E+00     0.0000000000000000E+00 
    3.7499999999904610E-01     0.0000000000000000E+00     0.0000000000000000E+00 
    4.3749999999886358E-01     0.0000000000000000E+00     0.0000000000000000E+00 
    4.9999999999869210E-01     0.0000000000000000E+00     0.0000000000000000E+00 
    5.6249999999884603E-01     0.0000000000000000E+00     0.0000000000000000E+00 
    6.2499999999901090E-01     0.0000000000000000E+00     0.0000000000000000E+00 
    6.8749999999917577E-01     0.0000000000000000E+00     0.0000000000000000E+00 
    7.4999999999934064E-01     0.0000000000000000E+00     0.0000000000000000E+00 
    8.1249999999950551E-01     0.0000000000000000E+00     0.0000000000000000E+00 
    8.7499999999967026E-01     0.0000000000000000E+00     0.0000000000000000E+00 
    9.3749999999983513E-01     0.0000000000000000E+00     0.0000000000000000E+00 
    1.0000000000000000E+00     6.2499999999872928E-02     0.0000000000000000E+00 
    1.0000000000000000E+00     1.2499999999977310E-01     0.0000000000000000E+00 
    1.0000000000000000E+00     1.8749999999959341E-01     0.0000000000000000E+00 
    1.0000000000000000E+00     2.4999999999941089E-01     0.0000000000000000E+00 
    1.0000000000000000E+00     3.1249999999922851E-01     0.0000000000000000E+00 
    1.0000000000000000E+00     3.7499999999904610E-01     0.0000000000000000E+00 
    1.0000000000000000E+00     4.3749999999886358E-01     0.0000000000000000E+00 
    1.0000000000000000E+00     4.9999999999869210E-01     0.0000000000000000E+00 
    1.0000000000000000E+00     5.6249999999884603E-01     0.0000000000000000E+00 
    1.0000000000000000E+00     6.2499999999901090E-01     0.0000000000000000E+00 
    1.0000000000000000E+00     6.8749999999917577E-01     0.0000000000000000E+00 
    1.0000000000000000E+00     7.4999999999934064E-01     0.0000000000000000E+00 
    1.0000000000000000E+00     8.1249999999950551E-01     0.0000000000000000E+00 
    1.0000000000000000E+00     8.7499999999967026E-01     0.0000000000000000E+00 
    1.0000000000000000E+00     9.3749999999983513E-01     0.0000000000000000E+00 
    9.3749999999973976E-01     1.0000000000000000E+00     0.0000000000000000E+00 
    8.7499999999950118E-01     1.0000000000000000E+00     0.0000000000000000E+00 
    8.1249999999991318E-01     1.0000000000000000E+00     0.0000000000000000E+00 
    7.5000000000034706E-01     1.0000000000000000E+00     0.0000000000000000E+00 
    6.8750000000078049E-01     1.0000000000000000E+00     0.0000000000000000E+00 
    6.2500000000121403E-01     1.0000000000000000E+00     0.0000000000000000E+00 
    5.6250000000164757E-01     1.0000000000000000E+00     0.0000000000000000E+00 
    5.0000000000205946E-01     1.0000000000000000E+00     0.0000000000000000E+00 
    4.3750000000182099E-01     1.0000000000000000E+00     0.0000000000000000E+00 
    3.7500000000156092E-01     1.0000000000000000E+00     0.0000000000000000E+00 
    3.1250000000130068E-01     1.0000000000000000E+00     0.0000000000000000E+00 
    2.5000000000104050E-01     1.0000000000000000E+00     0.0000000000000000E+00 
    1.8750000000078040E-01     1.0000000000000000E+00     0.0000000000000000E+00 
    1.2500000000052031E-01     1.0000000000000000E+00     0.0000000000000000E+00 
    6.2500000000260125E-02     1.0000000000000000E+00     0.0000000000000000E+00 
    0.0000000000000000E+00     9.3749999999973976E-01     0.0000000000000000E+00 
    0.0000000000000000E+00     8.7499999999950118E-01     0.0000000000000000E+00 
    0.0000000000000000E+00     8.1249999999991318E-01     0.0000000000000000E+00 
    0.0000000000000000E+00     7.5000000000034706E-01     0.0000000000000000E+00 
    0.0000000000000000E+00     6.8750000000078049E-01     0.0000000000000000E+00 
    0.0000000000000000E+00     6.2500000000121403E-01     0.0000000000000000E+00 
    0.0000000000000000E+00     5.6250000000164757E-01     0.0000000000000000E+00 
    0.0000000000000000E+00     5.0000000000205946E-01     0.0000000000000000E+00 
    0.0000000000000000E+00     4.3750000000182099E-01     0.0000000000000000E+00 
    0.0000000000000000E+00     3.7500000000156092E-01     0.0000000000000000E+00 
    0.0000000000000000E+00     3.1250000000130068E-01     0.0000000000000000E+00 
    0.0000000000000000E+00     2.5000000000104050E-01     0.0000000000000000E+00 
    0.0000000000000000E+00     1.8750000000078040E-01     0.0000000000000000E+00 
    0.0000000000000000E+00     1.2500000000052031E-01     0.0000000000000000E+00 
    0.0000000000000000E+00     6.2500000000260125E-02     0.0000000000000000E+00 
    6.2499999999897131E-02     6.2500000000235922E-02     0.0000000000000000E+00 
    6.2499999999921327E-02     1.2500000000047351E-01     0.0000000000000000E+00 
    6.2499999999945530E-02     1.8750000000070621E-01     0.0000000000000000E+00 
    6.2499999999969733E-02     2.5000000000093858E-01     0.0000000000000000E+00 
    6.2499999999993928E-02     3.1250000000117117E-01     0.0000000000000000E+00 
    6.2500000000018124E-02     3.7500000000140382E-01     0.0000000000000000E+00 
    6.2500000000042327E-02     4.3750000000163619E-01     0.0000000000000000E+00 
    6.2500000000066530E-02     5.0000000000184897E-01     0.0000000000000000E+00 
    6.2500000000090733E-02     5.6250000000147260E-01     0.0000000000000000E+00 
    6.2500000000114922E-02     6.2500000000107636E-01     0.0000000000000000E+00 
    6.2500000000139125E-02     6.8750000000068034E-01     0.0000000000000000E+00 
    6.2500000000163328E-02     7.5000000000028411E-01     0.0000000000000000E+00 
    6.2500000000187531E-02     8.1249999999988787E-01     0.0000000000000000E+00 
    6.2500000000211720E-02     8.7499999999951172E-01     0.0000000000000000E+00 
    6.2500000000235922E-02     9.3749999999974565E-01     0.0000000000000000E+00 
    1.2499999999981980E-01     6.2500000000211733E-02     0.0000000000000000E+00 
    1.2499999999986650E-01     1.2500000000042691E-01     0.0000000000000000E+00 
    1.2499999999991319E-01     1.8750000000063199E-01     0.0000000000000000E+00 
    1.2499999999995989E-01     2.5000000000083678E-01     0.0000000000000000E+00 
    1.2500000000000661E-01     3.1250000000104172E-01     0.0000000000000000E+00 
    1.2500000000005329E-01     3.7500000000124661E-01     0.0000000000000000E+00 
    1.2500000000010000E-01     4.3750000000145117E-01     0.0000000000000000E+00 
    1.2500000000014669E-01     5.0000000000163858E-01     0.0000000000000000E+00 
    1.2500000000019340E-01     5.6250000000129741E-01     0.0000000000000000E+00 
    1.2500000000024011E-01     6.2500000000093847E-01     0.0000000000000000E+00 
    1.2500000000028680E-01     6.8750000000057998E-01     0.0000000000000000E+00 
    1.2500000000033351E-01     7.5000000000022127E-01     0.0000000000000000E+00 
    1.2500000000038020E-01     8.1249999999986211E-01     0.0000000000000000E+00 
    1.2500000000042691E-01     8.7499999999952238E-01     0.0000000000000000E+00 
    1.2500000000047359E-01     9.3749999999975164E-01     0.0000000000000000E+00 
    1.8749999999966760E-01     6.2500000000187531E-02     0.0000000000000000E+00 
    1.8749999999974179E-01     1.2500000000038020E-01     0.0000000000000000E+00 
    1.8749999999981601E-01     1.8750000000055780E-01     0.0000000000000000E+00 
    1.8749999999989009E-01     2.5000000000073502E-01     0.0000000000000000E+00 
    1.8749999999996431E-01     3.1250000000091221E-01     0.0000000000000000E+00 
    1.8750000000003850E-01     3.7500000000108941E-01     0.0000000000000000E+00 
    1.8750000000011269E-01     4.3750000000126649E-01     0.0000000000000000E+00 
    1.8750000000018691E-01     5.0000000000142808E-01     0.0000000000000000E+00 
    1.8750000000026110E-01     5.6250000000112244E-01     0.0000000000000000E+00 
    1.8750000000033529E-01     6.2500000000080080E-01     0.0000000000000000E+00 
    1.8750000000040951E-01     6.8750000000047962E-01     0.0000000000000000E+00 
    1.8750000000048361E-01     7.5000000000015843E-01     0.0000000000000000E+00 
    1.8750000000055780E-01     8.1249999999983680E-01     0.0000000000000000E+00 
    1.8750000000063199E-01     8.7499999999953304E-01     0.0000000000000000E+00 
    1.8750000000070621E-01     9.3749999999975764E-01     0.0000000000000000E+00 
    2.4999999999951281E-01     6.2500000000163314E-02     0.0000000000000000E+00 
    2.4999999999961461E-01     1.2500000000033351E-01     0.0000000000000000E+00 
    2.4999999999971650E-01     1.8750000000048361E-01     0.0000000000000000E+00 
    2.4999999999981831E-01     2.5000000000063310E-01     0.0000000000000000E+00 
    2.4999999999992020E-01     3.1250000000078260E-01     0.0000000000000000E+00 
    2.5000000000002198E-01     3.7500000000093209E-01     0.0000000000000000E+00 
    2.5000000000012390E-01     4.3750000000108180E-01     0.0000000000000000E+00 
    2.5000000000022571E-01     5.0000000000121769E-01     0.0000000000000000E+00 
    2.5000000000032763E-01     5.6250000000094724E-01     0.0000000000000000E+00 
    2.5000000000042938E-01     6.2500000000066314E-01     0.0000000000000000E+00 
    2.5000000000053119E-01     6.8750000000037925E-01     0.0000000000000000E+00 
[...]
CELL_DATA 256 
SCALARS Pressure double 1 
LOOKUP_TABLE default 

    2.4812196270406894E+00 
    2.3690603983697440E+00 
    2.2906840015753498E+00 
    2.2282973341947563E+00 
    2.1742478401485434E+00 
    2.1251897883090214E+00 
    2.0795642631588449E+00 
    2.0366371564636330E+00 
    1.9960739810851722E+00 
    1.9576878496649928E+00 
    1.9211699905168711E+00 
    1.8856256402669134E+00 
    1.8509495268498966E+00 
    1.8239962599611839E+00 
    1.8072345127015137E+00 
    1.7989103768011643E+00 
    2.3690603983703631E+00 
    2.3199924763561812E+00 
    2.2646450610687396E+00 
    2.2118189623479934E+00 
    2.1622933914772529E+00 
    2.1155925644601150E+00 
    2.0712532762066713E+00 
    2.0290119668300974E+00 
    1.9887595931099298E+00 
    1.9504239043017249E+00 
    1.9137362865831369E+00 
    1.8777343505148427E+00 
    1.8426933660471656E+00 
    1.8157314904210800E+00 
    1.7989425812348474E+00 
    1.7905862822290382E+00 
    2.2906840015762766E+00 
    2.2646450610691979E+00 
    2.2264195535905769E+00 
    2.1839492945852914E+00 
    2.1405217284819957E+00 
    2.0974172719098747E+00 
    2.0551687156035872E+00 
    2.0140612091403312E+00 
    1.9742944570491772E+00 
    1.9359689275744894E+00 
    1.8988745769412669E+00 
    1.8619227974459980E+00 
    1.8262257072953418E+00 
    1.7992339311997274E+00 
    1.7823452125522916E+00 
    1.7739059354014162E+00 
    2.2282973341959309E+00 
    2.2118189623487958E+00 
    2.1839492945856787E+00 
    2.1495667745398057E+00 
    2.1117701001220470E+00 
    2.0723481332411029E+00 
    2.0323498407339047E+00 
    1.9924455814646735E+00 
    1.9530983762820506E+00 
    1.9145738835540793E+00 
    1.8767051917900344E+00 
    1.8382151170873280E+00 
    1.8016055490818577E+00 
    1.7745142984061397E+00 
    1.7573866792183699E+00 
    1.7487863312252072E+00 
    2.1742478401499423E+00 
    2.1622933914783276E+00 
    2.1405217284826978E+00 
    2.1117701001223810E+00 
    2.0783814849645887E+00 
    2.0420486146314198E+00 
    2.0039603812923259E+00 
    1.9649739873795269E+00 
    1.9257187374276183E+00 
    1.8865756734011438E+00 
    1.8473659516927494E+00 
    1.8066439263478862E+00 
    1.7688936423297941E+00 
    1.7415455727873699E+00 
    1.7239495656363504E+00 
    1.7150663829990984E+00 
    2.1251897883106325E+00 
    2.1155925644614233E+00 
    2.0974172719108410E+00 
    2.0723481332417237E+00 
    2.0420486146317169E+00 
    2.0079253308492127E+00 
    1.9711040857065569E+00 
    1.9324792064066434E+00 
    1.8927464258658424E+00 
    1.8523233733034901E+00 
    1.8108740776559851E+00 
    1.7671834751494375E+00 
    1.7281568994628407E+00 
    1.7002392064631973E+00 
    1.6818184437244756E+00 
    1.6724632524284797E+00 
    2.0795642631606581E+00 
    2.0712532762081883E+00 
    2.0551687156047818E+00 
    2.0323498407347760E+00 
    2.0039603812928881E+00 
    1.9711040857068307E+00 
    1.9347558556142370E+00 
    1.8957506366296113E+00 
    1.8547609619626277E+00 
    1.8121315332979762E+00 
    1.7670524746795522E+00 
    1.7197595578532547E+00 
    1.6794578229452410E+00 
    1.6503995181666296E+00 
    1.6306259171079289E+00 
    1.6205049305665908E+00 
    2.0366371564656247E+00 
    2.0290119668317943E+00 
    2.0140612091417212E+00 
    1.9924455814657622E+00 
    1.9649739873803282E+00 
    1.9324792064071725E+00 
    1.8957506366298782E+00 
    1.8554969744286607E+00 
    1.8122730739841271E+00 
    1.7661742475318025E+00 
    1.7158425979006569E+00 
    1.6648402776239692E+00 
    1.6230359973352091E+00 
    1.5917236755991353E+00 
    1.5697811307009215E+00 
    1.5584256221635227E+00 
    1.9960739810869683E+00 
    1.9887595931114801E+00 
    1.9742944570504866E+00 
    1.9530983762831322E+00 
    1.9257187374284868E+00 
    1.8927464258665090E+00 
    1.8547609619630980E+00 
    1.8122730739843904E+00 
    1.7655408362663811E+00 
    1.7139015028368283E+00 
    1.6572825897473591E+00 
    1.6035190933814001E+00 
    1.5591851022536252E+00 
    1.5237811038992966E+00 
    1.4983493122719143E+00 
    1.4849908052236347E+00 
    1.9576878496663410E+00 
    1.9504239043029037E+00 
    1.9359689275755181E+00 
    1.9145738835549819E+00 
    1.8865756734019405E+00 
    1.8523233733041968E+00 
    1.8121315332986023E+00 
    1.7661742475323434E+00 
    1.7139015028371782E+00 
    1.6550253976742364E+00 
    1.5938524707601160E+00 
    1.5374614428620879E+00 
    1.4878545424749996E+00 
    1.4458714504250783E+00 
    1.4148442092645670E+00 
    1.3981974812363407E+00 
    1.9211699905177999E+00 
    1.9137362865839640E+00 
    1.8988745769420259E+00 
    1.8767051917907638E+00 
    1.8473659516934802E+00 
    1.8108740776567478E+00 
    1.7670524746803691E+00 
    1.7158425979015370E+00 
    1.6572825897481456E+00 
    1.5938524707605637E+00 
    1.5300102957878803E+00 
    1.4678932523661095E+00 
    1.4090655849809302E+00 
    1.3570059478494572E+00 
    1.3169585931251122E+00 
    1.2947574292213899E+00 
    1.8856256402674569E+00 
    1.8777343505153476E+00 
    1.8619227974465113E+00 
    1.8382151170879035E+00 
    1.8066439263485705E+00 
    1.7671834751502784E+00 
    1.7197595578542948E+00 
    1.6648402776252322E+00 
    1.6035190933826819E+00 
    1.5374614428630640E+00 
    1.4678932523666608E+00 
    1.3957009208870386E+00 
    1.3235086568652767E+00 
    1.2561281628667067E+00 
    1.2012267861652466E+00 
    1.1691162133033541E+00 
    1.8509495268500649E+00 
    1.8426933660473526E+00 
    1.8262257072956081E+00 
    1.8016055490822740E+00 
    1.7688936423304273E+00 
    1.7281568994637593E+00 
    1.6794578229465091E+00 
    1.6230359973368760E+00 
    1.5591851022554504E+00 
    1.4878545424765843E+00 
    1.4090655849821401E+00 
    1.3235086568659680E+00 
    1.2331399587264553E+00 
    1.1427712605868547E+00 
    1.0627041753660948E+00 
    1.0113644245242126E+00 
    1.8239962599610648E+00 
    1.8157314904210284E+00 
    1.7992339311998182E+00 
    1.7745142984064628E+00 
    1.7415455727880098E+00 
    1.7002392064642435E+00 
    1.6503995181681741E+00 
    1.5917236756012634E+00 
    1.5237811039017330E+00 
    1.4458714504273420E+00 
    1.3570059478514109E+00 
    1.2561281628682042E+00 
    1.1427712605877058E+00 
    1.0191127453881381E+00 
    8.9545423018840820E-01 
    8.0227288490424853E-01 
    1.8072345127013534E+00 
    1.7989425812347750E+00 
    1.7823452125523951E+00 
    1.7573866792187580E+00 
    1.7239495656371269E+00 
    1.6818184437257491E+00 
    1.6306259171098183E+00 
    1.5697811307035514E+00 
    1.4983493122749787E+00 
    1.4148442092674909E+00 
    1.3169585931277499E+00 
    1.2012267861674346E+00 
    1.0627041753676019E+00 
    8.9545423018892012E-01 
    6.9772711509458252E-01 
    5.0000000000029277E-01 
    1.7989103768010308E+00 
    1.7905862822290033E+00 
    1.7739059354015811E+00 
    1.7487863312256988E+00 
    1.7150663830000381E+00 
    1.6724632524299972E+00 
    1.6205049305688306E+00 
    1.5584256221666426E+00 
    1.4849908052272918E+00 
    1.3981974812398665E+00 
    1.2947574292246220E+00 
    1.1691162133061022E+00 
    1.0113644245261695E+00 
    8.0227288490484139E-01 
    4.9999999999964451E-01 
    0.0000000000000000E+00 

SCALARS Saturarion double 1 
LOOKUP_TABLE default 

    1.0000000000000000E+00 
    9.1953489781069342E-01 
    8.5736268017393213E-01 
    7.9729154964677007E-01 
    7.4091551639329978E-01 
    6.8844453994186405E-01 
    6.3919637435563814E-01 
    5.9199559740026553E-01 
    5.4515773876406037E-01 
    4.9591020313690193E-01 
    4.3829556098235123E-01 
    3.5528974978085043E-01 
    1.9620954168912025E-01 
    2.1874830902340575E-02 
    4.0732285092848345E-05 
    9.4217384791753033E-12 
    9.1953489781103559E-01 
    8.7136900353119828E-01 
    8.1967474256447737E-01 
    7.6802007609560063E-01 
    7.1817101988198107E-01 
    6.7063973502796681E-01 
    6.2512550181752968E-01 
    5.8076098772162532E-01 
    5.3605597104666980E-01 
    4.8828413385965147E-01 
    4.3119194993844695E-01 
    3.4603664353580199E-01 
    1.7751612207955086E-01 
    1.5155142932140538E-02 
    1.5350608624654876E-05 
    8.6095357417759670E-13 
    8.5736268017465178E-01 
    8.1967474256484818E-01 
    7.7712635985605338E-01 
    7.3342670339203986E-01 
    6.9022982877236883E-01 
    6.4811611144333914E-01 
    6.0696237802503406E-01 
    5.6608385825615348E-01 
    5.2411143547290584E-01 
    4.7829554440475436E-01 
    4.2189367299759600E-01 
    3.3339282850944513E-01 
    1.5155924208847291E-01 
    8.5866623537189275E-03 
    3.4044716422067396E-06 
    2.0076644174107407E-14 
    7.9729154964784821E-01 
    7.6802007609634904E-01 
    7.3342670339238225E-01 
    6.9687790460735199E-01 
    6.5989716148453448E-01 
    6.2307347427379878E-01 
    5.8636622555269158E-01 
    5.4918345366899424E-01 
    5.1019986359930558E-01 
    4.6654455749057727E-01 
    4.1069478779972390E-01 
    3.1663809456161440E-01 
    1.1879517376994306E-01 
    3.7257824266548026E-03 
    3.7553378548828791E-07 
    7.1889105575010374E-17 
    7.4091551639464370E-01 
    7.1817101988301313E-01 
    6.9022982877301498E-01 
    6.5989716148483946E-01 
    6.2850770587895821E-01 
    5.9661063544523452E-01 
    5.6418865563518350E-01 
    5.3068004989451523E-01 
    4.9473430858748824E-01 
    4.5323661235766688E-01 
    3.9743417042144347E-01 
    2.9366236975601567E-01 
    8.1328167912791363E-02 
    1.0893079142470295E-03 
    1.4241948698892206E-08 
    1.2514150601286710E-20 
    6.8844453994347610E-01 
    6.7063973502917229E-01 
    6.4811611144418435E-01 
    6.2307347427432724E-01 
    5.9661063544548654E-01 
    5.6919346631425005E-01 
    5.4078349927233671E-01 
    5.1080101704226333E-01 
    4.7780228498937855E-01 
    4.3825798564825663E-01 
    3.8141053308501610E-01 
    2.5972227599446890E-01 
    4.4223534408236481E-02 
    1.6432062819163041E-04 
    8.1422027571410695E-11 
    8.3323268218751492E-27 
    6.3919637435745713E-01 
    6.2512550181896365E-01 
    6.0696237802612696E-01 
    5.8636622555345419E-01 
    5.6418865563567078E-01 
    5.4078349927256786E-01 
    5.1605689288588552E-01 
    4.8936678990519766E-01 
    4.5908815366783057E-01 
    4.2098516203465342E-01 
    3.6062223700838297E-01 
    2.0469952886402040E-01 
    1.5357508419557225E-02 
    6.8314521598846839E-06 
    9.6580867882389379E-15 
    2.1289596003526958E-38 
    5.9199559740231933E-01 
    5.8076098772328955E-01 
    5.6608385825749752E-01 
    5.4918345367002153E-01 
    5.3068004989522566E-01 
    5.1080101704272940E-01 
    4.8936678990542060E-01 
    4.6561430239230661E-01 
    4.3757617037230084E-01 
    3.9967098434776183E-01 
    3.2888772828538976E-01 
    1.1870333185692915E-01 
    1.9843484072837856E-03 
    1.3707205478777433E-08 
    3.7583318105445602E-23 
    4.1995040523475251E-65 
    5.4515773876572671E-01 
    5.3605597104805791E-01 
    5.2411143547404293E-01 
    5.1019986360019531E-01 
    4.9473430858813511E-01 
    4.7780228498984351E-01 
    4.5908815366811229E-01 
    4.3757617037241825E-01 
    4.1053422085625302E-01 
    3.6899262253084814E-01 
    2.6073080195221376E-01 
    2.9947989810697476E-02 
    1.5269965101094262E-05 
    1.4003194516531666E-15 
    4.6448626048223387E-47 
   3.1112399535504420E-148 
    4.9591020313822376E-01 
    4.8828413386078179E-01 
    4.7829554440569610E-01 
    4.6654455749132667E-01 
    4.5323661235824042E-01 
    4.3825798564869040E-01 
    4.2098516203495789E-01 
    3.9967098434798121E-01 
    3.6899262253093884E-01 
    3.0417764338134162E-01 
    8.9165943093595906E-02 
    3.1904506617434894E-04 
    1.6571236000344180E-12 
    2.3196167329581986E-40 
   6.0504391224116735E-134 
    0.0000000000000000E+00 
    4.3829556098341771E-01 
    4.3119194993936977E-01 
    4.2189367299839364E-01 
    4.1069478780037622E-01 
    3.9743417042199231E-01 
    3.8141053308547307E-01 
    3.6062223700879842E-01 
    3.2888772828584650E-01 
    2.6073080195248222E-01 
    8.9165943093608147E-02 
    6.7183214284635858E-04 
    1.1908782148692582E-11 
    1.7972490590832864E-38 
   6.5489302410155573E-130 
    0.0000000000000000E+00 
    0.0000000000000000E+00 
    3.5528974978187478E-01 
    3.4603664353673885E-01 
    3.3339282851032076E-01 
    3.1663809456243458E-01 
    2.9366236975682208E-01 
    2.5972227599528974E-01 
    2.0469952886485124E-01 
    1.1870333185756435E-01 
    2.9947989810752765E-02 
    3.1904506617341273E-04 
    1.1908782148653076E-11 
    4.3042629159029077E-38 
   6.2996955886415122E-129 
    0.0000000000000000E+00 
    0.0000000000000000E+00 
    0.0000000000000000E+00 
    1.9620954169056148E-01 
    1.7751612208087464E-01 
    1.5155924208969443E-01 
    1.1879517377098460E-01 
    8.1328167913564064E-02 
    4.4223534408694615E-02 
    1.5357508419736904E-02 
    1.9843484073115863E-03 
    1.5269965101149404E-05 
    1.6571236000178338E-12 
    1.7972490590665894E-38 
   6.2996955886126822E-129 
    0.0000000000000000E+00 
    0.0000000000000000E+00 
    0.0000000000000000E+00 
    0.0000000000000000E+00 
    2.1874830902860781E-02 
    1.5155142932497107E-02 
    8.5866623539326489E-03 
    3.7257824267525352E-03 
    1.0893079142772532E-03 
    1.6432062819654364E-04 
    6.8314521601114448E-06 
    1.3707205479357614E-08 
    1.4003194516711114E-15 
    2.3196167329123196E-40 
   6.5489302408681759E-130 
    0.0000000000000000E+00 
    0.0000000000000000E+00 
    0.0000000000000000E+00 
    0.0000000000000000E+00 
    0.0000000000000000E+00 
    4.0732285095728481E-05 
    1.5350608625709384E-05 
    3.4044716424496322E-06 
    3.7553378551633646E-07 
    1.4241948700031212E-08 
    8.1422027578631297E-11 
    9.6580867892523276E-15 
    3.7583318110410555E-23 
    4.6448626050759217E-47 
   6.0504391221343694E-134 
    0.0000000000000000E+00 
    0.0000000000000000E+00 
    0.0000000000000000E+00 
    0.0000000000000000E+00 
    0.0000000000000000E+00 
    0.0000000000000000E+00 
    9.4217384809063096E-12 
    8.6095357433233592E-13 
    2.0076644177898610E-14 
    7.1889105589622851E-17 
    1.2514150604114582E-20 
    8.3323268240623435E-27 
    2.1289596010648075E-38 
    4.1995040540940788E-65 
   3.1112399539599016E-148 
    0.0000000000000000E+00 
    0.0000000000000000E+00 
    0.0000000000000000E+00 
    0.0000000000000000E+00 
    0.0000000000000000E+00 
    0.0000000000000000E+00 
    0.0000000000000000E+00 
