# vtk DataFile Version 2.0
Pressure Field Data 
ASCII 
DATASET UNSTRUCTURED_GRID 

POINTS 289 double 

    0.0000000000000000E+00     0.0000000000000000E+00     0.0000000000000000E+00 
    1.0000000000000000E+00     0.0000000000000000E+00     0.0000000000000000E+00 
    1.0000000000000000E+00     1.0000000000000000E+00     0.0000000000000000E+00 
    0.0000000000000000E+00     1.0000000000000000E+00     0.0000000000000000E+00 
    6.2499999999872928E-02     0.0000000000000000E+00     0.0000000000000000E+00 
    1.2499999999977310E-01     0.0000000000000000E+00     0.0000000000000000E+00 
    1.8749999999959341E-01     0.0000000000000000E+00     0.0000000000000000E+00 
    2.4999999999941089E-01     0.0000000000000000E+00     0.0000000000000000E+00 
    3.1249999999922851E-01     0.0000000000000000E+00     0.0000000000000000E+00 
    3.7499999999904610E-01     0.0000000000000000E+00     0.0000000000000000E+00 
    4.3749999999886358E-01     0.0000000000000000E+00     0.0000000000000000E+00 
    4.9999999999869210E-01     0.0000000000000000E+00     0.0000000000000000E+00 
    5.6249999999884603E-01     0.0000000000000000E+00     0.0000000000000000E+00 
    6.2499999999901090E-01     0.0000000000000000E+00     0.0000000000000000E+00 
    6.8749999999917577E-01     0.0000000000000000E+00     0.0000000000000000E+00 
    7.4999999999934064E-01     0.0000000000000000E+00     0.0000000000000000E+00 
    8.1249999999950551E-01     0.0000000000000000E+00     0.0000000000000000E+00 
    8.7499999999967026E-01     0.0000000000000000E+00     0.0000000000000000E+00 
    9.3749999999983513E-01     0.0000000000000000E+00     0.0000000000000000E+00 
    1.0000000000000000E+00     6.2499999999872928E-02     0.0000000000000000E+00 
    1.0000000000000000E+00     1.2499999999977310E-01     0.0000000000000000E+00 
    1.0000000000000000E+00     1.8749999999959341E-01     0.0000000000000000E+00 
    1.0000000000000000E+00     2.4999999999941089E-01     0.0000000000000000E+00 
    1.0000000000000000E+00     3.1249999999922851E-01     0.0000000000000000E+00 
    1.0000000000000000E+00     3.7499999999904610E-01     0.0000000000000000E+00 
    1.0000000000000000E+00     4.3749999999886358E-01     0.0000000000000000E+00 
    1.0000000000000000E+00     4.9999999999869210E-01     0.0000000000000000E+00 
    1.0000000000000000E+00     5.6249999999884603E-01     0.0000000000000000E+00 
    1.0000000000000000E+00     6.2499999999901090E-01     0.0000000000000000E+00 
    1.0000000000000000E+00     6.8749999999917577E-01     0.0000000000000000E+00 
    1.0000000000000000E+00     7.4999999999934064E-01     0.0000000000000000E+00 
    1.0000000000000000E+00     8.1249999999950551E-01     0.0000000000000000E+00 
    1.0000000000000000E+00     8.7499999999967026E-01     0.0000000000000000E+00 
    1.0000000000000000E+00     9.3749999999983513E-01     0.0000000000000000E+00 
    9.3749999999973976E-01     1.0000000000000000E+00     0.0000000000000000E+00 
    8.7499999999950118E-01     1.0000000000000000E+00     0.0000000000000000E+00 
    8.1249999999991318E-01     1.0000000000000000E+00     0.0000000000000000E+00 
    7.5000000000034706E-01     1.0000000000000000E+00     0.0000000000000000E+00 
    6.8750000000078049E-01     1.0000000000000000E+00     0.0000000000000000E+00 
    6.2500000000121403E-01     1.0000000000000000E+00     0.0000000000000000E+00 
    5.6250000000164757E-01     1.0000000000000000E+00     0.0000000000000000E+00 
    5.0000000000205946E-01     1.0000000000000000E+00     0.0000000000000000E+00 
    4.3750000000182099E-01     1.0000000000000000E+00     0.0000000000000000E+00 
    3.7500000000156092E-01     1.0000000000000000E+00     0.0000000000000000E+00 
    3.1250000000130068E-01     1.0000000000000000E+00     0.0000000000000000E+00 
    2.5000000000104050E-01     1.0000000000000000E+00     0.0000000000000000E+00 
    1.8750000000078040E-01     1.0000000000000000E+00     0.0000000000000000E+00 
    1.2500000000052031E-01     1.0000000000000000E+00     0.0000000000000000E+00 
    6.2500000000260125E-02     1.0000000000000000E+00     0.0000000000000000E+00 
    0.0000000000000000E+00     9.3749999999973976E-01     0.0000000000000000E+00 
    0.0000000000000000E+00     8.7499999999950118E-01     0.0000000000000000E+00 
    0.0000000000000000E+00     8.1249999999991318E-01     0.0000000000000000E+00 
    0.0000000000000000E+00     7.5000000000034706E-01     0.0000000000000000E+00 
    0.0000000000000000E+00     6.8750000000078049E-01     0.0000000000000000E+00 
    0.0000000000000000E+00     6.2500000000121403E-01     0.0000000000000000E+00 
    0.0000000000000000E+00     5.6250000000164757E-01     0.0000000000000000E+00 
    0.0000000000000000E+00     5.0000000000205946E-01     0.0000000000000000E+00 
    0.0000000000000000E+00     4.3750000000182099E-01     0.0000000000000000E+00 
    0.0000000000000000E+00     3.7500000000156092E-01     0.0000000000000000E+00 
    0.0000000000000000E+00     3.1250000000130068E-01     0.0000000000000000E+00 
    0.0000000000000000E+00     2.5000000000104050E-01     0.0000000000000000E+00 
    0.0000000000000000E+00     1.8750000000078040E-01     0.0000000000000000E+00 
    0.0000000000000000E+00     1.2500000000052031E-01     0.0000000000000000E+00 
    0.0000000000000000E+00     6.2500000000260125E-02     0.0000000000000000E+00 
    6.2499999999897131E-02     6.2500000000235922E-02     0.0000000000000000E+00 
    6.2499999999921327E-02     1.2500000000047351E-01     0.0000000000000000E+00 
    6.2499999999945530E-02     1.8750000000070621E-01     0.0000000000000000E+00 
    6.2499999999969733E-02     2.5000000000093858E-01     0.0000000000000000E+00 
    6.2499999999993928E-02     3.1250000000117117E-01     0.0000000000000000E+00 
    6.2500000000018124E-02     3.7500000000140382E-01     0.0000000000000000E+00 
    6.2500000000042327E-02     4.3750000000163619E-01     0.0000000000000000E+00 
    6.2500000000066530E-02     5.0000000000184897E-01     0.0000000000000000E+00 
    6.2500000000090733E-02     5.6250000000147260E-01     0.0000000000000000E+00 
    6.2500000000114922E-02     6.2500000000107636E-01     0.0000000000000000E+00 
    6.2500000000139125E-02     6.8750000000068034E-01     0.0000000000000000E+00 
    6.2500000000163328E-02     7.5000000000028411E-01     0.0000000000000000E+00 
    6.2500000000187531E-02     8.1249999999988787E-01     0.0000000000000000E+00 
    6.2500000000211720E-02     8.7499999999951172E-01     0.0000000000000000E+00 
    6.2500000000235922E-02     9.3749999999974565E-01     0.0000000000000000E+00 
    1.2499999999981980E-01     6.2500000000211733E-02     0.0000000000000000E+00 
    1.2499999999986650E-01     1.2500000000042691E-01     0.0000000000000000E+00 
    1.2499999999991319E-01     1.8750000000063199E-01     0.0000000000000000E+00 
    1.2499999999995989E-01     2.5000000000083678E-01     0.0000000000000000E+00 
    1.2500000000000661E-01     3.1250000000104172E-01     0.0000000000000000E+00 
    1.2500000000005329E-01     3.7500000000124661E-01     0.0000000000000000E+00 
    1.2500000000010000E-01     4.3750000000145117E-01     0.0000000000000000E+00 
    1.2500000000014669E-01     5.0000000000163858E-01     0.0000000000000000E+00 
    1.2500000000019340E-01     5.6250000000129741E-01     0.0000000000000000E+00 
    1.2500000000024011E-01     6.2500000000093847E-01     0.0000000000000000E+00 
    1.2500000000028680E-01     6.8750000000057998E-01     0.0000000000000000E+00 
    1.2500000000033351E-01     7.5000000000022127E-01     0.0000000000000000E+00 
    1.2500000000038020E-01     8.1249999999986211E-01     0.0000000000000000E+00 
    1.2500000000042691E-01     8.7499999999952238E-01     0.0000000000000000E+00 
    1.2500000000047359E-01     9.3749999999975164E-01     0.0000000000000000E+00 
    1.8749999999966760E-01     6.2500000000187531E-02     0.0000000000000000E+00 
    1.8749999999974179E-01     1.2500000000038020E-01     0.0000000000000000E+00 
    1.8749999999981601E-01     1.8750000000055780E-01     0.0000000000000000E+00 
    1.8749999999989009E-01     2.5000000000073502E-01     0.0000000000000000E+00 
    1.8749999999996431E-01     3.1250000000091221E-01     0.0000000000000000E+00 
    1.8750000000003850E-01     3.7500000000108941E-01     0.0000000000000000E+00 
    1.8750000000011269E-01     4.3750000000126649E-01     0.0000000000000000E+00 
    1.8750000000018691E-01     5.0000000000142808E-01     0.0000000000000000E+00 
    1.8750000000026110E-01     5.6250000000112244E-01     0.0000000000000000E+00 
    1.8750000000033529E-01     6.2500000000080080E-01     0.0000000000000000E+00 
    1.8750000000040951E-01     6.8750000000047962E-01     0.0000000000000000E+00 
    1.8750000000048361E-01     7.5000000000015843E-01     0.0000000000000000E+00 
    1.8750000000055780E-01     8.1249999999983680E-01     0.0000000000000000E+00 
    1.8750000000063199E-01     8.7499999999953304E-01     0.0000000000000000E+00 
    1.8750000000070621E-01     9.3749999999975764E-01     0.0000000000000000E+00 
    2.4999999999951281E-01     6.2500000000163314E-02     0.0000000000000000E+00 
    2.4999999999961461E-01     1.2500000000033351E-01     0.0000000000000000E+00 
    2.4999999999971650E-01     1.8750000000048361E-01     0.0000000000000000E+00 
    2.4999999999981831E-01     2.5000000000063310E-01     0.0000000000000000E+00 
    2.4999999999992020E-01     3.1250000000078260E-01     0.0000000000000000E+00 
    2.5000000000002198E-01     3.7500000000093209E-01     0.0000000000000000E+00 
    2.5000000000012390E-01     4.3750000000108180E-01     0.0000000000000000E+00 
    2.5000000000022571E-01     5.0000000000121769E-01     0.0000000000000000E+00 
    2.5000000000032763E-01     5.6250000000094724E-01     0.0000000000000000E+00 
    2.5000000000042938E-01     6.2500000000066314E-01     0.0000000000000000E+00 
    2.5000000000053119E-01     6.8750000000037925E-01     0.0000000000000000E+00 
[...]
CELL_DATA 256 
SCALARS Pressure double 1 
LOOKUP_TABLE default 

    2.4409827796871042E+00 
    2.3300158098525268E+00 
    2.2534560406673596E+00 
    2.1931308196440007E+00 
    2.1413221196629886E+00 
    2.0946568402389798E+00 
    2.0515685836528421E+00 
    2.0113346423969189E+00 
    1.9736604009502152E+00 
    1.9384566329368851E+00 
    1.9056530413985735E+00 
    1.8749153543925690E+00 
    1.8453345298001971E+00 
    1.8194736636143913E+00 
    1.8025784382732153E+00 
    1.7944937081170258E+00 
    2.3300158098531356E+00 
    2.2818983998850135E+00 
    2.2281451368725818E+00 
    2.1772475504397888E+00 
    2.1298800030095109E+00 
    2.0855184800263400E+00 
    2.0436822501466776E+00 
    2.0041147556179957E+00 
    1.9667466261297557E+00 
    1.9316098470519656E+00 
    1.8987008362114361E+00 
    1.8676990796937578E+00 
    1.8376512567414116E+00 
    1.8115258546501660E+00 
    1.7945579346891269E+00 
    1.7864152686016841E+00 
    2.2534560406682620E+00 
    2.2281451368730263E+00 
    2.1912493922153118E+00 
    2.1505127722091113E+00 
    2.1091064253485392E+00 
    2.0682476307485249E+00 
    2.0284412588623244E+00 
    1.9899743146210662E+00 
    1.9530873075290822E+00 
    1.9179985674527162E+00 
    1.8848150957995573E+00 
    1.8532430986174979E+00 
    1.8222857375875885E+00 
    1.7956342184292611E+00 
    1.7784782454304928E+00 
    1.7702014509062478E+00 
    2.1931308196451353E+00 
    2.1772475504405624E+00 
    2.1505127722094830E+00 
    2.1176838496650854E+00 
    2.0817646981232070E+00 
    2.0444830682038519E+00 
    2.0068574023213852E+00 
    1.9695588180389034E+00 
    1.9330960687721364E+00 
    1.8978742706902525E+00 
    1.8641229964522221E+00 
    1.8315748794506084E+00 
    1.7992281954278044E+00 
    1.7717492058611886E+00 
    1.7542294626352142E+00 
    1.7457169523126008E+00 
    2.1413221196643288E+00 
    2.1298800030105389E+00 
    2.1091064253492080E+00 
    2.0817646981235245E+00 
    2.0501286046909284E+00 
    2.0158406374380733E+00 
    1.9800637020585368E+00 
    1.9436601327622336E+00 
    1.9073157503264540E+00 
    1.8715843781605224E+00 
    1.8368034792574539E+00 
    1.8027063737909135E+00 
    1.7683922679009532E+00 
    1.7397337663631025E+00 
    1.7216104579332356E+00 
    1.7127240154952321E+00 
    2.0946568402405124E+00 
    2.0855184800275830E+00 
    2.0682476307494415E+00 
    2.0444830682044399E+00 
    2.0158406374383544E+00 
    1.9836903173554759E+00 
    1.9491412120029077E+00 
    1.9131029704624571E+00 
    1.8763483208885503E+00 
    1.8395276751067533E+00 
    1.8030515574539114E+00 
    1.7665851530499965E+00 
    1.7295880205917067E+00 
    1.6993442844236113E+00 
    1.6802961791347910E+00 
    1.6708467070057300E+00 
    2.0515685836545559E+00 
    2.0436822501481111E+00 
    2.0284412588634528E+00 
    2.0068574023222072E+00 
    1.9800637020590666E+00 
    1.9491412120031650E+00 
    1.9150608875476249E+00 
    1.8786900224227325E+00 
    1.8408149725169034E+00 
    1.8021278964397305E+00 
    1.7630597003611814E+00 
    1.7230648884235769E+00 
    1.6825159760476829E+00 
    1.6502240391314866E+00 
    1.6298030251901625E+00 
    1.6195206776697102E+00 
    2.0113346423987872E+00 
    2.0041147556195886E+00 
    1.9899743146223705E+00 
    1.9695588180399246E+00 
    1.9436601327629852E+00 
    1.9131029704629541E+00 
    1.8786900224229828E+00 
    1.8411903953081028E+00 
    1.8013425602962037E+00 
    1.7598206907644944E+00 
    1.7170032363345442E+00 
    1.6719244639005222E+00 
    1.6268544700505414E+00 
    1.5919407219569552E+00 
    1.5694480431232527E+00 
    1.5579124719519803E+00 
    1.9736604009518857E+00 
    1.9667466261311979E+00 
    1.9530873075303004E+00 
    1.9330960687731431E+00 
    1.9073157503272637E+00 
    1.8763483208891738E+00 
    1.8408149725173442E+00 
    1.8013425602964495E+00 
    1.7585554070223963E+00 
    1.7130198875114246E+00 
    1.6649113342920652E+00 
    1.6128999897668694E+00 
    1.5624792607221718E+00 
    1.5240583772261578E+00 
    1.4982728738722557E+00 
    1.4847687138623775E+00 
    1.9384566329381285E+00 
    1.9316098470530541E+00 
    1.9179985674536675E+00 
    1.8978742706910883E+00 
    1.8715843781612627E+00 
    1.8395276751074130E+00 
    1.8021278964403160E+00 
    1.7598206907649991E+00 
    1.7130198875117477E+00 
    1.6619841403574001E+00 
    1.6061861697418911E+00 
    1.5455662163705861E+00 
    1.4895994508168888E+00 
    1.4460562800420740E+00 
    1.4148563563448839E+00 
    1.3981207962620599E+00 
    1.9056530413994202E+00 
    1.8987008362121920E+00 
    1.8848150958002525E+00 
    1.8641229964528918E+00 
    1.8368034792581280E+00 
    1.8030515574546158E+00 
    1.7630597003619342E+00 
    1.7170032363353549E+00 
    1.6649113342927875E+00 
    1.6061861697423083E+00 
    1.5404135065026912E+00 
    1.4717994900126818E+00 
    1.4094392865691199E+00 
    1.3570888756878381E+00 
    1.3169793196541033E+00 
    1.2947373185798281E+00 
    1.8749153543930588E+00 
    1.8676990796942130E+00 
    1.8532430986179635E+00 
    1.8315748794511324E+00 
    1.8027063737915410E+00 
    1.7665851530507708E+00 
    1.7230648884245379E+00 
    1.6719244639017030E+00 
    1.6128999897680882E+00 
    1.5455662163715429E+00 
    1.4717994900132392E+00 
    1.3964787144891737E+00 
    1.3234742216367683E+00 
    1.2561419423800189E+00 
    1.2012347389022691E+00 
    1.1691118398239588E+00 
    1.8453345298003649E+00 
    1.8376512567415975E+00 
    1.8222857375878485E+00 
    1.7992281954282059E+00 
    1.7683922679015598E+00 
    1.7295880205925855E+00 
    1.6825159760489028E+00 
    1.6268544700521692E+00 
    1.5624792607239890E+00 
    1.4895994508184920E+00 
    1.4094392865703516E+00 
    1.3234742216374697E+00 
    1.2331219924548165E+00 
    1.1427705989107375E+00 
    1.0627058537512764E+00 
    1.0113634619905665E+00 
    1.8194736636142985E+00 
    1.8115258546501363E+00 
    1.7956342184293643E+00 
    1.7717492058615114E+00 
    1.7397337663637296E+00 
    1.6993442844246329E+00 
    1.6502240391330021E+00 
    1.5919407219590636E+00 
    1.5240583772285994E+00 
    1.4460562800443559E+00 
    1.3570888756898087E+00 
    1.2561419423815254E+00 
    1.1427705989115919E+00 
    1.0191126070568144E+00 
    8.9545461520187530E-01 
    8.0227269239752319E-01 
    1.8025784382730754E+00 
    1.7945579346890701E+00 
    1.7784782454306036E+00 
    1.7542294626355981E+00 
    1.7216104579339964E+00 
    1.6802961791360407E+00 
    1.6298030251920275E+00 
    1.5694480431258662E+00 
    1.4982728738753190E+00 
    1.4148563563478165E+00 
    1.3169793196567512E+00 
    1.2012347389044646E+00 
    1.0627058537527876E+00 
    8.9545461520238889E-01 
    6.9772730760131840E-01 
    5.0000000000029621E-01 
    1.7944937081169106E+00 
    1.7864152686016628E+00 
    1.7702014509064186E+00 
    1.7457169523130873E+00 
    1.7127240154961560E+00 
    1.6708467070072244E+00 
    1.6195206776719266E+00 
    1.5579124719550834E+00 
    1.4847687138660297E+00 
    1.3981207962655897E+00 
    1.2947373185830673E+00 
    1.1691118398267133E+00 
    1.0113634619925276E+00 
    8.0227269239811838E-01 
    4.9999999999964873E-01 
    0.0000000000000000E+00 

SCALARS Saturarion double 1 
LOOKUP_TABLE default 

    1.0000000000000000E+00 
    9.2692116975996552E-01 
    8.6903812044013606E-01 
    8.1218180686025954E-01 
    7.5821330839444367E-01 
    7.0763623467302994E-01 
    6.6003902668536962E-01 
    6.1452015335022592E-01 
    5.6977599640270238E-01 
    5.2380666148333688E-01 
    4.7279543011732961E-01 
    4.0724149469514387E-01 
    2.9803824037005272E-01 
    1.0133919422859862E-01 
    2.8072615056005021E-03 
    2.6146434903985387E-07 
    9.2692116976029215E-01 
    8.8217478582208364E-01 
    8.3347129176320434E-01 
    7.8423550892009297E-01 
    7.3632907405622194E-01 
    6.9043409690414370E-01 
    6.4644317006930718E-01 
    6.0372402852609974E-01 
    5.6116221163975377E-01 
    5.1685478272446972E-01 
    4.6693204083965689E-01 
    4.0138502447156127E-01 
    2.8862560698193879E-01 
    8.8522724225476829E-02 
    1.8600000159004243E-03 
    9.5735219974794504E-08 
    8.6903812044080841E-01 
    8.3347129176356161E-01 
    7.9297000059606604E-01 
    7.5104870644744215E-01 
    7.0938990279198311E-01 
    6.6867742853524159E-01 
    6.2893319645170254E-01 
    5.8968323965326996E-01 
    5.4994204315219886E-01 
    5.0786638302019915E-01 
    4.5948115742773071E-01 
    3.9406730256909073E-01 
    2.7638258370282520E-01 
    7.3200780245622293E-02 
    1.0476817148531632E-03 
    2.3295885129365944E-08 
    8.1218180686131314E-01 
    7.8423550892076110E-01 
    7.5104870644774890E-01 
    7.1582276153191959E-01 
    6.8008405666571070E-01 
    6.4449179395613798E-01 
    6.0912575863472596E-01 
    5.7359758187982945E-01 
    5.3699270947560251E-01 
    4.9747845359889969E-01 
    4.5090085048237483E-01 
    3.8556089211214623E-01 
    2.6102863214515576E-01 
    5.6778260624067350E-02 
    4.9331239496349494E-04 
    3.5929400713848781E-09 
    7.5821330839574386E-01 
    7.3632907405717607E-01 
    7.0938990279259240E-01 
    6.8008405666602445E-01 
    6.4974658733215906E-01 
    6.1898447709857407E-01 
    5.8789341776910697E-01 
    5.5612426887527888E-01 
    5.2278954288860058E-01 
    4.8602020746569263E-01 
    4.4139615792785353E-01 
    3.7587049176137616E-01 
    2.4177129824341353E-01 
    4.0580602868833082E-02 
    1.8599309540466008E-04 
    3.1007798344516142E-10 
    7.0763623467458159E-01 
    6.9043409690533020E-01 
    6.6867742853607959E-01 
    6.4449179395665201E-01 
    6.1898447709878801E-01 
    5.9267978137785304E-01 
    5.6565812050077402E-01 
    5.3757834368454704E-01 
    5.0754830505347925E-01 
    4.7362006436092297E-01 
    4.3100404742642900E-01 
    3.6477369411603572E-01 
    2.1730855596253681E-01 
    2.5880624007950066E-02 
    5.1527593709444546E-05 
    1.1600057688185113E-11 
    6.6003902668714787E-01 
    6.4644317007072760E-01 
    6.2893319645277079E-01 
    6.0912575863544960E-01 
    5.8789341776957904E-01 
    5.6565812050100051E-01 
    5.4246357943320567E-01 
    5.1795570269050417E-01 
    4.9121396816760410E-01 
    4.6016919182365490E-01 
    4.1952450601366870E-01 
    3.5160772242365607E-01 
    1.8560837733130889E-01 
    1.3817081391098399E-02 
    8.7737444388180907E-06 
    1.0837663265403092E-13 
    6.1452015335221821E-01 
    6.0372402852769580E-01 
    5.8968323965452130E-01 
    5.7359758188077947E-01 
    5.5612426887594524E-01 
    5.3757834368496638E-01 
    5.1795570269070246E-01 
    4.9687595591106531E-01 
    4.7336950282313806E-01 
    4.4519338923190482E-01 
    4.0631790630688785E-01 
    3.3462490366561126E-01 
    1.4381783235729656E-01 
    5.3547421142656256E-03 
    6.0199459442223046E-07 
    6.1057012388517975E-17 
    5.6977599640429932E-01 
    5.6116221164108049E-01 
    5.4994204315327244E-01 
    5.3699270947642530E-01 
    5.2278954288919754E-01 
    5.0754830505389636E-01 
    4.9121396816784285E-01 
    4.7336950282324819E-01 
    4.5296904835041785E-01 
    4.2749995327067136E-01 
    3.8972201507403531E-01 
    3.0879774503261714E-01 
    8.9813303129698541E-02 
    1.0316432802660916E-03 
    4.6500353120460286E-09 
    2.3218831374933008E-23 
    5.2380666148457822E-01 
    5.1685478272551921E-01 
    5.0786638302105458E-01 
    4.9747845359956766E-01 
    4.8602020746619773E-01 
    4.7362006436128912E-01 
    4.6016919182389709E-01 
    4.4519338923205032E-01 
    4.2749995327071599E-01 
    4.0402805938059516E-01 
    3.6487248695257130E-01 
    2.5526003230189964E-01 
    3.0508934022577601E-02 
    2.5230509833462500E-05 
    3.1149255665095092E-14 
    7.7708032989265887E-41 
    4.7279543011826247E-01 
    4.6693204084045675E-01 
    4.5948115742839790E-01 
    4.5090085048289891E-01 
    4.4139615792825337E-01 
    4.3100404742672055E-01 
    4.1952450601388303E-01 
    4.0631790630703302E-01 
    3.8972201507406135E-01 
    3.6487248695252072E-01 
    3.1106023390959298E-01 
    1.1122317188374049E-01 
    9.0190296001902510E-04 
    1.3095564486502252E-10 
    6.4691216426915290E-33 
   3.2952519637141800E-107 
    4.0724149469583554E-01 
    4.0138502447215751E-01 
    3.9406730256959943E-01 
    3.8556089211256506E-01 
    3.7587049176170900E-01 
    3.6477369411629207E-01 
    3.5160772242384919E-01 
    3.3462490366576120E-01 
    3.0879774503246987E-01 
    2.5526003230136957E-01 
    1.1122317188333279E-01 
    2.0687549269176493E-03 
    1.2052569153494510E-09 
    9.6753983243450426E-31 
   1.9308154940932516E-102 
    0.0000000000000000E+00 
    2.9803824037066129E-01 
    2.8862560698248158E-01 
    2.7638258370332802E-01 
    2.6102863214559513E-01 
    2.4177129824377164E-01 
    2.1730855596278190E-01 
    1.8560837733141339E-01 
    1.4381783235726664E-01 
    8.9813303129199204E-02 
    3.0508934022242827E-02 
    9.0190296000841911E-04 
    1.2052569153429429E-09 
    2.5529471336392637E-30 
   2.6111837391698253E-101 
    0.0000000000000000E+00 
    0.0000000000000000E+00 
    1.0133919422911207E-01 
    8.8522724225902155E-02 
    7.3200780245980313E-02 
    5.6778260624324492E-02 
    4.0580602868981963E-02 
    2.5880624008006694E-02 
    1.3817081391099093E-02 
    5.3547421142542666E-03 
    1.0316432802481154E-03 
    2.5230509832729901E-05 
    1.3095564486157196E-10 
    9.6753983242189187E-31 
   2.6111837391597513E-101 
    0.0000000000000000E+00 
    0.0000000000000000E+00 
    0.0000000000000000E+00 
    2.8072615056616702E-03 
    1.8600000159378501E-03 
    1.0476817148736795E-03 
    4.9331239497225660E-04 
    1.8599309540739850E-04 
    5.1527593709969815E-05 
    8.7737444388565494E-06 
    6.0199459442168529E-07 
    4.6500353118665146E-09 
    3.1149255663098081E-14 
    6.4691216423219776E-33 
   1.9308154940326812E-102 
    0.0000000000000000E+00 
    0.0000000000000000E+00 
    0.0000000000000000E+00 
    0.0000000000000000E+00 
    2.6146434905541979E-07 
    9.5735219980052752E-08 
    2.3295885130609736E-08 
    3.5929400715613653E-09 
    3.1007798345832409E-10 
    1.1600057688565026E-11 
    1.0837663265633736E-13 
    6.1057012389302633E-17 
    2.3218831373176085E-23 
    7.7708032979276808E-41 
   3.2952519633119648E-107 
    0.0000000000000000E+00 
    0.0000000000000000E+00 
    0.0000000000000000E+00 
    0.0000000000000000E+00 
    0.0000000000000000E+00 
