# vtk DataFile Version 2.0
Pressure Field Data 
ASCII 
DATASET UNSTRUCTURED_GRID 

POINTS 289 double 

    0.0000000000000000E+00     0.0000000000000000E+00     0.0000000000000000E+00 
    1.0000000000000000E+00     0.0000000000000000E+00     0.0000000000000000E+00 
    1.0000000000000000E+00     1.0000000000000000E+00     0.0000000000000000E+00 
    0.0000000000000000E+00     1.0000000000000000E+00     0.0000000000000000E+00 
    6.2499999999872928E-02     0.0000000000000000E+00     0.0000000000000000E+00 
    1.2499999999977310E-01     0.0000000000000000E+00     0.0000000000000000E+00 
    1.8749999999959341E-01     0.0000000000000000E+00     0.0000000000000000E+00 
    2.4999999999941089E-01     0.0000000000000000E+00     0.0000000000000000E+00 
    3.1249999999922851E-01     0.0000000000000000E+00     0.0000000000000000E+00 
    3.7499999999904610E-01     0.0000000000000000E+00     0.0000000000000000E+00 
    4.3749999999886358E-01     0.0000000000000000E+00     0.0000000000000000E+00 
    4.9999999999869210E-01     0.0000000000000000E+00     0.0000000000000000E+00 
    5.6249999999884603E-01     0.0000000000000000E+00     0.0000000000000000E+00 
    6.2499999999901090E-01     0.0000000000000000E+00     0.0000000000000000E+00 
    6.8749999999917577E-01     0.0000000000000000E+00     0.0000000000000000E+00 
    7.4999999999934064E-01     0.0000000000000000E+00     0.0000000000000000E+00 
    8.1249999999950551E-01     0.0000000000000000E+00     0.0000000000000000E+00 
    8.7499999999967026E-01     0.0000000000000000E+00     0.0000000000000000E+00 
    9.3749999999983513E-01     0.0000000000000000E+00     0.0000000000000000E+00 
    1.0000000000000000E+00     6.2499999999872928E-02     0.0000000000000000E+00 
    1.0000000000000000E+00     1.2499999999977310E-01     0.0000000000000000E+00 
    1.0000000000000000E+00     1.8749999999959341E-01     0.0000000000000000E+00 
    1.0000000000000000E+00     2.4999999999941089E-01     0.0000000000000000E+00 
    1.0000000000000000E+00     3.1249999999922851E-01     0.0000000000000000E+00 
    1.0000000000000000E+00     3.7499999999904610E-01     0.0000000000000000E+00 
    1.0000000000000000E+00     4.3749999999886358E-01     0.0000000000000000E+00 
    1.0000000000000000E+00     4.9999999999869210E-01     0.0000000000000000E+00 
    1.0000000000000000E+00     5.6249999999884603E-01     0.0000000000000000E+00 
    1.0000000000000000E+00     6.2499999999901090E-01     0.0000000000000000E+00 
    1.0000000000000000E+00     6.8749999999917577E-01     0.0000000000000000E+00 
    1.0000000000000000E+00     7.4999999999934064E-01     0.0000000000000000E+00 
    1.0000000000000000E+00     8.1249999999950551E-01     0.0000000000000000E+00 
    1.0000000000000000E+00     8.7499999999967026E-01     0.0000000000000000E+00 
    1.0000000000000000E+00     9.3749999999983513E-01     0.0000000000000000E+00 
    9.3749999999973976E-01     1.0000000000000000E+00     0.0000000000000000E+00 
    8.7499999999950118E-01     1.0000000000000000E+00     0.0000000000000000E+00 
    8.1249999999991318E-01     1.0000000000000000E+00     0.0000000000000000E+00 
    7.5000000000034706E-01     1.0000000000000000E+00     0.0000000000000000E+00 
    6.8750000000078049E-01     1.0000000000000000E+00     0.0000000000000000E+00 
    6.2500000000121403E-01     1.0000000000000000E+00     0.0000000000000000E+00 
    5.6250000000164757E-01     1.0000000000000000E+00     0.0000000000000000E+00 
    5.0000000000205946E-01     1.0000000000000000E+00     0.0000000000000000E+00 
    4.3750000000182099E-01     1.0000000000000000E+00     0.0000000000000000E+00 
    3.7500000000156092E-01     1.0000000000000000E+00     0.0000000000000000E+00 
    3.1250000000130068E-01     1.0000000000000000E+00     0.0000000000000000E+00 
    2.5000000000104050E-01     1.0000000000000000E+00     0.0000000000000000E+00 
    1.8750000000078040E-01     1.0000000000000000E+00     0.0000000000000000E+00 
    1.2500000000052031E-01     1.0000000000000000E+00     0.0000000000000000E+00 
    6.2500000000260125E-02     1.0000000000000000E+00     0.0000000000000000E+00 
    0.0000000000000000E+00     9.3749999999973976E-01     0.0000000000000000E+00 
    0.0000000000000000E+00     8.7499999999950118E-01     0.0000000000000000E+00 
    0.0000000000000000E+00     8.1249999999991318E-01     0.0000000000000000E+00 
    0.0000000000000000E+00     7.5000000000034706E-01     0.0000000000000000E+00 
    0.0000000000000000E+00     6.8750000000078049E-01     0.0000000000000000E+00 
    0.0000000000000000E+00     6.2500000000121403E-01     0.0000000000000000E+00 
    0.0000000000000000E+00     5.6250000000164757E-01     0.0000000000000000E+00 
    0.0000000000000000E+00     5.0000000000205946E-01     0.0000000000000000E+00 
    0.0000000000000000E+00     4.3750000000182099E-01     0.0000000000000000E+00 
    0.0000000000000000E+00     3.7500000000156092E-01     0.0000000000000000E+00 
    0.0000000000000000E+00     3.1250000000130068E-01     0.0000000000000000E+00 
    0.0000000000000000E+00     2.5000000000104050E-01     0.0000000000000000E+00 
    0.0000000000000000E+00     1.8750000000078040E-01     0.0000000000000000E+00 
    0.0000000000000000E+00     1.2500000000052031E-01     0.0000000000000000E+00 
    0.0000000000000000E+00     6.2500000000260125E-02     0.0000000000000000E+00 
    6.2499999999897131E-02     6.2500000000235922E-02     0.0000000000000000E+00 
    6.2499999999921327E-02     1.2500000000047351E-01     0.0000000000000000E+00 
    6.2499999999945530E-02     1.8750000000070621E-01     0.0000000000000000E+00 
    6.2499999999969733E-02     2.5000000000093858E-01     0.0000000000000000E+00 
    6.2499999999993928E-02     3.1250000000117117E-01     0.0000000000000000E+00 
    6.2500000000018124E-02     3.7500000000140382E-01     0.0000000000000000E+00 
    6.2500000000042327E-02     4.3750000000163619E-01     0.0000000000000000E+00 
    6.2500000000066530E-02     5.0000000000184897E-01     0.0000000000000000E+00 
    6.2500000000090733E-02     5.6250000000147260E-01     0.0000000000000000E+00 
    6.2500000000114922E-02     6.2500000000107636E-01     0.0000000000000000E+00 
    6.2500000000139125E-02     6.8750000000068034E-01     0.0000000000000000E+00 
    6.2500000000163328E-02     7.5000000000028411E-01     0.0000000000000000E+00 
    6.2500000000187531E-02     8.1249999999988787E-01     0.0000000000000000E+00 
    6.2500000000211720E-02     8.7499999999951172E-01     0.0000000000000000E+00 
    6.2500000000235922E-02     9.3749999999974565E-01     0.0000000000000000E+00 
    1.2499999999981980E-01     6.2500000000211733E-02     0.0000000000000000E+00 
    1.2499999999986650E-01     1.2500000000042691E-01     0.0000000000000000E+00 
    1.2499999999991319E-01     1.8750000000063199E-01     0.0000000000000000E+00 
    1.2499999999995989E-01     2.5000000000083678E-01     0.0000000000000000E+00 
    1.2500000000000661E-01     3.1250000000104172E-01     0.0000000000000000E+00 
    1.2500000000005329E-01     3.7500000000124661E-01     0.0000000000000000E+00 
    1.2500000000010000E-01     4.3750000000145117E-01     0.0000000000000000E+00 
    1.2500000000014669E-01     5.0000000000163858E-01     0.0000000000000000E+00 
    1.2500000000019340E-01     5.6250000000129741E-01     0.0000000000000000E+00 
    1.2500000000024011E-01     6.2500000000093847E-01     0.0000000000000000E+00 
    1.2500000000028680E-01     6.8750000000057998E-01     0.0000000000000000E+00 
    1.2500000000033351E-01     7.5000000000022127E-01     0.0000000000000000E+00 
    1.2500000000038020E-01     8.1249999999986211E-01     0.0000000000000000E+00 
    1.2500000000042691E-01     8.7499999999952238E-01     0.0000000000000000E+00 
    1.2500000000047359E-01     9.3749999999975164E-01     0.0000000000000000E+00 
    1.8749999999966760E-01     6.2500000000187531E-02     0.0000000000000000E+00 
    1.8749999999974179E-01     1.2500000000038020E-01     0.0000000000000000E+00 
    1.8749999999981601E-01     1.8750000000055780E-01     0.0000000000000000E+00 
    1.8749999999989009E-01     2.5000000000073502E-01     0.0000000000000000E+00 
    1.8749999999996431E-01     3.1250000000091221E-01     0.0000000000000000E+00 
    1.8750000000003850E-01     3.7500000000108941E-01     0.0000000000000000E+00 
    1.8750000000011269E-01     4.3750000000126649E-01     0.0000000000000000E+00 
    1.8750000000018691E-01     5.0000000000142808E-01     0.0000000000000000E+00 
    1.8750000000026110E-01     5.6250000000112244E-01     0.0000000000000000E+00 
    1.8750000000033529E-01     6.2500000000080080E-01     0.0000000000000000E+00 
    1.8750000000040951E-01     6.8750000000047962E-01     0.0000000000000000E+00 
    1.8750000000048361E-01     7.5000000000015843E-01     0.0000000000000000E+00 
    1.8750000000055780E-01     8.1249999999983680E-01     0.0000000000000000E+00 
    1.8750000000063199E-01     8.7499999999953304E-01     0.0000000000000000E+00 
    1.8750000000070621E-01     9.3749999999975764E-01     0.0000000000000000E+00 
    2.4999999999951281E-01     6.2500000000163314E-02     0.0000000000000000E+00 
    2.4999999999961461E-01     1.2500000000033351E-01     0.0000000000000000E+00 
    2.4999999999971650E-01     1.8750000000048361E-01     0.0000000000000000E+00 
    2.4999999999981831E-01     2.5000000000063310E-01     0.0000000000000000E+00 
    2.4999999999992020E-01     3.1250000000078260E-01     0.0000000000000000E+00 
    2.5000000000002198E-01     3.7500000000093209E-01     0.0000000000000000E+00 
    2.5000000000012390E-01     4.3750000000108180E-01     0.0000000000000000E+00 
    2.5000000000022571E-01     5.0000000000121769E-01     0.0000000000000000E+00 
    2.5000000000032763E-01     5.6250000000094724E-01     0.0000000000000000E+00 
    2.5000000000042938E-01     6.2500000000066314E-01     0.0000000000000000E+00 
    2.5000000000053119E-01     6.8750000000037925E-01     0.0000000000000000E+00 
[...]
CELL_DATA 256 
SCALARS Pressure double 1 
LOOKUP_TABLE default 

    2.4938949441696590E+00 
    2.3852767687375978E+00 
    2.3122425471629229E+00 
    2.2559168268691838E+00 
    2.2084490356368112E+00 
    2.1663989140519595E+00 
    2.1281632487475797E+00 
    2.0930057581370298E+00 
    2.0606466299625574E+00 
    2.0310618959500566E+00 
    2.0043595753438086E+00 
    1.9806634345983720E+00 
    1.9599405249835198E+00 
    1.9418061343334994E+00 
    1.9274159642478939E+00 
    1.9201543455042425E+00 
    2.3852767687381862E+00 
    2.3390134731122969E+00 
    2.2883492424074325E+00 
    2.2411920450479443E+00 
    2.1980047125031588E+00 
    2.1581547490399595E+00 
    2.1211045028054132E+00 
    2.0865739707436024E+00 
    2.0545043383713808E+00 
    2.0249935599668039E+00 
    1.9982267680128245E+00 
    1.9743820031511854E+00 
    1.9534621072740193E+00 
    1.9350916985140154E+00 
    1.9205122265503967E+00 
    1.9131631438156953E+00 
    2.3122425471637769E+00 
    2.2883492424078482E+00 
    2.2540353818653669E+00 
    2.2166637918762890E+00 
    2.1791732767878251E+00 
    2.1426443415844716E+00 
    2.1075042433753546E+00 
    2.0740040062412173E+00 
    2.0423892393976959E+00 
    2.0129471077124292E+00 
    1.9859935516321630E+00 
    1.9618055536247390E+00 
    1.9404579189218738E+00 
    1.9216086971332413E+00 
    1.9066428610166406E+00 
    1.8991059438138653E+00 
    2.2559168268702341E+00 
    2.2411920450486549E+00 
    2.2166637918766288E+00 
    2.1868524663157927E+00 
    2.1545706661910682E+00 
    2.1214130590369766E+00 
    2.0883141035289210E+00 
    2.0559027740948284E+00 
    2.0246913130257749E+00 
    1.9951613323101771E+00 
    1.9677821568854208E+00 
    1.9429606713642384E+00 
    1.9208781990808546E+00 
    1.9012573320988286E+00 
    1.8856601305018228E+00 
    1.8778029074712179E+00 
    2.2084490356380297E+00 
    2.1980047125040896E+00 
    2.1791732767884286E+00 
    2.1545706661913524E+00 
    2.1263278980464837E+00 
    2.0959742635576610E+00 
    2.0645948231000975E+00 
    2.0330119082244846E+00 
    2.0019194468163977E+00 
    1.9719626388547167E+00 
    1.9437643399942985E+00 
    1.9178817957967860E+00 
    1.8946370580099090E+00 
    1.8738545536555045E+00 
    1.8572970984423285E+00 
    1.8489379433089832E+00 
    2.1663989140533326E+00 
    2.1581547490410711E+00 
    2.1426443415852878E+00 
    2.1214130590374971E+00 
    2.0959742635579079E+00 
    2.0676085647351137E+00 
    2.0373602081182547E+00 
    2.0061075644748709E+00 
    1.9746426372032415E+00 
    1.9437317126984635E+00 
    1.9141401734445722E+00 
    1.8865912511233103E+00 
    1.8615863691189476E+00 
    1.8391021917315773E+00 
    1.8211237600289076E+00 
    1.8120059418501782E+00 
    2.1281632487490909E+00 
    2.1211045028066762E+00 
    2.1075042433763467E+00 
    2.0883141035296413E+00 
    2.0645948231005606E+00 
    2.0373602081184798E+00 
    2.0075317543369735E+00 
    1.9759583683829709E+00 
    1.9434628533780436E+00 
    1.9108894916208901E+00 
    1.8791298431656918E+00 
    1.8490872028576637E+00 
    1.8214902987256758E+00 
    1.7965418865630471E+00 
    1.7764797102371119E+00 
    1.7662326060032243E+00 
    2.0930057581386508E+00 
    2.0865739707449831E+00 
    2.0740040062423479E+00 
    2.0559027740957112E+00 
    2.0330119082251343E+00 
    2.0061075644753017E+00 
    1.9759583683831878E+00 
    1.9433304315116662E+00 
    1.9090219353998374E+00 
    1.8739100070097603E+00 
    1.8389880133794068E+00 
    1.8053486686857967E+00 
    1.7740059732930480E+00 
    1.7454973055841467E+00 
    1.7223757376323048E+00 
    1.7104527705312265E+00 
    2.0606466299639812E+00 
    2.0545043383726114E+00 
    2.0423892393987364E+00 
    2.0246913130266355E+00 
    2.0019194468170918E+00 
    1.9746426372037793E+00 
    1.9434628533784259E+00 
    1.9090219354000530E+00 
    1.8720381349934838E+00 
    1.8333642643349073E+00 
    1.7940510738069075E+00 
    1.7553713933783821E+00 
    1.7186826077425050E+00 
    1.6850067617261715E+00 
    1.6573525834113305E+00 
    1.6429188097532506E+00 
    2.0310618959510958E+00 
    2.0249935599677156E+00 
    2.0129471077132286E+00 
    1.9951613323108848E+00 
    1.9719626388553486E+00 
    1.9437317126990334E+00 
    1.9108894916214030E+00 
    1.8739100070102053E+00 
    1.8333642643351931E+00 
    1.7899968751946986E+00 
    1.7448296135655876E+00 
    1.6992567138197348E+00 
    1.6550044081854873E+00 
    1.6137599560923572E+00 
    1.5792768652088383E+00 
    1.5609671754773218E+00 
    2.0043595753445000E+00 
    1.9982267680134465E+00 
    1.9859935516327405E+00 
    1.9677821568859846E+00 
    1.9437643399948745E+00 
    1.9141401734451844E+00 
    1.8791298431663563E+00 
    1.8389880133801246E+00 
    1.7940510738075499E+00 
    1.7448296135659609E+00 
    1.6921573599729991E+00 
    1.6373865799524774E+00 
    1.5825261599255784E+00 
    1.5300735219473973E+00 
    1.4850213892341069E+00 
    1.4603424355298125E+00 
    1.9806634345987639E+00 
    1.9743820031515560E+00 
    1.9618055536251249E+00 
    1.9429606713646836E+00 
    1.9178817957973289E+00 
    1.8865912511239893E+00 
    1.8490872028585137E+00 
    1.8053486686868419E+00 
    1.7553713933794606E+00 
    1.6992567138205816E+00 
    1.6373865799529723E+00 
    1.5707202036503933E+00 
    1.5011885704952981E+00 
    1.4319870889833770E+00 
    1.3699209164308221E+00 
    1.3337054102555737E+00 
    1.9599405249836623E+00 
    1.9534621072741813E+00 
    1.9404579189221034E+00 
    1.9208781990812105E+00 
    1.8946370580104457E+00 
    1.8615863691197230E+00 
    1.8214902987267492E+00 
    1.7740059732944784E+00 
    1.7186826077441049E+00 
    1.6550044081869131E+00 
    1.5825261599267013E+00 
    1.5011885704959607E+00 
    1.4119363606486970E+00 
    1.3177219349861824E+00 
    1.2270482532174944E+00 
    1.1675834445563642E+00 
    1.9418061343334461E+00 
    1.9350916985140167E+00 
    1.9216086971333557E+00 
    1.9012573320991311E+00 
    1.8738545536560669E+00 
    1.8391021917324799E+00 
    1.7965418865643803E+00 
    1.7454973055860106E+00 
    1.6850067617283577E+00 
    1.6137599560944429E+00 
    1.5300735219492545E+00 
    1.4319870889848512E+00 
    1.3177219349870524E+00 
    1.1871192526460876E+00 
    1.0471245523221770E+00 
    9.3657673192334845E-01 
    1.9274159642478037E+00 
    1.9205122265503767E+00 
    1.9066428610167623E+00 
    1.8856601305021776E+00 
    1.8572970984430073E+00 
    1.8211237600300145E+00 
    1.7764797102387695E+00 
    1.7223757376346531E+00 
    1.6573525834141343E+00 
    1.5792768652115823E+00 
    1.4850213892366511E+00 
    1.3699209164329971E+00 
    1.2270482532190383E+00 
    1.0471245523226991E+00 
    8.2270256649051732E-01 
    5.8800890095193015E-01 
    1.9201543455041723E+00 
    1.9131631438157044E+00 
    1.8991059438140374E+00 
    1.8778029074716616E+00 
    1.8489379433098081E+00 
    1.8120059418515093E+00 
    1.7662326060052109E+00 
    1.7104527705340442E+00 
    1.6429188097566305E+00 
    1.5609671754806618E+00 
    1.4603424355329615E+00 
    1.3337054102583503E+00 
    1.1675834445584372E+00 
    9.3657673192400248E-01 
    5.8800890095117186E-01 
    0.0000000000000000E+00 

SCALARS Saturarion double 1 
LOOKUP_TABLE default 

    1.0000000000000000E+00 
    9.4143153276258340E-01 
    8.9257577086817574E-01 
    8.4280037307345723E-01 
    7.9426035659869587E-01 
    7.4791901039298514E-01 
    7.0382521648090202E-01 
    6.6151390029808299E-01 
    6.2018479431181528E-01 
    5.7866314751346581E-01 
    5.3504378904164918E-01 
    4.8552163510615298E-01 
    4.2058471275735415E-01 
    3.1222062722988303E-01 
    1.1360158529617001E-01 
    3.4403402943786634E-03 
    9.4143153276290759E-01 
    9.0386621967697633E-01 
    8.6168828873187531E-01 
    8.1788409503903481E-01 
    7.7437628365530708E-01 
    7.3210172875236323E-01 
    6.9126485610077060E-01 
    6.5158001567010360E-01 
    6.1239261667482170E-01 
    5.7262942671964168E-01 
    5.3044064651530620E-01 
    4.8200922878446228E-01 
    4.1763613750887596E-01 
    3.0844497671423549E-01 
    1.0825816556852368E-01 
    2.9745776562542831E-03 
    8.9257577086877804E-01 
    8.6168828873218906E-01 
    8.2579055664789180E-01 
    7.8791666796108151E-01 
    7.4972591060494886E-01 
    7.1204501291551214E-01 
    6.7511036473807062E-01 
    6.3872755043492779E-01 
    6.0233783500782279E-01 
    5.6494392457485409E-01 
    5.2473956641830788E-01 
    4.7789376048558796E-01 
    4.1452458049779534E-01 
    3.0484651443183380E-01 
    1.0338988814452341E-01 
    2.5933648633998207E-03 
    8.4280037307437206E-01 
    8.1788409503965598E-01 
    7.8791666796138449E-01 
    7.5569946232231511E-01 
    7.2270558737196389E-01 
    6.8967662695462273E-01 
    6.5684873377733266E-01 
    6.2407143579107605E-01 
    5.9084088249491973E-01 
    5.5620592475689368E-01 
    5.1838498020500201E-01 
    4.7352698277671018E-01 
    4.1157900701775513E-01 
    3.0187685508778855E-01 
    9.9700013096891194E-02 
    2.3348683234241684E-03 
    7.9426035659988681E-01 
    7.7437628365621780E-01 
    7.4972591060550309E-01 
    7.2270558737223189E-01 
    6.9459981672940940E-01 
    6.6607040475737700E-01 
    6.3733873766260429E-01 
    6.0827256121879092E-01 
    5.7839612157385711E-01 
    5.4678168915974201E-01 
    5.1165678101011314E-01 
    4.6914854110276094E-01 
    4.0906346367175217E-01 
    3.0000343037102389E-01 
    9.7934334065125153E-02 
    2.2308519486330413E-03 
    7.4791901039443587E-01 
    7.3210172875346013E-01 
    7.1204501291629352E-01 
    6.8967662695510579E-01 
    6.6607040475760659E-01 
    6.4179747427433043E-01 
    6.1705132996559542E-01 
    5.9170214471324423E-01 
    5.6528653607632240E-01 
    5.3688689467955730E-01 
    5.0473254305738036E-01 
    4.6493835276776724E-01 
    4.0723182211196229E-01 
    2.9977781599261955E-01 
    9.8985908807487880E-02 
    2.3326718584667340E-03 
    7.0382521648255691E-01 
    6.9126485610207433E-01 
    6.7511036473903807E-01 
    6.5684873377800812E-01 
    6.3733873766303917E-01 
    6.1705132996578416E-01 
    5.9614207877810166E-01 
    5.7447442805838367E-01 
    5.5159010324162794E-01 
    5.2657738439023916E-01 
    4.9767019001614116E-01 
    4.6099614523171722E-01 
    4.0630660762617660E-01 
    3.0179608162085320E-01 
    1.0394631490014440E-01 
    2.7522565014653335E-03 
    6.6151390029993162E-01 
    6.5158001567159296E-01 
    6.3872755043608587E-01 
    6.2407143579194613E-01 
    6.0827256121939921E-01 
    5.9170214471360283E-01 
    5.7447442805854487E-01 
    5.5644365038593480E-01 
    5.3715691633735796E-01 
    5.1571283916309540E-01 
    4.9036348397551621E-01 
    4.5729203910897243E-01 
    4.0642360712547804E-01 
    3.0659970453266638E-01 
    1.1411518884938440E-01 
    3.7508462914384384E-03 
    6.2018479431330653E-01 
    6.1239261667602773E-01 
    6.0233783500878957E-01 
    5.9084088249566613E-01 
    5.7839612157438769E-01 
    5.6528653607667034E-01 
    5.5159010324182545E-01 
    5.3715691633743601E-01 
    5.2154752246307934E-01 
    5.0388420799636002E-01 
    4.8246187455347350E-01 
    4.5358014650536477E-01 
    4.0753371174856001E-01 
    3.1452169560109566E-01 
    1.3083821422166939E-01 
    5.9464650341842316E-03 
    5.7866314751462045E-01 
    5.7262942672058437E-01 
    5.6494392457563070E-01 
    5.5620592475747666E-01 
    5.4678168916016501E-01 
    5.3688689467984918E-01 
    5.2657738439043256E-01 
    5.1571283916319943E-01 
    5.0388420799638578E-01 
    4.9026050398824073E-01 
    4.7321535719591701E-01 
    4.4924108042354494E-01 
    4.0923231600317245E-01 
    3.2547603362525462E-01 
    1.5495128057677848E-01 
    1.0775378069706564E-02 
    5.3504378904247807E-01 
    5.3044064651600675E-01 
    5.2473956641887465E-01 
    5.1838498020543566E-01 
    5.1165678101041956E-01 
    5.0473254305759019E-01 
    4.9767019001627016E-01 
    4.9036348397557955E-01 
    4.8246187455345879E-01 
    4.7321535719588487E-01 
    4.6112258978029813E-01 
    4.4295255607735540E-01 
    4.1043784254706167E-01 
    3.3864277287595862E-01 
    1.8590095461721212E-01 
    2.1327576022849067E-02 
    4.8552163510667007E-01 
    4.8200922878489433E-01 
    4.7789376048592602E-01 
    4.7352698277695576E-01 
    4.6914854110291682E-01 
    4.6493835276785006E-01 
    4.6099614523173404E-01 
    4.5729203910893562E-01 
    4.5358014650525008E-01 
    4.4924108042340927E-01 
    4.4295255607724998E-01 
    4.3183502442425370E-01 
    4.0865262628029048E-01 
    3.5184151994663387E-01 
    2.2133507756696608E-01 
    4.3082471924850173E-02 
    4.2058471275751569E-01 
    4.1763613750898843E-01 
    4.1452458049785734E-01 
    4.1157900701775985E-01 
    4.0906346367169144E-01 
    4.0723182211183589E-01 
    4.0630660762598819E-01 
    4.0642360712522640E-01 
    4.0753371174822711E-01 
    4.0923231600281412E-01 
    4.1043784254674165E-01 
    4.0865262628008536E-01 
    3.9771941191153531E-01 
    3.5979953048703189E-01 
    2.5688042699404834E-01 
    8.1590707479456681E-02 
    3.1222062722950972E-01 
    3.0844497671385990E-01 
    3.0484651443146038E-01 
    3.0187685508739309E-01 
    3.0000343037058613E-01 
    2.9977781599211611E-01 
    3.0179608162025806E-01 
    3.0659970453195512E-01 
    3.1452169560027143E-01 
    3.2547603362439642E-01 
    3.3864277287517447E-01 
    3.5184151994603496E-01 
    3.5979953048671176E-01 
    3.4821138156362280E-01 
    2.8235544048819117E-01 
    1.3194177102361057E-01 
    1.1360158529618190E-01 
    1.0825816556849935E-01 
    1.0338988814447665E-01 
    9.9700013096775897E-02 
    9.7934334064896739E-02 
    9.8985908807095610E-02 
    1.0394631489952141E-01 
    1.1411518884844490E-01 
    1.3083821422029515E-01 
    1.5495128057518037E-01 
    1.8590095461564274E-01 
    2.2133507756563464E-01 
    2.5688042699308211E-01 
    2.8235544048764410E-01 
    2.6978610841750894E-01 
    1.6959961393390061E-01 
    3.4403402943888597E-03 
    2.9745776562595484E-03 
    2.5933648634022381E-03 
    2.3348683234205255E-03 
    2.2308519486207122E-03 
    2.3326718584410259E-03 
    2.7522565014159034E-03 
    3.7508462913403927E-03 
    5.9464650339627030E-03 
    1.0775378069296395E-02 
    2.1327576022143531E-02 
    4.3082471923792179E-02 
    8.1590707478252117E-02 
    1.3194177102271998E-01 
    1.6959961393350151E-01 
    1.3501371524731048E-01 
