# vtk DataFile Version 2.0
Pressure Field Data 
ASCII 
DATASET UNSTRUCTURED_GRID 

POINTS 289 double 

    0.0000000000000000E+00     0.0000000000000000E+00     0.0000000000000000E+00 
    1.0000000000000000E+00     0.0000000000000000E+00     0.0000000000000000E+00 
    1.0000000000000000E+00     1.0000000000000000E+00     0.0000000000000000E+00 
    0.0000000000000000E+00     1.0000000000000000E+00     0.0000000000000000E+00 
    6.2499999999872928E-02     0.0000000000000000E+00     0.0000000000000000E+00 
    1.2499999999977310E-01     0.0000000000000000E+00     0.0000000000000000E+00 
    1.8749999999959341E-01     0.0000000000000000E+00     0.0000000000000000E+00 
    2.4999999999941089E-01     0.0000000000000000E+00     0.0000000000000000E+00 
    3.1249999999922851E-01     0.0000000000000000E+00     0.0000000000000000E+00 
    3.7499999999904610E-01     0.0000000000000000E+00     0.0000000000000000E+00 
    4.3749999999886358E-01     0.0000000000000000E+00     0.0000000000000000E+00 
    4.9999999999869210E-01     0.0000000000000000E+00     0.0000000000000000E+00 
    5.6249999999884603E-01     0.0000000000000000E+00     0.0000000000000000E+00 
    6.2499999999901090E-01     0.0000000000000000E+00     0.0000000000000000E+00 
    6.8749999999917577E-01     0.0000000000000000E+00     0.0000000000000000E+00 
    7.4999999999934064E-01     0.0000000000000000E+00     0.0000000000000000E+00 
    8.1249999999950551E-01     0.0000000000000000E+00     0.0000000000000000E+00 
    8.7499999999967026E-01     0.0000000000000000E+00     0.0000000000000000E+00 
    9.3749999999983513E-01     0.0000000000000000E+00     0.0000000000000000E+00 
    1.0000000000000000E+00     6.2499999999872928E-02     0.0000000000000000E+00 
    1.0000000000000000E+00     1.2499999999977310E-01     0.0000000000000000E+00 
    1.0000000000000000E+00     1.8749999999959341E-01     0.0000000000000000E+00 
    1.0000000000000000E+00     2.4999999999941089E-01     0.0000000000000000E+00 
    1.0000000000000000E+00     3.1249999999922851E-01     0.0000000000000000E+00 
    1.0000000000000000E+00     3.7499999999904610E-01     0.0000000000000000E+00 
    1.0000000000000000E+00     4.3749999999886358E-01     0.0000000000000000E+00 
    1.0000000000000000E+00     4.9999999999869210E-01     0.0000000000000000E+00 
    1.0000000000000000E+00     5.6249999999884603E-01     0.0000000000000000E+00 
    1.0000000000000000E+00     6.2499999999901090E-01     0.0000000000000000E+00 
    1.0000000000000000E+00     6.8749999999917577E-01     0.0000000000000000E+00 
    1.0000000000000000E+00     7.4999999999934064E-01     0.0000000000000000E+00 
    1.0000000000000000E+00     8.1249999999950551E-01     0.0000000000000000E+00 
    1.0000000000000000E+00     8.7499999999967026E-01     0.0000000000000000E+00 
    1.0000000000000000E+00     9.3749999999983513E-01     0.0000000000000000E+00 
    9.3749999999973976E-01     1.0000000000000000E+00     0.0000000000000000E+00 
    8.7499999999950118E-01     1.0000000000000000E+00     0.0000000000000000E+00 
    8.1249999999991318E-01     1.0000000000000000E+00     0.0000000000000000E+00 
    7.5000000000034706E-01     1.0000000000000000E+00     0.0000000000000000E+00 
    6.8750000000078049E-01     1.0000000000000000E+00     0.0000000000000000E+00 
    6.2500000000121403E-01     1.0000000000000000E+00     0.0000000000000000E+00 
    5.6250000000164757E-01     1.0000000000000000E+00     0.0000000000000000E+00 
    5.0000000000205946E-01     1.0000000000000000E+00     0.0000000000000000E+00 
    4.3750000000182099E-01     1.0000000000000000E+00     0.0000000000000000E+00 
    3.7500000000156092E-01     1.0000000000000000E+00     0.0000000000000000E+00 
    3.1250000000130068E-01     1.0000000000000000E+00     0.0000000000000000E+00 
    2.5000000000104050E-01     1.0000000000000000E+00     0.0000000000000000E+00 
    1.8750000000078040E-01     1.0000000000000000E+00     0.0000000000000000E+00 
    1.2500000000052031E-01     1.0000000000000000E+00     0.0000000000000000E+00 
    6.2500000000260125E-02     1.0000000000000000E+00     0.0000000000000000E+00 
    0.0000000000000000E+00     9.3749999999973976E-01     0.0000000000000000E+00 
    0.0000000000000000E+00     8.7499999999950118E-01     0.0000000000000000E+00 
    0.0000000000000000E+00     8.1249999999991318E-01     0.0000000000000000E+00 
    0.0000000000000000E+00     7.5000000000034706E-01     0.0000000000000000E+00 
    0.0000000000000000E+00     6.8750000000078049E-01     0.0000000000000000E+00 
    0.0000000000000000E+00     6.2500000000121403E-01     0.0000000000000000E+00 
    0.0000000000000000E+00     5.6250000000164757E-01     0.0000000000000000E+00 
    0.0000000000000000E+00     5.0000000000205946E-01     0.0000000000000000E+00 
    0.0000000000000000E+00     4.3750000000182099E-01     0.0000000000000000E+00 
    0.0000000000000000E+00     3.7500000000156092E-01     0.0000000000000000E+00 
    0.0000000000000000E+00     3.1250000000130068E-01     0.0000000000000000E+00 
    0.0000000000000000E+00     2.5000000000104050E-01     0.0000000000000000E+00 
    0.0000000000000000E+00     1.8750000000078040E-01     0.0000000000000000E+00 
    0.0000000000000000E+00     1.2500000000052031E-01     0.0000000000000000E+00 
    0.0000000000000000E+00     6.2500000000260125E-02     0.0000000000000000E+00 
    6.2499999999897131E-02     6.2500000000235922E-02     0.0000000000000000E+00 
    6.2499999999921327E-02     1.2500000000047351E-01     0.0000000000000000E+00 
    6.2499999999945530E-02     1.8750000000070621E-01     0.0000000000000000E+00 
    6.2499999999969733E-02     2.5000000000093858E-01     0.0000000000000000E+00 
    6.2499999999993928E-02     3.1250000000117117E-01     0.0000000000000000E+00 
    6.2500000000018124E-02     3.7500000000140382E-01     0.0000000000000000E+00 
    6.2500000000042327E-02     4.3750000000163619E-01     0.0000000000000000E+00 
    6.2500000000066530E-02     5.0000000000184897E-01     0.0000000000000000E+00 
    6.2500000000090733E-02     5.6250000000147260E-01     0.0000000000000000E+00 
    6.2500000000114922E-02     6.2500000000107636E-01     0.0000000000000000E+00 
    6.2500000000139125E-02     6.8750000000068034E-01     0.0000000000000000E+00 
    6.2500000000163328E-02     7.5000000000028411E-01     0.0000000000000000E+00 
    6.2500000000187531E-02     8.1249999999988787E-01     0.0000000000000000E+00 
    6.2500000000211720E-02     8.7499999999951172E-01     0.0000000000000000E+00 
    6.2500000000235922E-02     9.3749999999974565E-01     0.0000000000000000E+00 
    1.2499999999981980E-01     6.2500000000211733E-02     0.0000000000000000E+00 
    1.2499999999986650E-01     1.2500000000042691E-01     0.0000000000000000E+00 
    1.2499999999991319E-01     1.8750000000063199E-01     0.0000000000000000E+00 
    1.2499999999995989E-01     2.5000000000083678E-01     0.0000000000000000E+00 
    1.2500000000000661E-01     3.1250000000104172E-01     0.0000000000000000E+00 
    1.2500000000005329E-01     3.7500000000124661E-01     0.0000000000000000E+00 
    1.2500000000010000E-01     4.3750000000145117E-01     0.0000000000000000E+00 
    1.2500000000014669E-01     5.0000000000163858E-01     0.0000000000000000E+00 
    1.2500000000019340E-01     5.6250000000129741E-01     0.0000000000000000E+00 
    1.2500000000024011E-01     6.2500000000093847E-01     0.0000000000000000E+00 
    1.2500000000028680E-01     6.8750000000057998E-01     0.0000000000000000E+00 
    1.2500000000033351E-01     7.5000000000022127E-01     0.0000000000000000E+00 
    1.2500000000038020E-01     8.1249999999986211E-01     0.0000000000000000E+00 
    1.2500000000042691E-01     8.7499999999952238E-01     0.0000000000000000E+00 
    1.2500000000047359E-01     9.3749999999975164E-01     0.0000000000000000E+00 
    1.8749999999966760E-01     6.2500000000187531E-02     0.0000000000000000E+00 
    1.8749999999974179E-01     1.2500000000038020E-01     0.0000000000000000E+00 
    1.8749999999981601E-01     1.8750000000055780E-01     0.0000000000000000E+00 
    1.8749999999989009E-01     2.5000000000073502E-01     0.0000000000000000E+00 
    1.8749999999996431E-01     3.1250000000091221E-01     0.0000000000000000E+00 
    1.8750000000003850E-01     3.7500000000108941E-01     0.0000000000000000E+00 
    1.8750000000011269E-01     4.3750000000126649E-01     0.0000000000000000E+00 
    1.8750000000018691E-01     5.0000000000142808E-01     0.0000000000000000E+00 
    1.8750000000026110E-01     5.6250000000112244E-01     0.0000000000000000E+00 
    1.8750000000033529E-01     6.2500000000080080E-01     0.0000000000000000E+00 
    1.8750000000040951E-01     6.8750000000047962E-01     0.0000000000000000E+00 
    1.8750000000048361E-01     7.5000000000015843E-01     0.0000000000000000E+00 
    1.8750000000055780E-01     8.1249999999983680E-01     0.0000000000000000E+00 
    1.8750000000063199E-01     8.7499999999953304E-01     0.0000000000000000E+00 
    1.8750000000070621E-01     9.3749999999975764E-01     0.0000000000000000E+00 
    2.4999999999951281E-01     6.2500000000163314E-02     0.0000000000000000E+00 
    2.4999999999961461E-01     1.2500000000033351E-01     0.0000000000000000E+00 
    2.4999999999971650E-01     1.8750000000048361E-01     0.0000000000000000E+00 
    2.4999999999981831E-01     2.5000000000063310E-01     0.0000000000000000E+00 
    2.4999999999992020E-01     3.1250000000078260E-01     0.0000000000000000E+00 
    2.5000000000002198E-01     3.7500000000093209E-01     0.0000000000000000E+00 
    2.5000000000012390E-01     4.3750000000108180E-01     0.0000000000000000E+00 
    2.5000000000022571E-01     5.0000000000121769E-01     0.0000000000000000E+00 
    2.5000000000032763E-01     5.6250000000094724E-01     0.0000000000000000E+00 
    2.5000000000042938E-01     6.2500000000066314E-01     0.0000000000000000E+00 
    2.5000000000053119E-01     6.8750000000037925E-01     0.0000000000000000E+00 
[...]
CELL_DATA 256 
SCALARS Pressure double 1 
LOOKUP_TABLE default 

    2.4909512540023355E+00 
    2.3784886704123847E+00 
    2.2996468960255916E+00 
    2.2367318407539822E+00 
    2.1821073278640979E+00 
    2.1324336940107496E+00 
    2.0861523527198189E+00 
    2.0425235035768532E+00 
    2.0011970774060654E+00 
    1.9619493495510503E+00 
    1.9243812553280859E+00 
    1.8874139015982667E+00 
    1.8518485276327625E+00 
    1.8249418541077129E+00 
    1.8081659491841353E+00 
    1.7998007517876400E+00 
    2.3784886704130068E+00 
    2.3291778060063648E+00 
    2.2734216599983670E+00 
    2.2201011157084256E+00 
    2.1700216918850916E+00 
    2.1227189665371076E+00 
    2.0777326113354704E+00 
    2.0347944537042033E+00 
    1.9937797211938719E+00 
    1.9545766050904640E+00 
    1.9168140647391805E+00 
    1.8793164653658692E+00 
    1.8434701325732761E+00 
    1.8166314495926235E+00 
    1.7998288066041543E+00 
    1.7914355616020374E+00 
    2.2996468960265273E+00 
    2.2734216599988293E+00 
    2.2348554020824438E+00 
    2.1919406952744769E+00 
    2.1479943015969205E+00 
    2.1043118422171716E+00 
    2.0614315968039389E+00 
    2.0196352553222607E+00 
    1.9791060642792278E+00 
    1.9398999030922299E+00 
    1.9016838665232949E+00 
    1.8631293787782690E+00 
    1.8267889600088594E+00 
    1.8000428452163919E+00 
    1.7831444761079398E+00 
    1.7746771343921441E+00 
    2.2367318407551715E+00 
    2.2201011157092378E+00 
    2.1919406952748708E+00 
    2.1571598505799612E+00 
    2.1188810340132647E+00 
    2.0789077340938422E+00 
    2.0382948722342000E+00 
    1.9977090971557998E+00 
    1.9575944133942360E+00 
    1.9181628268378541E+00 
    1.8790926338511935E+00 
    1.8389194852648174E+00 
    1.8019145298798891E+00 
    1.7751971952172945E+00 
    1.7580676984337831E+00 
    1.7494513680425585E+00 
    2.1821073278655159E+00 
    2.1700216918861828E+00 
    2.1479943015976350E+00 
    2.1188810340136044E+00 
    2.0850419754143137E+00 
    2.0481815488284010E+00 
    2.0094930051010942E+00 
    1.9698274966053120E+00 
    1.9297890618120692E+00 
    1.8896848560683683E+00 
    1.8491054442328467E+00 
    1.8067291013445379E+00 
    1.7689601958981149E+00 
    1.7420828185304140E+00 
    1.7244952067841659E+00 
    1.7156092716173408E+00 
    2.1324336940123882E+00 
    2.1227189665384403E+00 
    2.1043118422181575E+00 
    2.0789077340944759E+00 
    2.0481815488287038E+00 
    2.0135478965817737E+00 
    1.9761339247118213E+00 
    1.9368233836520576E+00 
    1.8962757142637960E+00 
    1.8547957722461279E+00 
    1.8116442424012169E+00 
    1.7665408682362520E+00 
    1.7280305637548563E+00 
    1.7006183534085832E+00 
    1.6822259222030946E+00 
    1.6728812400354851E+00 
    2.0861523527216685E+00 
    2.0777326113370185E+00 
    2.0614315968051593E+00 
    2.0382948722350904E+00 
    2.0094930051016702E+00 
    1.9761339247121021E+00 
    1.9391897320643134E+00 
    1.8994773481634375E+00 
    1.8576159410672466E+00 
    1.8137761648076931E+00 
    1.7666435363953490E+00 
    1.7185740780372265E+00 
    1.6792935552328290E+00 
    1.6506337355271539E+00 
    1.6309095215145464E+00 
    1.6208085262861562E+00 
    2.0425235035788885E+00 
    2.0347944537059388E+00 
    2.0196352553236832E+00 
    1.9977090971569138E+00 
    1.9698274966061338E+00 
    1.9368233836526003E+00 
    1.8994773481637093E+00 
    1.8584633602041003E+00 
    1.8142389475732483E+00 
    1.7664986942618459E+00 
    1.7141610445725552E+00 
    1.6636234545460065E+00 
    1.6230250242653324E+00 
    1.5918688443076250E+00 
    1.5699699223123962E+00 
    1.5586348173085927E+00 
    2.0011970774079066E+00 
    1.9937797211954620E+00 
    1.9791060642805709E+00 
    1.9575944133953462E+00 
    1.9297890618129616E+00 
    1.8962757142644810E+00 
    1.8576159410677282E+00 
    1.8142389475735170E+00 
    1.7661997483940763E+00 
    1.7125112936119147E+00 
    1.6550211884550803E+00 
    1.6027139233183161E+00 
    1.5592267415268348E+00 
    1.5238643616243090E+00 
    1.4984665061473612E+00 
    1.4851260033278049E+00 
    1.9619493495524409E+00 
    1.9545766050916813E+00 
    1.9398999030932926E+00 
    1.9181628268387865E+00 
    1.8896848560691908E+00 
    1.8547957722468578E+00 
    1.8137761648083386E+00 
    1.7664986942624024E+00 
    1.7125112936122748E+00 
    1.6525070011176641E+00 
    1.5922166643466407E+00 
    1.5371306317912972E+00 
    1.4878123106094507E+00 
    1.4458955045496591E+00 
    1.4149057373253975E+00 
    1.3982766865283354E+00 
    1.9243812553290522E+00 
    1.9168140647400433E+00 
    1.9016838665240854E+00 
    1.8790926338519518E+00 
    1.8491054442336055E+00 
    1.8116442424020078E+00 
    1.7666435363961925E+00 
    1.7141610445734592E+00 
    1.6550211884558803E+00 
    1.5922166643470912E+00 
    1.5293326915289982E+00 
    1.4677562998032305E+00 
    1.4090066546457167E+00 
    1.3569996086396461E+00 
    1.3169842520764123E+00 
    1.2947983189323728E+00 
    1.8874139015988423E+00 
    1.8793164653664021E+00 
    1.8631293787788075E+00 
    1.8389194852654160E+00 
    1.8067291013452444E+00 
    1.7665408682371149E+00 
    1.7185740780382837E+00 
    1.6636234545472801E+00 
    1.6027139233195988E+00 
    1.5371306317922706E+00 
    1.4677562998037805E+00 
    1.3956073496667210E+00 
    1.3234583995372864E+00 
    1.2561120232867942E+00 
    1.2012333434084432E+00 
    1.1691340181930070E+00 
    1.8518485276329448E+00 
    1.8434701325734753E+00 
    1.8267889600091365E+00 
    1.8019145298803163E+00 
    1.7689601958987586E+00 
    1.7280305637557853E+00 
    1.6792935552341044E+00 
    1.6230250242670030E+00 
    1.5592267415286611E+00 
    1.4878123106110339E+00 
    1.4090066546469260E+00 
    1.3234583995379772E+00 
    1.2331075705499372E+00 
    1.1427567415618090E+00 
    1.0627030800778399E+00 
    1.0113703922389914E+00 
    1.8249418541076019E+00 
    1.8166314495925804E+00 
    1.8000428452164912E+00 
    1.7751971952176275E+00 
    1.7420828185310648E+00 
    1.7006183534096404E+00 
    1.6506337355287075E+00 
    1.5918688443097586E+00 
    1.5238643616267487E+00 
    1.4458955045519233E+00 
    1.3569996086415994E+00 
    1.2561120232882912E+00 
    1.1427567415626596E+00 
    1.0191042923326408E+00 
    8.9545184310245918E-01 
    8.0227407844718690E-01 
    1.8081659491839850E+00 
    1.7998288066040919E+00 
    1.7831444761080535E+00 
    1.7580676984341810E+00 
    1.7244952067849522E+00 
    1.6822259222043772E+00 
    1.6309095215164442E+00 
    1.5699699223150323E+00 
    1.4984665061504299E+00 
    1.4149057373283227E+00 
    1.3169842520790493E+00 
    1.2012333434106306E+00 
    1.0627030800793467E+00 
    8.9545184310297110E-01 
    6.9772592155160051E-01 
    5.0000000000027822E-01 
    1.7998007517875161E+00 
    1.7914355616020112E+00 
    1.7746771343923184E+00 
    1.7494513680430599E+00 
    1.7156092716182905E+00 
    1.6728812400370117E+00 
    1.6208085262884047E+00 
    1.5586348173117193E+00 
    1.4851260033314666E+00 
    1.3982766865318632E+00 
    1.2947983189356047E+00 
    1.1691340181957546E+00 
    1.0113703922409483E+00 
    8.0227407844777976E-01 
    4.9999999999962991E-01 
    0.0000000000000000E+00 

SCALARS Saturarion double 1 
LOOKUP_TABLE default 

    1.0000000000000000E+00 
    9.1775229930417379E-01 
    8.5457289141843373E-01 
    7.9375928736727142E-01 
    7.3683044563712996E-01 
    6.8392027408504097E-01 
    6.3427721078517507E-01 
    5.8665221420248448E-01 
    5.3924903217901876E-01 
    4.8904815556833020E-01 
    4.2935348778112836E-01 
    3.4036041399273298E-01 
    1.6762282372478607E-01 
    1.2770684792651660E-02 
    9.9299963615254548E-06 
    2.9813452391174227E-13 
    9.1775229930452273E-01 
    8.6878318365125096E-01 
    8.1639622771486209E-01 
    7.6418639850221970E-01 
    7.1389097549009028E-01 
    6.6597737226262477E-01 
    6.2009399679934774E-01 
    5.7530801749602567E-01 
    5.3001545211575340E-01 
    4.8122020625363604E-01 
    4.2182270390632859E-01 
    3.2972660751425537E-01 
    1.4707482657480753E-01 
    8.0977490521747311E-03 
    3.0166083682307457E-06 
    1.5720091697552329E-14 
    8.5457289141916870E-01 
    8.1639622771524079E-01 
    7.7337877784815656E-01 
    7.2927219785088060E-01 
    6.8572006588891576E-01 
    6.4327457542468847E-01 
    6.0177271755079875E-01 
    5.6046823087388220E-01 
    5.1787132885296605E-01 
    4.7092483194302787E-01 
    4.1185971701606267E-01 
    3.1474726330208841E-01 
    1.1911628562051274E-01 
    3.9526832190182031E-03 
    4.6103754055517655E-07 
    1.3771548437986522E-16 
    7.9375928736834389E-01 
    7.6418639850299430E-01 
    7.2927219785121000E-01 
    6.9241949676567216E-01 
    6.5514815312461705E-01 
    6.1802685615995878E-01 
    5.8098002582141961E-01 
    5.4335320877653182E-01 
    5.0368613640965132E-01 
    4.5873912742511402E-01 
    3.9966136984152012E-01 
    2.9406653518282577E-01 
    8.5656335314626728E-02 
    1.3515956561708708E-03 
    2.7405357213961695E-08 
    9.1336872839609129E-20 
    7.3683044563849154E-01 
    7.1389097549111702E-01 
    6.8572006588955248E-01 
    6.5514815312492436E-01 
    6.2350697872594785E-01 
    5.9132775468515331E-01 
    5.5855829560590109E-01 
    5.2456798477238697E-01 
    4.8784604241929441E-01 
    4.4480773063250073E-01 
    3.8484475392397222E-01 
    2.6425466751204157E-01 
    5.0821020807830963E-02 
    2.6644419017188650E-04 
    3.5599223716366001E-10 
    7.9849442309700249E-25 
    6.8392027408665801E-01 
    6.6597737226382403E-01 
    6.4327457542553768E-01 
    6.1802685616048736E-01 
    5.9132775468541621E-01 
    5.6362382770762420E-01 
    5.3483749968123317E-01 
    5.0430675892986510E-01 
    4.7038339367167037E-01 
    4.2888787571596992E-01 
    3.6616237358209175E-01 
    2.1823067324415360E-01 
    2.1370354687708024E-02 
    1.9907048573843672E-05 
    2.8307059719255200E-13 
    1.5415518419563375E-33 
    6.3427721078699539E-01 
    6.2009399680079313E-01 
    6.0177271755190365E-01 
    5.8098002582220054E-01 
    5.5855829560638581E-01 
    5.3483749968147387E-01 
    5.0967519104614523E-01 
    4.8232178697562650E-01 
    4.5086469490349484E-01 
    4.1005926149808586E-01 
    3.4001301827927422E-01 
    1.4663076637377537E-01 
    4.5240347745255163E-03 
    2.0961960039224976E-07 
    4.3502105360327199E-19 
    5.7891954403037038E-51 
    5.8665221420455960E-01 
    5.7530801749770266E-01 
    5.6046823087524189E-01 
    5.4335320877757420E-01 
    5.2456798477310573E-01 
    5.0430675893033983E-01 
    4.8232178697586303E-01 
    4.5768988029439395E-01 
    4.2797451333996889E-01 
    3.8573137570376326E-01 
    2.9439699077905762E-01 
    6.0108388588754176E-02 
    1.9844284406397747E-04 
    1.2413437524483654E-11 
    1.8240372272877026E-32 
    1.1510688532340400E-94 
    5.3924903218070697E-01 
    5.3001545211716750E-01 
    5.1787132885413023E-01 
    5.0368613641055859E-01 
    4.8784604241995844E-01 
    4.7038339367214599E-01 
    4.5086469490378489E-01 
    4.2797451334009978E-01 
    3.9798213905439955E-01 
    3.4686910682520161E-01 
    1.8112922501012538E-01 
    5.5623784175011437E-03 
    5.9653526340288300E-08 
    1.2818462794927029E-23 
    4.5774728924085224E-74 
   6.7370299871347648E-239 
    4.8904815556967496E-01 
    4.8122020625479101E-01 
    4.7092483194399370E-01 
    4.5873912742588391E-01 
    4.4480773063310008E-01 
    4.2888787571642389E-01 
    4.1005926149841493E-01 
    3.8573137570401989E-01 
    3.4686910682533162E-01 
    2.4014044821568578E-01 
    2.1601351849643118E-02 
    1.7332907994173276E-06 
    2.2295066156330366E-20 
    4.1885128928034335E-67 
   2.6176659745644284E-224 
    0.0000000000000000E+00 
    4.2935348778224564E-01 
    4.2182270390729515E-01 
    4.1185971701690888E-01 
    3.9966136984222994E-01 
    3.8484475392458711E-01 
    3.6616237358263398E-01 
    3.4001301827980990E-01 
    2.9439699077972759E-01 
    1.8112922501053952E-01 
    2.1601351849648710E-02 
    3.7377203656391964E-06 
    1.6376724998441494E-19 
    3.3636835888715528E-65 
   2.9244577423842512E-220 
    0.0000000000000000E+00 
    0.0000000000000000E+00 
    3.4036041399388939E-01 
    3.2972660751533756E-01 
    3.1474726330312286E-01 
    2.9406653518383619E-01 
    2.6425466751307569E-01 
    2.1823067324521730E-01 
    1.4663076637470501E-01 
    6.0108388589254623E-02 
    5.5623784175263223E-03 
    1.7332907994129372E-06 
    1.6376724998395580E-19 
    8.0682969997036340E-65 
   2.8161338208964570E-219 
    0.0000000000000000E+00 
    0.0000000000000000E+00 
    0.0000000000000000E+00 
    1.6762282372644693E-01 
    1.4707482657629783E-01 
    1.1911628562183137E-01 
    8.5656335315674736E-02 
    5.0821020808527559E-02 
    2.1370354688044123E-02 
    4.5240347746081889E-03 
    1.9844284406863645E-04 
    5.9653526340850955E-08 
    2.2295066156169776E-20 
    3.3636835888404115E-65 
   2.8161338208848815E-219 
    0.0000000000000000E+00 
    0.0000000000000000E+00 
    0.0000000000000000E+00 
    0.0000000000000000E+00 
    1.2770684793056913E-02 
    8.0977490524301431E-03 
    3.9526832191509511E-03 
    1.3515956562196456E-03 
    2.6644419018242353E-04 
    1.9907048574729333E-05 
    2.0961960040338639E-07 
    1.2413437525322137E-11 
    1.2818462795314319E-23 
    4.1885128927207471E-67 
   2.9244577423263851E-220 
    0.0000000000000000E+00 
    0.0000000000000000E+00 
    0.0000000000000000E+00 
    0.0000000000000000E+00 
    0.0000000000000000E+00 
    9.9299963624283360E-06 
    3.0166083685000200E-06 
    4.6103754059852134E-07 
    2.7405357216741763E-08 
    3.5599223720388828E-10 
    2.8307059722981198E-13 
    4.3502105367645790E-19 
    1.8240372276708162E-32 
    4.5774728927271123E-74 
   2.6176659744786472E-224 
    0.0000000000000000E+00 
    0.0000000000000000E+00 
    0.0000000000000000E+00 
    0.0000000000000000E+00 
    0.0000000000000000E+00 
    0.0000000000000000E+00 
    2.9813452398227664E-13 
    1.5720091701235243E-14 
    1.3771548441438301E-16 
    9.1336872864984387E-20 
    7.9849442335295334E-25 
    1.5415518425683111E-33 
    5.7891954432761334E-51 
    1.1510688539623595E-94 
   6.7370299885005026E-239 
    0.0000000000000000E+00 
    0.0000000000000000E+00 
    0.0000000000000000E+00 
    0.0000000000000000E+00 
    0.0000000000000000E+00 
    0.0000000000000000E+00 
    0.0000000000000000E+00 
