# vtk DataFile Version 2.0
Pressure Field Data 
ASCII 
DATASET UNSTRUCTURED_GRID 

POINTS 289 double 

    0.0000000000000000E+00     0.0000000000000000E+00     0.0000000000000000E+00 
    1.0000000000000000E+00     0.0000000000000000E+00     0.0000000000000000E+00 
    1.0000000000000000E+00     1.0000000000000000E+00     0.0000000000000000E+00 
    0.0000000000000000E+00     1.0000000000000000E+00     0.0000000000000000E+00 
    6.2499999999872928E-02     0.0000000000000000E+00     0.0000000000000000E+00 
    1.2499999999977310E-01     0.0000000000000000E+00     0.0000000000000000E+00 
    1.8749999999959341E-01     0.0000000000000000E+00     0.0000000000000000E+00 
    2.4999999999941089E-01     0.0000000000000000E+00     0.0000000000000000E+00 
    3.1249999999922851E-01     0.0000000000000000E+00     0.0000000000000000E+00 
    3.7499999999904610E-01     0.0000000000000000E+00     0.0000000000000000E+00 
    4.3749999999886358E-01     0.0000000000000000E+00     0.0000000000000000E+00 
    4.9999999999869210E-01     0.0000000000000000E+00     0.0000000000000000E+00 
    5.6249999999884603E-01     0.0000000000000000E+00     0.0000000000000000E+00 
    6.2499999999901090E-01     0.0000000000000000E+00     0.0000000000000000E+00 
    6.8749999999917577E-01     0.0000000000000000E+00     0.0000000000000000E+00 
    7.4999999999934064E-01     0.0000000000000000E+00     0.0000000000000000E+00 
    8.1249999999950551E-01     0.0000000000000000E+00     0.0000000000000000E+00 
    8.7499999999967026E-01     0.0000000000000000E+00     0.0000000000000000E+00 
    9.3749999999983513E-01     0.0000000000000000E+00     0.0000000000000000E+00 
    1.0000000000000000E+00     6.2499999999872928E-02     0.0000000000000000E+00 
    1.0000000000000000E+00     1.2499999999977310E-01     0.0000000000000000E+00 
    1.0000000000000000E+00     1.8749999999959341E-01     0.0000000000000000E+00 
    1.0000000000000000E+00     2.4999999999941089E-01     0.0000000000000000E+00 
    1.0000000000000000E+00     3.1249999999922851E-01     0.0000000000000000E+00 
    1.0000000000000000E+00     3.7499999999904610E-01     0.0000000000000000E+00 
    1.0000000000000000E+00     4.3749999999886358E-01     0.0000000000000000E+00 
    1.0000000000000000E+00     4.9999999999869210E-01     0.0000000000000000E+00 
    1.0000000000000000E+00     5.6249999999884603E-01     0.0000000000000000E+00 
    1.0000000000000000E+00     6.2499999999901090E-01     0.0000000000000000E+00 
    1.0000000000000000E+00     6.8749999999917577E-01     0.0000000000000000E+00 
    1.0000000000000000E+00     7.4999999999934064E-01     0.0000000000000000E+00 
    1.0000000000000000E+00     8.1249999999950551E-01     0.0000000000000000E+00 
    1.0000000000000000E+00     8.7499999999967026E-01     0.0000000000000000E+00 
    1.0000000000000000E+00     9.3749999999983513E-01     0.0000000000000000E+00 
    9.3749999999973976E-01     1.0000000000000000E+00     0.0000000000000000E+00 
    8.7499999999950118E-01     1.0000000000000000E+00     0.0000000000000000E+00 
    8.1249999999991318E-01     1.0000000000000000E+00     0.0000000000000000E+00 
    7.5000000000034706E-01     1.0000000000000000E+00     0.0000000000000000E+00 
    6.8750000000078049E-01     1.0000000000000000E+00     0.0000000000000000E+00 
    6.2500000000121403E-01     1.0000000000000000E+00     0.0000000000000000E+00 
    5.6250000000164757E-01     1.0000000000000000E+00     0.0000000000000000E+00 
    5.0000000000205946E-01     1.0000000000000000E+00     0.0000000000000000E+00 
    4.3750000000182099E-01     1.0000000000000000E+00     0.0000000000000000E+00 
    3.7500000000156092E-01     1.0000000000000000E+00     0.0000000000000000E+00 
    3.1250000000130068E-01     1.0000000000000000E+00     0.0000000000000000E+00 
    2.5000000000104050E-01     1.0000000000000000E+00     0.0000000000000000E+00 
    1.8750000000078040E-01     1.0000000000000000E+00     0.0000000000000000E+00 
    1.2500000000052031E-01     1.0000000000000000E+00     0.0000000000000000E+00 
    6.2500000000260125E-02     1.0000000000000000E+00     0.0000000000000000E+00 
    0.0000000000000000E+00     9.3749999999973976E-01     0.0000000000000000E+00 
    0.0000000000000000E+00     8.7499999999950118E-01     0.0000000000000000E+00 
    0.0000000000000000E+00     8.1249999999991318E-01     0.0000000000000000E+00 
    0.0000000000000000E+00     7.5000000000034706E-01     0.0000000000000000E+00 
    0.0000000000000000E+00     6.8750000000078049E-01     0.0000000000000000E+00 
    0.0000000000000000E+00     6.2500000000121403E-01     0.0000000000000000E+00 
    0.0000000000000000E+00     5.6250000000164757E-01     0.0000000000000000E+00 
    0.0000000000000000E+00     5.0000000000205946E-01     0.0000000000000000E+00 
    0.0000000000000000E+00     4.3750000000182099E-01     0.0000000000000000E+00 
    0.0000000000000000E+00     3.7500000000156092E-01     0.0000000000000000E+00 
    0.0000000000000000E+00     3.1250000000130068E-01     0.0000000000000000E+00 
    0.0000000000000000E+00     2.5000000000104050E-01     0.0000000000000000E+00 
    0.0000000000000000E+00     1.8750000000078040E-01     0.0000000000000000E+00 
    0.0000000000000000E+00     1.2500000000052031E-01     0.0000000000000000E+00 
    0.0000000000000000E+00     6.2500000000260125E-02     0.0000000000000000E+00 
    6.2499999999897131E-02     6.2500000000235922E-02     0.0000000000000000E+00 
    6.2499999999921327E-02     1.2500000000047351E-01     0.0000000000000000E+00 
    6.2499999999945530E-02     1.8750000000070621E-01     0.0000000000000000E+00 
    6.2499999999969733E-02     2.5000000000093858E-01     0.0000000000000000E+00 
    6.2499999999993928E-02     3.1250000000117117E-01     0.0000000000000000E+00 
    6.2500000000018124E-02     3.7500000000140382E-01     0.0000000000000000E+00 
    6.2500000000042327E-02     4.3750000000163619E-01     0.0000000000000000E+00 
    6.2500000000066530E-02     5.0000000000184897E-01     0.0000000000000000E+00 
    6.2500000000090733E-02     5.6250000000147260E-01     0.0000000000000000E+00 
    6.2500000000114922E-02     6.2500000000107636E-01     0.0000000000000000E+00 
    6.2500000000139125E-02     6.8750000000068034E-01     0.0000000000000000E+00 
    6.2500000000163328E-02     7.5000000000028411E-01     0.0000000000000000E+00 
    6.2500000000187531E-02     8.1249999999988787E-01     0.0000000000000000E+00 
    6.2500000000211720E-02     8.7499999999951172E-01     0.0000000000000000E+00 
    6.2500000000235922E-02     9.3749999999974565E-01     0.0000000000000000E+00 
    1.2499999999981980E-01     6.2500000000211733E-02     0.0000000000000000E+00 
    1.2499999999986650E-01     1.2500000000042691E-01     0.0000000000000000E+00 
    1.2499999999991319E-01     1.8750000000063199E-01     0.0000000000000000E+00 
    1.2499999999995989E-01     2.5000000000083678E-01     0.0000000000000000E+00 
    1.2500000000000661E-01     3.1250000000104172E-01     0.0000000000000000E+00 
    1.2500000000005329E-01     3.7500000000124661E-01     0.0000000000000000E+00 
    1.2500000000010000E-01     4.3750000000145117E-01     0.0000000000000000E+00 
    1.2500000000014669E-01     5.0000000000163858E-01     0.0000000000000000E+00 
    1.2500000000019340E-01     5.6250000000129741E-01     0.0000000000000000E+00 
    1.2500000000024011E-01     6.2500000000093847E-01     0.0000000000000000E+00 
    1.2500000000028680E-01     6.8750000000057998E-01     0.0000000000000000E+00 
    1.2500000000033351E-01     7.5000000000022127E-01     0.0000000000000000E+00 
    1.2500000000038020E-01     8.1249999999986211E-01     0.0000000000000000E+00 
    1.2500000000042691E-01     8.7499999999952238E-01     0.0000000000000000E+00 
    1.2500000000047359E-01     9.3749999999975164E-01     0.0000000000000000E+00 
    1.8749999999966760E-01     6.2500000000187531E-02     0.0000000000000000E+00 
    1.8749999999974179E-01     1.2500000000038020E-01     0.0000000000000000E+00 
    1.8749999999981601E-01     1.8750000000055780E-01     0.0000000000000000E+00 
    1.8749999999989009E-01     2.5000000000073502E-01     0.0000000000000000E+00 
    1.8749999999996431E-01     3.1250000000091221E-01     0.0000000000000000E+00 
    1.8750000000003850E-01     3.7500000000108941E-01     0.0000000000000000E+00 
    1.8750000000011269E-01     4.3750000000126649E-01     0.0000000000000000E+00 
    1.8750000000018691E-01     5.0000000000142808E-01     0.0000000000000000E+00 
    1.8750000000026110E-01     5.6250000000112244E-01     0.0000000000000000E+00 
    1.8750000000033529E-01     6.2500000000080080E-01     0.0000000000000000E+00 
    1.8750000000040951E-01     6.8750000000047962E-01     0.0000000000000000E+00 
    1.8750000000048361E-01     7.5000000000015843E-01     0.0000000000000000E+00 
    1.8750000000055780E-01     8.1249999999983680E-01     0.0000000000000000E+00 
    1.8750000000063199E-01     8.7499999999953304E-01     0.0000000000000000E+00 
    1.8750000000070621E-01     9.3749999999975764E-01     0.0000000000000000E+00 
    2.4999999999951281E-01     6.2500000000163314E-02     0.0000000000000000E+00 
    2.4999999999961461E-01     1.2500000000033351E-01     0.0000000000000000E+00 
    2.4999999999971650E-01     1.8750000000048361E-01     0.0000000000000000E+00 
    2.4999999999981831E-01     2.5000000000063310E-01     0.0000000000000000E+00 
    2.4999999999992020E-01     3.1250000000078260E-01     0.0000000000000000E+00 
    2.5000000000002198E-01     3.7500000000093209E-01     0.0000000000000000E+00 
    2.5000000000012390E-01     4.3750000000108180E-01     0.0000000000000000E+00 
    2.5000000000022571E-01     5.0000000000121769E-01     0.0000000000000000E+00 
    2.5000000000032763E-01     5.6250000000094724E-01     0.0000000000000000E+00 
    2.5000000000042938E-01     6.2500000000066314E-01     0.0000000000000000E+00 
    2.5000000000053119E-01     6.8750000000037925E-01     0.0000000000000000E+00 
[...]
CELL_DATA 256 
SCALARS Pressure double 1 
LOOKUP_TABLE default 

    2.4015652815652491E+00 
    2.2933672176890139E+00 
    2.2209566592535488E+00 
    2.1653381912607146E+00 
    2.1186361673409908E+00 
    2.0773952574748034E+00 
    2.0400011665391795E+00 
    2.0057088862152730E+00 
    1.9742321298012093E+00 
    1.9455441583322097E+00 
    1.9197584387451860E+00 
    1.8970244314029308E+00 
    1.8773832615177650E+00 
    1.8605678897473927E+00 
    1.8470273367874890E+00 
    1.8399923998997365E+00 
    2.2933672176895978E+00 
    2.2474335465847237E+00 
    2.1973159253611558E+00 
    2.1508210498119484E+00 
    2.1083724286097536E+00 
    2.0693151164924823E+00 
    2.0330967695402675E+00 
    1.9994267822589225E+00 
    1.9682388033457889E+00 
    1.9396274025572284E+00 
    1.9137829919023241E+00 
    1.8909101834630730E+00 
    1.8710901087504381E+00 
    1.8540747380606450E+00 
    1.8403594075309868E+00 
    1.8332372626388009E+00 
    2.2209566592543939E+00 
    2.1973159253615671E+00 
    2.1634612449436363E+00 
    2.1266880927622376E+00 
    2.0898925174317093E+00 
    2.0541277267277200E+00 
    2.0198026177760995E+00 
    1.9871551527905702E+00 
    1.9564217972503037E+00 
    1.9278853480446345E+00 
    1.9018667880099889E+00 
    1.8786711806205572E+00 
    1.8584583322843071E+00 
    1.8410282867218279E+00 
    1.8269576480367955E+00 
    1.8196539559210030E+00 
    2.1653381912617506E+00 
    2.1508210498126483E+00 
    2.1266880927625711E+00 
    2.0974172491468561E+00 
    2.0657856139831519E+00 
    2.0333612970080446E+00 
    2.0010592096087678E+00 
    1.9694937898833209E+00 
    1.9391668659712646E+00 
    1.9105547869818202E+00 
    1.8841317560951181E+00 
    1.8603346106777310E+00 
    1.8394378694750690E+00 
    1.8213248379556928E+00 
    1.8066763935758445E+00 
    1.7990701068746255E+00 
    2.1186361673421876E+00 
    2.1083724286106675E+00 
    2.0898925174323013E+00 
    2.0657856139834307E+00 
    2.0381558591973157E+00 
    2.0085095744996657E+00 
    1.9779132595665876E+00 
    1.9471745737117796E+00 
    1.9169765010013118E+00 
    1.8879584462496273E+00 
    1.8607481314841003E+00 
    1.8359348368146866E+00 
    1.8139432299714013E+00 
    1.7947821557342354E+00 
    1.7792572172412218E+00 
    1.7711853256084005E+00 
    2.0773952574761467E+00 
    2.0693151164935699E+00 
    2.0541277267285198E+00 
    2.0333612970085544E+00 
    2.0085095744999077E+00 
    1.9808345436174286E+00 
    1.9513641139720341E+00 
    1.9209629358671425E+00 
    1.8904123159029862E+00 
    1.8604726676466972E+00 
    1.8319143928628525E+00 
    1.8054949041435011E+00 
    1.7818286590586982E+00 
    1.7611063549281858E+00 
    1.7442870696860007E+00 
    1.7355232269864136E+00 
    2.0400011665406548E+00 
    2.0330967695414994E+00 
    2.0198026177770676E+00 
    2.0010592096094704E+00 
    1.9779132595670403E+00 
    1.9513641139722537E+00 
    1.9223197037410096E+00 
    1.8916169255490378E+00 
    1.8600688339843690E+00 
    1.8285142498350222E+00 
    1.7978500653204006E+00 
    1.7690157516918970E+00 
    1.7428639186102659E+00 
    1.7198472045529558E+00 
    1.7011344941655826E+00 
    1.6913568965376766E+00 
    2.0057088862168504E+00 
    1.9994267822602654E+00 
    1.9871551527916693E+00 
    1.9694937898841807E+00 
    1.9471745737124135E+00 
    1.9209629358675611E+00 
    1.8916169255492488E+00 
    1.8598929325591538E+00 
    1.8265810441737267E+00 
    1.7925539557916863E+00 
    1.7588109441519200E+00 
    1.7264825293119861E+00 
    1.6967168824751533E+00 
    1.6703427757364717E+00 
    1.6488560895598467E+00 
    1.6375892696119427E+00 
    1.9742321298025913E+00 
    1.9682388033469831E+00 
    1.9564217972513136E+00 
    1.9391668659721017E+00 
    1.9169765010019884E+00 
    1.8904123159035100E+00 
    1.8600688339847420E+00 
    1.8265810441739374E+00 
    1.7906616480394246E+00 
    1.7531610457278513E+00 
    1.7151371620079192E+00 
    1.6779019245740896E+00 
    1.6429553308555895E+00 
    1.6116564626801588E+00 
    1.5860544171938808E+00 
    1.5725413752645825E+00 
    1.9455441583332160E+00 
    1.9396274025581119E+00 
    1.9278853480454106E+00 
    1.9105547869825088E+00 
    1.8879584462502439E+00 
    1.8604726676472534E+00 
    1.8285142498355227E+00 
    1.7925539557921215E+00 
    1.7531610457281315E+00 
    1.7110814511381043E+00 
    1.6673471104737267E+00 
    1.6233930751630521E+00 
    1.5810932293903113E+00 
    1.5425163615847128E+00 
    1.5106458268847895E+00 
    1.4935359429462578E+00 
    1.9197584387458573E+00 
    1.9137829919029288E+00 
    1.9018667880105520E+00 
    1.8841317560956705E+00 
    1.8607481314846657E+00 
    1.8319143928634525E+00 
    1.7978500653210514E+00 
    1.7588109441526238E+00 
    1.7151371620085489E+00 
    1.6673471104740933E+00 
    1.6162914115938429E+00 
    1.5633680965518433E+00 
    1.5107349976245397E+00 
    1.4612975481036110E+00 
    1.4194897668144806E+00 
    1.3960820212212504E+00 
    1.8970244314033147E+00 
    1.8909101834634381E+00 
    1.8786711806209384E+00 
    1.8603346106781717E+00 
    1.8359348368152228E+00 
    1.8054949041441697E+00 
    1.7690157516927327E+00 
    1.7264825293130128E+00 
    1.6779019245751494E+00 
    1.6233930751638843E+00 
    1.5633680965523296E+00 
    1.4988478040981008E+00 
    1.4319213570335689E+00 
    1.3661865601004393E+00 
    1.3079786543650729E+00 
    1.2725916811177160E+00 
    1.8773832615179114E+00 
    1.8710901087506053E+00 
    1.8584583322845409E+00 
    1.8394378694754268E+00 
    1.8139432299719358E+00 
    1.7818286590594654E+00 
    1.7428639186113248E+00 
    1.6967168824765595E+00 
    1.6429553308571601E+00 
    1.5810932293917113E+00 
    1.5107349976256412E+00 
    1.4319213570342182E+00 
    1.3458199357227474E+00 
    1.2558247489084806E+00 
    1.1699620966121924E+00 
    1.1107671276552649E+00 
    1.8605678897473563E+00 
    1.8540747380606619E+00 
    1.8410282867219554E+00 
    1.8213248379560032E+00 
    1.7947821557348005E+00 
    1.7611063549290822E+00 
    1.7198472045542719E+00 
    1.6703427757383034E+00 
    1.6116564626823044E+00 
    1.5425163615867610E+00 
    1.4612975481054360E+00 
    1.3661865601018859E+00 
    1.2558247489093315E+00 
    1.1308459744699377E+00 
    9.9809916185686198E-01 
    8.8924766127074784E-01 
    1.8470273367874199E+00 
    1.8403594075309866E+00 
    1.8269576480369332E+00 
    1.8066763935762096E+00 
    1.7792572172419023E+00 
    1.7442870696870960E+00 
    1.7011344941672113E+00 
    1.6488560895621425E+00 
    1.5860544171966173E+00 
    1.5106458268874718E+00 
    1.4194897668169795E+00 
    1.3079786543672185E+00 
    1.1699620966137128E+00 
    9.9809916185738190E-01 
    7.8664992040075443E-01 
    5.6120107345334314E-01 
    1.8399923998996881E+00 
    1.8332372626388300E+00 
    1.8196539559211906E+00 
    1.7990701068750770E+00 
    1.7711853256092209E+00 
    1.7355232269877237E+00 
    1.6913568965396193E+00 
    1.6375892696146852E+00 
    1.5725413752678681E+00 
    1.4935359429495185E+00 
    1.3960820212243576E+00 
    1.2725916811204814E+00 
    1.1107671276573112E+00 
    8.8924766127137223E-01 
    5.6120107345257264E-01 
    0.0000000000000000E+00 

SCALARS Saturarion double 1 
LOOKUP_TABLE default 

    1.0000000000000000E+00 
    9.4418774740910860E-01 
    8.9714682107818466E-01 
    8.4885239440435023E-01 
    8.0147671374114193E-01 
    7.5604938197697247E-01 
    7.1269585542646341E-01 
    6.7102347916637173E-01 
    6.3030608347185224E-01 
    5.8946903989856370E-01 
    5.4680136836355264E-01 
    4.9899959262748972E-01 
    4.3809226716802824E-01 
    3.4106106347632809E-01 
    1.5490557710316219E-01 
    8.6705191574953863E-03 
    9.4418774740941491E-01 
    9.0806180594507924E-01 
    8.6723588336450630E-01 
    8.2458813218151072E-01 
    7.8203073049732874E-01 
    7.4053528335662078E-01 
    7.0035630495492329E-01 
    6.6126268385102360E-01 
    6.2266312815607316E-01 
    5.8357935555660201E-01 
    5.4235754054438523E-01 
    4.9570087490949744E-01 
    4.3553072879533761E-01 
    3.3830646187428010E-01 
    1.5045451106481975E-01 
    7.8868140755038209E-03 
    8.9714682107878896E-01 
    8.6723588336481738E-01 
    8.3231738397175181E-01 
    7.9531780429105980E-01 
    7.5787830325601757E-01 
    7.2084330074865566E-01 
    6.8448166745348205E-01 
    6.4863956849795223E-01 
    6.1281198961008720E-01 
    5.7609145930892847E-01 
    5.3686930244215059E-01 
    4.9185444504686843E-01 
    4.3287542124314282E-01 
    3.3589481057972065E-01 
    1.4683142396487073E-01 
    7.3044074133531206E-03 
    8.4885239440524152E-01 
    8.2458813218210014E-01 
    7.9531780429135868E-01 
    7.6375400713911956E-01 
    7.3135003380523789E-01 
    6.9885555073270145E-01 
    6.6652806046147361E-01 
    6.3424799727337178E-01 
    6.0155801973103851E-01 
    5.6759274792050884E-01 
    5.3077012757705844E-01 
    4.8779928633804814E-01 
    4.3043447597876699E-01 
    3.3421378870900903E-01 
    1.4475766648585725E-01 
    7.0190893586777360E-03 
    8.0147671374231011E-01 
    7.8203073049821470E-01 
    7.5787830325656969E-01 
    7.3135003380549846E-01 
    7.0371317888288076E-01 
    6.7563302606883446E-01 
    6.4734574158715164E-01 
    6.1874370599937845E-01 
    5.8939264703689187E-01 
    5.5844769977142750E-01 
    5.2433807199223792E-01 
    4.8377074322664509E-01 
    4.2845674427721864E-01 
    3.3365083697185610E-01 
    1.4504570349082779E-01 
    7.1490222088878624E-03 
    7.5604938197839189E-01 
    7.4053528335771457E-01 
    7.2084330074942371E-01 
    6.9885555073317995E-01 
    6.7563302606905618E-01 
    6.5174880483710540E-01 
    6.2740757880864162E-01 
    6.0250025458726586E-01 
    5.7660151257067704E-01 
    5.4887448623121238E-01 
    5.1775189788102827E-01 
    4.7994517154434213E-01 
    4.2717455066497029E-01 
    3.3464116951796119E-01 
    1.4865521809465854E-01 
    7.8963536503355719E-03 
    7.1269585542809633E-01 
    7.0035630495621626E-01 
    6.8448166745444550E-01 
    6.6652806046214108E-01 
    6.4734574158757197E-01 
    6.2740757880883447E-01 
    6.0687849402438754E-01 
    5.8564022812330596E-01 
    5.6327012838244550E-01 
    5.3893531938478634E-01 
    5.1107333463994953E-01 
    4.7641877815047257E-01 
    4.2678115463890148E-01 
    3.3763387254880534E-01 
    1.5663525358720490E-01 
    9.6551326148048670E-03 
    6.7102347916819249E-01 
    6.6126268385249554E-01 
    6.4863956849908999E-01 
    6.3424799727421743E-01 
    6.1874370599996809E-01 
    6.0250025458762224E-01 
    5.8564022812346217E-01 
    5.6803446447963890E-01 
    5.4926363346493090E-01 
    5.2850285922697371E-01 
    5.0420525183348408E-01 
    4.7316088509660437E-01 
    4.2737885228214822E-01 
    3.4301715584111736E-01 
    1.6994574412739699E-01 
    1.3228787727626961E-02 
    6.3030608347331918E-01 
    6.2266312815726388E-01 
    6.1281198961103245E-01 
    6.0155801973176337E-01 
    5.8939264703740735E-01 
    5.7660151257101566E-01 
    5.6327012838263424E-01 
    5.4926363346500351E-01 
    5.3417388051638015E-01 
    5.1719616212696451E-01 
    4.9681966484376444E-01 
    4.6993572715786158E-01 
    4.2889153951811282E-01 
    3.5100239867152688E-01 
    1.8913154251893188E-01 
    2.0254452493618250E-02 
    5.8946903989969923E-01 
    5.8357935555753548E-01 
    5.7609145930968697E-01 
    5.6759274792107939E-01 
    5.5844769977184494E-01 
    5.4887448623149526E-01 
    5.3893531938496531E-01 
    5.2850285922706852E-01 
    5.1719616212698694E-01 
    5.0425172266671003E-01 
    4.8822519292080330E-01 
    4.6616660170638713E-01 
    4.3091934295700379E-01 
    3.6145555227531007E-01 
    2.1400201521431439E-01 
    3.3905842703625497E-02 
    5.4680136836437510E-01 
    5.4235754054507057E-01 
    5.3686930244270625E-01 
    5.3077012757748354E-01 
    5.2433807199254190E-01 
    5.1775189788122988E-01 
    5.1107333464006877E-01 
    5.0420525183354148E-01 
    4.9681966484374523E-01 
    4.8822519292076666E-01 
    4.7708370335468792E-01 
    4.6066804289850838E-01 
    4.3247770397236118E-01 
    3.7363381564179160E-01 
    2.4364413232370777E-01 
    5.9433429892793030E-02 
    4.9899959262799964E-01 
    4.9570087490991455E-01 
    4.9185444504719816E-01 
    4.8779928633828668E-01 
    4.8377074322679214E-01 
    4.7994517154441374E-01 
    4.7641877815048089E-01 
    4.7316088509656185E-01 
    4.6993572715774695E-01 
    4.6616660170625290E-01 
    4.6066804289840979E-01 
    4.5099507592336047E-01 
    4.3143171968323357E-01 
    3.8567986282711714E-01 
    2.7651509389643475E-01 
    1.0162535572956699E-01 
    4.3809226716817773E-01 
    4.3553072879543558E-01 
    4.3287542124319089E-01 
    4.3043447597876361E-01 
    4.2845674427715036E-01 
    4.2717455066484089E-01 
    4.2678115463871225E-01 
    4.2737885228190059E-01 
    4.2889153951779796E-01 
    4.3091934295667444E-01 
    4.3247770397207674E-01 
    4.3143171968305821E-01 
    4.2287976980918029E-01 
    3.9334142820467866E-01 
    3.0945590556418495E-01 
    1.5607648548679198E-01 
    3.4106106347593418E-01 
    3.3830646187388597E-01 
    3.3589481057933024E-01 
    3.3421378870860297E-01 
    3.3365083697141446E-01 
    3.3464116951746731E-01 
    3.3763387254823946E-01 
    3.4301715584046144E-01 
    3.5100239867080302E-01 
    3.6145555227459031E-01 
    3.7363381564115744E-01 
    3.8567986282665073E-01 
    3.9334142820444323E-01 
    3.8570782822429817E-01 
    3.3427253434750764E-01 
    2.1168703970179481E-01 
    1.5490557710310821E-01 
    1.5045451106473623E-01 
    1.4683142396476903E-01 
    1.4475766648568858E-01 
    1.4504570349054369E-01 
    1.4865521809420340E-01 
    1.5663525358651673E-01 
    1.6994574412641622E-01 
    1.8913154251771994E-01 
    2.1400201521303022E-01 
    2.4364413232251489E-01 
    2.7651509389545986E-01 
    3.0945590556352132E-01 
    3.3427253434718396E-01 
    3.2845670736439525E-01 
    2.5467786855206298E-01 
    8.6705191575062630E-03 
    7.8868140755072331E-03 
    7.3044074133520424E-03 
    7.0190893586634991E-03 
    7.1490222088513855E-03 
    7.8963536502616397E-03 
    9.6551326146631263E-03 
    1.3228787727352151E-02 
    2.0254452493071506E-02 
    3.3905842702741620E-02 
    5.9433429891551724E-02 
    1.0162535572825465E-01 
    1.5607648548590139E-01 
    2.1168703970141786E-01 
    2.5467786855183794E-01 
    2.5214716485088384E-01 
