# vtk DataFile Version 2.0
Pressure Field Data 
ASCII 
DATASET UNSTRUCTURED_GRID 

POINTS 289 double 

    0.0000000000000000E+00     0.0000000000000000E+00     0.0000000000000000E+00 
    1.0000000000000000E+00     0.0000000000000000E+00     0.0000000000000000E+00 
    1.0000000000000000E+00     1.0000000000000000E+00     0.0000000000000000E+00 
    0.0000000000000000E+00     1.0000000000000000E+00     0.0000000000000000E+00 
    6.2499999999872928E-02     0.0000000000000000E+00     0.0000000000000000E+00 
    1.2499999999977310E-01     0.0000000000000000E+00     0.0000000000000000E+00 
    1.8749999999959341E-01     0.0000000000000000E+00     0.0000000000000000E+00 
    2.4999999999941089E-01     0.0000000000000000E+00     0.0000000000000000E+00 
    3.1249999999922851E-01     0.0000000000000000E+00     0.0000000000000000E+00 
    3.7499999999904610E-01     0.0000000000000000E+00     0.0000000000000000E+00 
    4.3749999999886358E-01     0.0000000000000000E+00     0.0000000000000000E+00 
    4.9999999999869210E-01     0.0000000000000000E+00     0.0000000000000000E+00 
    5.6249999999884603E-01     0.0000000000000000E+00     0.0000000000000000E+00 
    6.2499999999901090E-01     0.0000000000000000E+00     0.0000000000000000E+00 
    6.8749999999917577E-01     0.0000000000000000E+00     0.0000000000000000E+00 
    7.4999999999934064E-01     0.0000000000000000E+00     0.0000000000000000E+00 
    8.1249999999950551E-01     0.0000000000000000E+00     0.0000000000000000E+00 
    8.7499999999967026E-01     0.0000000000000000E+00     0.0000000000000000E+00 
    9.3749999999983513E-01     0.0000000000000000E+00     0.0000000000000000E+00 
    1.0000000000000000E+00     6.2499999999872928E-02     0.0000000000000000E+00 
    1.0000000000000000E+00     1.2499999999977310E-01     0.0000000000000000E+00 
    1.0000000000000000E+00     1.8749999999959341E-01     0.0000000000000000E+00 
    1.0000000000000000E+00     2.4999999999941089E-01     0.0000000000000000E+00 
    1.0000000000000000E+00     3.1249999999922851E-01     0.0000000000000000E+00 
    1.0000000000000000E+00     3.7499999999904610E-01     0.0000000000000000E+00 
    1.0000000000000000E+00     4.3749999999886358E-01     0.0000000000000000E+00 
    1.0000000000000000E+00     4.9999999999869210E-01     0.0000000000000000E+00 
    1.0000000000000000E+00     5.6249999999884603E-01     0.0000000000000000E+00 
    1.0000000000000000E+00     6.2499999999901090E-01     0.0000000000000000E+00 
    1.0000000000000000E+00     6.8749999999917577E-01     0.0000000000000000E+00 
    1.0000000000000000E+00     7.4999999999934064E-01     0.0000000000000000E+00 
    1.0000000000000000E+00     8.1249999999950551E-01     0.0000000000000000E+00 
    1.0000000000000000E+00     8.7499999999967026E-01     0.0000000000000000E+00 
    1.0000000000000000E+00     9.3749999999983513E-01     0.0000000000000000E+00 
    9.3749999999973976E-01     1.0000000000000000E+00     0.0000000000000000E+00 
    8.7499999999950118E-01     1.0000000000000000E+00     0.0000000000000000E+00 
    8.1249999999991318E-01     1.0000000000000000E+00     0.0000000000000000E+00 
    7.5000000000034706E-01     1.0000000000000000E+00     0.0000000000000000E+00 
    6.8750000000078049E-01     1.0000000000000000E+00     0.0000000000000000E+00 
    6.2500000000121403E-01     1.0000000000000000E+00     0.0000000000000000E+00 
    5.6250000000164757E-01     1.0000000000000000E+00     0.0000000000000000E+00 
    5.0000000000205946E-01     1.0000000000000000E+00     0.0000000000000000E+00 
    4.3750000000182099E-01     1.0000000000000000E+00     0.0000000000000000E+00 
    3.7500000000156092E-01     1.0000000000000000E+00     0.0000000000000000E+00 
    3.1250000000130068E-01     1.0000000000000000E+00     0.0000000000000000E+00 
    2.5000000000104050E-01     1.0000000000000000E+00     0.0000000000000000E+00 
    1.8750000000078040E-01     1.0000000000000000E+00     0.0000000000000000E+00 
    1.2500000000052031E-01     1.0000000000000000E+00     0.0000000000000000E+00 
    6.2500000000260125E-02     1.0000000000000000E+00     0.0000000000000000E+00 
    0.0000000000000000E+00     9.3749999999973976E-01     0.0000000000000000E+00 
    0.0000000000000000E+00     8.7499999999950118E-01     0.0000000000000000E+00 
    0.0000000000000000E+00     8.1249999999991318E-01     0.0000000000000000E+00 
    0.0000000000000000E+00     7.5000000000034706E-01     0.0000000000000000E+00 
    0.0000000000000000E+00     6.8750000000078049E-01     0.0000000000000000E+00 
    0.0000000000000000E+00     6.2500000000121403E-01     0.0000000000000000E+00 
    0.0000000000000000E+00     5.6250000000164757E-01     0.0000000000000000E+00 
    0.0000000000000000E+00     5.0000000000205946E-01     0.0000000000000000E+00 
    0.0000000000000000E+00     4.3750000000182099E-01     0.0000000000000000E+00 
    0.0000000000000000E+00     3.7500000000156092E-01     0.0000000000000000E+00 
    0.0000000000000000E+00     3.1250000000130068E-01     0.0000000000000000E+00 
    0.0000000000000000E+00     2.5000000000104050E-01     0.0000000000000000E+00 
    0.0000000000000000E+00     1.8750000000078040E-01     0.0000000000000000E+00 
    0.0000000000000000E+00     1.2500000000052031E-01     0.0000000000000000E+00 
    0.0000000000000000E+00     6.2500000000260125E-02     0.0000000000000000E+00 
    6.2499999999897131E-02     6.2500000000235922E-02     0.0000000000000000E+00 
    6.2499999999921327E-02     1.2500000000047351E-01     0.0000000000000000E+00 
    6.2499999999945530E-02     1.8750000000070621E-01     0.0000000000000000E+00 
    6.2499999999969733E-02     2.5000000000093858E-01     0.0000000000000000E+00 
    6.2499999999993928E-02     3.1250000000117117E-01     0.0000000000000000E+00 
    6.2500000000018124E-02     3.7500000000140382E-01     0.0000000000000000E+00 
    6.2500000000042327E-02     4.3750000000163619E-01     0.0000000000000000E+00 
    6.2500000000066530E-02     5.0000000000184897E-01     0.0000000000000000E+00 
    6.2500000000090733E-02     5.6250000000147260E-01     0.0000000000000000E+00 
    6.2500000000114922E-02     6.2500000000107636E-01     0.0000000000000000E+00 
    6.2500000000139125E-02     6.8750000000068034E-01     0.0000000000000000E+00 
    6.2500000000163328E-02     7.5000000000028411E-01     0.0000000000000000E+00 
    6.2500000000187531E-02     8.1249999999988787E-01     0.0000000000000000E+00 
    6.2500000000211720E-02     8.7499999999951172E-01     0.0000000000000000E+00 
    6.2500000000235922E-02     9.3749999999974565E-01     0.0000000000000000E+00 
    1.2499999999981980E-01     6.2500000000211733E-02     0.0000000000000000E+00 
    1.2499999999986650E-01     1.2500000000042691E-01     0.0000000000000000E+00 
    1.2499999999991319E-01     1.8750000000063199E-01     0.0000000000000000E+00 
    1.2499999999995989E-01     2.5000000000083678E-01     0.0000000000000000E+00 
    1.2500000000000661E-01     3.1250000000104172E-01     0.0000000000000000E+00 
    1.2500000000005329E-01     3.7500000000124661E-01     0.0000000000000000E+00 
    1.2500000000010000E-01     4.3750000000145117E-01     0.0000000000000000E+00 
    1.2500000000014669E-01     5.0000000000163858E-01     0.0000000000000000E+00 
    1.2500000000019340E-01     5.6250000000129741E-01     0.0000000000000000E+00 
    1.2500000000024011E-01     6.2500000000093847E-01     0.0000000000000000E+00 
    1.2500000000028680E-01     6.8750000000057998E-01     0.0000000000000000E+00 
    1.2500000000033351E-01     7.5000000000022127E-01     0.0000000000000000E+00 
    1.2500000000038020E-01     8.1249999999986211E-01     0.0000000000000000E+00 
    1.2500000000042691E-01     8.7499999999952238E-01     0.0000000000000000E+00 
    1.2500000000047359E-01     9.3749999999975164E-01     0.0000000000000000E+00 
    1.8749999999966760E-01     6.2500000000187531E-02     0.0000000000000000E+00 
    1.8749999999974179E-01     1.2500000000038020E-01     0.0000000000000000E+00 
    1.8749999999981601E-01     1.8750000000055780E-01     0.0000000000000000E+00 
    1.8749999999989009E-01     2.5000000000073502E-01     0.0000000000000000E+00 
    1.8749999999996431E-01     3.1250000000091221E-01     0.0000000000000000E+00 
    1.8750000000003850E-01     3.7500000000108941E-01     0.0000000000000000E+00 
    1.8750000000011269E-01     4.3750000000126649E-01     0.0000000000000000E+00 
    1.8750000000018691E-01     5.0000000000142808E-01     0.0000000000000000E+00 
    1.8750000000026110E-01     5.6250000000112244E-01     0.0000000000000000E+00 
    1.8750000000033529E-01     6.2500000000080080E-01     0.0000000000000000E+00 
    1.8750000000040951E-01     6.8750000000047962E-01     0.0000000000000000E+00 
    1.8750000000048361E-01     7.5000000000015843E-01     0.0000000000000000E+00 
    1.8750000000055780E-01     8.1249999999983680E-01     0.0000000000000000E+00 
    1.8750000000063199E-01     8.7499999999953304E-01     0.0000000000000000E+00 
    1.8750000000070621E-01     9.3749999999975764E-01     0.0000000000000000E+00 
    2.4999999999951281E-01     6.2500000000163314E-02     0.0000000000000000E+00 
    2.4999999999961461E-01     1.2500000000033351E-01     0.0000000000000000E+00 
    2.4999999999971650E-01     1.8750000000048361E-01     0.0000000000000000E+00 
    2.4999999999981831E-01     2.5000000000063310E-01     0.0000000000000000E+00 
    2.4999999999992020E-01     3.1250000000078260E-01     0.0000000000000000E+00 
    2.5000000000002198E-01     3.7500000000093209E-01     0.0000000000000000E+00 
    2.5000000000012390E-01     4.3750000000108180E-01     0.0000000000000000E+00 
    2.5000000000022571E-01     5.0000000000121769E-01     0.0000000000000000E+00 
    2.5000000000032763E-01     5.6250000000094724E-01     0.0000000000000000E+00 
    2.5000000000042938E-01     6.2500000000066314E-01     0.0000000000000000E+00 
    2.5000000000053119E-01     6.8750000000037925E-01     0.0000000000000000E+00 
[...]
CELL_DATA 256 
SCALARS Pressure double 1 
LOOKUP_TABLE default 

    2.4100619810772863E+00 
    2.2999362861103303E+00 
    2.2246470502611992E+00 
    2.1657631858376201E+00 
    2.1155199302943375E+00 
    2.0705224103049655E+00 
    2.0291946875628168E+00 
    1.9908148520301783E+00 
    1.9551029635902506E+00 
    1.9220103609561234E+00 
    1.8915664574945454E+00 
    1.8636830880203397E+00 
    1.8378325762010979E+00 
    1.8141090095613184E+00 
    1.7974788511717819E+00 
    1.7896400349573325E+00 
    2.2999362861109320E+00 
    2.2524855539225856E+00 
    2.1998459507374513E+00 
    2.1502961791698265E+00 
    2.1044357378713019E+00 
    2.0617040069348476E+00 
    2.0216034412028860E+00 
    1.9838746829562945E+00 
    1.9484615691934262E+00 
    1.9154374733514425E+00 
    1.8849049489690459E+00 
    1.8568148775126032E+00 
    1.8306294225441884E+00 
    1.8065672963041197E+00 
    1.7897700077763288E+00 
    1.7818532497574815E+00 
    2.2246470502620865E+00 
    2.1998459507378869E+00 
    2.1638797281560134E+00 
    2.1243545758575988E+00 
    2.0843590220609811E+00 
    2.0450633409263386E+00 
    2.0069479923187732E+00 
    1.9702925970702827E+00 
    1.9353490624423180E+00 
    1.9023791813876965E+00 
    1.8716079895415521E+00 
    1.8430571821766912E+00 
    1.8161822494628284E+00 
    1.7914500418681742E+00 
    1.7742977360880596E+00 
    1.7662074471970979E+00 
    2.1657631858387267E+00 
    2.1502961791705779E+00 
    2.1243545758579585E+00 
    2.0926106725825728E+00 
    2.0580006237545687E+00 
    2.0222064219067559E+00 
    1.9862197302469848E+00 
    1.9507020864068647E+00 
    1.9161734096211354E+00 
    1.8830865889406316E+00 
    1.8518067012864206E+00 
    1.8224445176949222E+00 
    1.7944502813229088E+00 
    1.7686655468307519E+00 
    1.7509168118616367E+00 
    1.7425285892325484E+00 
    2.1155199302956347E+00 
    2.1044357378722953E+00 
    2.0843590220616264E+00 
    2.0580006237548738E+00 
    2.0275842131733968E+00 
    1.9947137617021493E+00 
    1.9605277141448552E+00 
    1.9258798768015131E+00 
    1.8914697309275081E+00 
    1.8579069530547969E+00 
    1.8256909898468083E+00 
    1.7950268014688431E+00 
    1.7653496226659127E+00 
    1.7380260673654184E+00 
    1.7193655165333315E+00 
    1.7105148218531119E+00 
    2.0705224103064412E+00 
    2.0617040069360435E+00 
    2.0450633409272192E+00 
    2.0222064219073186E+00 
    1.9947137617024169E+00 
    1.9639256933931706E+00 
    1.9309319450048947E+00 
    1.8966375394301471E+00 
    1.8618347176373082E+00 
    1.8272439491502055E+00 
    1.7934816220006069E+00 
    1.7608431972531153E+00 
    1.7287278323308741E+00 
    1.6992227742834491E+00 
    1.6792304911929405E+00 
    1.6696967133820353E+00 
    2.0291946875644573E+00 
    2.0216034412042583E+00 
    2.0069479923198505E+00 
    1.9862197302477675E+00 
    1.9605277141453585E+00 
    1.9309319450051385E+00 
    1.8983904078211702E+00 
    1.8637718981903384E+00 
    1.8278918970125648E+00 
    1.7915355596127391E+00 
    1.7554132627381878E+00 
    1.7199012889267555E+00 
    1.6843297350677320E+00 
    1.6517841619501301E+00 
    1.6298987068491233E+00 
    1.6193825544794307E+00 
    1.9908148520319531E+00 
    1.9838746829578071E+00 
    1.9702925970715204E+00 
    1.9507020864078324E+00 
    1.9258798768022245E+00 
    1.8966375394306172E+00 
    1.8637718981905744E+00 
    1.8280616583343003E+00 
    1.7902886631732706E+00 
    1.7512548452133661E+00 
    1.7117333533324763E+00 
    1.6721621707248209E+00 
    1.6317566549800560E+00 
    1.5950276793136038E+00 
    1.5704975871912672E+00 
    1.5585812085242288E+00 
    1.9551029635918242E+00 
    1.9484615691947846E+00 
    1.9353490624434651E+00 
    1.9161734096220833E+00 
    1.8914697309282706E+00 
    1.8618347176378964E+00 
    1.8278918970129812E+00 
    1.7902886631735035E+00 
    1.7497163456170421E+00 
    1.7069320275232214E+00 
    1.6627166019780386E+00 
    1.6175207996311842E+00 
    1.5704227333971523E+00 
    1.5280324828553671E+00 
    1.4998311330104079E+00 
    1.4858843538433595E+00 
    1.9220103609572812E+00 
    1.9154374733524560E+00 
    1.9023791813885833E+00 
    1.8830865889414126E+00 
    1.8579069530554908E+00 
    1.8272439491508263E+00 
    1.7915355596132931E+00 
    1.7512548452138443E+00 
    1.7069320275235278E+00 
    1.6591835003930402E+00 
    1.6086808403489850E+00 
    1.5557175739813298E+00 
    1.4995084926955042E+00 
    1.4497051469969677E+00 
    1.4163212583312041E+00 
    1.3992538293723218E+00 
    1.8915664574953233E+00 
    1.8849049489697420E+00 
    1.8716079895421942E+00 
    1.8518067012870425E+00 
    1.8256909898474385E+00 
    1.7934816220012693E+00 
    1.7554132627389010E+00 
    1.7117333533332444E+00 
    1.6627166019787234E+00 
    1.6086808403493817E+00 
    1.5499336124564624E+00 
    1.4860796761650230E+00 
    1.4180546802931193E+00 
    1.3590684245942377E+00 
    1.3178898614594126E+00 
    1.2955615591681284E+00 
    1.8636830880207804E+00 
    1.8568148775130147E+00 
    1.8430571821771151E+00 
    1.8224445176954052E+00 
    1.7950268014694279E+00 
    1.7608431972538421E+00 
    1.7199012889276630E+00 
    1.6721621707259380E+00 
    1.6175207996323338E+00 
    1.5557175739822242E+00 
    1.4860796761655393E+00 
    1.4082289701052253E+00 
    1.3274709083353609E+00 
    1.2563233039957409E+00 
    1.2015486946492475E+00 
    1.1695420427554843E+00 
    1.8378325762012431E+00 
    1.8306294225443513E+00 
    1.8161822494630633E+00 
    1.7944502813232790E+00 
    1.7653496226664778E+00 
    1.7287278323316966E+00 
    1.6843297350688780E+00 
    1.6317566549815885E+00 
    1.5704227333988641E+00 
    1.4995084926970217E+00 
    1.4180546802943137E+00 
    1.3274709083360674E+00 
    1.2333785352757973E+00 
    1.1423534916506197E+00 
    1.0627024419609488E+00 
    1.0115158873981305E+00 
    1.8141090095612233E+00 
    1.8065672963040846E+00 
    1.7914500418682662E+00 
    1.7686655468310517E+00 
    1.7380260673660073E+00 
    1.6992227742844157E+00 
    1.6517841619515736E+00 
    1.5950276793156304E+00 
    1.5280324828577441E+00 
    1.4497051469992259E+00 
    1.3590684245962250E+00 
    1.2563233039972750E+00 
    1.1423534916514866E+00 
    1.0188721381949088E+00 
    8.9539364503880270E-01 
    8.0230317747901525E-01 
    1.7974788511716393E+00 
    1.7897700077762657E+00 
    1.7742977360881562E+00 
    1.7509168118619942E+00 
    1.7193655165340516E+00 
    1.6792304911941360E+00 
    1.6298987068509252E+00 
    1.5704975871938196E+00 
    1.4998311330134382E+00 
    1.4163212583341376E+00 
    1.3178898614620798E+00 
    1.2015486946514615E+00 
    1.0627024419624689E+00 
    8.9539364503931851E-01 
    6.9769682251977427E-01 
    5.0000000000027889E-01 
    1.7896400349572121E+00 
    1.7818532497574513E+00 
    1.7662074471972513E+00 
    1.7425285892330051E+00 
    1.7105148218539932E+00 
    1.6696967133834759E+00 
    1.6193825544815867E+00 
    1.5585812085272766E+00 
    1.4858843538469819E+00 
    1.3992538293758476E+00 
    1.2955615591713778E+00 
    1.1695420427582504E+00 
    1.0115158874000989E+00 
    8.0230317747961333E-01 
    4.9999999999963241E-01 
    0.0000000000000000E+00 

SCALARS Saturarion double 1 
LOOKUP_TABLE default 

    1.0000000000000000E+00 
    9.3214437980244280E-01 
    8.7741419301854573E-01 
    8.2297979184747694E-01 
    7.7084533896241170E-01 
    7.2169939001412986E-01 
    6.7530686509718141E-01 
    6.3093593617510313E-01 
    5.8749229395205649E-01 
    5.4334896464262605E-01 
    4.9561155157711378E-01 
    4.3767665416522655E-01 
    3.5071672539245352E-01 
    1.8459248252739566E-01 
    1.8157618222941155E-02 
    2.5729467495392743E-05 
    9.3214437980277742E-01 
    8.8990929287464371E-01 
    8.4344825192000550E-01 
    7.9605303748373857E-01 
    7.4962810022139859E-01 
    7.0496009988446018E-01 
    6.6206347939891941E-01 
    6.2044472733611744E-01 
    5.7918658372347032E-01 
    5.3676962173414033E-01 
    4.9031563682607510E-01 
    4.3302323313503716E-01 
    3.4504069875234328E-01 
    1.7405590259162368E-01 
    1.4767765372356073E-02 
    1.5215993139888444E-05 
    8.7741419301918899E-01 
    8.4344825192035155E-01 
    8.0450680436134947E-01 
    7.6394719401147648E-01 
    7.2345649374670951E-01 
    6.8377925781269000E-01 
    6.4502393887716114E-01 
    6.0683314618062945E-01 
    5.6841145140752403E-01 
    5.2831775854626051E-01 
    4.8366710481713787E-01 
    4.2740526884946933E-01 
    3.3834966801711935E-01 
    1.6150578169236679E-01 
    1.1358234621192342E-02 
    7.7941674828875646E-06 
    8.2297979184846515E-01 
    7.9605303748438039E-01 
    7.6394719401178712E-01 
    7.2973186782021138E-01 
    6.9492359796383363E-01 
    6.6021917820829246E-01 
    6.2576471782455934E-01 
    5.9127612357655823E-01 
    5.5602944357901041E-01 
    5.1862458644914666E-01 
    4.7613592647677894E-01 
    4.2118824500520352E-01 
    3.3091450400806793E-01 
    1.4755254715802699E-01 
    8.3210014378430602E-03 
    3.5288031555137794E-06 
    7.7084533896367491E-01 
    7.4962810022230242E-01 
    7.2345649374728882E-01 
    6.9492359796414471E-01 
    6.6535393977215551E-01 
    6.3538202997014659E-01 
    6.0516025655112970E-01 
    5.7443970761560925E-01 
    5.4253219229713001E-01 
    5.0804728117852227E-01 
    4.6798554779346890E-01 
    4.1457654228154200E-01 
    3.2286389003190785E-01 
    1.3277468530213410E-01 
    5.8371815269349699E-03 
    1.4287797722545695E-06 
    7.2169939001563044E-01 
    7.0496009988564257E-01 
    6.8377925781351601E-01 
    6.6021917820881282E-01 
    6.3538202997036042E-01 
    6.0981732059887572E-01 
    5.8365967161521515E-01 
    5.5667077408960652E-01 
    5.2817522470974276E-01 
    4.9677051489406748E-01 
    4.5935744466417994E-01 
    4.0769770833452113E-01 
    3.1428749516926102E-01 
    1.1777404027593920E-01 
    3.9348618435872925E-03 
    5.1804567844581732E-07 
    6.7530686509892623E-01 
    6.6206347940026700E-01 
    6.4502393887822673E-01 
    6.2576471782528098E-01 
    6.0516025655158101E-01 
    5.8365967161543686E-01 
    5.6136333236694480E-01 
    5.3802860364692484E-01 
    5.1298002589143332E-01 
    4.8479096469084670E-01 
    4.5024606122086674E-01 
    4.0057261402929994E-01 
    3.0518606986390939E-01 
    1.0294131309881241E-01 
    2.5368751432945195E-03 
    1.6358524867474911E-07 
    6.3093593617704258E-01 
    6.2044472733768552E-01 
    6.0683314618185591E-01 
    5.9127612357747528E-01 
    5.7443970761625274E-01 
    5.5667077409000765E-01 
    5.3802860364710969E-01 
    5.1826012961655976E-01 
    4.9668573648674397E-01 
    4.7185186860992523E-01 
    4.4041989992460390E-01 
    3.9301987367342689E-01 
    2.9527258186912619E-01 
    8.8034568789356865E-02 
    1.5167759638331569E-03 
    4.0405715190292585E-08 
    5.8749229395361469E-01 
    5.7918658372476028E-01 
    5.6841145140855454E-01 
    5.5602944357979300E-01 
    5.4253219229770500E-01 
    5.2817522471013101E-01 
    5.1298002589165526E-01 
    4.9668573648683906E-01 
    4.7861288950473857E-01 
    4.5728624989559252E-01 
    4.2924084458021605E-01 
    3.8442612514361607E-01 
    2.8337753470440258E-01 
    7.1596066329978961E-02 
    7.5919457134208425E-04 
    5.6500809177059982E-09 
    5.4334896464383475E-01 
    5.3676962173515563E-01 
    5.2831775854707486E-01 
    5.1862458644978415E-01 
    5.0804728117900178E-01 
    4.9677051489440766E-01 
    4.8479096469106753E-01 
    4.7185186861004569E-01 
    4.5728624989562411E-01 
    4.3960512750767028E-01 
    4.1519668043553692E-01 
    3.7310918145835342E-01 
    2.6548607804224666E-01 
    5.0420912986392702E-02 
    2.3228640928048730E-04 
    1.6330416561568313E-10 
    4.9561155157799597E-01 
    4.9031563682682294E-01 
    4.8366710481774955E-01 
    4.7613592647725750E-01 
    4.6798554779382306E-01 
    4.5935744466443473E-01 
    4.5024606122103034E-01 
    4.4041989992470176E-01 
    4.2924084458021994E-01 
    4.1519668043549601E-01 
    3.9440072425859263E-01 
    3.5402707406667927E-01 
    2.2622112840373282E-01 
    2.1870134981427050E-02 
    1.4013644183126668E-05 
    2.0385587743130350E-14 
    4.3767665416581386E-01 
    4.3302323313553798E-01 
    4.2740526884986985E-01 
    4.2118824500551705E-01 
    4.1457654228176277E-01 
    4.0769770833466495E-01 
    4.0057261402937111E-01 
    3.9301987367344321E-01 
    3.8442612514349367E-01 
    3.7310918145813793E-01 
    3.5402707406645184E-01 
    3.0609772477570790E-01 
    1.1088037013504143E-01 
    1.1386482282174802E-03 
    5.9318198015397258E-10 
    1.1377211905447694E-29 
    3.5071672539277510E-01 
    3.4504069875260801E-01 
    3.3834966801733429E-01 
    3.3091450400821620E-01 
    3.2286389003198135E-01 
    3.1428749516924398E-01 
    3.0518606986378954E-01 
    2.9527258186888716E-01 
    2.8337753470378452E-01 
    2.6548607804124175E-01 
    2.2622112840242642E-01 
    1.1088037013437947E-01 
    2.9191255948187232E-03 
    7.8108821754280673E-09 
    5.0662010408162719E-27 
    1.1297138125761308E-86 
    1.8459248252746566E-01 
    1.7405590259166268E-01 
    1.6150578169239471E-01 
    1.4755254715800070E-01 
    1.3277468530201500E-01 
    1.1777404027570000E-01 
    1.0294131309844121E-01 
    8.8034568788865203E-02 
    7.1596066329099400E-02 
    5.0420912985508763E-02 
    2.1870134980968160E-02 
    1.1386482282009470E-03 
    7.8108821753946939E-09 
    1.5554803019560346E-26 
    2.9307899707219443E-85 
   6.9589356097989340E-281 
    1.8157618223075218E-02 
    1.4767765372449350E-02 
    1.1358234621256905E-02 
    8.3210014378751768E-03 
    5.8371815269403580E-03 
    3.9348618435746264E-03 
    2.5368751432726048E-03 
    1.5167759638104203E-03 
    7.5919457131541613E-04 
    2.3228640926930172E-04 
    1.4013644182377298E-05 
    5.9318198013442362E-10 
    5.0662010407467294E-27 
    2.9307899707035154E-85 
   2.9458753116222403E-280 
    0.0000000000000000E+00 
    2.5729467495996054E-05 
    1.5215993140197057E-05 
    7.7941674830300559E-06 
    3.5288031555609096E-06 
    1.4287797722628033E-06 
    5.1804567844338983E-07 
    1.6358524867182899E-07 
    4.0405715188951170E-08 
    5.6500809172414651E-09 
    1.6330416559722020E-10 
    2.0385587740646050E-14 
    1.1377211904591776E-29 
    1.1297138125393874E-86 
   6.9589356096949274E-281 
    0.0000000000000000E+00 
    0.0000000000000000E+00 
