# vtk DataFile Version 2.0
Pressure Field Data 
ASCII 
DATASET UNSTRUCTURED_GRID 

POINTS 289 double 

    0.0000000000000000E+00     0.0000000000000000E+00     0.0000000000000000E+00 
    1.0000000000000000E+00     0.0000000000000000E+00     0.0000000000000000E+00 
    1.0000000000000000E+00     1.0000000000000000E+00     0.0000000000000000E+00 
    0.0000000000000000E+00     1.0000000000000000E+00     0.0000000000000000E+00 
    6.2499999999872928E-02     0.0000000000000000E+00     0.0000000000000000E+00 
    1.2499999999977310E-01     0.0000000000000000E+00     0.0000000000000000E+00 
    1.8749999999959341E-01     0.0000000000000000E+00     0.0000000000000000E+00 
    2.4999999999941089E-01     0.0000000000000000E+00     0.0000000000000000E+00 
    3.1249999999922851E-01     0.0000000000000000E+00     0.0000000000000000E+00 
    3.7499999999904610E-01     0.0000000000000000E+00     0.0000000000000000E+00 
    4.3749999999886358E-01     0.0000000000000000E+00     0.0000000000000000E+00 
    4.9999999999869210E-01     0.0000000000000000E+00     0.0000000000000000E+00 
    5.6249999999884603E-01     0.0000000000000000E+00     0.0000000000000000E+00 
    6.2499999999901090E-01     0.0000000000000000E+00     0.0000000000000000E+00 
    6.8749999999917577E-01     0.0000000000000000E+00     0.0000000000000000E+00 
    7.4999999999934064E-01     0.0000000000000000E+00     0.0000000000000000E+00 
    8.1249999999950551E-01     0.0000000000000000E+00     0.0000000000000000E+00 
    8.7499999999967026E-01     0.0000000000000000E+00     0.0000000000000000E+00 
    9.3749999999983513E-01     0.0000000000000000E+00     0.0000000000000000E+00 
    1.0000000000000000E+00     6.2499999999872928E-02     0.0000000000000000E+00 
    1.0000000000000000E+00     1.2499999999977310E-01     0.0000000000000000E+00 
    1.0000000000000000E+00     1.8749999999959341E-01     0.0000000000000000E+00 
    1.0000000000000000E+00     2.4999999999941089E-01     0.0000000000000000E+00 
    1.0000000000000000E+00     3.1249999999922851E-01     0.0000000000000000E+00 
    1.0000000000000000E+00     3.7499999999904610E-01     0.0000000000000000E+00 
    1.0000000000000000E+00     4.3749999999886358E-01     0.0000000000000000E+00 
    1.0000000000000000E+00     4.9999999999869210E-01     0.0000000000000000E+00 
    1.0000000000000000E+00     5.6249999999884603E-01     0.0000000000000000E+00 
    1.0000000000000000E+00     6.2499999999901090E-01     0.0000000000000000E+00 
    1.0000000000000000E+00     6.8749999999917577E-01     0.0000000000000000E+00 
    1.0000000000000000E+00     7.4999999999934064E-01     0.0000000000000000E+00 
    1.0000000000000000E+00     8.1249999999950551E-01     0.0000000000000000E+00 
    1.0000000000000000E+00     8.7499999999967026E-01     0.0000000000000000E+00 
    1.0000000000000000E+00     9.3749999999983513E-01     0.0000000000000000E+00 
    9.3749999999973976E-01     1.0000000000000000E+00     0.0000000000000000E+00 
    8.7499999999950118E-01     1.0000000000000000E+00     0.0000000000000000E+00 
    8.1249999999991318E-01     1.0000000000000000E+00     0.0000000000000000E+00 
    7.5000000000034706E-01     1.0000000000000000E+00     0.0000000000000000E+00 
    6.8750000000078049E-01     1.0000000000000000E+00     0.0000000000000000E+00 
    6.2500000000121403E-01     1.0000000000000000E+00     0.0000000000000000E+00 
    5.6250000000164757E-01     1.0000000000000000E+00     0.0000000000000000E+00 
    5.0000000000205946E-01     1.0000000000000000E+00     0.0000000000000000E+00 
    4.3750000000182099E-01     1.0000000000000000E+00     0.0000000000000000E+00 
    3.7500000000156092E-01     1.0000000000000000E+00     0.0000000000000000E+00 
    3.1250000000130068E-01     1.0000000000000000E+00     0.0000000000000000E+00 
    2.5000000000104050E-01     1.0000000000000000E+00     0.0000000000000000E+00 
    1.8750000000078040E-01     1.0000000000000000E+00     0.0000000000000000E+00 
    1.2500000000052031E-01     1.0000000000000000E+00     0.0000000000000000E+00 
    6.2500000000260125E-02     1.0000000000000000E+00     0.0000000000000000E+00 
    0.0000000000000000E+00     9.3749999999973976E-01     0.0000000000000000E+00 
    0.0000000000000000E+00     8.7499999999950118E-01     0.0000000000000000E+00 
    0.0000000000000000E+00     8.1249999999991318E-01     0.0000000000000000E+00 
    0.0000000000000000E+00     7.5000000000034706E-01     0.0000000000000000E+00 
    0.0000000000000000E+00     6.8750000000078049E-01     0.0000000000000000E+00 
    0.0000000000000000E+00     6.2500000000121403E-01     0.0000000000000000E+00 
    0.0000000000000000E+00     5.6250000000164757E-01     0.0000000000000000E+00 
    0.0000000000000000E+00     5.0000000000205946E-01     0.0000000000000000E+00 
    0.0000000000000000E+00     4.3750000000182099E-01     0.0000000000000000E+00 
    0.0000000000000000E+00     3.7500000000156092E-01     0.0000000000000000E+00 
    0.0000000000000000E+00     3.1250000000130068E-01     0.0000000000000000E+00 
    0.0000000000000000E+00     2.5000000000104050E-01     0.0000000000000000E+00 
    0.0000000000000000E+00     1.8750000000078040E-01     0.0000000000000000E+00 
    0.0000000000000000E+00     1.2500000000052031E-01     0.0000000000000000E+00 
    0.0000000000000000E+00     6.2500000000260125E-02     0.0000000000000000E+00 
    6.2499999999897131E-02     6.2500000000235922E-02     0.0000000000000000E+00 
    6.2499999999921327E-02     1.2500000000047351E-01     0.0000000000000000E+00 
    6.2499999999945530E-02     1.8750000000070621E-01     0.0000000000000000E+00 
    6.2499999999969733E-02     2.5000000000093858E-01     0.0000000000000000E+00 
    6.2499999999993928E-02     3.1250000000117117E-01     0.0000000000000000E+00 
    6.2500000000018124E-02     3.7500000000140382E-01     0.0000000000000000E+00 
    6.2500000000042327E-02     4.3750000000163619E-01     0.0000000000000000E+00 
    6.2500000000066530E-02     5.0000000000184897E-01     0.0000000000000000E+00 
    6.2500000000090733E-02     5.6250000000147260E-01     0.0000000000000000E+00 
    6.2500000000114922E-02     6.2500000000107636E-01     0.0000000000000000E+00 
    6.2500000000139125E-02     6.8750000000068034E-01     0.0000000000000000E+00 
    6.2500000000163328E-02     7.5000000000028411E-01     0.0000000000000000E+00 
    6.2500000000187531E-02     8.1249999999988787E-01     0.0000000000000000E+00 
    6.2500000000211720E-02     8.7499999999951172E-01     0.0000000000000000E+00 
    6.2500000000235922E-02     9.3749999999974565E-01     0.0000000000000000E+00 
    1.2499999999981980E-01     6.2500000000211733E-02     0.0000000000000000E+00 
    1.2499999999986650E-01     1.2500000000042691E-01     0.0000000000000000E+00 
    1.2499999999991319E-01     1.8750000000063199E-01     0.0000000000000000E+00 
    1.2499999999995989E-01     2.5000000000083678E-01     0.0000000000000000E+00 
    1.2500000000000661E-01     3.1250000000104172E-01     0.0000000000000000E+00 
    1.2500000000005329E-01     3.7500000000124661E-01     0.0000000000000000E+00 
    1.2500000000010000E-01     4.3750000000145117E-01     0.0000000000000000E+00 
    1.2500000000014669E-01     5.0000000000163858E-01     0.0000000000000000E+00 
    1.2500000000019340E-01     5.6250000000129741E-01     0.0000000000000000E+00 
    1.2500000000024011E-01     6.2500000000093847E-01     0.0000000000000000E+00 
    1.2500000000028680E-01     6.8750000000057998E-01     0.0000000000000000E+00 
    1.2500000000033351E-01     7.5000000000022127E-01     0.0000000000000000E+00 
    1.2500000000038020E-01     8.1249999999986211E-01     0.0000000000000000E+00 
    1.2500000000042691E-01     8.7499999999952238E-01     0.0000000000000000E+00 
    1.2500000000047359E-01     9.3749999999975164E-01     0.0000000000000000E+00 
    1.8749999999966760E-01     6.2500000000187531E-02     0.0000000000000000E+00 
    1.8749999999974179E-01     1.2500000000038020E-01     0.0000000000000000E+00 
    1.8749999999981601E-01     1.8750000000055780E-01     0.0000000000000000E+00 
    1.8749999999989009E-01     2.5000000000073502E-01     0.0000000000000000E+00 
    1.8749999999996431E-01     3.1250000000091221E-01     0.0000000000000000E+00 
    1.8750000000003850E-01     3.7500000000108941E-01     0.0000000000000000E+00 
    1.8750000000011269E-01     4.3750000000126649E-01     0.0000000000000000E+00 
    1.8750000000018691E-01     5.0000000000142808E-01     0.0000000000000000E+00 
    1.8750000000026110E-01     5.6250000000112244E-01     0.0000000000000000E+00 
    1.8750000000033529E-01     6.2500000000080080E-01     0.0000000000000000E+00 
    1.8750000000040951E-01     6.8750000000047962E-01     0.0000000000000000E+00 
    1.8750000000048361E-01     7.5000000000015843E-01     0.0000000000000000E+00 
    1.8750000000055780E-01     8.1249999999983680E-01     0.0000000000000000E+00 
    1.8750000000063199E-01     8.7499999999953304E-01     0.0000000000000000E+00 
    1.8750000000070621E-01     9.3749999999975764E-01     0.0000000000000000E+00 
    2.4999999999951281E-01     6.2500000000163314E-02     0.0000000000000000E+00 
    2.4999999999961461E-01     1.2500000000033351E-01     0.0000000000000000E+00 
    2.4999999999971650E-01     1.8750000000048361E-01     0.0000000000000000E+00 
    2.4999999999981831E-01     2.5000000000063310E-01     0.0000000000000000E+00 
    2.4999999999992020E-01     3.1250000000078260E-01     0.0000000000000000E+00 
    2.5000000000002198E-01     3.7500000000093209E-01     0.0000000000000000E+00 
    2.5000000000012390E-01     4.3750000000108180E-01     0.0000000000000000E+00 
    2.5000000000022571E-01     5.0000000000121769E-01     0.0000000000000000E+00 
    2.5000000000032763E-01     5.6250000000094724E-01     0.0000000000000000E+00 
    2.5000000000042938E-01     6.2500000000066314E-01     0.0000000000000000E+00 
    2.5000000000053119E-01     6.8750000000037925E-01     0.0000000000000000E+00 
[...]
CELL_DATA 256 
SCALARS Pressure double 1 
LOOKUP_TABLE default 

    2.7761166438150053E+00 
    2.6508065419753288E+00 
    2.5507477400165595E+00 
    2.4633409412412366E+00 
    2.3814097505733631E+00 
    2.3011336357759680E+00 
    2.2191685458197901E+00 
    2.1317348857241027E+00 
    2.0502263029634626E+00 
    1.9858126158954641E+00 
    1.9333022023867259E+00 
    1.8900262536882282E+00 
    1.8556018361212288E+00 
    1.8298448715496174E+00 
    1.8126838073231824E+00 
    1.8041025387543470E+00 
    2.6508065419760687E+00 
    2.5906707322175686E+00 
    2.5159917334710773E+00 
    2.4395295235230350E+00 
    2.3628647849365012E+00 
    2.2851081060160729E+00 
    2.2036019329289824E+00 
    2.1167605693619582E+00 
    2.0383264853535374E+00 
    1.9759081041804472E+00 
    1.9240753080942499E+00 
    1.8811747225607849E+00 
    1.8469343831256928E+00 
    1.8212489712041902E+00 
    1.8041040116654967E+00 
    1.7955212701855134E+00 
    2.5507477400177843E+00 
    2.5159917334717101E+00 
    2.4614960993021349E+00 
    2.3974405449843519E+00 
    2.3279661647606633E+00 
    2.2537271746206202E+00 
    2.1725965891253574E+00 
    2.0886371383063862E+00 
    2.0160960486284258E+00 
    1.9565477389932613E+00 
    1.9059194686368579E+00 
    1.8636629453366040E+00 
    1.8297120026164133E+00 
    1.8041126184757164E+00 
    1.7869619979490219E+00 
    1.7783572601367028E+00 
    2.4633409412429201E+00 
    2.4395295235242132E+00 
    2.3974405449849403E+00 
    2.3430754996020351E+00 
    2.2798173009395963E+00 
    2.2079477147461897E+00 
    2.1280812567618885E+00 
    2.0510413887887760E+00 
    1.9852814220749815E+00 
    1.9285707474654947E+00 
    1.8793920149443037E+00 
    1.8378455875322364E+00 
    1.8041380635275044E+00 
    1.7785275021330229E+00 
    1.7612741015180986E+00 
    1.7525885122755924E+00 
    2.3814097505755143E+00 
    2.3628647849381799E+00 
    2.3279661647617922E+00 
    2.2798173009401586E+00 
    2.2199375364902858E+00 
    2.1493040611553695E+00 
    2.0752151684841817E+00 
    2.0074843173404782E+00 
    1.9472531774815582E+00 
    1.8930817956332484E+00 
    1.8452322562085350E+00 
    1.8041893263204236E+00 
    1.7704671618282215E+00 
    1.7445852250105700E+00 
    1.7270183937146879E+00 
    1.7181341751720158E+00 
    2.3011336357786401E+00 
    2.2851081060182761E+00 
    2.2537271746223073E+00 
    2.2079477147473385E+00 
    2.1493040611559429E+00 
    2.0838868351598223E+00 
    2.0198207681468370E+00 
    1.9597483359964964E+00 
    1.9033874436296909E+00 
    1.8512710250878444E+00 
    1.8042658879360831E+00 
    1.7632122997126076E+00 
    1.7289560324542765E+00 
    1.7023278423661590E+00 
    1.6840800731579975E+00 
    1.6747956195258333E+00 
    2.2191685458231163E+00 
    2.2036019329318344E+00 
    2.1725965891276795E+00 
    2.1280812567635805E+00 
    2.0752151684852129E+00 
    2.0198207681472935E+00 
    1.9641657266607266E+00 
    1.9089694077071995E+00 
    1.8552776099056969E+00 
    1.8043489731523081E+00 
    1.7573479707352813E+00 
    1.7154379521395668E+00 
    1.6798168259100164E+00 
    1.6516900388416138E+00 
    1.6321784370252415E+00 
    1.6221726102475882E+00 
    2.1317348857280813E+00 
    2.1167605693652982E+00 
    2.0886371383090121E+00 
    2.0510413887906904E+00 
    2.0074843173417793E+00 
    1.9597483359972885E+00 
    1.9089694077075687E+00 
    1.8566870114205767E+00 
    1.8044046151336832E+00 
    1.7534992868803827E+00 
    1.7053390697131205E+00 
    1.6613747122002969E+00 
    1.6231832802045199E+00 
    1.5924370500648715E+00 
    1.5707710258537024E+00 
    1.5595437741918470E+00 
    2.0502263029667325E+00 
    2.0383264853562615E+00 
    2.0160960486305979E+00 
    1.9852814220766670E+00 
    1.9472531774828334E+00 
    1.9033874436306095E+00 
    1.8552776099063013E+00 
    1.8044046151339979E+00 
    1.7521545523282336E+00 
    1.6999044895225122E+00 
    1.6491343090366275E+00 
    1.6015385467441032E+00 
    1.5591045326430333E+00 
    1.5241038553597559E+00 
    1.4989248421331052E+00 
    1.4856876864748323E+00 
    1.9858126158975509E+00 
    1.9759081041822448E+00 
    1.9565477389947856E+00 
    1.9285707474667748E+00 
    1.8930817956343193E+00 
    1.8512710250887412E+00 
    1.8043489731530566E+00 
    1.7534992868809889E+00 
    1.6999044895228814E+00 
    1.6448298098449186E+00 
    1.5897551301669213E+00 
    1.5365406330966469E+00 
    1.4875924482639991E+00 
    1.4459489965982710E+00 
    1.4151368008445913E+00 
    1.3985944431004198E+00 
    1.9333022023880346E+00 
    1.9240753080954018E+00 
    1.9059194686378846E+00 
    1.8793920149452481E+00 
    1.8452322562094357E+00 
    1.8042658879369742E+00 
    1.7573479707361868E+00 
    1.7053390697140454E+00 
    1.6491343090374180E+00 
    1.5897551301673640E+00 
    1.5285157686894983E+00 
    1.4672764072115787E+00 
    1.4087756307180741E+00 
    1.3569628819247377E+00 
    1.3170789215467464E+00 
    1.2949588419824034E+00 
    1.8900262536889385E+00 
    1.8811747225614379E+00 
    1.8636629453372469E+00 
    1.8378455875329256E+00 
    1.8041893263212079E+00 
    1.7632122997135304E+00 
    1.7154379521406642E+00 
    1.6613747122015872E+00 
    1.6015385467453840E+00 
    1.5365406330976199E+00 
    1.4672764072121294E+00 
    1.3952735963421030E+00 
    1.3232707854720049E+00 
    1.2560479788358569E+00 
    1.2012571614354639E+00 
    1.1692031613006793E+00 
    1.8556018361215023E+00 
    1.8469343831259839E+00 
    1.8297120026167821E+00 
    1.8041380635280231E+00 
    1.7704671618289529E+00 
    1.7289560324552813E+00 
    1.6798168259113522E+00 
    1.6231832802062320E+00 
    1.5591045326448794E+00 
    1.4875924482655933E+00 
    1.4087756307192896E+00 
    1.3232707854726988E+00 
    1.2329859359920086E+00 
    1.1427010865112299E+00 
    1.0626985840588536E+00 
    1.0113934804849565E+00 
    1.8298448715496147E+00 
    1.8212489712042554E+00 
    1.8041126184759235E+00 
    1.7785275021334614E+00 
    1.7445852250113203E+00 
    1.7023278423673029E+00 
    1.6516900388432367E+00 
    1.5924370500670562E+00 
    1.5241038553622277E+00 
    1.4459489966005550E+00 
    1.3569628819267034E+00 
    1.2560479788373611E+00 
    1.1427010865120839E+00 
    1.0190718471581763E+00 
    8.9544260780410645E-01 
    8.0227869609639557E-01 
    1.8126838073231384E+00 
    1.8041040116655402E+00 
    1.7869619979492402E+00 
    1.7612741015185989E+00 
    1.7270183937155694E+00 
    1.6840800731593659E+00 
    1.6321784370272110E+00 
    1.5707710258563952E+00 
    1.4989248421362129E+00 
    1.4151368008475431E+00 
    1.3170789215494008E+00 
    1.2012571614376619E+00 
    1.0626985840603660E+00 
    8.9544260780462070E-01 
    6.9772130390243192E-01 
    5.0000000000029154E-01 
    1.8041025387543275E+00 
    1.7955212701855920E+00 
    1.7783572601369804E+00 
    1.7525885122761939E+00 
    1.7181341751730597E+00 
    1.6747956195274456E+00 
    1.6221726102499110E+00 
    1.5595437741950338E+00 
    1.4856876864785376E+00 
    1.3985944431039772E+00 
    1.2949588419856553E+00 
    1.1692031613034393E+00 
    1.0113934804869202E+00 
    8.0227869609699176E-01 
    4.9999999999964434E-01 
    0.0000000000000000E+00 

SCALARS Saturarion double 1 
LOOKUP_TABLE default 

    1.0000000000000000E+00 
    8.3988242754210862E-01 
    7.4040638536017711E-01 
    6.5450418868510174E-01 
    5.7725614819158322E-01 
    5.0268783634619585E-01 
    4.1995153482210179E-01 
    2.9684943572109346E-01 
    8.5852033342505379E-02 
    1.2919107327773298E-03 
    1.6713371636502450E-08 
    6.3437647915374332E-21 
    2.5710545055782138E-52 
   1.0538050035935014E-131 
    0.0000000000000000E+00 
    0.0000000000000000E+00 
    8.3988242754259723E-01 
    7.6236361346414505E-01 
    6.8677375430759025E-01 
    6.1562973903159457E-01 
    5.4738975407009360E-01 
    4.7730349188852905E-01 
    3.9262562852241900E-01 
    2.4611969788186799E-01 
    3.8544920231491586E-02 
    1.1321900277944924E-04 
    2.3895227436365229E-11 
    1.5398319387152089E-28 
    8.7442835694914487E-73 
   4.2910576752722802E-187 
    0.0000000000000000E+00 
    0.0000000000000000E+00 
    7.4040638536117442E-01 
    6.8677375430805154E-01 
    6.2840672226467764E-01 
    5.6940912106588348E-01 
    5.0889805273824884E-01 
    4.4128758725262979E-01 
    3.4593358856103340E-01 
    1.4740250610059807E-01 
    5.4346786462643642E-03 
    4.1380533970267265E-07 
    4.7603351157034306E-18 
    5.7340979538255115E-47 
   1.1661538930166671E-123 
    0.0000000000000000E+00 
    0.0000000000000000E+00 
    0.0000000000000000E+00 
    6.5450418868650151E-01 
    6.1562973903250107E-01 
    5.6940912106631758E-01 
    5.1916937523088236E-01 
    4.6314226713627327E-01 
    3.9122820461465369E-01 
    2.5364361793411344E-01 
    3.3771416356093584E-02 
    4.5007309227686708E-05 
    4.9039439201098696E-13 
    8.1681360218242871E-35 
    1.2450251682285572E-94 
   1.1532869222866868E-260 
    0.0000000000000000E+00 
    0.0000000000000000E+00 
    0.0000000000000000E+00 
    5.7725614819337456E-01 
    5.4738975407144141E-01 
    5.0889805273915500E-01 
    4.6314226713676010E-01 
    4.0452041882835532E-01 
    3.0294853978140845E-01 
    7.7946838232140866E-02 
    4.2879595358770765E-04 
    1.0381057582138702E-10 
    1.8606987287714818E-29 
    1.3515154331894301E-82 
   1.8333942335509186E-234 
    0.0000000000000000E+00 
    0.0000000000000000E+00 
    0.0000000000000000E+00 
    0.0000000000000000E+00 
    5.0268783634854786E-01 
    4.7730349189048460E-01 
    4.4128758725421430E-01 
    3.9122820461594993E-01 
    3.0294853978249303E-01 
    1.0016325883221419E-01 
    1.0512741106620512E-03 
    8.1114489047610368E-10 
    1.5120829699649481E-27 
    1.4049150971597181E-78 
   3.6955195496528113E-226 
    0.0000000000000000E+00 
    0.0000000000000000E+00 
    0.0000000000000000E+00 
    0.0000000000000000E+00 
    0.0000000000000000E+00 
    4.1995153482558267E-01 
    3.9262562852567567E-01 
    3.4593358856432793E-01 
    2.5364361793800261E-01 
    7.7946838234167065E-02 
    1.0512741106843274E-03 
    1.3488523891102943E-09 
    5.5110630148450575E-27 
    2.1133251965694125E-77 
   9.4007720682772232E-224 
    0.0000000000000000E+00 
    0.0000000000000000E+00 
    0.0000000000000000E+00 
    0.0000000000000000E+00 
    0.0000000000000000E+00 
    0.0000000000000000E+00 
    2.9684943572790462E-01 
    2.4611969788896021E-01 
    1.4740250610694958E-01 
    3.3771416358222187E-02 
    4.2879595362032598E-04 
    8.1114489052335709E-10 
    5.5110630150020101E-27 
    3.8631497045262921E-77 
   4.1550024135625598E-223 
    0.0000000000000000E+00 
    0.0000000000000000E+00 
    0.0000000000000000E+00 
    0.0000000000000000E+00 
    0.0000000000000000E+00 
    0.0000000000000000E+00 
    0.0000000000000000E+00 
    8.5852033349136117E-02 
    3.8544920235129093E-02 
    5.4346786469413062E-03 
    4.5007309234848893E-05 
    1.0381057583895087E-10 
    1.5120829701456003E-27 
    2.1133251967028455E-77 
   4.1550024136696342E-223 
    0.0000000000000000E+00 
    0.0000000000000000E+00 
    0.0000000000000000E+00 
    0.0000000000000000E+00 
    0.0000000000000000E+00 
    0.0000000000000000E+00 
    0.0000000000000000E+00 
    0.0000000000000000E+00 
    1.2919107330647134E-03 
    1.1321900280798495E-04 
    4.1380533983089729E-07 
    4.9039439219736624E-13 
    1.8606987294654720E-29 
    1.4049150974966676E-78 
   9.4007720694617025E-224 
    0.0000000000000000E+00 
    0.0000000000000000E+00 
    0.0000000000000000E+00 
    0.0000000000000000E+00 
    0.0000000000000000E+00 
    0.0000000000000000E+00 
    0.0000000000000000E+00 
    0.0000000000000000E+00 
    0.0000000000000000E+00 
    1.6713371645832362E-08 
    2.3895227451284934E-11 
    4.7603351193423065E-18 
    8.1681360292346428E-35 
    1.3515154342687763E-82 
   3.6955195514768873E-226 
    0.0000000000000000E+00 
    0.0000000000000000E+00 
    0.0000000000000000E+00 
    0.0000000000000000E+00 
    0.0000000000000000E+00 
    0.0000000000000000E+00 
    0.0000000000000000E+00 
    0.0000000000000000E+00 
    0.0000000000000000E+00 
    0.0000000000000000E+00 
    6.3437648002913769E-21 
    1.5398319410861581E-28 
    5.7340979644869436E-47 
    1.2450251708801612E-94 
   1.8333942366702265E-234 
    0.0000000000000000E+00 
    0.0000000000000000E+00 
    0.0000000000000000E+00 
    0.0000000000000000E+00 
    0.0000000000000000E+00 
    0.0000000000000000E+00 
    0.0000000000000000E+00 
    0.0000000000000000E+00 
    0.0000000000000000E+00 
    0.0000000000000000E+00 
    0.0000000000000000E+00 
    2.5710545142769086E-52 
    8.7442836025160757E-73 
   1.1661538982950602E-123 
   1.1532869278958615E-260 
    0.0000000000000000E+00 
    0.0000000000000000E+00 
    0.0000000000000000E+00 
    0.0000000000000000E+00 
    0.0000000000000000E+00 
    0.0000000000000000E+00 
    0.0000000000000000E+00 
    0.0000000000000000E+00 
    0.0000000000000000E+00 
    0.0000000000000000E+00 
    0.0000000000000000E+00 
    0.0000000000000000E+00 
   1.0538050123130785E-131 
   4.2910577147606498E-187 
    0.0000000000000000E+00 
    0.0000000000000000E+00 
    0.0000000000000000E+00 
    0.0000000000000000E+00 
    0.0000000000000000E+00 
    0.0000000000000000E+00 
    0.0000000000000000E+00 
    0.0000000000000000E+00 
    0.0000000000000000E+00 
    0.0000000000000000E+00 
    0.0000000000000000E+00 
    0.0000000000000000E+00 
    0.0000000000000000E+00 
    0.0000000000000000E+00 
    0.0000000000000000E+00 
    0.0000000000000000E+00 
    0.0000000000000000E+00 
    0.0000000000000000E+00 
    0.0000000000000000E+00 
    0.0000000000000000E+00 
    0.0000000000000000E+00 
    0.0000000000000000E+00 
    0.0000000000000000E+00 
    0.0000000000000000E+00 
    0.0000000000000000E+00 
    0.0000000000000000E+00 
    0.0000000000000000E+00 
    0.0000000000000000E+00 
    0.0000000000000000E+00 
    0.0000000000000000E+00 
    0.0000000000000000E+00 
    0.0000000000000000E+00 
    0.0000000000000000E+00 
    0.0000000000000000E+00 
    0.0000000000000000E+00 
    0.0000000000000000E+00 
    0.0000000000000000E+00 
    0.0000000000000000E+00 
    0.0000000000000000E+00 
    0.0000000000000000E+00 
    0.0000000000000000E+00 
    0.0000000000000000E+00 
    0.0000000000000000E+00 
    0.0000000000000000E+00 
    0.0000000000000000E+00 
    0.0000000000000000E+00 
