# vtk DataFile Version 2.0
Pressure Field Data 
ASCII 
DATASET UNSTRUCTURED_GRID 

POINTS 289 double 

    0.0000000000000000E+00     0.0000000000000000E+00     0.0000000000000000E+00 
    1.0000000000000000E+00     0.0000000000000000E+00     0.0000000000000000E+00 
    1.0000000000000000E+00     1.0000000000000000E+00     0.0000000000000000E+00 
    0.0000000000000000E+00     1.0000000000000000E+00     0.0000000000000000E+00 
    6.2499999999872928E-02     0.0000000000000000E+00     0.0000000000000000E+00 
    1.2499999999977310E-01     0.0000000000000000E+00     0.0000000000000000E+00 
    1.8749999999959341E-01     0.0000000000000000E+00     0.0000000000000000E+00 
    2.4999999999941089E-01     0.0000000000000000E+00     0.0000000000000000E+00 
    3.1249999999922851E-01     0.0000000000000000E+00     0.0000000000000000E+00 
    3.7499999999904610E-01     0.0000000000000000E+00     0.0000000000000000E+00 
    4.3749999999886358E-01     0.0000000000000000E+00     0.0000000000000000E+00 
    4.9999999999869210E-01     0.0000000000000000E+00     0.0000000000000000E+00 
    5.6249999999884603E-01     0.0000000000000000E+00     0.0000000000000000E+00 
    6.2499999999901090E-01     0.0000000000000000E+00     0.0000000000000000E+00 
    6.8749999999917577E-01     0.0000000000000000E+00     0.0000000000000000E+00 
    7.4999999999934064E-01     0.0000000000000000E+00     0.0000000000000000E+00 
    8.1249999999950551E-01     0.0000000000000000E+00     0.0000000000000000E+00 
    8.7499999999967026E-01     0.0000000000000000E+00     0.0000000000000000E+00 
    9.3749999999983513E-01     0.0000000000000000E+00     0.0000000000000000E+00 
    1.0000000000000000E+00     6.2499999999872928E-02     0.0000000000000000E+00 
    1.0000000000000000E+00     1.2499999999977310E-01     0.0000000000000000E+00 
    1.0000000000000000E+00     1.8749999999959341E-01     0.0000000000000000E+00 
    1.0000000000000000E+00     2.4999999999941089E-01     0.0000000000000000E+00 
    1.0000000000000000E+00     3.1249999999922851E-01     0.0000000000000000E+00 
    1.0000000000000000E+00     3.7499999999904610E-01     0.0000000000000000E+00 
    1.0000000000000000E+00     4.3749999999886358E-01     0.0000000000000000E+00 
    1.0000000000000000E+00     4.9999999999869210E-01     0.0000000000000000E+00 
    1.0000000000000000E+00     5.6249999999884603E-01     0.0000000000000000E+00 
    1.0000000000000000E+00     6.2499999999901090E-01     0.0000000000000000E+00 
    1.0000000000000000E+00     6.8749999999917577E-01     0.0000000000000000E+00 
    1.0000000000000000E+00     7.4999999999934064E-01     0.0000000000000000E+00 
    1.0000000000000000E+00     8.1249999999950551E-01     0.0000000000000000E+00 
    1.0000000000000000E+00     8.7499999999967026E-01     0.0000000000000000E+00 
    1.0000000000000000E+00     9.3749999999983513E-01     0.0000000000000000E+00 
    9.3749999999973976E-01     1.0000000000000000E+00     0.0000000000000000E+00 
    8.7499999999950118E-01     1.0000000000000000E+00     0.0000000000000000E+00 
    8.1249999999991318E-01     1.0000000000000000E+00     0.0000000000000000E+00 
    7.5000000000034706E-01     1.0000000000000000E+00     0.0000000000000000E+00 
    6.8750000000078049E-01     1.0000000000000000E+00     0.0000000000000000E+00 
    6.2500000000121403E-01     1.0000000000000000E+00     0.0000000000000000E+00 
    5.6250000000164757E-01     1.0000000000000000E+00     0.0000000000000000E+00 
    5.0000000000205946E-01     1.0000000000000000E+00     0.0000000000000000E+00 
    4.3750000000182099E-01     1.0000000000000000E+00     0.0000000000000000E+00 
    3.7500000000156092E-01     1.0000000000000000E+00     0.0000000000000000E+00 
    3.1250000000130068E-01     1.0000000000000000E+00     0.0000000000000000E+00 
    2.5000000000104050E-01     1.0000000000000000E+00     0.0000000000000000E+00 
    1.8750000000078040E-01     1.0000000000000000E+00     0.0000000000000000E+00 
    1.2500000000052031E-01     1.0000000000000000E+00     0.0000000000000000E+00 
    6.2500000000260125E-02     1.0000000000000000E+00     0.0000000000000000E+00 
    0.0000000000000000E+00     9.3749999999973976E-01     0.0000000000000000E+00 
    0.0000000000000000E+00     8.7499999999950118E-01     0.0000000000000000E+00 
    0.0000000000000000E+00     8.1249999999991318E-01     0.0000000000000000E+00 
    0.0000000000000000E+00     7.5000000000034706E-01     0.0000000000000000E+00 
    0.0000000000000000E+00     6.8750000000078049E-01     0.0000000000000000E+00 
    0.0000000000000000E+00     6.2500000000121403E-01     0.0000000000000000E+00 
    0.0000000000000000E+00     5.6250000000164757E-01     0.0000000000000000E+00 
    0.0000000000000000E+00     5.0000000000205946E-01     0.0000000000000000E+00 
    0.0000000000000000E+00     4.3750000000182099E-01     0.0000000000000000E+00 
    0.0000000000000000E+00     3.7500000000156092E-01     0.0000000000000000E+00 
    0.0000000000000000E+00     3.1250000000130068E-01     0.0000000000000000E+00 
    0.0000000000000000E+00     2.5000000000104050E-01     0.0000000000000000E+00 
    0.0000000000000000E+00     1.8750000000078040E-01     0.0000000000000000E+00 
    0.0000000000000000E+00     1.2500000000052031E-01     0.0000000000000000E+00 
    0.0000000000000000E+00     6.2500000000260125E-02     0.0000000000000000E+00 
    6.2499999999897131E-02     6.2500000000235922E-02     0.0000000000000000E+00 
    6.2499999999921327E-02     1.2500000000047351E-01     0.0000000000000000E+00 
    6.2499999999945530E-02     1.8750000000070621E-01     0.0000000000000000E+00 
    6.2499999999969733E-02     2.5000000000093858E-01     0.0000000000000000E+00 
    6.2499999999993928E-02     3.1250000000117117E-01     0.0000000000000000E+00 
    6.2500000000018124E-02     3.7500000000140382E-01     0.0000000000000000E+00 
    6.2500000000042327E-02     4.3750000000163619E-01     0.0000000000000000E+00 
    6.2500000000066530E-02     5.0000000000184897E-01     0.0000000000000000E+00 
    6.2500000000090733E-02     5.6250000000147260E-01     0.0000000000000000E+00 
    6.2500000000114922E-02     6.2500000000107636E-01     0.0000000000000000E+00 
    6.2500000000139125E-02     6.8750000000068034E-01     0.0000000000000000E+00 
    6.2500000000163328E-02     7.5000000000028411E-01     0.0000000000000000E+00 
    6.2500000000187531E-02     8.1249999999988787E-01     0.0000000000000000E+00 
    6.2500000000211720E-02     8.7499999999951172E-01     0.0000000000000000E+00 
    6.2500000000235922E-02     9.3749999999974565E-01     0.0000000000000000E+00 
    1.2499999999981980E-01     6.2500000000211733E-02     0.0000000000000000E+00 
    1.2499999999986650E-01     1.2500000000042691E-01     0.0000000000000000E+00 
    1.2499999999991319E-01     1.8750000000063199E-01     0.0000000000000000E+00 
    1.2499999999995989E-01     2.5000000000083678E-01     0.0000000000000000E+00 
    1.2500000000000661E-01     3.1250000000104172E-01     0.0000000000000000E+00 
    1.2500000000005329E-01     3.7500000000124661E-01     0.0000000000000000E+00 
    1.2500000000010000E-01     4.3750000000145117E-01     0.0000000000000000E+00 
    1.2500000000014669E-01     5.0000000000163858E-01     0.0000000000000000E+00 
    1.2500000000019340E-01     5.6250000000129741E-01     0.0000000000000000E+00 
    1.2500000000024011E-01     6.2500000000093847E-01     0.0000000000000000E+00 
    1.2500000000028680E-01     6.8750000000057998E-01     0.0000000000000000E+00 
    1.2500000000033351E-01     7.5000000000022127E-01     0.0000000000000000E+00 
    1.2500000000038020E-01     8.1249999999986211E-01     0.0000000000000000E+00 
    1.2500000000042691E-01     8.7499999999952238E-01     0.0000000000000000E+00 
    1.2500000000047359E-01     9.3749999999975164E-01     0.0000000000000000E+00 
    1.8749999999966760E-01     6.2500000000187531E-02     0.0000000000000000E+00 
    1.8749999999974179E-01     1.2500000000038020E-01     0.0000000000000000E+00 
    1.8749999999981601E-01     1.8750000000055780E-01     0.0000000000000000E+00 
    1.8749999999989009E-01     2.5000000000073502E-01     0.0000000000000000E+00 
    1.8749999999996431E-01     3.1250000000091221E-01     0.0000000000000000E+00 
    1.8750000000003850E-01     3.7500000000108941E-01     0.0000000000000000E+00 
    1.8750000000011269E-01     4.3750000000126649E-01     0.0000000000000000E+00 
    1.8750000000018691E-01     5.0000000000142808E-01     0.0000000000000000E+00 
    1.8750000000026110E-01     5.6250000000112244E-01     0.0000000000000000E+00 
    1.8750000000033529E-01     6.2500000000080080E-01     0.0000000000000000E+00 
    1.8750000000040951E-01     6.8750000000047962E-01     0.0000000000000000E+00 
    1.8750000000048361E-01     7.5000000000015843E-01     0.0000000000000000E+00 
    1.8750000000055780E-01     8.1249999999983680E-01     0.0000000000000000E+00 
    1.8750000000063199E-01     8.7499999999953304E-01     0.0000000000000000E+00 
    1.8750000000070621E-01     9.3749999999975764E-01     0.0000000000000000E+00 
    2.4999999999951281E-01     6.2500000000163314E-02     0.0000000000000000E+00 
    2.4999999999961461E-01     1.2500000000033351E-01     0.0000000000000000E+00 
    2.4999999999971650E-01     1.8750000000048361E-01     0.0000000000000000E+00 
    2.4999999999981831E-01     2.5000000000063310E-01     0.0000000000000000E+00 
    2.4999999999992020E-01     3.1250000000078260E-01     0.0000000000000000E+00 
    2.5000000000002198E-01     3.7500000000093209E-01     0.0000000000000000E+00 
    2.5000000000012390E-01     4.3750000000108180E-01     0.0000000000000000E+00 
    2.5000000000022571E-01     5.0000000000121769E-01     0.0000000000000000E+00 
    2.5000000000032763E-01     5.6250000000094724E-01     0.0000000000000000E+00 
    2.5000000000042938E-01     6.2500000000066314E-01     0.0000000000000000E+00 
    2.5000000000053119E-01     6.8750000000037925E-01     0.0000000000000000E+00 
[...]
CELL_DATA 256 
SCALARS Pressure double 1 
LOOKUP_TABLE default 

    2.6366372013325132E+00 
    2.5185823602471840E+00 
    2.4308995597871190E+00 
    2.3579009152009269E+00 
    2.2922310351906621E+00 
    2.2305856801581654E+00 
    2.1712537571596560E+00 
    2.1130453640260924E+00 
    2.0544821807672524E+00 
    1.9930630075676199E+00 
    1.9349829834421002E+00 
    1.8897735515321885E+00 
    1.8553695509749115E+00 
    1.8296378926619647E+00 
    1.8124928551890844E+00 
    1.8039193188788289E+00 
    2.5185823602478563E+00 
    2.4646986472723706E+00 
    2.4011342972031406E+00 
    2.3383485674117623E+00 
    2.2775992717431004E+00 
    2.2185468330942890E+00 
    2.1606072720669358E+00 
    2.1030264511909831E+00 
    2.0443572815600430E+00 
    1.9823870106991583E+00 
    1.9251804808991457E+00 
    1.8809244093080857E+00 
    1.8467122886114173E+00 
    1.8210512718708596E+00 
    1.8039213540263732E+00 
    1.7953457825685748E+00 
    2.4308995597881782E+00 
    2.4011342972036758E+00 
    2.3560451774839204E+00 
    2.3045861108073660E+00 
    2.2505837783697995E+00 
    2.1955193170404814E+00 
    2.1398154166853929E+00 
    2.0831566956980625E+00 
    2.0239374905952103E+00 
    1.9615367938577473E+00 
    1.9063073024132173E+00 
    1.8634318950148223E+00 
    1.8295119693719606E+00 
    1.8039335522082092E+00 
    1.7867955064768957E+00 
    1.7781966748005287E+00 
    2.3579009152023263E+00 
    2.3383485674127304E+00 
    2.3045861108078411E+00 
    2.2620834334949227E+00 
    2.2143541354621594E+00 
    2.1633477819847466E+00 
    2.1099311826598584E+00 
    2.0539025657961281E+00 
    1.9933778328720706E+00 
    1.9315913014567905E+00 
    1.8793299142414501E+00 
    1.8376541510323865E+00 
    1.8039714516258243E+00 
    1.7783754611131504E+00 
    1.7611304448723981E+00 
    1.7524487353561355E+00 
    2.2922310351923842E+00 
    2.2775992717444340E+00 
    2.2505837783706792E+00 
    2.2143541354625835E+00 
    2.1715099865096730E+00 
    2.1237854542656418E+00 
    2.0719769251220712E+00 
    2.0154112229675385E+00 
    1.9534974443921505E+00 
    1.8943321528282391E+00 
    1.8451023408759923E+00 
    1.8040596830215263E+00 
    1.7703442632115862E+00 
    1.7444663957459678E+00 
    1.7269020765433405E+00 
    1.7180190863955205E+00 
    2.2305856801602153E+00 
    2.2185468330959606E+00 
    2.1955193170417253E+00 
    2.1633477819855553E+00 
    2.1237854542660353E+00 
    2.0780638617732987E+00 
    2.0263915485926596E+00 
    1.9679583083438541E+00 
    1.9066901486282726E+00 
    1.8515893942436541E+00 
    1.8042405059149225E+00 
    1.7631514927172480E+00 
    1.7288795224793285E+00 
    1.7022437821156069E+00 
    1.6839923791594062E+00 
    1.6747064472871518E+00 
    2.1712537571620509E+00 
    2.1606072720689453E+00 
    2.1398154166869885E+00 
    2.1099311826610370E+00 
    2.0719769251228488E+00 
    2.0263915485930548E+00 
    1.9729313380808433E+00 
    1.9137856522812648E+00 
    1.8563461543305342E+00 
    1.8044677629270787E+00 
    1.7573834857357000E+00 
    1.7154263045691327E+00 
    1.6797785518727717E+00 
    1.6516368310775464E+00 
    1.6321172106914570E+00 
    1.6221078763066301E+00 
    2.1130453640288529E+00 
    2.1030264511933470E+00 
    2.0831566957000223E+00 
    2.0539025657976948E+00 
    2.0154112229687322E+00 
    1.9679583083446683E+00 
    1.9137856522816605E+00 
    1.8580904290711231E+00 
    1.8046522206899263E+00 
    1.7536316718963338E+00 
    1.7054015502201767E+00 
    1.6613916879507655E+00 
    1.6231715493649908E+00 
    1.5924077796301823E+00 
    1.5707317562221819E+00 
    1.5594999709414383E+00 
    2.0544821807698974E+00 
    2.0443572815623479E+00 
    2.0239374905971954E+00 
    1.9933778328737413E+00 
    1.9534974443934847E+00 
    1.9066901486292445E+00 
    1.8563461543311537E+00 
    1.8046522206902400E+00 
    1.7523297698795539E+00 
    1.7000187646835216E+00 
    1.6491993552993216E+00 
    1.6015673476488843E+00 
    1.5591081780063816E+00 
    1.5240909818561168E+00 
    1.4989020636259056E+00 
    1.4856602802960852E+00 
    1.9930630075697489E+00 
    1.9823870107010082E+00 
    1.9615367938593296E+00 
    1.9315913014581159E+00 
    1.8943321528293289E+00 
    1.8515893942445472E+00 
    1.8044677629278139E+00 
    1.7536316718969314E+00 
    1.7000187646838862E+00 
    1.6449142616643859E+00 
    1.5898097586448510E+00 
    1.5365701693392602E+00 
    1.4876028331557793E+00 
    1.4459459061622553E+00 
    1.4151252361296991E+00 
    1.3985788063217868E+00 
    1.9349829834434271E+00 
    1.9251804809002953E+00 
    1.9063073024142179E+00 
    1.8793299142423523E+00 
    1.8451023408768508E+00 
    1.8042405059157827E+00 
    1.7573834857365840E+00 
    1.7054015502210871E+00 
    1.6491993553001032E+00 
    1.5898097586452897E+00 
    1.5285552482764424E+00 
    1.4673007379075407E+00 
    1.4087870791152495E+00 
    1.3569645735074254E+00 
    1.3170741684090264E+00 
    1.2949509025401438E+00 
    1.8897735515328047E+00 
    1.8809244093086515E+00 
    1.8634318950153907E+00 
    1.8376541510330160E+00 
    1.8040596830222642E+00 
    1.7631514927181360E+00 
    1.7154263045702041E+00 
    1.6613916879520372E+00 
    1.6015673476501526E+00 
    1.5365701693402258E+00 
    1.4673007379080882E+00 
    1.3952904548992187E+00 
    1.3232801718902771E+00 
    1.2560511403431687E+00 
    1.2012559614590474E+00 
    1.1691997328902537E+00 
    1.8553695509751027E+00 
    1.8467122886116309E+00 
    1.8295119693722612E+00 
    1.8039714516262859E+00 
    1.7703442632122710E+00 
    1.7288795224802964E+00 
    1.6797785518740787E+00 
    1.6231715493666812E+00 
    1.5591081780082126E+00 
    1.4876028331573636E+00 
    1.4087870791164592E+00 
    1.3232801718909684E+00 
    1.2329920132034946E+00 
    1.1427038545159325E+00 
    1.0626988041940220E+00 
    1.0113923346723559E+00 
    1.8296378926618886E+00 
    1.8210512718708551E+00 
    1.8039335522083531E+00 
    1.7783754611135338E+00 
    1.7444663957466719E+00 
    1.7022437821167127E+00 
    1.6516368310791387E+00 
    1.5924077796323437E+00 
    1.5240909818585715E+00 
    1.4459459061645272E+00 
    1.3569645735093832E+00 
    1.2560511403446681E+00 
    1.1427038545167845E+00 
    1.0190734603230207E+00 
    8.9544306612909441E-01 
    8.0227846693385119E-01 
    1.8124928551889716E+00 
    1.8039213540263515E+00 
    1.7867955064770535E+00 
    1.7611304448728446E+00 
    1.7269020765441760E+00 
    1.6839923791607361E+00 
    1.6321172106933952E+00 
    1.5707317562248500E+00 
    1.4989020636289947E+00 
    1.4151252361326374E+00 
    1.3170741684116714E+00 
    1.2012559614612397E+00 
    1.0626988041955312E+00 
    8.9544306612960722E-01 
    6.9772153306491524E-01 
    5.0000000000027112E-01 
    1.8039193188787430E+00 
    1.7953457825685897E+00 
    1.7781966748007476E+00 
    1.7524487353566847E+00 
    1.7180190863965188E+00 
    1.6747064472887252E+00 
    1.6221078763089207E+00 
    1.5594999709445998E+00 
    1.4856602802997712E+00 
    1.3985788063253299E+00 
    1.2949509025433856E+00 
    1.1691997328930073E+00 
    1.0113923346743159E+00 
    8.0227846693444560E-01 
    4.9999999999962341E-01 
    0.0000000000000000E+00 

SCALARS Saturarion double 1 
LOOKUP_TABLE default 

    1.0000000000000000E+00 
    8.8346192551508296E-01 
    8.0270567130310855E-01 
    7.2953048741059501E-01 
    6.6333455280737319E-01 
    6.0241121160687716E-01 
    5.4414864815574293E-01 
    4.8447678466574001E-01 
    4.1479797807546714E-01 
    3.0820519345017194E-01 
    1.0854948013472329E-01 
    2.8120559728381182E-03 
    1.4088576386476150E-07 
    2.2585639451635952E-18 
    3.1426816511110145E-45 
   6.2302478290095905E-112 
    8.8346192551550384E-01 
    8.2051427712927039E-01 
    7.5655407915777595E-01 
    6.9519750404799829E-01 
    6.3726121175313999E-01 
    5.8201431153680838E-01 
    5.2749211634865545E-01 
    4.6974974087703547E-01 
    3.9896571571986805E-01 
    2.8010654353838288E-01 
    7.0645232711481570E-02 
    7.1856183633201552E-04 
    3.6507498054091623E-09 
    1.4567602178442115E-22 
    2.8126824926494818E-56 
   3.6610640396731608E-141 
    8.0270567130398218E-01 
    7.5655407915824102E-01 
    7.0590719297927185E-01 
    6.5503882844037942E-01 
    6.0511685428773021E-01 
    5.5577567127750416E-01 
    5.0525073478164839E-01 
    4.4919835940767577E-01 
    3.7477829272358160E-01 
    2.2884236756557802E-01 
    2.8944118643847713E-02 
    4.8242954524517502E-05 
    2.4185769900620569E-12 
    3.9228694709470515E-31 
    1.9854107093450814E-79 
   1.0233040544500175E-203 
    7.2953048741181625E-01 
    6.9519750404879277E-01 
    6.5503882844073147E-01 
    6.1290302333022029E-01 
    5.6995696186725164E-01 
    5.2587963820673655E-01 
    4.7870460005298648E-01 
    4.2279395585416990E-01 
    3.3759751575890479E-01 
    1.4158838233554197E-01 
    4.5672523183122463E-03 
    2.3491807813419506E-07 
    8.8749945969515708E-19 
    5.6097960701978017E-49 
   6.0951945892836942E-129 
    0.0000000000000000E+00 
    6.6333455280891584E-01 
    6.3726121175424510E-01 
    6.0511685428844075E-01 
    5.6995696186759470E-01 
    5.3268849667971141E-01 
    4.9273622428693792E-01 
    4.4735265367330085E-01 
    3.8745117252886702E-01 
    2.6852015895222481E-01 
    4.2681210214723958E-02 
    8.3177794738162480E-05 
    2.1278214254117971E-12 
    3.0493964241015840E-33 
    1.3937888369920552E-90 
   9.8403256292498615E-249 
    0.0000000000000000E+00 
    6.0241121160872579E-01 
    5.8201431153824468E-01 
    5.5577567127855043E-01 
    5.2587963820741890E-01 
    4.9273622428728703E-01 
    4.5505470617152016E-01 
    4.0786963313948393E-01 
    3.3021875195124339E-01 
    1.2284110739592205E-01 
    1.7466861889290049E-03 
    4.3629141947221103E-09 
    3.2844941682428569E-25 
    1.9713531528653136E-71 
   3.0206556206346158E-204 
    0.0000000000000000E+00 
    0.0000000000000000E+00 
    5.4414864815793618E-01 
    5.2749211635047677E-01 
    5.0525073478308968E-01 
    4.7870460005407756E-01 
    4.4735265367407034E-01 
    4.0786963313993618E-01 
    3.4674782715735042E-01 
    1.8691779263033675E-01 
    7.6590570506286683E-03 
    1.6194110402287880E-07 
    1.3726100822819779E-21 
    2.1515501157515330E-63 
   5.8616998828708375E-187 
    0.0000000000000000E+00 
    0.0000000000000000E+00 
    0.0000000000000000E+00 
    4.8447678466847899E-01 
    4.6974974087942212E-01 
    4.4919835940970915E-01 
    4.2279395585590912E-01 
    3.8745117253040345E-01 
    3.3021875195276207E-01 
    1.8691779263177388E-01 
    1.1878951314245897E-02 
    5.8971137908191955E-07 
    2.4146482698835601E-20 
    9.0922563073059943E-61 
   1.6070535224402781E-181 
    0.0000000000000000E+00 
    0.0000000000000000E+00 
    0.0000000000000000E+00 
    0.0000000000000000E+00 
    4.1479797807815172E-01 
    3.9896571572232453E-01 
    3.7477829272590263E-01 
    3.3759751576129604E-01 
    2.6852015895524517E-01 
    1.2284110739874121E-01 
    7.6590570508688668E-03 
    5.8971137909232037E-07 
    4.6482874857120900E-20 
    4.6905423847369184E-60 
   5.2038151732178711E-180 
    0.0000000000000000E+00 
    0.0000000000000000E+00 
    0.0000000000000000E+00 
    0.0000000000000000E+00 
    0.0000000000000000E+00 
    3.0820519345387004E-01 
    2.8010654354220410E-01 
    2.2884236756982868E-01 
    1.4158838233967636E-01 
    4.2681210216707864E-02 
    1.7466861890524724E-03 
    1.6194110403512464E-07 
    2.4146482699819944E-20 
    4.6905423848071491E-60 
   1.0840141830847031E-179 
    0.0000000000000000E+00 
    0.0000000000000000E+00 
    0.0000000000000000E+00 
    0.0000000000000000E+00 
    0.0000000000000000E+00 
    0.0000000000000000E+00 
    1.0854948013961210E-01 
    7.0645232715157075E-02 
    2.8944118645807378E-02 
    4.5672523187397923E-03 
    8.3177794749432097E-05 
    4.3629141955326488E-09 
    1.3726100825081991E-21 
    9.0922563080502041E-61 
   5.2038151733873262E-180 
    0.0000000000000000E+00 
    0.0000000000000000E+00 
    0.0000000000000000E+00 
    0.0000000000000000E+00 
    0.0000000000000000E+00 
    0.0000000000000000E+00 
    0.0000000000000000E+00 
    2.8120559732351495E-03 
    7.1856183644362687E-04 
    4.8242954533747925E-05 
    2.3491807819459103E-07 
    2.1278214261905836E-12 
    3.2844941697857622E-25 
    2.1515501165172713E-63 
   1.6070535227142944E-181 
    0.0000000000000000E+00 
    0.0000000000000000E+00 
    0.0000000000000000E+00 
    0.0000000000000000E+00 
    0.0000000000000000E+00 
    0.0000000000000000E+00 
    0.0000000000000000E+00 
    0.0000000000000000E+00 
    1.4088576391737114E-07 
    3.6507498069135755E-09 
    2.4185769913003196E-12 
    8.8749946031688117E-19 
    3.0493964270920073E-33 
    1.9713531550902251E-71 
   5.8616998874005729E-187 
    0.0000000000000000E+00 
    0.0000000000000000E+00 
    0.0000000000000000E+00 
    0.0000000000000000E+00 
    0.0000000000000000E+00 
    0.0000000000000000E+00 
    0.0000000000000000E+00 
    0.0000000000000000E+00 
    0.0000000000000000E+00 
    2.2585639473742300E-18 
    1.4567602194300167E-22 
    3.9228694763362396E-31 
    5.6097960806825774E-49 
    1.3937888405151410E-90 
   3.0206556285971547E-204 
    0.0000000000000000E+00 
    0.0000000000000000E+00 
    0.0000000000000000E+00 
    0.0000000000000000E+00 
    0.0000000000000000E+00 
    0.0000000000000000E+00 
    0.0000000000000000E+00 
    0.0000000000000000E+00 
    0.0000000000000000E+00 
    0.0000000000000000E+00 
    3.1426816591752887E-45 
    2.8126825007426830E-56 
    1.9854107165975635E-79 
   6.0951946194515871E-129 
   9.8403256913170631E-249 
    0.0000000000000000E+00 
    0.0000000000000000E+00 
    0.0000000000000000E+00 
    0.0000000000000000E+00 
    0.0000000000000000E+00 
    0.0000000000000000E+00 
    0.0000000000000000E+00 
    0.0000000000000000E+00 
    0.0000000000000000E+00 
    0.0000000000000000E+00 
    0.0000000000000000E+00 
   6.2302478706926831E-112 
   3.6610640673448647E-141 
   1.0233040642422552E-203 
    0.0000000000000000E+00 
    0.0000000000000000E+00 
    0.0000000000000000E+00 
    0.0000000000000000E+00 
    0.0000000000000000E+00 
    0.0000000000000000E+00 
    0.0000000000000000E+00 
    0.0000000000000000E+00 
    0.0000000000000000E+00 
    0.0000000000000000E+00 
    0.0000000000000000E+00 
    0.0000000000000000E+00 
    0.0000000000000000E+00 
