# vtk DataFile Version 2.0
Pressure Field Data 
ASCII 
DATASET UNSTRUCTURED_GRID 

POINTS 289 double 

    0.0000000000000000E+00     0.0000000000000000E+00     0.0000000000000000E+00 
    1.0000000000000000E+00     0.0000000000000000E+00     0.0000000000000000E+00 
    1.0000000000000000E+00     1.0000000000000000E+00     0.0000000000000000E+00 
    0.0000000000000000E+00     1.0000000000000000E+00     0.0000000000000000E+00 
    6.2499999999872928E-02     0.0000000000000000E+00     0.0000000000000000E+00 
    1.2499999999977310E-01     0.0000000000000000E+00     0.0000000000000000E+00 
    1.8749999999959341E-01     0.0000000000000000E+00     0.0000000000000000E+00 
    2.4999999999941089E-01     0.0000000000000000E+00     0.0000000000000000E+00 
    3.1249999999922851E-01     0.0000000000000000E+00     0.0000000000000000E+00 
    3.7499999999904610E-01     0.0000000000000000E+00     0.0000000000000000E+00 
    4.3749999999886358E-01     0.0000000000000000E+00     0.0000000000000000E+00 
    4.9999999999869210E-01     0.0000000000000000E+00     0.0000000000000000E+00 
    5.6249999999884603E-01     0.0000000000000000E+00     0.0000000000000000E+00 
    6.2499999999901090E-01     0.0000000000000000E+00     0.0000000000000000E+00 
    6.8749999999917577E-01     0.0000000000000000E+00     0.0000000000000000E+00 
    7.4999999999934064E-01     0.0000000000000000E+00     0.0000000000000000E+00 
    8.1249999999950551E-01     0.0000000000000000E+00     0.0000000000000000E+00 
    8.7499999999967026E-01     0.0000000000000000E+00     0.0000000000000000E+00 
    9.3749999999983513E-01     0.0000000000000000E+00     0.0000000000000000E+00 
    1.0000000000000000E+00     6.2499999999872928E-02     0.0000000000000000E+00 
    1.0000000000000000E+00     1.2499999999977310E-01     0.0000000000000000E+00 
    1.0000000000000000E+00     1.8749999999959341E-01     0.0000000000000000E+00 
    1.0000000000000000E+00     2.4999999999941089E-01     0.0000000000000000E+00 
    1.0000000000000000E+00     3.1249999999922851E-01     0.0000000000000000E+00 
    1.0000000000000000E+00     3.7499999999904610E-01     0.0000000000000000E+00 
    1.0000000000000000E+00     4.3749999999886358E-01     0.0000000000000000E+00 
    1.0000000000000000E+00     4.9999999999869210E-01     0.0000000000000000E+00 
    1.0000000000000000E+00     5.6249999999884603E-01     0.0000000000000000E+00 
    1.0000000000000000E+00     6.2499999999901090E-01     0.0000000000000000E+00 
    1.0000000000000000E+00     6.8749999999917577E-01     0.0000000000000000E+00 
    1.0000000000000000E+00     7.4999999999934064E-01     0.0000000000000000E+00 
    1.0000000000000000E+00     8.1249999999950551E-01     0.0000000000000000E+00 
    1.0000000000000000E+00     8.7499999999967026E-01     0.0000000000000000E+00 
    1.0000000000000000E+00     9.3749999999983513E-01     0.0000000000000000E+00 
    9.3749999999973976E-01     1.0000000000000000E+00     0.0000000000000000E+00 
    8.7499999999950118E-01     1.0000000000000000E+00     0.0000000000000000E+00 
    8.1249999999991318E-01     1.0000000000000000E+00     0.0000000000000000E+00 
    7.5000000000034706E-01     1.0000000000000000E+00     0.0000000000000000E+00 
    6.8750000000078049E-01     1.0000000000000000E+00     0.0000000000000000E+00 
    6.2500000000121403E-01     1.0000000000000000E+00     0.0000000000000000E+00 
    5.6250000000164757E-01     1.0000000000000000E+00     0.0000000000000000E+00 
    5.0000000000205946E-01     1.0000000000000000E+00     0.0000000000000000E+00 
    4.3750000000182099E-01     1.0000000000000000E+00     0.0000000000000000E+00 
    3.7500000000156092E-01     1.0000000000000000E+00     0.0000000000000000E+00 
    3.1250000000130068E-01     1.0000000000000000E+00     0.0000000000000000E+00 
    2.5000000000104050E-01     1.0000000000000000E+00     0.0000000000000000E+00 
    1.8750000000078040E-01     1.0000000000000000E+00     0.0000000000000000E+00 
    1.2500000000052031E-01     1.0000000000000000E+00     0.0000000000000000E+00 
    6.2500000000260125E-02     1.0000000000000000E+00     0.0000000000000000E+00 
    0.0000000000000000E+00     9.3749999999973976E-01     0.0000000000000000E+00 
    0.0000000000000000E+00     8.7499999999950118E-01     0.0000000000000000E+00 
    0.0000000000000000E+00     8.1249999999991318E-01     0.0000000000000000E+00 
    0.0000000000000000E+00     7.5000000000034706E-01     0.0000000000000000E+00 
    0.0000000000000000E+00     6.8750000000078049E-01     0.0000000000000000E+00 
    0.0000000000000000E+00     6.2500000000121403E-01     0.0000000000000000E+00 
    0.0000000000000000E+00     5.6250000000164757E-01     0.0000000000000000E+00 
    0.0000000000000000E+00     5.0000000000205946E-01     0.0000000000000000E+00 
    0.0000000000000000E+00     4.3750000000182099E-01     0.0000000000000000E+00 
    0.0000000000000000E+00     3.7500000000156092E-01     0.0000000000000000E+00 
    0.0000000000000000E+00     3.1250000000130068E-01     0.0000000000000000E+00 
    0.0000000000000000E+00     2.5000000000104050E-01     0.0000000000000000E+00 
    0.0000000000000000E+00     1.8750000000078040E-01     0.0000000000000000E+00 
    0.0000000000000000E+00     1.2500000000052031E-01     0.0000000000000000E+00 
    0.0000000000000000E+00     6.2500000000260125E-02     0.0000000000000000E+00 
    6.2499999999897131E-02     6.2500000000235922E-02     0.0000000000000000E+00 
    6.2499999999921327E-02     1.2500000000047351E-01     0.0000000000000000E+00 
    6.2499999999945530E-02     1.8750000000070621E-01     0.0000000000000000E+00 
    6.2499999999969733E-02     2.5000000000093858E-01     0.0000000000000000E+00 
    6.2499999999993928E-02     3.1250000000117117E-01     0.0000000000000000E+00 
    6.2500000000018124E-02     3.7500000000140382E-01     0.0000000000000000E+00 
    6.2500000000042327E-02     4.3750000000163619E-01     0.0000000000000000E+00 
    6.2500000000066530E-02     5.0000000000184897E-01     0.0000000000000000E+00 
    6.2500000000090733E-02     5.6250000000147260E-01     0.0000000000000000E+00 
    6.2500000000114922E-02     6.2500000000107636E-01     0.0000000000000000E+00 
    6.2500000000139125E-02     6.8750000000068034E-01     0.0000000000000000E+00 
    6.2500000000163328E-02     7.5000000000028411E-01     0.0000000000000000E+00 
    6.2500000000187531E-02     8.1249999999988787E-01     0.0000000000000000E+00 
    6.2500000000211720E-02     8.7499999999951172E-01     0.0000000000000000E+00 
    6.2500000000235922E-02     9.3749999999974565E-01     0.0000000000000000E+00 
    1.2499999999981980E-01     6.2500000000211733E-02     0.0000000000000000E+00 
    1.2499999999986650E-01     1.2500000000042691E-01     0.0000000000000000E+00 
    1.2499999999991319E-01     1.8750000000063199E-01     0.0000000000000000E+00 
    1.2499999999995989E-01     2.5000000000083678E-01     0.0000000000000000E+00 
    1.2500000000000661E-01     3.1250000000104172E-01     0.0000000000000000E+00 
    1.2500000000005329E-01     3.7500000000124661E-01     0.0000000000000000E+00 
    1.2500000000010000E-01     4.3750000000145117E-01     0.0000000000000000E+00 
    1.2500000000014669E-01     5.0000000000163858E-01     0.0000000000000000E+00 
    1.2500000000019340E-01     5.6250000000129741E-01     0.0000000000000000E+00 
    1.2500000000024011E-01     6.2500000000093847E-01     0.0000000000000000E+00 
    1.2500000000028680E-01     6.8750000000057998E-01     0.0000000000000000E+00 
    1.2500000000033351E-01     7.5000000000022127E-01     0.0000000000000000E+00 
    1.2500000000038020E-01     8.1249999999986211E-01     0.0000000000000000E+00 
    1.2500000000042691E-01     8.7499999999952238E-01     0.0000000000000000E+00 
    1.2500000000047359E-01     9.3749999999975164E-01     0.0000000000000000E+00 
    1.8749999999966760E-01     6.2500000000187531E-02     0.0000000000000000E+00 
    1.8749999999974179E-01     1.2500000000038020E-01     0.0000000000000000E+00 
    1.8749999999981601E-01     1.8750000000055780E-01     0.0000000000000000E+00 
    1.8749999999989009E-01     2.5000000000073502E-01     0.0000000000000000E+00 
    1.8749999999996431E-01     3.1250000000091221E-01     0.0000000000000000E+00 
    1.8750000000003850E-01     3.7500000000108941E-01     0.0000000000000000E+00 
    1.8750000000011269E-01     4.3750000000126649E-01     0.0000000000000000E+00 
    1.8750000000018691E-01     5.0000000000142808E-01     0.0000000000000000E+00 
    1.8750000000026110E-01     5.6250000000112244E-01     0.0000000000000000E+00 
    1.8750000000033529E-01     6.2500000000080080E-01     0.0000000000000000E+00 
    1.8750000000040951E-01     6.8750000000047962E-01     0.0000000000000000E+00 
    1.8750000000048361E-01     7.5000000000015843E-01     0.0000000000000000E+00 
    1.8750000000055780E-01     8.1249999999983680E-01     0.0000000000000000E+00 
    1.8750000000063199E-01     8.7499999999953304E-01     0.0000000000000000E+00 
    1.8750000000070621E-01     9.3749999999975764E-01     0.0000000000000000E+00 
    2.4999999999951281E-01     6.2500000000163314E-02     0.0000000000000000E+00 
    2.4999999999961461E-01     1.2500000000033351E-01     0.0000000000000000E+00 
    2.4999999999971650E-01     1.8750000000048361E-01     0.0000000000000000E+00 
    2.4999999999981831E-01     2.5000000000063310E-01     0.0000000000000000E+00 
    2.4999999999992020E-01     3.1250000000078260E-01     0.0000000000000000E+00 
    2.5000000000002198E-01     3.7500000000093209E-01     0.0000000000000000E+00 
    2.5000000000012390E-01     4.3750000000108180E-01     0.0000000000000000E+00 
    2.5000000000022571E-01     5.0000000000121769E-01     0.0000000000000000E+00 
    2.5000000000032763E-01     5.6250000000094724E-01     0.0000000000000000E+00 
    2.5000000000042938E-01     6.2500000000066314E-01     0.0000000000000000E+00 
    2.5000000000053119E-01     6.8750000000037925E-01     0.0000000000000000E+00 
[...]
CELL_DATA 256 
SCALARS Pressure double 1 
LOOKUP_TABLE default 

    2.4125815068732765E+00 
    2.3037791215020147E+00 
    2.2304707735786886E+00 
    2.1738340701847148E+00 
    2.1260291548323416E+00 
    2.0836218728124569E+00 
    2.0450131731163754E+00 
    2.0094697010566427E+00 
    1.9767133426983765E+00 
    1.9467198552971725E+00 
    1.9195927002758666E+00 
    1.8954405356553270E+00 
    1.8741902626508664E+00 
    1.8554093485329743E+00 
    1.8406633131078525E+00 
    1.8333137447305028E+00 
    2.3037791215026040E+00 
    2.2573711589488372E+00 
    2.2064667854751785E+00 
    2.1590185862867814E+00 
    2.1155063485443426E+00 
    2.0753069146129426E+00 
    2.0378883626469930E+00 
    2.0029743995216402E+00 
    1.9705083011222000E+00 
    1.9405878964061125E+00 
    1.9133936424064559E+00 
    1.8890877313040420E+00 
    1.8676301681213860E+00 
    1.8485937414099853E+00 
    1.8336522695132125E+00 
    1.8262154509265769E+00 
    2.2304707735795448E+00 
    2.2064667854755955E+00 
    2.1719516258340770E+00 
    2.1343176558257855E+00 
    2.0965221721690535E+00 
    2.0596571585827670E+00 
    2.0241571887536254E+00 
    1.9902779990006014E+00 
    1.9582678417175563E+00 
    1.9284139331382519E+00 
    1.9010272352160942E+00 
    1.8763675063585656E+00 
    1.8544622476653243E+00 
    1.8349114017658881E+00 
    1.8195700573971085E+00 
    1.8119435952836169E+00 
    2.1738340701857699E+00 
    2.1590185862874947E+00 
    2.1343176558261261E+00 
    2.1042702309062569E+00 
    2.0717042263030829E+00 
    2.0382254727961344E+00 
    2.0047762350074061E+00 
    1.9719907365356955E+00 
    1.9403841887836579E+00 
    1.9104382418294199E+00 
    1.8826166503737483E+00 
    1.8573071152702936E+00 
    1.8346377486781917E+00 
    1.8142642599293051E+00 
    1.7982677971790837E+00 
    1.7903154358325295E+00 
    2.1260291548335664E+00 
    2.1155063485452779E+00 
    2.0965221721696601E+00 
    2.0717042263033689E+00 
    2.0431950897969631E+00 
    2.0125336694841804E+00 
    1.9808123788207965E+00 
    1.9488587357672760E+00 
    1.9173695721851196E+00 
    1.8869897912408105E+00 
    1.8583357006383194E+00 
    1.8319427289322499E+00 
    1.8080721270437199E+00 
    1.7864688086042595E+00 
    1.7694746661179952E+00 
    1.7610087649839539E+00 
    2.0836218728138376E+00 
    2.0753069146140604E+00 
    2.0596571585835890E+00 
    2.0382254727966589E+00 
    2.0125336694844296E+00 
    1.9838701444310032E+00 
    1.9532855520308383E+00 
    1.9216629438600756E+00 
    1.8897967981331378E+00 
    1.8584524206747199E+00 
    1.8283872129600796E+00 
    1.8002991264709738E+00 
    1.7746190742913135E+00 
    1.7512257128286168E+00 
    1.7327538512330014E+00 
    1.7235073938073739E+00 
    2.0450131731179000E+00 
    2.0378883626482671E+00 
    2.0241571887546264E+00 
    2.0047762350081326E+00 
    1.9808123788212650E+00 
    1.9532855520310657E+00 
    1.9231225890421302E+00 
    1.8911763576281391E+00 
    1.8582714734370671E+00 
    1.8252502693528965E+00 
    1.7929944269835634E+00 
    1.7623775355929308E+00 
    1.7340455580676397E+00 
    1.7080763761778386E+00 
    1.6874347508420602E+00 
    1.6770178107372304E+00 
    2.0094697010582805E+00 
    2.0029743995230356E+00 
    1.9902779990017432E+00 
    1.9719907365365887E+00 
    1.9488587357679343E+00 
    1.9216629438605117E+00 
    1.8911763576283587E+00 
    1.8581683301667400E+00 
    1.8234381459344617E+00 
    1.7878598853340366E+00 
    1.7524147756679267E+00 
    1.7181604169635882E+00 
    1.6860129678540448E+00 
    1.6563470421595130E+00 
    1.6325125262285300E+00 
    1.6203413179059551E+00 
    1.9767133426998171E+00 
    1.9705083011234448E+00 
    1.9582678417186083E+00 
    1.9403841887845292E+00 
    1.9173695721858237E+00 
    1.8897967981336825E+00 
    1.8582714734374544E+00 
    1.8234381459346796E+00 
    1.7860156470437394E+00 
    1.7468528039379723E+00 
    1.7069859117488939E+00 
    1.6676465107610943E+00 
    1.6300761509728754E+00 
    1.5950823864540109E+00 
    1.5665011923291421E+00 
    1.5516738727073165E+00 
    1.9467198552982257E+00 
    1.9405878964070362E+00 
    1.9284139331390617E+00 
    1.9104382418301371E+00 
    1.8869897912414517E+00 
    1.8584524206752977E+00 
    1.8252502693534147E+00 
    1.7878598853344858E+00 
    1.7468528039382614E+00 
    1.7029693590519996E+00 
    1.6572152347395681E+00 
    1.6109372533201027E+00 
    1.5657251069306153E+00 
    1.5229814993664925E+00 
    1.4872237532597006E+00 
    1.4682772017970847E+00 
    1.9195927002765698E+00 
    1.9133936424070874E+00 
    1.9010272352166808E+00 
    1.8826166503743209E+00 
    1.8583357006389052E+00 
    1.8283872129606995E+00 
    1.7929944269842342E+00 
    1.7524147756686514E+00 
    1.7069859117495418E+00 
    1.6572152347399436E+00 
    1.6039209691710672E+00 
    1.5484044730355828E+00 
    1.4925171186609560E+00 
    1.4383778356514840E+00 
    1.3915172903039401E+00 
    1.3658812245481966E+00 
    1.8954405356557273E+00 
    1.8890877313044205E+00 
    1.8763675063589591E+00 
    1.8573071152707465E+00 
    1.8319427289328003E+00 
    1.8002991264716592E+00 
    1.7623775355937876E+00 
    1.7181604169646425E+00 
    1.6676465107621812E+00 
    1.6109372533209549E+00 
    1.5484044730360802E+00 
    1.4809621444416325E+00 
    1.4103743621210985E+00 
    1.3393513418088578E+00 
    1.2747961428949843E+00 
    1.2374558228426928E+00 
    1.8741902626510119E+00 
    1.8676301681215517E+00 
    1.8544622476655579E+00 
    1.8346377486785526E+00 
    1.8080721270442628E+00 
    1.7746190742920944E+00 
    1.7340455580687206E+00 
    1.6860129678554849E+00 
    1.6300761509744846E+00 
    1.5657251069320470E+00 
    1.4925171186620814E+00 
    1.4103743621217599E+00 
    1.3201096757712312E+00 
    1.2241379055966728E+00 
    1.1304346296709762E+00 
    1.0706335390284571E+00 
    1.8554093485329188E+00 
    1.8485937414099840E+00 
    1.8349114017660018E+00 
    1.8142642599296088E+00 
    1.7864688086048257E+00 
    1.7512257128295250E+00 
    1.7080763761791806E+00 
    1.6563470421613888E+00 
    1.5950823864562083E+00 
    1.5229814993685855E+00 
    1.4383778356533437E+00 
    1.3393513418103278E+00 
    1.2241379055975365E+00 
    1.0922047745945995E+00 
    9.4966864004067886E-01 
    8.4304859080867389E-01 
    1.8406633131077579E+00 
    1.8336522695131892E+00 
    1.8195700573972287E+00 
    1.7982677971794390E+00 
    1.7694746661186789E+00 
    1.7327538512341178E+00 
    1.6874347508437317E+00 
    1.6325125262308997E+00 
    1.5665011923319718E+00 
    1.4872237532624710E+00 
    1.3915172903065067E+00 
    1.2747961428971681E+00 
    1.1304346296725121E+00 
    9.4966864004119578E-01 
    7.2859306867052542E-01 
    5.1571804089639617E-01 
    1.8333137447304286E+00 
    1.8262154509265836E+00 
    1.8119435952837888E+00 
    1.7903154358329760E+00 
    1.7610087649847859E+00 
    1.7235073938087186E+00 
    1.6770178107392388E+00 
    1.6203413179088055E+00 
    1.5516738727107404E+00 
    1.4682772018004704E+00 
    1.3658812245513834E+00 
    1.2374558228454782E+00 
    1.0706335390305044E+00 
    8.4304859080933459E-01 
    5.1571804089573847E-01 
    0.0000000000000000E+00 

SCALARS Saturarion double 1 
LOOKUP_TABLE default 

    1.0000000000000000E+00 
    9.4033315088146308E-01 
    8.9076355582105871E-01 
    8.4041119125413888E-01 
    7.9142060041396045E-01 
    7.4472659651825357E-01 
    7.0034654264930229E-01 
    6.5778575184565402E-01 
    6.1621308266214125E-01 
    5.7441044847316292E-01 
    5.3038546739189552E-01 
    4.8010192274943414E-01 
    4.1332276212898600E-01 
    2.9972620799974342E-01 
    9.8091880698439909E-02 
    2.2498802259300352E-03 
    9.4033315088179548E-01 
    9.0220120863189124E-01 
    8.5949525858430875E-01 
    8.1524252469939940E-01 
    7.7136771567485718E-01 
    7.2879254943674865E-01 
    6.8770070749742263E-01 
    6.4778403626560066E-01 
    6.0836123362791317E-01 
    5.6831748064055621E-01 
    5.2571421150736763E-01 
    4.7649293480612304E-01 
    4.1018556454348060E-01 
    2.9542515737730352E-01 
    9.2546400467205386E-02 
    1.8956074913772292E-03 
    8.9076355582167854E-01 
    8.5949525858462983E-01 
    8.2321752584324226E-01 
    7.8500580396486674E-01 
    7.4652528814445929E-01 
    7.0859478664774733E-01 
    6.7143710575971494E-01 
    6.3484085136238821E-01 
    5.9822422844642753E-01 
    5.6055002023713563E-01 
    5.1992150371193990E-01 
    4.7225465496857399E-01 
    4.0684625462148938E-01 
    2.9118902757640386E-01 
    8.7323011082276136E-02 
    1.5998091987128693E-03 
    8.4041119125506125E-01 
    8.1524252470002800E-01 
    7.8500580396517827E-01 
    7.5253656285572135E-01 
    7.1931489394547488E-01 
    6.8607851463060954E-01 
    6.5305448227912510E-01 
    6.2007913032639550E-01 
    5.8662823024074140E-01 
    5.5171188051278053E-01 
    5.1345596224618428E-01 
    4.6774368480215328E-01 
    4.0364156444732358E-01 
    2.8749521710688891E-01 
    8.3092451092420042E-02 
    1.3875663318004049E-03 
    7.9142060041516726E-01 
    7.7136771567576934E-01 
    7.4652528814501062E-01 
    7.1931489394575254E-01 
    6.9102721673887779E-01 
    6.6232213307080046E-01 
    6.3341454668793473E-01 
    6.0416141134185108E-01 
    5.7406838206162469E-01 
    5.4216962140316394E-01 
    5.0659772683895632E-01 
    4.6320075297190572E-01 
    4.0084083351110844E-01 
    2.8484551358416282E-01 
    8.0526251903495744E-02 
    1.2736383151733758E-03 
    7.4472659651970941E-01 
    7.2879254943785399E-01 
    7.0859478664852915E-01 
    6.8607851463109715E-01 
    6.6232213307102838E-01 
    6.3789549500320630E-01 
    6.1298700413070772E-01 
    5.8745748237152073E-01 
    5.6082607836885534E-01 
    5.3213733747459779E-01 
    4.9952324088439193E-01 
    4.5880653214440631E-01 
    3.9870652644954208E-01 
    2.8384618129459938E-01 
    8.0404317720366311E-02 
    1.2794354266752570E-03 
    7.0034654265096163E-01 
    6.8770070749873924E-01 
    6.7143710576069549E-01 
    6.5305448227981944E-01 
    6.3341454668836439E-01 
    6.1298700413089879E-01 
    5.9192301328978802E-01 
    5.7007751263758266E-01 
    5.4697546814003006E-01 
    5.2166742436339997E-01 
    4.9228795912391804E-01 
    4.5466143512842205E-01 
    3.9747403886555532E-01 
    2.8516764530539318E-01 
    8.3686453706046979E-02 
    1.4556601084911027E-03 
    6.5778575184750743E-01 
    6.4778403626709213E-01 
    6.3484085136355317E-01 
    6.2007913032727324E-01 
    6.0416141134245971E-01 
    5.8745748237188677E-01 
    5.7007751263774520E-01 
    5.5186777663033637E-01 
    5.3235915548659707E-01 
    5.1061276880325712E-01 
    4.8478037380217071E-01 
    4.5073481611343991E-01 
    3.9729493292479073E-01 
    2.8943354839090307E-01 
    9.1584769522610354E-02 
    1.9287764404852434E-03 
    6.1621308266364427E-01 
    6.0836123362913064E-01 
    5.9822422844740319E-01 
    5.8662823024149213E-01 
    5.7406838206215771E-01 
    5.6082607836921139E-01 
    5.4697546814022913E-01 
    5.3235915548667789E-01 
    5.1652207490549928E-01 
    4.9854973461346513E-01 
    4.7663751297372497E-01 
    4.4677421505450943E-01 
    3.9813346658575821E-01 
    2.9704426543982188E-01 
    1.0554352775608224E-01 
    3.0116284992200556E-03 
    5.7441044847432743E-01 
    5.6831748064151033E-01 
    5.6055002023791334E-01 
    5.5171188051337094E-01 
    5.4216962140359237E-01 
    5.3213733747489644E-01 
    5.2166742436360070E-01 
    5.1061276880336337E-01 
    4.9854973461348884E-01 
    4.8461217865056255E-01 
    4.6707751561353389E-01 
    4.4213581091562121E-01 
    3.9958213672987336E-01 
    3.0793988273900680E-01 
    1.2686905199608006E-01 
    5.4621128259055296E-03 
    5.3038546739272641E-01 
    5.2571421150807529E-01 
    5.1992150371250889E-01 
    5.1345596224661938E-01 
    5.0659772683926474E-01 
    4.9952324088460798E-01 
    4.9228795912405277E-01 
    4.8478037380223749E-01 
    4.7663751297371287E-01 
    4.6707751561350275E-01 
    4.5450949751686248E-01 
    4.3541914818818034E-01 
    4.0050363841189640E-01 
    3.2125532579353305E-01 
    1.5573467963793775E-01 
    1.0975085328302204E-02 
    4.8010192274995456E-01 
    4.7649293480655563E-01 
    4.7225465496891400E-01 
    4.6774368480240253E-01 
    4.6320075297206603E-01 
    4.5880653214449296E-01 
    4.5466143512844309E-01 
    4.5073481611340332E-01 
    4.4677421505439940E-01 
    4.4213581091547977E-01 
    4.3541914818807415E-01 
    4.2348957644631674E-01 
    3.9817893449260244E-01 
    3.3460998836677813E-01 
    1.8992648310807733E-01 
    2.2562065693765253E-02 
    4.1332276212915520E-01 
    4.1018556454359606E-01 
    4.0684625462155721E-01 
    4.0364156444733179E-01 
    4.0084083351104943E-01 
    3.9870652644942117E-01 
    3.9747403886536709E-01 
    3.9729493292453794E-01 
    3.9813346658541199E-01 
    3.9958213672949583E-01 
    4.0050363841155251E-01 
    3.9817893449238129E-01 
    3.8563660061351990E-01 
    3.4202861330213119E-01 
    2.2386432167254197E-01 
    4.2517703859308476E-02 
    2.9972620799938687E-01 
    2.9542515737694275E-01 
    2.9118902757604537E-01 
    2.8749521710650600E-01 
    2.8484551358373245E-01 
    2.8384618129409389E-01 
    2.8516764530478428E-01 
    2.8943354839016583E-01 
    2.9704426543893803E-01 
    3.0793988273806183E-01 
    3.2125532579265048E-01 
    3.3460998836608757E-01 
    3.4202861330174550E-01 
    3.2656295113352790E-01 
    2.4401763754168920E-01 
    6.1079294153872865E-02 
    9.8091880698478323E-02 
    9.2546400467205372E-02 
    8.7323011082252613E-02 
    8.3092451092329253E-02 
    8.0526251903298554E-02 
    8.0404317720018117E-02 
    8.3686453705486316E-02 
    9.1584769521750681E-02 
    1.0554352775473154E-01 
    1.2686905199442119E-01 
    1.5573467963620685E-01 
    1.8992648310652174E-01 
    2.2386432167132744E-01 
    2.4401763754085665E-01 
    1.9955637147747024E-01 
    3.1746821751358359E-02 
    2.2498802259389040E-03 
    1.8956074913821287E-03 
    1.5998091987154328E-03 
    1.3875663317987775E-03 
    1.2736383151663198E-03 
    1.2794354266604416E-03 
    1.4556601084630822E-03 
    1.9287764404304544E-03 
    3.0116284990928874E-03 
    5.4621128256627412E-03 
    1.0975085327862670E-02 
    2.2562065693056035E-02 
    4.2517703858395324E-02 
    6.1079294153044084E-02 
    3.1746821751291676E-02 
    3.6571630577186224E-04 
