# vtk DataFile Version 2.0
Pressure Field Data 
ASCII 
DATASET UNSTRUCTURED_GRID 

POINTS 289 double 

    0.0000000000000000E+00     0.0000000000000000E+00     0.0000000000000000E+00 
    1.0000000000000000E+00     0.0000000000000000E+00     0.0000000000000000E+00 
    1.0000000000000000E+00     1.0000000000000000E+00     0.0000000000000000E+00 
    0.0000000000000000E+00     1.0000000000000000E+00     0.0000000000000000E+00 
    6.2499999999872928E-02     0.0000000000000000E+00     0.0000000000000000E+00 
    1.2499999999977310E-01     0.0000000000000000E+00     0.0000000000000000E+00 
    1.8749999999959341E-01     0.0000000000000000E+00     0.0000000000000000E+00 
    2.4999999999941089E-01     0.0000000000000000E+00     0.0000000000000000E+00 
    3.1249999999922851E-01     0.0000000000000000E+00     0.0000000000000000E+00 
    3.7499999999904610E-01     0.0000000000000000E+00     0.0000000000000000E+00 
    4.3749999999886358E-01     0.0000000000000000E+00     0.0000000000000000E+00 
    4.9999999999869210E-01     0.0000000000000000E+00     0.0000000000000000E+00 
    5.6249999999884603E-01     0.0000000000000000E+00     0.0000000000000000E+00 
    6.2499999999901090E-01     0.0000000000000000E+00     0.0000000000000000E+00 
    6.8749999999917577E-01     0.0000000000000000E+00     0.0000000000000000E+00 
    7.4999999999934064E-01     0.0000000000000000E+00     0.0000000000000000E+00 
    8.1249999999950551E-01     0.0000000000000000E+00     0.0000000000000000E+00 
    8.7499999999967026E-01     0.0000000000000000E+00     0.0000000000000000E+00 
    9.3749999999983513E-01     0.0000000000000000E+00     0.0000000000000000E+00 
    1.0000000000000000E+00     6.2499999999872928E-02     0.0000000000000000E+00 
    1.0000000000000000E+00     1.2499999999977310E-01     0.0000000000000000E+00 
    1.0000000000000000E+00     1.8749999999959341E-01     0.0000000000000000E+00 
    1.0000000000000000E+00     2.4999999999941089E-01     0.0000000000000000E+00 
    1.0000000000000000E+00     3.1249999999922851E-01     0.0000000000000000E+00 
    1.0000000000000000E+00     3.7499999999904610E-01     0.0000000000000000E+00 
    1.0000000000000000E+00     4.3749999999886358E-01     0.0000000000000000E+00 
    1.0000000000000000E+00     4.9999999999869210E-01     0.0000000000000000E+00 
    1.0000000000000000E+00     5.6249999999884603E-01     0.0000000000000000E+00 
    1.0000000000000000E+00     6.2499999999901090E-01     0.0000000000000000E+00 
    1.0000000000000000E+00     6.8749999999917577E-01     0.0000000000000000E+00 
    1.0000000000000000E+00     7.4999999999934064E-01     0.0000000000000000E+00 
    1.0000000000000000E+00     8.1249999999950551E-01     0.0000000000000000E+00 
    1.0000000000000000E+00     8.7499999999967026E-01     0.0000000000000000E+00 
    1.0000000000000000E+00     9.3749999999983513E-01     0.0000000000000000E+00 
    9.3749999999973976E-01     1.0000000000000000E+00     0.0000000000000000E+00 
    8.7499999999950118E-01     1.0000000000000000E+00     0.0000000000000000E+00 
    8.1249999999991318E-01     1.0000000000000000E+00     0.0000000000000000E+00 
    7.5000000000034706E-01     1.0000000000000000E+00     0.0000000000000000E+00 
    6.8750000000078049E-01     1.0000000000000000E+00     0.0000000000000000E+00 
    6.2500000000121403E-01     1.0000000000000000E+00     0.0000000000000000E+00 
    5.6250000000164757E-01     1.0000000000000000E+00     0.0000000000000000E+00 
    5.0000000000205946E-01     1.0000000000000000E+00     0.0000000000000000E+00 
    4.3750000000182099E-01     1.0000000000000000E+00     0.0000000000000000E+00 
    3.7500000000156092E-01     1.0000000000000000E+00     0.0000000000000000E+00 
    3.1250000000130068E-01     1.0000000000000000E+00     0.0000000000000000E+00 
    2.5000000000104050E-01     1.0000000000000000E+00     0.0000000000000000E+00 
    1.8750000000078040E-01     1.0000000000000000E+00     0.0000000000000000E+00 
    1.2500000000052031E-01     1.0000000000000000E+00     0.0000000000000000E+00 
    6.2500000000260125E-02     1.0000000000000000E+00     0.0000000000000000E+00 
    0.0000000000000000E+00     9.3749999999973976E-01     0.0000000000000000E+00 
    0.0000000000000000E+00     8.7499999999950118E-01     0.0000000000000000E+00 
    0.0000000000000000E+00     8.1249999999991318E-01     0.0000000000000000E+00 
    0.0000000000000000E+00     7.5000000000034706E-01     0.0000000000000000E+00 
    0.0000000000000000E+00     6.8750000000078049E-01     0.0000000000000000E+00 
    0.0000000000000000E+00     6.2500000000121403E-01     0.0000000000000000E+00 
    0.0000000000000000E+00     5.6250000000164757E-01     0.0000000000000000E+00 
    0.0000000000000000E+00     5.0000000000205946E-01     0.0000000000000000E+00 
    0.0000000000000000E+00     4.3750000000182099E-01     0.0000000000000000E+00 
    0.0000000000000000E+00     3.7500000000156092E-01     0.0000000000000000E+00 
    0.0000000000000000E+00     3.1250000000130068E-01     0.0000000000000000E+00 
    0.0000000000000000E+00     2.5000000000104050E-01     0.0000000000000000E+00 
    0.0000000000000000E+00     1.8750000000078040E-01     0.0000000000000000E+00 
    0.0000000000000000E+00     1.2500000000052031E-01     0.0000000000000000E+00 
    0.0000000000000000E+00     6.2500000000260125E-02     0.0000000000000000E+00 
    6.2499999999897131E-02     6.2500000000235922E-02     0.0000000000000000E+00 
    6.2499999999921327E-02     1.2500000000047351E-01     0.0000000000000000E+00 
    6.2499999999945530E-02     1.8750000000070621E-01     0.0000000000000000E+00 
    6.2499999999969733E-02     2.5000000000093858E-01     0.0000000000000000E+00 
    6.2499999999993928E-02     3.1250000000117117E-01     0.0000000000000000E+00 
    6.2500000000018124E-02     3.7500000000140382E-01     0.0000000000000000E+00 
    6.2500000000042327E-02     4.3750000000163619E-01     0.0000000000000000E+00 
    6.2500000000066530E-02     5.0000000000184897E-01     0.0000000000000000E+00 
    6.2500000000090733E-02     5.6250000000147260E-01     0.0000000000000000E+00 
    6.2500000000114922E-02     6.2500000000107636E-01     0.0000000000000000E+00 
    6.2500000000139125E-02     6.8750000000068034E-01     0.0000000000000000E+00 
    6.2500000000163328E-02     7.5000000000028411E-01     0.0000000000000000E+00 
    6.2500000000187531E-02     8.1249999999988787E-01     0.0000000000000000E+00 
    6.2500000000211720E-02     8.7499999999951172E-01     0.0000000000000000E+00 
    6.2500000000235922E-02     9.3749999999974565E-01     0.0000000000000000E+00 
    1.2499999999981980E-01     6.2500000000211733E-02     0.0000000000000000E+00 
    1.2499999999986650E-01     1.2500000000042691E-01     0.0000000000000000E+00 
    1.2499999999991319E-01     1.8750000000063199E-01     0.0000000000000000E+00 
    1.2499999999995989E-01     2.5000000000083678E-01     0.0000000000000000E+00 
    1.2500000000000661E-01     3.1250000000104172E-01     0.0000000000000000E+00 
    1.2500000000005329E-01     3.7500000000124661E-01     0.0000000000000000E+00 
    1.2500000000010000E-01     4.3750000000145117E-01     0.0000000000000000E+00 
    1.2500000000014669E-01     5.0000000000163858E-01     0.0000000000000000E+00 
    1.2500000000019340E-01     5.6250000000129741E-01     0.0000000000000000E+00 
    1.2500000000024011E-01     6.2500000000093847E-01     0.0000000000000000E+00 
    1.2500000000028680E-01     6.8750000000057998E-01     0.0000000000000000E+00 
    1.2500000000033351E-01     7.5000000000022127E-01     0.0000000000000000E+00 
    1.2500000000038020E-01     8.1249999999986211E-01     0.0000000000000000E+00 
    1.2500000000042691E-01     8.7499999999952238E-01     0.0000000000000000E+00 
    1.2500000000047359E-01     9.3749999999975164E-01     0.0000000000000000E+00 
    1.8749999999966760E-01     6.2500000000187531E-02     0.0000000000000000E+00 
    1.8749999999974179E-01     1.2500000000038020E-01     0.0000000000000000E+00 
    1.8749999999981601E-01     1.8750000000055780E-01     0.0000000000000000E+00 
    1.8749999999989009E-01     2.5000000000073502E-01     0.0000000000000000E+00 
    1.8749999999996431E-01     3.1250000000091221E-01     0.0000000000000000E+00 
    1.8750000000003850E-01     3.7500000000108941E-01     0.0000000000000000E+00 
    1.8750000000011269E-01     4.3750000000126649E-01     0.0000000000000000E+00 
    1.8750000000018691E-01     5.0000000000142808E-01     0.0000000000000000E+00 
    1.8750000000026110E-01     5.6250000000112244E-01     0.0000000000000000E+00 
    1.8750000000033529E-01     6.2500000000080080E-01     0.0000000000000000E+00 
    1.8750000000040951E-01     6.8750000000047962E-01     0.0000000000000000E+00 
    1.8750000000048361E-01     7.5000000000015843E-01     0.0000000000000000E+00 
    1.8750000000055780E-01     8.1249999999983680E-01     0.0000000000000000E+00 
    1.8750000000063199E-01     8.7499999999953304E-01     0.0000000000000000E+00 
    1.8750000000070621E-01     9.3749999999975764E-01     0.0000000000000000E+00 
    2.4999999999951281E-01     6.2500000000163314E-02     0.0000000000000000E+00 
    2.4999999999961461E-01     1.2500000000033351E-01     0.0000000000000000E+00 
    2.4999999999971650E-01     1.8750000000048361E-01     0.0000000000000000E+00 
    2.4999999999981831E-01     2.5000000000063310E-01     0.0000000000000000E+00 
    2.4999999999992020E-01     3.1250000000078260E-01     0.0000000000000000E+00 
    2.5000000000002198E-01     3.7500000000093209E-01     0.0000000000000000E+00 
    2.5000000000012390E-01     4.3750000000108180E-01     0.0000000000000000E+00 
    2.5000000000022571E-01     5.0000000000121769E-01     0.0000000000000000E+00 
    2.5000000000032763E-01     5.6250000000094724E-01     0.0000000000000000E+00 
    2.5000000000042938E-01     6.2500000000066314E-01     0.0000000000000000E+00 
    2.5000000000053119E-01     6.8750000000037925E-01     0.0000000000000000E+00 
[...]
CELL_DATA 256 
SCALARS Pressure double 1 
LOOKUP_TABLE default 

    2.4155487622486147E+00 
    2.3052788995971034E+00 
    2.2297725598348177E+00 
    2.1706423726483459E+00 
    2.1201315821909250E+00 
    2.0748491404913110E+00 
    2.0332209266116030E+00 
    1.9945252369258499E+00 
    1.9584803119695922E+00 
    1.9250320631365818E+00 
    1.8941964372246951E+00 
    1.8658518829341890E+00 
    1.8394051422342719E+00 
    1.8152264829528979E+00 
    1.7984969635858523E+00 
    1.7906129996094107E+00 
    2.3052788995977052E+00 
    2.2577141515354726E+00 
    2.2048843282179926E+00 
    2.1551042668061835E+00 
    2.1089863085505054E+00 
    2.0659761970153401E+00 
    2.0255794368863058E+00 
    1.9875374658601672E+00 
    1.9517925061757646E+00 
    1.9184123090560330E+00 
    1.8874849382585421E+00 
    1.8589243959512278E+00 
    1.8321188941492124E+00 
    1.8076078991072284E+00 
    1.7907267894780383E+00 
    1.7827677975748726E+00 
    2.2297725598357045E+00 
    2.2048843282184278E+00 
    2.1687593244493257E+00 
    2.1290272236344130E+00 
    2.0887907047589174E+00 
    2.0492281661279397E+00 
    2.0108243951779206E+00 
    1.9738605563665086E+00 
    1.9385871887372295E+00 
    1.9052600278066778E+00 
    1.8740876798561048E+00 
    1.8450486584783514E+00 
    1.8175103974195825E+00 
    1.7923410364270209E+00 
    1.7751333210244040E+00 
    1.7670070113736684E+00 
    2.1706423726494539E+00 
    2.1551042668069362E+00 
    2.1290272236347740E+00 
    2.0970980824798806E+00 
    2.0622646230746611E+00 
    2.0262167481545879E+00 
    1.9899508485633559E+00 
    1.9541303739135598E+00 
    1.9192739046755736E+00 
    1.8858275422915685E+00 
    1.8541372032699963E+00 
    1.8242615290148592E+00 
    1.7955430156298624E+00 
    1.7693384382311723E+00 
    1.7515758494364670E+00 
    1.7431622731990117E+00 
    2.1201315821922244E+00 
    2.1089863085515002E+00 
    2.0887907047595640E+00 
    2.0622646230749671E+00 
    2.0316403709017878E+00 
    1.9985286139760150E+00 
    1.9640721573010993E+00 
    1.9291266046946769E+00 
    1.8943898299347151E+00 
    1.8604637207755343E+00 
    1.8278251407455690E+00 
    1.7966149318641886E+00 
    1.7661345429379427E+00 
    1.7384182801538126E+00 
    1.7198018298760940E+00 
    1.7109420686656276E+00 
    2.0748491404927893E+00 
    2.0659761970165373E+00 
    2.0492281661288216E+00 
    2.0262167481551541E+00 
    1.9985286139762852E+00 
    1.9675093191736155E+00 
    1.9342521464272582E+00 
    1.8996634078129175E+00 
    1.8645331777481415E+00 
    1.8295728943907019E+00 
    1.7953722982980505E+00 
    1.7621470700924766E+00 
    1.7291312531870116E+00 
    1.6992798977872963E+00 
    1.6794126956519586E+00 
    1.6698934294050796E+00 
    2.0332209266132488E+00 
    2.0255794368876816E+00 
    2.0108243951790019E+00 
    1.9899508485641437E+00 
    1.9640721573016058E+00 
    1.9342521464275035E+00 
    1.9014513300477029E+00 
    1.8665389440755793E+00 
    1.8303273747364828E+00 
    1.7935910790304639E+00 
    1.7570087110224624E+00 
    1.7208560870499541E+00 
    1.6842706081478946E+00 
    1.6514644411840034E+00 
    1.6298185080817815E+00 
    1.6193489893395383E+00 
    1.9945252369276365E+00 
    1.9875374658616880E+00 
    1.9738605563677529E+00 
    1.9541303739145339E+00 
    1.9291266046953932E+00 
    1.8996634078133907E+00 
    1.8665389440758176E+00 
    1.8305310607214407E+00 
    1.7924168642092717E+00 
    1.7529847178863462E+00 
    1.7129678058151399E+00 
    1.6726715103877206E+00 
    1.6311348187936754E+00 
    1.5943144507247107E+00 
    1.5701832682078289E+00 
    1.5583509410578280E+00 
    1.9584803119711798E+00 
    1.9517925061771351E+00 
    1.9385871887383863E+00 
    1.9192739046765293E+00 
    1.8943898299354829E+00 
    1.8645331777487339E+00 
    1.8303273747369022E+00 
    1.7924168642095066E+00 
    1.7514851454420597E+00 
    1.7082701092376660E+00 
    1.6634948841276245E+00 
    1.6174011586096690E+00 
    1.5690963525181183E+00 
    1.5269635697661161E+00 
    1.4993657218446368E+00 
    1.4855299683434360E+00 
    1.9250320631377535E+00 
    1.9184123090570593E+00 
    1.9052600278075742E+00 
    1.8858275422923558E+00 
    1.8604637207762320E+00 
    1.8295728943913268E+00 
    1.7935910790310214E+00 
    1.7529847178868281E+00 
    1.7082701092379748E+00 
    1.6600347934895814E+00 
    1.6088592936584034E+00 
    1.5546056301484690E+00 
    1.4972932584477838E+00 
    1.4484249541338190E+00 
    1.4158438687937234E+00 
    1.3988775006653611E+00 
    1.8941964372254854E+00 
    1.8874849382592485E+00 
    1.8740876798567552E+00 
    1.8541372032706238E+00 
    1.8278251407462034E+00 
    1.7953722982987184E+00 
    1.7570087110231816E+00 
    1.7129678058159141E+00 
    1.6634948841283141E+00 
    1.6088592936588015E+00 
    1.5492512659829167E+00 
    1.4836852809746310E+00 
    1.4153110629732253E+00 
    1.3580057318842176E+00 
    1.3175333694646714E+00 
    1.2952597705230195E+00 
    1.8658518829346391E+00 
    1.8589243959516475E+00 
    1.8450486584787820E+00 
    1.8242615290153477E+00 
    1.7966149318647791E+00 
    1.7621470700932111E+00 
    1.7208560870508705E+00 
    1.6726715103888468E+00 
    1.6174011586108266E+00 
    1.5546056301493669E+00 
    1.4836852809751515E+00 
    1.4047457605778668E+00 
    1.3253813667560757E+00 
    1.2560118251158034E+00 
    1.2013929365900291E+00 
    1.1693685171379873E+00 
    1.8394051422344231E+00 
    1.8321188941493811E+00 
    1.8175103974198219E+00 
    1.7955430156302379E+00 
    1.7661345429385145E+00 
    1.7291312531878440E+00 
    1.6842706081490544E+00 
    1.6311348187952268E+00 
    1.5690963525198511E+00 
    1.4972932584493215E+00 
    1.4153110629744385E+00 
    1.3253813667567886E+00 
    1.2328279643611919E+00 
    1.1425331512987125E+00 
    1.0626994470143178E+00 
    1.0114528443395123E+00 
    1.8152264829528075E+00 
    1.8076078991071980E+00 
    1.7923410364271164E+00 
    1.7693384382314770E+00 
    1.7384182801544090E+00 
    1.6992798977882739E+00 
    1.6514644411854631E+00 
    1.5943144507267590E+00 
    1.5269635697685144E+00 
    1.4484249541360910E+00 
    1.3580057318862089E+00 
    1.2560118251173333E+00 
    1.1425331512995749E+00 
    1.0189760020353156E+00 
    8.9541886226224687E-01 
    8.0229056886728978E-01 
    1.7984969635857158E+00 
    1.7907267894779808E+00 
    1.7751333210245059E+00 
    1.7515758494368305E+00 
    1.7198018298768232E+00 
    1.6794126956531668E+00 
    1.6298185080835987E+00 
    1.5701832682103982E+00 
    1.4993657218476795E+00 
    1.4158438687966597E+00 
    1.3175333694673341E+00 
    1.2013929365922373E+00 
    1.0626994470158353E+00 
    8.9541886226276246E-01 
    6.9770943113149542E-01 
    5.0000000000027744E-01 
    1.7906129996092961E+00 
    1.7827677975748477E+00 
    1.7670070113738279E+00 
    1.7431622731994760E+00 
    1.7109420686665189E+00 
    1.6698934294065331E+00 
    1.6193489893417099E+00 
    1.5583509410608911E+00 
    1.4855299683470684E+00 
    1.3988775006688901E+00 
    1.2952597705262670E+00 
    1.1693685171407502E+00 
    1.0114528443414790E+00 
    8.0229056886788741E-01 
    4.9999999999963080E-01 
    0.0000000000000000E+00 

SCALARS Saturarion double 1 
LOOKUP_TABLE default 

    1.0000000000000000E+00 
    9.3121801047155195E-01 
    8.7592109144114838E-01 
    8.2104750113592728E-01 
    7.6857893155142754E-01 
    7.1917261142519473E-01 
    6.7256303417715724E-01 
    6.2798946930977007E-01 
    5.8432330583679293E-01 
    5.3987922394299726E-01 
    4.9162410243217114E-01 
    4.3253477205264190E-01 
    3.4231020823150637E-01 
    1.6957978217883402E-01 
    1.3772442617221296E-02 
    1.2912302619574464E-05 
    9.3121801047188291E-01 
    8.8853171556370536E-01 
    8.4166477319904442E-01 
    7.9393453714867668E-01 
    7.4723946346910852E-01 
    7.0234865701629845E-01 
    6.5925577020385850E-01 
    6.1744402979721746E-01 
    5.7596438915419046E-01 
    5.3323818898778086E-01 
    4.8623982267214355E-01 
    4.2770992596310003E-01 
    3.3614257126688674E-01 
    1.5831666676753978E-01 
    1.0887902117273671E-02 
    7.1536042377113396E-06 
    8.7592109144181407E-01 
    8.4166477319940014E-01 
    8.0243932879842994E-01 
    7.6163119920722910E-01 
    7.2092763730451037E-01 
    6.8106317225090895E-01 
    6.4213174674441287E-01 
    6.0375685154886893E-01 
    5.6511304376516158E-01 
    5.2469815267195907E-01 
    4.7946786198213565E-01 
    4.2185638978989565E-01 
    3.2875308272516857E-01 
    1.4478632930647331E-01 
    8.0322794213057401E-03 
    3.3228944907533237E-06 
    8.2104750113693103E-01 
    7.9393453714931417E-01 
    7.6163119920753508E-01 
    7.2723141073023301E-01 
    6.9225418955419682E-01 
    6.5739033371883404E-01 
    6.2277512567695648E-01 
    5.8810782172521558E-01 
    5.5263505442440952E-01 
    5.1489233359830155E-01 
    4.7177842485881455E-01 
    4.1533307295249033E-01 
    3.2036371905646693E-01 
    1.2967355976376702E-01 
    5.5589974597898984E-03 
    1.3137475310425625E-06 
    7.6857893155269874E-01 
    7.4723946347002690E-01 
    7.2092763730509124E-01 
    6.9225418955451112E-01 
    6.6254614273565349E-01 
    6.3243382218381139E-01 
    6.0206066270869074E-01 
    5.7116220599247247E-01 
    5.3902025800438147E-01 
    5.0417483938572272E-01 
    4.6342914476704311E-01 
    4.0832777124450725E-01 
    3.1102028690214761E-01 
    1.1361944411836430E-01 
    3.6145811409508148E-03 
    4.4254401340534814E-07 
    7.1917261142671407E-01 
    7.0234865701749161E-01 
    6.8106317225175494E-01 
    6.5739033371934430E-01 
    6.3243382218401867E-01 
    6.0673946545590063E-01 
    5.8043361803574256E-01 
    5.5326250156624091E-01 
    5.2451900100650350E-01 
    4.9272374056430662E-01 
    4.5455136788929240E-01 
    4.0094283155499000E-01 
    3.0068603359002094E-01 
    9.7254018359338334E-02 
    2.2009086035779824E-03 
    1.2471680555869277E-07 
    6.7256303417891328E-01 
    6.5925577020522697E-01 
    6.4213174674547402E-01 
    6.2277512567767601E-01 
    6.0206066270914460E-01 
    5.8043361803596016E-01 
    5.5798602739100145E-01 
    5.3445906835851842E-01 
    5.0914270564902431E-01 
    4.8052344500311600E-01 
    4.4512173414935952E-01 
    3.9315777135582841E-01 
    2.8915003654095656E-01 
    8.0947436279966964E-02 
    1.2330476876245495E-03 
    2.7535889526800340E-08 
    6.2798946931171251E-01 
    6.1744402979879820E-01 
    6.0375685155010039E-01 
    5.8810782172614073E-01 
    5.7116220599312295E-01 
    5.5326250156664847E-01 
    5.3445906835869872E-01 
    5.1448118192173986E-01 
    4.9261033267902504E-01 
    4.6729242381173713E-01 
    4.3487297541813358E-01 
    3.8471145151479114E-01 
    2.7570513447824407E-01 
    6.4455413621077859E-02 
    5.9987226829211183E-04 
    3.9406830454974411E-09 
    5.8432330583835923E-01 
    5.7596438915548420E-01 
    5.6511304376619487E-01 
    5.5263505442519634E-01 
    5.3902025800496067E-01 
    5.2451900100689641E-01 
    5.0914270564925135E-01 
    4.9261033267912041E-01 
    4.7419687348495232E-01 
    4.5230646934572238E-01 
    4.2308235905324976E-01 
    3.7480125593972619E-01 
    2.5815836965347394E-01 
    4.6653455882385633E-02 
    2.1412361353179688E-04 
    2.1438838394179181E-10 
    5.3987922394420818E-01 
    5.3323818898879327E-01 
    5.2469815267278153E-01 
    5.1489233359894471E-01 
    5.0417483938621011E-01 
    4.9272374056465085E-01 
    4.8052344500333999E-01 
    4.6729242381185881E-01 
    4.5230646934575236E-01 
    4.3392078083016855E-01 
    4.0799868223330160E-01 
    3.6116406768194864E-01 
    2.2941786322134222E-01 
    2.6134834501105979E-02 
    3.3466230041095969E-05 
    8.3862084826738034E-13 
    4.9162410243305860E-01 
    4.8623982267290455E-01 
    4.7946786198275465E-01 
    4.7177842485930205E-01 
    4.6342914476740421E-01 
    4.5455136788955169E-01 
    4.4512173414952771E-01 
    4.3487297541823577E-01 
    4.2308235905325470E-01 
    4.0799868223326369E-01 
    3.8488906390005201E-01 
    3.3631377704099646E-01 
    1.6524510356045824E-01 
    6.2431564185500953E-03 
    3.2775029503986287E-07 
    1.7452135616804942E-19 
    4.3253477205324392E-01 
    4.2770992596360990E-01 
    4.2185638979030993E-01 
    4.1533307295281607E-01 
    4.0832777124474107E-01 
    4.0094283155514532E-01 
    3.9315777135591162E-01 
    3.8471145151482394E-01 
    3.7480125593960190E-01 
    3.6116406768170967E-01 
    3.3631377704072030E-01 
    2.6077364637803713E-01 
    4.1351653265743749E-02 
    3.5718550554338751E-05 
    6.4670659666046318E-15 
    3.5470581123758412E-46 
    3.4231020823186525E-01 
    3.3614257126718405E-01 
    3.2875308272541920E-01 
    3.2036371905664968E-01 
    3.1102028690225375E-01 
    3.0068603359003210E-01 
    2.8915003654085986E-01 
    2.7570513447801509E-01 
    2.5815836965278111E-01 
    2.2941786322017479E-01 
    1.6524510355916944E-01 
    4.1351653265505911E-02 
    9.2681074520368706E-05 
    8.6085711443516115E-14 
    1.6114339006215877E-43 
   3.6153802677690483E-142 
    1.6957978217898462E-01 
    1.5831666676765344E-01 
    1.4478632930657176E-01 
    1.2967355976380532E-01 
    1.1361944411830871E-01 
    9.7254018359169997E-02 
    8.0947436279685592E-02 
    6.4455413620714400E-02 
    4.6653455881745159E-02 
    2.6134834500575521E-02 
    6.2431564184023272E-03 
    3.5718550553846618E-05 
    8.6085711443133928E-14 
    4.9404222654061698E-43 
   9.3627151662935094E-141 
    0.0000000000000000E+00 
    1.3772442617347010E-02 
    1.0887902117360477E-02 
    8.0322794213644570E-03 
    5.5589974598199941E-03 
    3.6145811409592681E-03 
    2.2009086035735329E-03 
    1.2330476876150627E-03 
    5.9987226828355834E-04 
    2.1412361352380948E-04 
    3.3466230039330759E-05 
    3.2775029502114784E-07 
    6.4670659663849971E-15 
    1.6114339005999659E-43 
   9.3627151662358087E-141 
    0.0000000000000000E+00 
    0.0000000000000000E+00 
    1.2912302619935317E-05 
    7.1536042378867575E-06 
    3.3228944908278567E-06 
    1.3137475310653257E-06 
    4.4254401340958780E-07 
    1.2471680555854761E-07 
    2.7535889526393023E-08 
    3.9406830453777588E-09 
    2.1438838392340090E-10 
    8.3862084816580858E-13 
    1.7452135614544124E-19 
    3.5470581121127687E-46 
   3.6153802676549940E-142 
    0.0000000000000000E+00 
    0.0000000000000000E+00 
    0.0000000000000000E+00 
