# vtk DataFile Version 2.0
Pressure Field Data 
ASCII 
DATASET UNSTRUCTURED_GRID 

POINTS 289 double 

    0.0000000000000000E+00     0.0000000000000000E+00     0.0000000000000000E+00 
    1.0000000000000000E+00     0.0000000000000000E+00     0.0000000000000000E+00 
    1.0000000000000000E+00     1.0000000000000000E+00     0.0000000000000000E+00 
    0.0000000000000000E+00     1.0000000000000000E+00     0.0000000000000000E+00 
    6.2499999999872928E-02     0.0000000000000000E+00     0.0000000000000000E+00 
    1.2499999999977310E-01     0.0000000000000000E+00     0.0000000000000000E+00 
    1.8749999999959341E-01     0.0000000000000000E+00     0.0000000000000000E+00 
    2.4999999999941089E-01     0.0000000000000000E+00     0.0000000000000000E+00 
    3.1249999999922851E-01     0.0000000000000000E+00     0.0000000000000000E+00 
    3.7499999999904610E-01     0.0000000000000000E+00     0.0000000000000000E+00 
    4.3749999999886358E-01     0.0000000000000000E+00     0.0000000000000000E+00 
    4.9999999999869210E-01     0.0000000000000000E+00     0.0000000000000000E+00 
    5.6249999999884603E-01     0.0000000000000000E+00     0.0000000000000000E+00 
    6.2499999999901090E-01     0.0000000000000000E+00     0.0000000000000000E+00 
    6.8749999999917577E-01     0.0000000000000000E+00     0.0000000000000000E+00 
    7.4999999999934064E-01     0.0000000000000000E+00     0.0000000000000000E+00 
    8.1249999999950551E-01     0.0000000000000000E+00     0.0000000000000000E+00 
    8.7499999999967026E-01     0.0000000000000000E+00     0.0000000000000000E+00 
    9.3749999999983513E-01     0.0000000000000000E+00     0.0000000000000000E+00 
    1.0000000000000000E+00     6.2499999999872928E-02     0.0000000000000000E+00 
    1.0000000000000000E+00     1.2499999999977310E-01     0.0000000000000000E+00 
    1.0000000000000000E+00     1.8749999999959341E-01     0.0000000000000000E+00 
    1.0000000000000000E+00     2.4999999999941089E-01     0.0000000000000000E+00 
    1.0000000000000000E+00     3.1249999999922851E-01     0.0000000000000000E+00 
    1.0000000000000000E+00     3.7499999999904610E-01     0.0000000000000000E+00 
    1.0000000000000000E+00     4.3749999999886358E-01     0.0000000000000000E+00 
    1.0000000000000000E+00     4.9999999999869210E-01     0.0000000000000000E+00 
    1.0000000000000000E+00     5.6249999999884603E-01     0.0000000000000000E+00 
    1.0000000000000000E+00     6.2499999999901090E-01     0.0000000000000000E+00 
    1.0000000000000000E+00     6.8749999999917577E-01     0.0000000000000000E+00 
    1.0000000000000000E+00     7.4999999999934064E-01     0.0000000000000000E+00 
    1.0000000000000000E+00     8.1249999999950551E-01     0.0000000000000000E+00 
    1.0000000000000000E+00     8.7499999999967026E-01     0.0000000000000000E+00 
    1.0000000000000000E+00     9.3749999999983513E-01     0.0000000000000000E+00 
    9.3749999999973976E-01     1.0000000000000000E+00     0.0000000000000000E+00 
    8.7499999999950118E-01     1.0000000000000000E+00     0.0000000000000000E+00 
    8.1249999999991318E-01     1.0000000000000000E+00     0.0000000000000000E+00 
    7.5000000000034706E-01     1.0000000000000000E+00     0.0000000000000000E+00 
    6.8750000000078049E-01     1.0000000000000000E+00     0.0000000000000000E+00 
    6.2500000000121403E-01     1.0000000000000000E+00     0.0000000000000000E+00 
    5.6250000000164757E-01     1.0000000000000000E+00     0.0000000000000000E+00 
    5.0000000000205946E-01     1.0000000000000000E+00     0.0000000000000000E+00 
    4.3750000000182099E-01     1.0000000000000000E+00     0.0000000000000000E+00 
    3.7500000000156092E-01     1.0000000000000000E+00     0.0000000000000000E+00 
    3.1250000000130068E-01     1.0000000000000000E+00     0.0000000000000000E+00 
    2.5000000000104050E-01     1.0000000000000000E+00     0.0000000000000000E+00 
    1.8750000000078040E-01     1.0000000000000000E+00     0.0000000000000000E+00 
    1.2500000000052031E-01     1.0000000000000000E+00     0.0000000000000000E+00 
    6.2500000000260125E-02     1.0000000000000000E+00     0.0000000000000000E+00 
    0.0000000000000000E+00     9.3749999999973976E-01     0.0000000000000000E+00 
    0.0000000000000000E+00     8.7499999999950118E-01     0.0000000000000000E+00 
    0.0000000000000000E+00     8.1249999999991318E-01     0.0000000000000000E+00 
    0.0000000000000000E+00     7.5000000000034706E-01     0.0000000000000000E+00 
    0.0000000000000000E+00     6.8750000000078049E-01     0.0000000000000000E+00 
    0.0000000000000000E+00     6.2500000000121403E-01     0.0000000000000000E+00 
    0.0000000000000000E+00     5.6250000000164757E-01     0.0000000000000000E+00 
    0.0000000000000000E+00     5.0000000000205946E-01     0.0000000000000000E+00 
    0.0000000000000000E+00     4.3750000000182099E-01     0.0000000000000000E+00 
    0.0000000000000000E+00     3.7500000000156092E-01     0.0000000000000000E+00 
    0.0000000000000000E+00     3.1250000000130068E-01     0.0000000000000000E+00 
    0.0000000000000000E+00     2.5000000000104050E-01     0.0000000000000000E+00 
    0.0000000000000000E+00     1.8750000000078040E-01     0.0000000000000000E+00 
    0.0000000000000000E+00     1.2500000000052031E-01     0.0000000000000000E+00 
    0.0000000000000000E+00     6.2500000000260125E-02     0.0000000000000000E+00 
    6.2499999999897131E-02     6.2500000000235922E-02     0.0000000000000000E+00 
    6.2499999999921327E-02     1.2500000000047351E-01     0.0000000000000000E+00 
    6.2499999999945530E-02     1.8750000000070621E-01     0.0000000000000000E+00 
    6.2499999999969733E-02     2.5000000000093858E-01     0.0000000000000000E+00 
    6.2499999999993928E-02     3.1250000000117117E-01     0.0000000000000000E+00 
    6.2500000000018124E-02     3.7500000000140382E-01     0.0000000000000000E+00 
    6.2500000000042327E-02     4.3750000000163619E-01     0.0000000000000000E+00 
    6.2500000000066530E-02     5.0000000000184897E-01     0.0000000000000000E+00 
    6.2500000000090733E-02     5.6250000000147260E-01     0.0000000000000000E+00 
    6.2500000000114922E-02     6.2500000000107636E-01     0.0000000000000000E+00 
    6.2500000000139125E-02     6.8750000000068034E-01     0.0000000000000000E+00 
    6.2500000000163328E-02     7.5000000000028411E-01     0.0000000000000000E+00 
    6.2500000000187531E-02     8.1249999999988787E-01     0.0000000000000000E+00 
    6.2500000000211720E-02     8.7499999999951172E-01     0.0000000000000000E+00 
    6.2500000000235922E-02     9.3749999999974565E-01     0.0000000000000000E+00 
    1.2499999999981980E-01     6.2500000000211733E-02     0.0000000000000000E+00 
    1.2499999999986650E-01     1.2500000000042691E-01     0.0000000000000000E+00 
    1.2499999999991319E-01     1.8750000000063199E-01     0.0000000000000000E+00 
    1.2499999999995989E-01     2.5000000000083678E-01     0.0000000000000000E+00 
    1.2500000000000661E-01     3.1250000000104172E-01     0.0000000000000000E+00 
    1.2500000000005329E-01     3.7500000000124661E-01     0.0000000000000000E+00 
    1.2500000000010000E-01     4.3750000000145117E-01     0.0000000000000000E+00 
    1.2500000000014669E-01     5.0000000000163858E-01     0.0000000000000000E+00 
    1.2500000000019340E-01     5.6250000000129741E-01     0.0000000000000000E+00 
    1.2500000000024011E-01     6.2500000000093847E-01     0.0000000000000000E+00 
    1.2500000000028680E-01     6.8750000000057998E-01     0.0000000000000000E+00 
    1.2500000000033351E-01     7.5000000000022127E-01     0.0000000000000000E+00 
    1.2500000000038020E-01     8.1249999999986211E-01     0.0000000000000000E+00 
    1.2500000000042691E-01     8.7499999999952238E-01     0.0000000000000000E+00 
    1.2500000000047359E-01     9.3749999999975164E-01     0.0000000000000000E+00 
    1.8749999999966760E-01     6.2500000000187531E-02     0.0000000000000000E+00 
    1.8749999999974179E-01     1.2500000000038020E-01     0.0000000000000000E+00 
    1.8749999999981601E-01     1.8750000000055780E-01     0.0000000000000000E+00 
    1.8749999999989009E-01     2.5000000000073502E-01     0.0000000000000000E+00 
    1.8749999999996431E-01     3.1250000000091221E-01     0.0000000000000000E+00 
    1.8750000000003850E-01     3.7500000000108941E-01     0.0000000000000000E+00 
    1.8750000000011269E-01     4.3750000000126649E-01     0.0000000000000000E+00 
    1.8750000000018691E-01     5.0000000000142808E-01     0.0000000000000000E+00 
    1.8750000000026110E-01     5.6250000000112244E-01     0.0000000000000000E+00 
    1.8750000000033529E-01     6.2500000000080080E-01     0.0000000000000000E+00 
    1.8750000000040951E-01     6.8750000000047962E-01     0.0000000000000000E+00 
    1.8750000000048361E-01     7.5000000000015843E-01     0.0000000000000000E+00 
    1.8750000000055780E-01     8.1249999999983680E-01     0.0000000000000000E+00 
    1.8750000000063199E-01     8.7499999999953304E-01     0.0000000000000000E+00 
    1.8750000000070621E-01     9.3749999999975764E-01     0.0000000000000000E+00 
    2.4999999999951281E-01     6.2500000000163314E-02     0.0000000000000000E+00 
    2.4999999999961461E-01     1.2500000000033351E-01     0.0000000000000000E+00 
    2.4999999999971650E-01     1.8750000000048361E-01     0.0000000000000000E+00 
    2.4999999999981831E-01     2.5000000000063310E-01     0.0000000000000000E+00 
    2.4999999999992020E-01     3.1250000000078260E-01     0.0000000000000000E+00 
    2.5000000000002198E-01     3.7500000000093209E-01     0.0000000000000000E+00 
    2.5000000000012390E-01     4.3750000000108180E-01     0.0000000000000000E+00 
    2.5000000000022571E-01     5.0000000000121769E-01     0.0000000000000000E+00 
    2.5000000000032763E-01     5.6250000000094724E-01     0.0000000000000000E+00 
    2.5000000000042938E-01     6.2500000000066314E-01     0.0000000000000000E+00 
    2.5000000000053119E-01     6.8750000000037925E-01     0.0000000000000000E+00 
[...]
CELL_DATA 256 
SCALARS Pressure double 1 
LOOKUP_TABLE default 

    1.4348970131424872E+00 
    1.2040137924543532E+00 
    1.0748470863027009E+00 
    9.7169342911259837E-01 
    8.7688910677022869E-01 
    7.8535262762758273E-01 
    6.9523347353016873E-01 
    6.0511601501758738E-01 
    5.1152580670124159E-01 
    4.4496016302741392E-01 
    3.9703707444959202E-01 
    3.5300879338550900E-01 
    3.1381192234277211E-01 
    2.8305675885619869E-01 
    2.6352491026171615E-01 
    2.5567129272388933E-01 
    1.3637778943081285E+00 
    1.2078678222816694E+00 
    1.0832139808798744E+00 
    9.8022222267013071E-01 
    8.8538506608289513E-01 
    7.9382951453602457E-01 
    7.0371520765846174E-01 
    6.1362390255717103E-01 
    5.1934522297663699E-01 
    4.5070791042435376E-01 
    4.0156340122426448E-01 
    3.5679782178595121E-01 
    3.1661992158623115E-01 
    2.8462824696974726E-01 
    2.6388079920130919E-01 
    2.5531735103437370E-01 
    1.3086346181249933E+00 
    1.2011012271170201E+00 
    1.0879294368496566E+00 
    9.8720582976084370E-01 
    8.9299869582712488E-01 
    8.0167875921496834E-01 
    7.1167100069333078E-01 
    6.2160465783855168E-01 
    5.2687201133659700E-01 
    4.5658599032613983E-01 
    4.0613318991024933E-01 
    3.6033158638124968E-01 
    3.1886331462485251E-01 
    2.8534467102323247E-01 
    2.6321375641431982E-01 
    2.5404457841462663E-01 
    1.2650831472749120E+00 
    1.1890985287608378E+00 
    1.0892686696414766E+00 
    9.9254838645529098E-01 
    8.9968122383723936E-01 
    8.0888296634463197E-01 
    7.1910026470532540E-01 
    6.2909587684741830E-01 
    5.3410287027927661E-01 
    4.6257834377096452E-01 
    4.1079447010182651E-01 
    3.6369495534921958E-01 
    3.2062862347363325E-01 
    2.8524527361971980E-01 
    2.6146310331434569E-01 
    2.5167803409635553E-01 
    1.2301376551707695E+00 
    1.1749332829592598E+00 
    1.0879359827566037E+00 
    9.9631442580132712E-01 
    9.0542626139039029E-01 
    8.1544115629731995E-01 
    7.2600964274489177E-01 
    6.3614430251524501E-01 
    5.4093156406887843E-01 
    4.6871843569688548E-01 
    4.1562938012731293E-01 
    3.6697495807477709E-01 
    3.2200945475094950E-01 
    2.8437750300629971E-01 
    2.5856448628002915E-01 
    2.4803511201624695E-01 
    1.2017614118577378E+00 
    1.1603606150451375E+00 
    1.0847153364130278E+00 
    9.9869638772369751E-01 
    9.1027661807966975E-01 
    8.2136890790626882E-01 
    7.3240899613716326E-01 
    6.4276383141336058E-01 
    5.4740619992442663E-01 
    4.7500280779869297E-01 
    4.2072177492293533E-01 
    3.7026076509049499E-01 
    3.2311111874603388E-01 
    2.8280482052926836E-01 
    2.5445329143206835E-01 
    2.4291284113824205E-01 
    1.1785352027242648E+00 
    1.1463747115791252E+00 
    1.0803320339572060E+00 
    9.9996153526904030E-01 
    9.1432186145778727E-01 
    8.2670390355849166E-01 
    7.3830994617387846E-01 
    6.4891185224591563E-01 
    5.5377614618599080E-01 
    4.8146361942381294E-01 
    4.2605597779689064E-01 
    3.7363709984267346E-01 
    3.2405379749183388E-01 
    2.8061626945092744E-01 
    2.4907050398892810E-01 
    2.3607366750037584E-01 
    1.1594545354641588E+00 
    1.1335184909305498E+00 
    1.0753859767608169E+00 
    1.0003996925889524E+00 
    9.1768447262259956E-01 
    8.3150462804231184E-01 
    7.4374159713118249E-01 
    6.5451110352880038E-01 
    5.6022054896434803E-01 
    4.8820998720758263E-01 
    4.3162082109727529E-01 
    3.7718416645573150E-01 
    3.2497580739597542E-01 
    2.7793882048218838E-01 
    2.4237327539177589E-01 
    2.2722791650337354E-01 
    1.1437873524092126E+00 
    1.1220675655120467E+00 
    1.0703500199310039E+00 
    1.0003036304516026E+00 
    9.2051304934134170E-01 
    8.3584992993481055E-01 
    7.4875757520231134E-01 
    6.5942951850626952E-01 
    5.6691007982198183E-01 
    4.9535860060183795E-01 
    4.3744002959377243E-01 
    3.8098083419954532E-01 
    3.2603591076177990E-01 
    2.7495248111887066E-01 
    2.3435344324706392E-01 
    2.1601033696821084E-01 
    1.1309891928063571E+00 
    1.1121455116271375E+00 
    1.0655910214779609E+00 
    9.9995911070782140E-01 
    9.2297711825325579E-01 
    8.3983406569297536E-01 
    7.5342807627358876E-01 
    6.6367039455646437E-01 
    5.7400793904797254E-01 
    5.0301315810668223E-01 
    4.4351059910868545E-01 
    3.8510083934570233E-01 
    3.2741232145157539E-01 
    2.7190835343851721E-01 
    2.2507001703211760E-01 
    2.0194798202734518E-01 
    1.1206509913600040E+00 
    1.1037945517088394E+00 
    1.0613939209666927E+00 
    9.9963858413294304E-01 
    9.2526203897449599E-01 
    8.4355883979357693E-01 
    7.5780438661773253E-01 
    6.6764995456641119E-01 
    5.8154168957760810E-01 
    5.1116178305556170E-01 
    4.4983180591506516E-01 
    3.8960725743665764E-01 
    3.2929715048133068E-01 
    2.6914716291353918E-01 
    2.1470411574126669E-01 
    1.8441413735672782E-01 
    1.1124757654486750E+00 
    1.0970282570199847E+00 
    1.0579901005749075E+00 
    9.9960392599303416E-01 
    9.2756787561860055E-01 
    8.4713093267562034E-01 
    7.6179467954162494E-01 
    6.7216677387761825E-01 
    5.8948754466970754E-01 
    5.1955433765961323E-01 
    4.5639061569838180E-01 
    3.9454458680887117E-01 
    3.3188280105315021E-01 
    2.6711362849210235E-01 
    2.0365208997946249E-01 
    1.6256111873940615E-01 
    1.1062404160371992E+00 
    1.0918521283143376E+00 
    1.0555698264050986E+00 
    1.0000968297832593E+00 
    9.3008920364998204E-01 
    8.5062510011466896E-01 
    7.6533614357013757E-01 
    6.7797400752337200E-01 
    5.9792872127829766E-01 
    5.2786194334355718E-01 
    4.6313079523077749E-01 
    3.9992755529700080E-01 
    3.3533944319303866E-01 
    2.6635627941092843E-01 
    1.9268269370333133E-01 
    1.3522020124497072E-01 
    1.1016068647385286E+00 
    1.0881351445878615E+00 
    1.0541975535426489E+00 
    1.0012654758755792E+00 
    9.3289798744105623E-01 
    8.5387330497873104E-01 
    7.6965832385485577E-01 
    6.8531030862047859E-01 
    6.0671796712608295E-01 
    5.3590584582508438E-01 
    4.6997094171720694E-01 
    4.0573374810930507E-01 
    3.3978039845614155E-01 
    2.6748895508362130E-01 
    1.8320106195260435E-01 
    1.0075079417699544E-01 
    1.0984311817170700E+00 
    1.0855495755857312E+00 
    1.0535929205815213E+00 
    1.0029762225938910E+00 
    9.3640821202561553E-01 
    8.5856749951568290E-01 
    7.7607194996329154E-01 
    6.9357175159937534E-01 
    6.1531252935991387E-01 
    5.4364155268273040E-01 
    4.7682746694482875E-01 
    4.1190224876730391E-01 
    3.4522182200645191E-01 
    2.7106822383259976E-01 
    1.7769141817095699E-01 
    5.6810127190459199E-02 
    1.0977440226904118E+00 
    1.0858270670936159E+00 
    1.0556734785866082E+00 
    1.0069942944130630E+00 
    9.4208616626770059E-01 
    8.6548437254096677E-01 
    7.8382916716644813E-01 
    7.0191267515206457E-01 
    6.2339511237891643E-01 
    5.5103686520519124E-01 
    4.8361875426713197E-01 
    4.1833948182612340E-01 
    3.5155317958783056E-01 
    2.7729843371931118E-01 
    1.8046010703412713E-01 
    0.0000000000000000E+00 

SCALARS Saturarion double 1 
LOOKUP_TABLE default 

    1.0000000000000000E+00 
    9.9014638467263749E-01 
    9.7142633596383454E-01 
    9.3996230948237725E-01 
    9.0765255389747790E-01 
    8.7589249342346465E-01 
    8.4378156077009192E-01 
    8.0143450141355788E-01 
    6.7373234316605557E-01 
    8.6319626348786385E-02 
    1.0000230219325557E-06 
    1.0000000000035209E-06 
    9.9999999999999995E-07 
    9.9999999999999995E-07 
    9.9999999999999995E-07 
    9.9999999999999995E-07 
    9.9723181376948355E-01 
    9.8841396367296586E-01 
    9.6963518499613033E-01 
    9.3914380733972147E-01 
    9.0746670148388320E-01 
    8.7590492742034265E-01 
    8.4412258792238937E-01 
    8.0383444602633281E-01 
    6.9289571285875562E-01 
    1.2690858014450768E-01 
    1.3213554357196612E-06 
    1.0000000179097209E-06 
    1.0000000000000006E-06 
    9.9999999999999995E-07 
    9.9999999999999995E-07 
    9.9999999999999995E-07 
    9.9280547167462940E-01 
    9.8365423180265421E-01 
    9.6681081356640008E-01 
    9.3650821676207774E-01 
    9.0619405622559324E-01 
    8.7591870603971456E-01 
    8.4486930699287321E-01 
    8.0414984576983639E-01 
    6.8778028883970455E-01 
    1.1214344917555667E-01 
    1.1407840252145182E-06 
    1.0000000176657672E-06 
    9.9999999999999995E-07 
    9.9999999999999995E-07 
    9.9999999999999995E-07 
    9.9999999999999995E-07 
    9.8503996428341623E-01 
    9.7739113842541192E-01 
    9.5996252325282272E-01 
    9.3250815786042907E-01 
    9.0306871412906464E-01 
    8.7442985046098443E-01 
    8.4431270379981371E-01 
    8.0472713222325376E-01 
    6.9941998999732036E-01 
    1.4573845186991424E-01 
    1.9655039018267094E-06 
    1.0000000686486430E-06 
    1.0000000000000025E-06 
    9.9999999999999995E-07 
    9.9999999999999995E-07 
    9.9999999999999995E-07 
    9.7524908800817545E-01 
    9.6860613956477437E-01 
    9.5033667896565932E-01 
    9.2591663809053704E-01 
    8.9829245470000874E-01 
    8.7079874757499187E-01 
    8.4199852472307202E-01 
    8.0457694964632454E-01 
    7.0580915443275993E-01 
    1.6442482609421255E-01 
    1.0679964720148391E-06 
    1.0000000090724214E-06 
    9.9999999999999995E-07 
    9.9999999999999995E-07 
    9.9999999999999995E-07 
    9.9999999999999995E-07 
    9.6334804502852112E-01 
    9.5741623797329767E-01 
    9.4059007539586970E-01 
    9.1768502450814959E-01 
    8.9221118203747252E-01 
    8.6607828569558787E-01 
    8.3848973683884231E-01 
    8.0047889619287016E-01 
    6.8616732315962958E-01 
    1.0944007193861648E-01 
    5.7342042375507291E-06 
    1.0000005182047386E-06 
    1.0000000000000169E-06 
    9.9999999999999995E-07 
    9.9999999999999995E-07 
    9.9999999999999995E-07 
    9.4955698069496941E-01 
    9.4458737987732000E-01 
    9.2966596069343022E-01 
    9.0820781316198107E-01 
    8.8430305836047685E-01 
    8.5973411833506475E-01 
    8.3356368560451310E-01 
    7.9595884282790597E-01 
    6.7115949239094730E-01 
    8.6665848364193235E-02 
    1.5669047090379232E-06 
    1.0000000842607922E-06 
    9.9999999999999995E-07 
    9.9999999999999995E-07 
    9.9999999999999995E-07 
    9.9999999999999995E-07 
    9.3386498514602356E-01 
    9.3005222840627477E-01 
    9.1710050364997431E-01 
    8.9726737933989287E-01 
    8.7479751047504706E-01 
    8.5192053612908214E-01 
    8.2715191229640805E-01 
    7.8984800964842894E-01 
    6.5584737973843987E-01 
    7.0975244546280347E-02 
    1.6029077758116923E-06 
    1.0000000768198847E-06 
    9.9999999999999995E-07 
    9.9999999999999995E-07 
    9.9999999999999995E-07 
    9.9999999999999995E-07 
    9.1603892104687268E-01 
    9.1360543312131981E-01 
    9.0278969622709371E-01 
    8.8493160022847572E-01 
    8.6430547695797855E-01 
    8.4323912016797142E-01 
    8.1958817790164940E-01 
    7.7952819965913889E-01 
    5.8110769468721135E-01 
    2.0193072810062000E-02 
    1.6521425119515384E-06 
    1.0000000505848118E-06 
    9.9999999999999995E-07 
    9.9999999999999995E-07 
    9.9999999999999995E-07 
    9.9999999999999995E-07 
    8.9575963476539400E-01 
    8.9498380066480310E-01 
    8.8662653861493390E-01 
    8.7124627590335935E-01 
    8.5309073272846248E-01 
    8.3397657299897920E-01 
    8.1070818121633847E-01 
    7.6282684380812427E-01 
    4.3756411678253693E-01 
    1.0925069449403541E-03 
    1.0051212863990106E-06 
    1.0000000003593912E-06 
    9.9999999999999995E-07 
    9.9999999999999995E-07 
    9.9999999999999995E-07 
    9.9999999999999995E-07 
    8.7293905240353975E-01 
    8.7401159490168190E-01 
    8.6856547559898467E-01 
    8.5626485147243625E-01 
    8.4134334476182027E-01 
    8.2446753215258017E-01 
    8.0045876928042226E-01 
    7.3841155222027466E-01 
    2.8831059031631545E-01 
    8.6002601141997015E-05 
    1.0013214301129174E-06 
    9.9999999999999995E-07 
    9.9999999999999995E-07 
    9.9999999999999995E-07 
    9.9999999999999995E-07 
    9.9999999999999995E-07 
    8.4904251670816955E-01 
    8.5173739735102350E-01 
    8.4927858067045758E-01 
    8.4057835969263772E-01 
    8.2962620300847434E-01 
    8.1503743153751373E-01 
    7.8675167115346512E-01 
    6.8666647064458508E-01 
    1.2953513564598032E-01 
    9.7879124207387135E-05 
    1.0004059338894691E-06 
    9.9999999999999995E-07 
    9.9999999999999995E-07 
    9.9999999999999995E-07 
    9.9999999999999995E-07 
    9.9999999999999995E-07 
    8.2505621512696681E-01 
    8.2930769744814192E-01 
    8.2903355020174951E-01 
    8.2359480291872567E-01 
    8.1559977112013737E-01 
    8.0111883192510391E-01 
    7.5867023009466805E-01 
    4.5983641243525636E-01 
    6.6758140100069644E-03 
    1.4734992639626239E-06 
    1.0000000356793255E-06 
    9.9999999999999995E-07 
    9.9999999999999995E-07 
    9.9999999999999995E-07 
    9.9999999999999995E-07 
    9.9999999999999995E-07 
    7.7120793359692541E-01 
    7.8458253637256348E-01 
    7.9208624537958949E-01 
    7.9111048781235249E-01 
    7.8254143462488146E-01 
    7.5036181958666492E-01 
    5.5141348930341771E-01 
    8.4825445829453130E-02 
    1.7912281133080005E-04 
    1.0011364338142193E-06 
    1.0000000000000002E-06 
    9.9999999999999995E-07 
    9.9999999999999995E-07 
    9.9999999999999995E-07 
    9.9999999999999995E-07 
    9.9999999999999995E-07 
    3.6528682450789252E-01 
    5.3894581107538453E-01 
    5.8172217264984905E-01 
    5.9796169849124625E-01 
    5.2503353738785574E-01 
    3.1237786896023889E-01 
    2.9645193460945914E-02 
    1.1309811600214743E-05 
    1.0000036369557194E-06 
    1.0000000000000160E-06 
    9.9999999999999995E-07 
    9.9999999999999995E-07 
    9.9999999999999995E-07 
    9.9999999999999995E-07 
    9.9999999999999995E-07 
    9.9999999999999995E-07 
    6.8733912463205130E-06 
    1.3669016442893804E-02 
    9.4801235617543219E-03 
    2.4432734332716848E-02 
    4.3632891415573624E-03 
    3.5465833837077937E-05 
    1.2885222409667564E-06 
    1.0000000291285031E-06 
    9.9999999999999995E-07 
    9.9999999999999995E-07 
    9.9999999999999995E-07 
    9.9999999999999995E-07 
    9.9999999999999995E-07 
    9.9999999999999995E-07 
    9.9999999999999995E-07 
    1.0000000835943301E-06 
