# vtk DataFile Version 2.0
Pressure Field Data 
ASCII 
DATASET UNSTRUCTURED_GRID 

POINTS 16641 double 

    0.0000000000000000E+00     0.0000000000000000E+00     0.0000000000000000E+00 
    1.0000000000000000E+00     0.0000000000000000E+00     0.0000000000000000E+00 
    1.0000000000000000E+00     1.0000000000000000E+00     0.0000000000000000E+00 
    0.0000000000000000E+00     1.0000000000000000E+00     0.0000000000000000E+00 
    7.8124999999849972E-03     0.0000000000000000E+00     0.0000000000000000E+00 
    1.5624999999970159E-02     0.0000000000000000E+00     0.0000000000000000E+00 
    2.3437499999955320E-02     0.0000000000000000E+00     0.0000000000000000E+00 
    3.1249999999940471E-02     0.0000000000000000E+00     0.0000000000000000E+00 
    3.9062499999922923E-02     0.0000000000000000E+00     0.0000000000000000E+00 
    4.6874999999905347E-02     0.0000000000000000E+00     0.0000000000000000E+00 
    5.4687499999887798E-02     0.0000000000000000E+00     0.0000000000000000E+00 
    6.2499999999870243E-02     0.0000000000000000E+00     0.0000000000000000E+00 
    7.0312499999858100E-02     0.0000000000000000E+00     0.0000000000000000E+00 
    7.8124999999845957E-02     0.0000000000000000E+00     0.0000000000000000E+00 
    8.5937499999833813E-02     0.0000000000000000E+00     0.0000000000000000E+00 
    9.3749999999821670E-02     0.0000000000000000E+00     0.0000000000000000E+00 
    1.0156249999980950E-01     0.0000000000000000E+00     0.0000000000000000E+00 
    1.0937499999979740E-01     0.0000000000000000E+00     0.0000000000000000E+00 
    1.1718749999978530E-01     0.0000000000000000E+00     0.0000000000000000E+00 
    1.2499999999977310E-01     0.0000000000000000E+00     0.0000000000000000E+00 
    1.3281249999975051E-01     0.0000000000000000E+00     0.0000000000000000E+00 
    1.4062499999972780E-01     0.0000000000000000E+00     0.0000000000000000E+00 
    1.4843749999970521E-01     0.0000000000000000E+00     0.0000000000000000E+00 
    1.5624999999968250E-01     0.0000000000000000E+00     0.0000000000000000E+00 
    1.6406249999965991E-01     0.0000000000000000E+00     0.0000000000000000E+00 
    1.7187499999963721E-01     0.0000000000000000E+00     0.0000000000000000E+00 
    1.7968749999961461E-01     0.0000000000000000E+00     0.0000000000000000E+00 
    1.8749999999959191E-01     0.0000000000000000E+00     0.0000000000000000E+00 
    1.9531249999956929E-01     0.0000000000000000E+00     0.0000000000000000E+00 
    2.0312499999954661E-01     0.0000000000000000E+00     0.0000000000000000E+00 
    2.1093749999952399E-01     0.0000000000000000E+00     0.0000000000000000E+00 
    2.1874999999950129E-01     0.0000000000000000E+00     0.0000000000000000E+00 
    2.2656249999947869E-01     0.0000000000000000E+00     0.0000000000000000E+00 
    2.3437499999945610E-01     0.0000000000000000E+00     0.0000000000000000E+00 
    2.4218749999943340E-01     0.0000000000000000E+00     0.0000000000000000E+00 
    2.4999999999941080E-01     0.0000000000000000E+00     0.0000000000000000E+00 
    2.5781249999938799E-01     0.0000000000000000E+00     0.0000000000000000E+00 
    2.6562499999936517E-01     0.0000000000000000E+00     0.0000000000000000E+00 
    2.7343749999934241E-01     0.0000000000000000E+00     0.0000000000000000E+00 
    2.8124999999931960E-01     0.0000000000000000E+00     0.0000000000000000E+00 
    2.8906249999929678E-01     0.0000000000000000E+00     0.0000000000000000E+00 
    2.9687499999927403E-01     0.0000000000000000E+00     0.0000000000000000E+00 
    3.0468749999925121E-01     0.0000000000000000E+00     0.0000000000000000E+00 
    3.1249999999922839E-01     0.0000000000000000E+00     0.0000000000000000E+00 
    3.2031249999920558E-01     0.0000000000000000E+00     0.0000000000000000E+00 
    3.2812499999918282E-01     0.0000000000000000E+00     0.0000000000000000E+00 
    3.3593749999916001E-01     0.0000000000000000E+00     0.0000000000000000E+00 
    3.4374999999913719E-01     0.0000000000000000E+00     0.0000000000000000E+00 
    3.5156249999911438E-01     0.0000000000000000E+00     0.0000000000000000E+00 
    3.5937499999909162E-01     0.0000000000000000E+00     0.0000000000000000E+00 
    3.6718749999906880E-01     0.0000000000000000E+00     0.0000000000000000E+00 
    3.7499999999904599E-01     0.0000000000000000E+00     0.0000000000000000E+00 
    3.8281249999902389E-01     0.0000000000000000E+00     0.0000000000000000E+00 
    3.9062499999900180E-01     0.0000000000000000E+00     0.0000000000000000E+00 
    3.9843749999897971E-01     0.0000000000000000E+00     0.0000000000000000E+00 
    4.0624999999895761E-01     0.0000000000000000E+00     0.0000000000000000E+00 
    4.1406249999893541E-01     0.0000000000000000E+00     0.0000000000000000E+00 
    4.2187499999891331E-01     0.0000000000000000E+00     0.0000000000000000E+00 
    4.2968749999889122E-01     0.0000000000000000E+00     0.0000000000000000E+00 
    4.3749999999886913E-01     0.0000000000000000E+00     0.0000000000000000E+00 
    4.4531249999884698E-01     0.0000000000000000E+00     0.0000000000000000E+00 
    4.5312499999882488E-01     0.0000000000000000E+00     0.0000000000000000E+00 
    4.6093749999880268E-01     0.0000000000000000E+00     0.0000000000000000E+00 
    4.6874999999878059E-01     0.0000000000000000E+00     0.0000000000000000E+00 
    4.7656249999875860E-01     0.0000000000000000E+00     0.0000000000000000E+00 
    4.8437499999873651E-01     0.0000000000000000E+00     0.0000000000000000E+00 
    4.9218749999871442E-01     0.0000000000000000E+00     0.0000000000000000E+00 
    4.9999999999869221E-01     0.0000000000000000E+00     0.0000000000000000E+00 
    5.0781249999871214E-01     0.0000000000000000E+00     0.0000000000000000E+00 
    5.1562499999873201E-01     0.0000000000000000E+00     0.0000000000000000E+00 
    5.2343749999875200E-01     0.0000000000000000E+00     0.0000000000000000E+00 
    5.3124999999877187E-01     0.0000000000000000E+00     0.0000000000000000E+00 
    5.3906249999879174E-01     0.0000000000000000E+00     0.0000000000000000E+00 
    5.4687499999881162E-01     0.0000000000000000E+00     0.0000000000000000E+00 
    5.5468749999883160E-01     0.0000000000000000E+00     0.0000000000000000E+00 
    5.6249999999885147E-01     0.0000000000000000E+00     0.0000000000000000E+00 
    5.7031249999887135E-01     0.0000000000000000E+00     0.0000000000000000E+00 
    5.7812499999889122E-01     0.0000000000000000E+00     0.0000000000000000E+00 
    5.8593749999891120E-01     0.0000000000000000E+00     0.0000000000000000E+00 
    5.9374999999893108E-01     0.0000000000000000E+00     0.0000000000000000E+00 
    6.0156249999895095E-01     0.0000000000000000E+00     0.0000000000000000E+00 
    6.0937499999897082E-01     0.0000000000000000E+00     0.0000000000000000E+00 
    6.1718749999899081E-01     0.0000000000000000E+00     0.0000000000000000E+00 
    6.2499999999901068E-01     0.0000000000000000E+00     0.0000000000000000E+00 
    6.3281249999903122E-01     0.0000000000000000E+00     0.0000000000000000E+00 
    6.4062499999905187E-01     0.0000000000000000E+00     0.0000000000000000E+00 
    6.4843749999907252E-01     0.0000000000000000E+00     0.0000000000000000E+00 
    6.5624999999909306E-01     0.0000000000000000E+00     0.0000000000000000E+00 
    6.6406249999911371E-01     0.0000000000000000E+00     0.0000000000000000E+00 
    6.7187499999913436E-01     0.0000000000000000E+00     0.0000000000000000E+00 
    6.7968749999915490E-01     0.0000000000000000E+00     0.0000000000000000E+00 
    6.8749999999917555E-01     0.0000000000000000E+00     0.0000000000000000E+00 
    6.9531249999919620E-01     0.0000000000000000E+00     0.0000000000000000E+00 
    7.0312499999921674E-01     0.0000000000000000E+00     0.0000000000000000E+00 
    7.1093749999923728E-01     0.0000000000000000E+00     0.0000000000000000E+00 
    7.1874999999925793E-01     0.0000000000000000E+00     0.0000000000000000E+00 
    7.2656249999927858E-01     0.0000000000000000E+00     0.0000000000000000E+00 
    7.3437499999929923E-01     0.0000000000000000E+00     0.0000000000000000E+00 
    7.4218749999931988E-01     0.0000000000000000E+00     0.0000000000000000E+00 
    7.4999999999934042E-01     0.0000000000000000E+00     0.0000000000000000E+00 
    7.5781249999936096E-01     0.0000000000000000E+00     0.0000000000000000E+00 
    7.6562499999938161E-01     0.0000000000000000E+00     0.0000000000000000E+00 
    7.7343749999940226E-01     0.0000000000000000E+00     0.0000000000000000E+00 
    7.8124999999942280E-01     0.0000000000000000E+00     0.0000000000000000E+00 
    7.8906249999944345E-01     0.0000000000000000E+00     0.0000000000000000E+00 
    7.9687499999946410E-01     0.0000000000000000E+00     0.0000000000000000E+00 
    8.0468749999948463E-01     0.0000000000000000E+00     0.0000000000000000E+00 
    8.1249999999950528E-01     0.0000000000000000E+00     0.0000000000000000E+00 
    8.2031249999952593E-01     0.0000000000000000E+00     0.0000000000000000E+00 
    8.2812499999954647E-01     0.0000000000000000E+00     0.0000000000000000E+00 
    8.3593749999956701E-01     0.0000000000000000E+00     0.0000000000000000E+00 
    8.4374999999958766E-01     0.0000000000000000E+00     0.0000000000000000E+00 
    8.5156249999960831E-01     0.0000000000000000E+00     0.0000000000000000E+00 
    8.5937499999962896E-01     0.0000000000000000E+00     0.0000000000000000E+00 
    8.6718749999964961E-01     0.0000000000000000E+00     0.0000000000000000E+00 
    8.7499999999967015E-01     0.0000000000000000E+00     0.0000000000000000E+00 
    8.8281249999969069E-01     0.0000000000000000E+00     0.0000000000000000E+00 
    8.9062499999971134E-01     0.0000000000000000E+00     0.0000000000000000E+00 
    8.9843749999973199E-01     0.0000000000000000E+00     0.0000000000000000E+00 
[...]
CELL_DATA 16384 
SCALARS Pressure double 1 
LOOKUP_TABLE default 

    9.9524568352627385E-01 
    9.9224469633681123E-01 
    9.9225156090918309E-01 
    9.9524582359636393E-01 
    9.8921975217856128E-01 
    9.8614700551529466E-01 
    9.8616695438647328E-01 
    9.8923324053213757E-01 
    9.8924579650671951E-01 
    9.8618554478894860E-01 
    9.8620285021022580E-01 
    9.8925747986929946E-01 
    9.9524596477687666E-01 
    9.9225794670339151E-01 
    9.9226389071631671E-01 
    9.9524610817283332E-01 
    9.8300292161455405E-01 
    9.7976445975067561E-01 
    9.7979664492289853E-01 
    9.8302911780008806E-01 
    9.7640924777317328E-01 
    9.7291575009583520E-01 
    9.7295896872237786E-01 
    9.7644712081317031E-01 
    9.7648250303372131E-01 
    9.7299936523899810E-01 
    9.7303703385294738E-01 
    9.7651548597584059E-01 
    9.8305355469708500E-01 
    9.7982669358280550E-01 
    9.7985469340724107E-01 
    9.8307631434989484E-01 
    9.8309746927678299E-01 
    9.7988072486290567E-01 
    9.7990486271657773E-01 
    9.8311708494165284E-01 
    9.7654615604518069E-01 
    9.7307206541646152E-01 
    9.7310454790339673E-01 
    9.7657459539073677E-01 
    9.7660088284128854E-01 
    9.7313456700247469E-01 
    9.7316220671901399E-01 
    9.7662509476799986E-01 
    9.8313522176185342E-01 
    9.7992717744354008E-01 
    9.7994773640633159E-01 
    9.8315193662234368E-01 
    9.9524625487431284E-01 
    9.9226941952147540E-01 
    9.9227455441383416E-01 
    9.9524640594766933E-01 
    9.8926833745227960E-01 
    9.8621893236532676E-01 
    9.8623384500580002E-01 
    9.8927840836244896E-01 
    9.8928772695766654E-01 
    9.8624763655898195E-01 
    9.8626035189691597E-01 
    9.8929632459184580E-01 
    9.9524656242715537E-01 
    9.9227931373080291E-01 
    9.9228371402952176E-01 
    9.9524672530685254E-01 
    9.6926342924333575E-01 
    9.6543290027572293E-01 
    9.6548562688887318E-01 
    9.6931161161876289E-01 
    9.6140607697836400E-01 
    9.5716630842991368E-01 
    9.5722672634537587E-01 
    9.6146289295411291E-01 
    9.6151603866905644E-01 
    9.5728324338883097E-01 
    9.5733595586621234E-01 
    9.6156561110357186E-01 
    9.6935666423082534E-01 
    9.6553494065683843E-01 
    9.6558093843609316E-01 
    9.6939868302182541E-01 
    9.5269850436994163E-01 
    9.4798924765886328E-01 
    9.4805529437598157E-01 
    9.5276200761846952E-01 
    9.4302689205204349E-01 
    9.3780164350027373E-01 
    9.3787107345288168E-01 
    9.4309491959508840E-01 
    9.4315852552979829E-01 
    9.3793596786520028E-01 
    9.3799641186430005E-01 
    9.4321779909608905E-01 
    9.5282140728000175E-01 
    9.4811706366121806E-01 
    9.4817464797619544E-01 
    9.5287679816345805E-01 
    9.5292827742852571E-01 
    9.4822814286431434E-01 
    9.4827764683752136E-01 
    9.5297594447490108E-01 
    9.4327283325449895E-01 
    9.3805249485335174E-01 
    9.3810431044723175E-01 
    9.4332372458909886E-01 
    9.4337057328577767E-01 
    9.3815195647687921E-01 
    9.3819553503810271E-01 
    9.4341348316011453E-01 
    9.5301990092386113E-01 
    9.4832326134620859E-01 
    9.4836509080399822E-01 
    9.5306025065994193E-01 
    9.6943776209193944E-01 
    9.6562371653066847E-01 
    9.6566337075736153E-01 
    9.6947399392254996E-01 
    9.6161170779342986E-01 
    9.5738496159818587E-01 
    9.5743035983443148E-01 
    9.6165442679871604E-01 
    9.6169386678755520E-01 
    9.5747225127098756E-01 
    9.5751073813213461E-01 
    9.6173012718643458E-01 
    9.6950746972983937E-01 
    9.6569999663653239E-01 
    9.6573368964592821E-01 
    9.6953827986588537E-01 
    9.6956651420995543E-01 
    9.6576454548895141E-01 
    9.6579266034321376E-01 
    9.6959226251489117E-01 
    9.6176330835666213E-01 
    9.5754592428276353E-01 
    9.5757791534322900E-01 
    9.6179351176573358E-01 
    9.6182084013116387E-01 
    9.5760681878499576E-01 
    9.5763274399112741E-01 
    9.6184539752166309E-01 
    9.6961561468979540E-01 
    9.6581813106735925E-01 
    9.6584105535331288E-01 
    9.6963666101098500E-01 
    9.5309709990334357E-01 
    9.4840324264128084E-01 
    9.4843782736443072E-01 
    9.5313055728784590E-01 
    9.4345256171086278E-01 
    9.3823515256225365E-01 
    9.3827091988826838E-01 
    9.4348792017750815E-01 
    9.4351967358318234E-01 
    9.3830295231790861E-01 
    9.3833136963838504E-01 
    9.4354794074707582E-01 
    9.5316073392365563E-01 
    9.4846895860116753E-01 
    9.4849675311607862E-01 
    9.5318774342908608E-01 
    9.5321170191897564E-01 
    9.4852133078361611E-01 
    9.4854281450880440E-01 
    9.5323272794111513E-01 
    9.4357284425322863E-01 
    9.3835629609879667E-01 
    9.3837786032890036E-01 
    9.4359451036504671E-01 
    9.4361306887709417E-01 
    9.3839619519060702E-01 
    9.3841143755431333E-01 
    9.4362865289764852E-01 
    9.5325094235471763E-01 
    9.4856133008836907E-01 
    9.4857700600713279E-01 
    9.5326646814719440E-01 
    9.6965549225967917E-01 
    9.6586153181750378E-01 
    9.6587966002883729E-01 
    9.6967219978856911E-01 
    9.6186728940623289E-01 
    9.5765580227048175E-01 
    9.5767610681830040E-01 
    9.6188662264592295E-01 
    9.6190350542596281E-01 
    9.5769377261883082E-01 
    9.5770891628785426E-01 
    9.6191804712807560E-01 
    9.6968687552129662E-01 
    9.6589554047388093E-01 
    9.6590927446139341E-01 
    9.6969961188975606E-01 
    9.9524689553290480E-01 
    9.9228777074129293E-01 
    9.9229149856023158E-01 
    9.9524707399608403E-01 
    9.8930423067632356E-01 
    9.8627203351726667E-01 
    9.8628272233604397E-01 
    9.8931147334770564E-01 
    9.8931807989840914E-01 
    9.8629245822209166E-01 
    9.8630128035601339E-01 
    9.8932407705707548E-01 
    9.9524726152474630E-01 
    9.9229491168422257E-01 
    9.9229802396750699E-01 
    9.9524745887823762E-01 
    9.8316728397894992E-01 
    9.7996660478483422E-01 
    9.7998384628333646E-01 
    9.8318131664808273E-01 
    9.7664730581647230E-01 
    9.7318754992209167E-01 
    9.7321067880673140E-01 
    9.7666758949477173E-01 
    9.7668601862473281E-01 
    9.7323167526089294E-01 
    9.7325062113806393E-01 
    9.7670266567177511E-01 
    9.8319408636433581E-01 
    9.7999952365216092E-01 
    9.8001369905980151E-01 
    9.8320564416687417E-01 
    9.8321604065829227E-01 
    9.8002643434560854E-01 
    9.8003779117676215E-01 
    9.8322532616689484E-01 
    9.7671760296996424E-01 
    9.7326759844151722E-01 
    9.7328268942831375E-01 
    9.7673090285785324E-01 
    9.7674263773855829E-01 
    9.7329597664150236E-01 
    9.7330754287857979E-01 
    9.7675288007541150E-01 
    9.8323355083446151E-01 
    9.8004783112792193E-01 
    9.8005661569777547E-01 
    9.8324076464545085E-01 
    9.9524766674083220E-01 
    9.9230084901705218E-01 
    9.9230340025128150E-01 
    9.9524788571628076E-01 
    9.8932949116955526E-01 
    9.8630922746636496E-01 
    9.8631633797746021E-01 
    9.8933434831122202E-01 
    9.8933867435005940E-01 
    9.8632265009168241E-01 
    9.8632820182199921E-01 
    9.8934249497332616E-01 
    9.9524811632305576E-01 
    9.9230569093250753E-01 
    9.9230773418035434E-01 
    9.9524835899038155E-01 
    9.9524861405513243E-01 
    9.9230954297106932E-01 
    9.9231113012616945E-01 
    9.9524888175968018E-01 
    9.8934583568657442E-01 
    9.8633303098579572E-01 
    9.8633717516817998E-01 
    9.8934872179128264E-01 
    9.8935117834575304E-01 
    9.8634067166095762E-01 
    9.8634355738216795E-01 
    9.8935323011287291E-01 
    9.9524916225075621E-01 
    9.9231250829294748E-01 
    9.9231368991877267E-01 
    9.9524945557939293E-01 
    9.8324701740945852E-01 
    9.8006420627361479E-01 
    9.8007066405281951E-01 
    9.8325235870591832E-01 
    9.7676170233270998E-01 
    9.7331747110365996E-01 
    9.7332584431014268E-01 
    9.7676917686962073E-01 
    9.7677537579419416E-01 
    9.7333274534014780E-01 
    9.7333825666654916E-01 
    9.7678037078362734E-01 
    9.8325683779810713E-01 
    9.8007604992852293E-01 
    9.8008042434559361E-01 
    9.8326050352219729E-01 
    9.8326340415617230E-01 
    9.8008384713226593E-01 
    9.8008637731219994E-01 
    9.8326558727280733E-01 
    9.7678423287633187E-01 
    9.7334246014317305E-01 
    9.7334543672856633E-01 
    9.7678703224098840E-01 
    9.7678883792750293E-01 
    9.7334726618867773E-01 
    9.7334802678381305E-01 
    9.7678971760463984E-01 
    9.8326709958045899E-01 
    9.8008807290136923E-01 
    9.8008899069391286E-01 
    9.8326798675510685E-01 
    9.9524976170197887E-01 
    9.9231468722071481E-01 
    9.9231551215174973E-01 
    9.9525008048245722E-01 
    9.8935490149762395E-01 
    9.8634586878018471E-01 
    9.8634764172578371E-01 
    9.8935621647674532E-01 
    9.8935719852261528E-01 
    9.8634891139514047E-01 
    9.8634971214643063E-01 
    9.8935787052316992E-01 
    9.9525041169566508E-01 
    9.9231617636460345E-01 
    9.9231669117415566E-01 
    9.9525075503179417E-01 
    9.6971050171447060E-01 
    9.6592096396936211E-01 
    9.6593071143836684E-01 
    9.6971963803337102E-01 
    9.6193035814424044E-01 
    9.5772165585472269E-01 
    9.5773211048487683E-01 
    9.6194054963427245E-01 
    9.6194873323044927E-01 
    9.5774040014498241E-01 
    9.5774664521389674E-01 
    9.6195502069317285E-01 
    9.6972711388431754E-01 
    9.6593861951558135E-01 
    9.6594479075411055E-01 
    9.6973302204669831E-01 
    9.5327943018732064E-01 
    9.4858997316632654E-01 
    9.4860036454211127E-01 
    9.5328995491442137E-01 
    9.4364139855724483E-01 
    9.3842372799378837E-01 
    9.3843321039492389E-01 
    9.4365144464008188E-01 
    9.4365893213680319E-01 
    9.3844003147533173E-01 
    9.3844434021364709E-01 
    9.4366400371889292E-01 
    9.5329816996459948E-01 
    9.4860831477413377E-01 
    9.4861395968551032E-01 
    9.5330420373635971E-01 
    9.5330818489934854E-01 
    9.4861743573726964E-01 
    9.4861887942211576E-01 
    9.5331024185137625E-01 
    9.4366680313686047E-01 
    9.3844628718954137E-01 
    9.3844602383800979E-01 
    9.4366747454655042E-01 
    9.4366616177041451E-01 
    9.3844370162446999E-01 
    9.3843947115068027E-01 
    9.4366300750337628E-01 
    9.5331050213046031E-01 
    9.4861842660436357E-01 
    9.4861621181511768E-01 
    9.5330909179030310E-01 
    9.6973745474749840E-01 
    9.6594932727276572E-01 
    9.6595233038180561E-01 
    9.6974050333734796E-01 
    9.6195952352238390E-01 
    9.5775096604373133E-01 
    9.5775348247637271E-01 
    9.6196235253021523E-01 
    9.6196361738115499E-01 
    9.5775431332199312E-01 
    9.5775357580729681E-01 
    9.6196342610683261E-01 
    9.6974225794225211E-01 
    9.6595390018064942E-01 
    9.6595413513405726E-01 
    9.6974280709692084E-01 
    9.6974223736587839E-01 
    9.6595313163379548E-01 
    9.6595098355325293E-01 
    9.6974063295873125E-01 
    9.6196188460337173E-01 
    9.5775138500250623E-01 
    9.5774785323728606E-01 
    9.6195909612003749E-01 
    9.6195516074855514E-01 
    9.5774308951687548E-01 
    9.5773719895045628E-01 
    9.6195017492287649E-01 
    9.6973807534614020E-01 
    9.6594778180282459E-01 
    9.6594361389406180E-01 
    9.6973464288303890E-01 
    9.5330613474937509E-01 
    9.4861236751412803E-01 
    9.4860702333219826E-01 
    9.5330175212552648E-01 
    9.4365815247601625E-01 
    9.3843348120541692E-01 
    9.3842587777816422E-01 
    9.4365173459109808E-01 
    9.4364388805282107E-01 
    9.3841680305864872E-01 
    9.3840639444963425E-01 
    9.4363474251135515E-01 
    9.5329606156967261E-01 
    9.4860030531040573E-01 
    9.4859233515449559E-01 
    9.5328917661342039E-01 
    9.5328120604627675E-01 
    9.4858322952434859E-01 
    9.4857309937902912E-01 
    9.5327225333803745E-01 
    9.4362442224790777E-01 
    9.3839478362466289E-01 
    9.3838209566589259E-01 
    9.4361304542730173E-01 
    9.4360072344523027E-01 
    9.3836844831921407E-01 
    9.3835395140352496E-01 
    9.4358756039513358E-01 
    9.5326241612068741E-01 
    9.4856204939705036E-01 
    9.4855017748853754E-01 
    9.5325178574128477E-01 
    9.6973041044550501E-01 
    9.6593856352047980E-01 
    9.6593271016250859E-01 
    9.6972544908730440E-01 
    9.6194423093922576E-01 
    9.5773028220411049E-01 
    9.5772243499035481E-01 
    9.6193741650581144E-01 
    9.6192981433055813E-01 
    9.5771374760500994E-01 
    9.5770430451983368E-01 
    9.6192150175354274E-01 
    9.6971982572156445E-01 
    9.6592612872327122E-01 
    9.6591888920075974E-01 
    9.6971360283227415E-01 
    9.9525111010192657E-01 
    9.9231706751920079E-01 
    9.9231731592428585E-01 
    9.9525147644457412E-01 
    9.8935825469949712E-01 
    9.8635007739246761E-01 
    9.8635003947164313E-01 
    9.8935837252259795E-01 
    9.8935824463068434E-01 
    9.8634962951927785E-01 
    9.8634887734135268E-01 
    9.8935789074827496E-01 
    9.9525185353312873E-01 
    9.9231744646225728E-01 
    9.9231746871808890E-01 
    9.9525224078410079E-01 
    9.8326829326685172E-01 
    9.8008918604089357E-01 
    9.8008871262576325E-01 
    9.8326806220389817E-01 
    9.7678973728899265E-01 
    9.7334779494525969E-01 
    9.7334664494702761E-01 
    9.7678896106989210E-01 
    9.7678745083475260E-01 
    9.7334464857815683E-01 
    9.7334187482096235E-01 
    9.7678526599923421E-01 
    9.8326733509688635E-01 
    9.8008762224018997E-01 
    9.8008596456374519E-01 
    9.8326615174628551E-01 
    9.8326455005538549E-01 
    9.8008378695077236E-01 
    9.8008113422752119E-01 
    9.8326256587124350E-01 
    9.7678246324640239E-01 
    9.7333838954040808E-01 
    9.7333425518948236E-01 
    9.7677909627880499E-01 
    9.7677521558704961E-01 
    9.7332953053502358E-01 
    9.7332427040792768E-01 
    9.7677086823809545E-01 
    9.8326023283573316E-01 
    9.8007804850238078E-01 
    9.8007456899174639E-01 
    9.8325758224861692E-01 
    9.9525263756601468E-01 
    9.9231739175449030E-01 
    9.9231722407974188E-01 
    9.9525304320880337E-01 
    9.8935732960824330E-01 
    9.8634781129244908E-01 
    9.8634645815957955E-01 
    9.8935657887786665E-01 
    9.8935565508981638E-01 
    9.8634484305342840E-01 
    9.8634298930836906E-01 
    9.8935457357892620E-01 
    9.9525345701353918E-01 
    9.9231697361813787E-01 
    9.9231664768336536E-01 
    9.9525387826233302E-01 
    9.9525430622823285E-01 
    9.9231625295509507E-01 
    9.9231579545900828E-01 
    9.9525474018496607E-01 
    9.8935334842545464E-01 
    9.8634091839243321E-01 
    9.8633864982822250E-01 
    9.8935199240544702E-01 
    9.8935051694869469E-01 
    9.8633620112552356E-01 
    9.8633358772611590E-01 
    9.8934893210469599E-01 
    9.9525517941638342E-01 
    9.9231528055045937E-01 
    9.9231471290196804E-01 
    9.9525562322548455E-01 
    9.8325464294432563E-01 
    9.8007073186376004E-01 
    9.8006657010183384E-01 
    9.8325144118385244E-01 
    9.7676609768609923E-01 
    9.7331852548118347E-01 
    9.7331234207882456E-01 
    9.7676094360832133E-01 
    9.7675544176829798E-01 
    9.7330576201883434E-01 
    9.7329882249327104E-01 
    9.7674962390805042E-01 
    9.8324800056282458E-01 
    9.8006211338947868E-01 
    9.8005738801732356E-01 
    9.8324434193632015E-01 
    9.8324048336019931E-01 
    9.8005241681199406E-01 
    9.8004721908410919E-01 
    9.8323644004756527E-01 
    9.7674351767000833E-01 
    9.7329155598906048E-01 
    9.7328399025162904E-01 
    9.7673714654640953E-01 
    9.7673052984699971E-01 
    9.7327614828733100E-01 
    9.7326804838228875E-01 
    9.7672368266148246E-01 
    9.8323222433755553E-01 
    9.8004181058826489E-01 
    9.8003620348104425E-01 
    9.8322784567298804E-01 
    9.9525607094293556E-01 
    9.9231409649485314E-01 
    9.9231343461567489E-01 
    9.9525652193500513E-01 
    9.8934724651707584E-01 
    9.8633082296099195E-01 
    9.8632791802009068E-01 
    9.8934546740730067E-01 
    9.8934360056979664E-01 
    9.8632488193522905E-01 
    9.8632172157949627E-01 
    9.8934165038376021E-01 
    9.9525697561087467E-01 
    9.9231272985907126E-01 
    9.9231198414058064E-01 
    9.9525743142927192E-01 
    9.6970683821956527E-01 
    9.6591105640067221E-01 
    9.6590268969306070E-01 
    9.6969958478219809E-01 
    9.6191255042857360E-01 
    9.5769418403580153E-01 
    9.5768345799727483E-01 
    9.6190302605593536E-01 
    9.6189298816657054E-01 
    9.5767219156215067E-01 
    9.5766044301923481E-01 
    9.6188248995877146E-01 
    9.6969189034080794E-01 
    9.6589384281576041E-01 
    9.6588456372949294E-01 
    9.6968379750675004E-01 
    9.5324044689232790E-01 
    9.4853757440999331E-01 
    9.4852432348223537E-01 
    9.5322847731858684E-01 
    9.4357365267383309E-01 
    9.3833870640712647E-01 
    9.3832280629478748E-01 
    9.4355908873387784E-01 
    9.4354394897111382E-01 
    9.3830633553089737E-01 
    9.3828937029168336E-01 
    9.4352830570346802E-01 
    9.5321594758905237E-01 
    9.4851050039610507E-01 
    9.4849617306657841E-01 
    9.5320292090992464E-01 
    9.5318945294177060E-01 
    9.4848140146119397E-01 
    9.4846623728089574E-01 
    9.5317559157864373E-01 
    9.4351222314259409E-01 
    9.3827197878172797E-01 
    9.3825422146430704E-01 
    9.4349575716755918E-01 
    9.4347895454759900E-01 
    9.3823615081091882E-01 
    9.3821780975301250E-01 
    9.4346185096748314E-01 
    9.5316137666968004E-01 
    9.4845072331268954E-01 
    9.4843489222596822E-01 
    9.5314683976798453E-01 
    9.6967534360414553E-01 
    9.6587489453539388E-01 
    9.6586487147760147E-01 
    9.6966656065651069E-01 
    9.6187157819527380E-01 
    9.5764826364576050E-01 
    9.5763569761450362E-01 
    9.6186029318766120E-01 
    9.6184866893582222E-01 
    9.5762278201085327E-01 
    9.5760954714387547E-01 
    9.6183673356488297E-01 
    9.6965747545101189E-01 
    9.6585452507239355E-01 
    9.6584388042645519E-01 
    9.6964810968353410E-01 
    9.6963848014379317E-01 
    9.6583295780741341E-01 
    9.6582177344144471E-01 
    9.6962859877597996E-01 
    9.6182451031526695E-01 
    9.5759601760063340E-01 
    9.5758221499892993E-01 
    9.6181201945412498E-01 
    9.6179928139586102E-01 
    9.5756816419181356E-01 
    9.5755390537710872E-01 
    9.6178632042903223E-01 
    9.6961847217234787E-01 
    9.6581034016941536E-01 
    9.6579866666505920E-01 
    9.6960809954862603E-01 
    9.5313200431039502E-01 
    9.4841876464232677E-01 
    9.4840234681230107E-01 
    9.5311688748038415E-01 
    9.4344446666685144E-01 
    9.3819922706986292E-01 
    9.3818040560079319E-01 
    9.4342679752017489E-01 
    9.4340879782874243E-01 
    9.3816129270586723E-01 
    9.3814170233074279E-01 
    9.4339035022865581E-01 
    9.5310150707514918E-01 
    9.4838563032709855E-01 
    9.4836860366118780E-01 
    9.5308590123662584E-01 
    9.5307017693424945E-01 
    9.4835130906544507E-01 
    9.4833404709302671E-01 
    9.5305460859898916E-01 
    9.4337122890913239E-01 
    9.3812108771722347E-01 
    9.3809778855004744E-01 
    9.4335115298918948E-01 
    9.4333058542259862E-01 
    9.3806619496594634E-01 
    9.3800482897647974E-01 
    9.4331610344495487E-01 
    9.5303976563329729E-01 
    9.4831798634402464E-01 
    9.4830647292396308E-01 