# vtk DataFile Version 2.0
Pressure Field Data 
ASCII 
DATASET UNSTRUCTURED_GRID 

POINTS 289 double 

    0.0000000000000000E+00     0.0000000000000000E+00     0.0000000000000000E+00 
    1.0000000000000000E+00     0.0000000000000000E+00     0.0000000000000000E+00 
    1.0000000000000000E+00     1.0000000000000000E+00     0.0000000000000000E+00 
    0.0000000000000000E+00     1.0000000000000000E+00     0.0000000000000000E+00 
    6.2499999999872928E-02     0.0000000000000000E+00     0.0000000000000000E+00 
    1.2499999999977310E-01     0.0000000000000000E+00     0.0000000000000000E+00 
    1.8749999999959341E-01     0.0000000000000000E+00     0.0000000000000000E+00 
    2.4999999999941089E-01     0.0000000000000000E+00     0.0000000000000000E+00 
    3.1249999999922851E-01     0.0000000000000000E+00     0.0000000000000000E+00 
    3.7499999999904610E-01     0.0000000000000000E+00     0.0000000000000000E+00 
    4.3749999999886358E-01     0.0000000000000000E+00     0.0000000000000000E+00 
    4.9999999999869210E-01     0.0000000000000000E+00     0.0000000000000000E+00 
    5.6249999999884603E-01     0.0000000000000000E+00     0.0000000000000000E+00 
    6.2499999999901090E-01     0.0000000000000000E+00     0.0000000000000000E+00 
    6.8749999999917577E-01     0.0000000000000000E+00     0.0000000000000000E+00 
    7.4999999999934064E-01     0.0000000000000000E+00     0.0000000000000000E+00 
    8.1249999999950551E-01     0.0000000000000000E+00     0.0000000000000000E+00 
    8.7499999999967026E-01     0.0000000000000000E+00     0.0000000000000000E+00 
    9.3749999999983513E-01     0.0000000000000000E+00     0.0000000000000000E+00 
    1.0000000000000000E+00     6.2499999999872928E-02     0.0000000000000000E+00 
    1.0000000000000000E+00     1.2499999999977310E-01     0.0000000000000000E+00 
    1.0000000000000000E+00     1.8749999999959341E-01     0.0000000000000000E+00 
    1.0000000000000000E+00     2.4999999999941089E-01     0.0000000000000000E+00 
    1.0000000000000000E+00     3.1249999999922851E-01     0.0000000000000000E+00 
    1.0000000000000000E+00     3.7499999999904610E-01     0.0000000000000000E+00 
    1.0000000000000000E+00     4.3749999999886358E-01     0.0000000000000000E+00 
    1.0000000000000000E+00     4.9999999999869210E-01     0.0000000000000000E+00 
    1.0000000000000000E+00     5.6249999999884603E-01     0.0000000000000000E+00 
    1.0000000000000000E+00     6.2499999999901090E-01     0.0000000000000000E+00 
    1.0000000000000000E+00     6.8749999999917577E-01     0.0000000000000000E+00 
    1.0000000000000000E+00     7.4999999999934064E-01     0.0000000000000000E+00 
    1.0000000000000000E+00     8.1249999999950551E-01     0.0000000000000000E+00 
    1.0000000000000000E+00     8.7499999999967026E-01     0.0000000000000000E+00 
    1.0000000000000000E+00     9.3749999999983513E-01     0.0000000000000000E+00 
    9.3749999999973976E-01     1.0000000000000000E+00     0.0000000000000000E+00 
    8.7499999999950118E-01     1.0000000000000000E+00     0.0000000000000000E+00 
    8.1249999999991318E-01     1.0000000000000000E+00     0.0000000000000000E+00 
    7.5000000000034706E-01     1.0000000000000000E+00     0.0000000000000000E+00 
    6.8750000000078049E-01     1.0000000000000000E+00     0.0000000000000000E+00 
    6.2500000000121403E-01     1.0000000000000000E+00     0.0000000000000000E+00 
    5.6250000000164757E-01     1.0000000000000000E+00     0.0000000000000000E+00 
    5.0000000000205946E-01     1.0000000000000000E+00     0.0000000000000000E+00 
    4.3750000000182099E-01     1.0000000000000000E+00     0.0000000000000000E+00 
    3.7500000000156092E-01     1.0000000000000000E+00     0.0000000000000000E+00 
    3.1250000000130068E-01     1.0000000000000000E+00     0.0000000000000000E+00 
    2.5000000000104050E-01     1.0000000000000000E+00     0.0000000000000000E+00 
    1.8750000000078040E-01     1.0000000000000000E+00     0.0000000000000000E+00 
    1.2500000000052031E-01     1.0000000000000000E+00     0.0000000000000000E+00 
    6.2500000000260125E-02     1.0000000000000000E+00     0.0000000000000000E+00 
    0.0000000000000000E+00     9.3749999999973976E-01     0.0000000000000000E+00 
    0.0000000000000000E+00     8.7499999999950118E-01     0.0000000000000000E+00 
    0.0000000000000000E+00     8.1249999999991318E-01     0.0000000000000000E+00 
    0.0000000000000000E+00     7.5000000000034706E-01     0.0000000000000000E+00 
    0.0000000000000000E+00     6.8750000000078049E-01     0.0000000000000000E+00 
    0.0000000000000000E+00     6.2500000000121403E-01     0.0000000000000000E+00 
    0.0000000000000000E+00     5.6250000000164757E-01     0.0000000000000000E+00 
    0.0000000000000000E+00     5.0000000000205946E-01     0.0000000000000000E+00 
    0.0000000000000000E+00     4.3750000000182099E-01     0.0000000000000000E+00 
    0.0000000000000000E+00     3.7500000000156092E-01     0.0000000000000000E+00 
    0.0000000000000000E+00     3.1250000000130068E-01     0.0000000000000000E+00 
    0.0000000000000000E+00     2.5000000000104050E-01     0.0000000000000000E+00 
    0.0000000000000000E+00     1.8750000000078040E-01     0.0000000000000000E+00 
    0.0000000000000000E+00     1.2500000000052031E-01     0.0000000000000000E+00 
    0.0000000000000000E+00     6.2500000000260125E-02     0.0000000000000000E+00 
    6.2499999999897131E-02     6.2500000000235922E-02     0.0000000000000000E+00 
    6.2499999999921327E-02     1.2500000000047351E-01     0.0000000000000000E+00 
    6.2499999999945530E-02     1.8750000000070621E-01     0.0000000000000000E+00 
    6.2499999999969733E-02     2.5000000000093858E-01     0.0000000000000000E+00 
    6.2499999999993928E-02     3.1250000000117117E-01     0.0000000000000000E+00 
    6.2500000000018124E-02     3.7500000000140382E-01     0.0000000000000000E+00 
    6.2500000000042327E-02     4.3750000000163619E-01     0.0000000000000000E+00 
    6.2500000000066530E-02     5.0000000000184897E-01     0.0000000000000000E+00 
    6.2500000000090733E-02     5.6250000000147260E-01     0.0000000000000000E+00 
    6.2500000000114922E-02     6.2500000000107636E-01     0.0000000000000000E+00 
    6.2500000000139125E-02     6.8750000000068034E-01     0.0000000000000000E+00 
    6.2500000000163328E-02     7.5000000000028411E-01     0.0000000000000000E+00 
    6.2500000000187531E-02     8.1249999999988787E-01     0.0000000000000000E+00 
    6.2500000000211720E-02     8.7499999999951172E-01     0.0000000000000000E+00 
    6.2500000000235922E-02     9.3749999999974565E-01     0.0000000000000000E+00 
    1.2499999999981980E-01     6.2500000000211733E-02     0.0000000000000000E+00 
    1.2499999999986650E-01     1.2500000000042691E-01     0.0000000000000000E+00 
    1.2499999999991319E-01     1.8750000000063199E-01     0.0000000000000000E+00 
    1.2499999999995989E-01     2.5000000000083678E-01     0.0000000000000000E+00 
    1.2500000000000661E-01     3.1250000000104172E-01     0.0000000000000000E+00 
    1.2500000000005329E-01     3.7500000000124661E-01     0.0000000000000000E+00 
    1.2500000000010000E-01     4.3750000000145117E-01     0.0000000000000000E+00 
    1.2500000000014669E-01     5.0000000000163858E-01     0.0000000000000000E+00 
    1.2500000000019340E-01     5.6250000000129741E-01     0.0000000000000000E+00 
    1.2500000000024011E-01     6.2500000000093847E-01     0.0000000000000000E+00 
    1.2500000000028680E-01     6.8750000000057998E-01     0.0000000000000000E+00 
    1.2500000000033351E-01     7.5000000000022127E-01     0.0000000000000000E+00 
    1.2500000000038020E-01     8.1249999999986211E-01     0.0000000000000000E+00 
    1.2500000000042691E-01     8.7499999999952238E-01     0.0000000000000000E+00 
    1.2500000000047359E-01     9.3749999999975164E-01     0.0000000000000000E+00 
    1.8749999999966760E-01     6.2500000000187531E-02     0.0000000000000000E+00 
    1.8749999999974179E-01     1.2500000000038020E-01     0.0000000000000000E+00 
    1.8749999999981601E-01     1.8750000000055780E-01     0.0000000000000000E+00 
    1.8749999999989009E-01     2.5000000000073502E-01     0.0000000000000000E+00 
    1.8749999999996431E-01     3.1250000000091221E-01     0.0000000000000000E+00 
    1.8750000000003850E-01     3.7500000000108941E-01     0.0000000000000000E+00 
    1.8750000000011269E-01     4.3750000000126649E-01     0.0000000000000000E+00 
    1.8750000000018691E-01     5.0000000000142808E-01     0.0000000000000000E+00 
    1.8750000000026110E-01     5.6250000000112244E-01     0.0000000000000000E+00 
    1.8750000000033529E-01     6.2500000000080080E-01     0.0000000000000000E+00 
    1.8750000000040951E-01     6.8750000000047962E-01     0.0000000000000000E+00 
    1.8750000000048361E-01     7.5000000000015843E-01     0.0000000000000000E+00 
    1.8750000000055780E-01     8.1249999999983680E-01     0.0000000000000000E+00 
    1.8750000000063199E-01     8.7499999999953304E-01     0.0000000000000000E+00 
    1.8750000000070621E-01     9.3749999999975764E-01     0.0000000000000000E+00 
    2.4999999999951281E-01     6.2500000000163314E-02     0.0000000000000000E+00 
    2.4999999999961461E-01     1.2500000000033351E-01     0.0000000000000000E+00 
    2.4999999999971650E-01     1.8750000000048361E-01     0.0000000000000000E+00 
    2.4999999999981831E-01     2.5000000000063310E-01     0.0000000000000000E+00 
    2.4999999999992020E-01     3.1250000000078260E-01     0.0000000000000000E+00 
    2.5000000000002198E-01     3.7500000000093209E-01     0.0000000000000000E+00 
    2.5000000000012390E-01     4.3750000000108180E-01     0.0000000000000000E+00 
    2.5000000000022571E-01     5.0000000000121769E-01     0.0000000000000000E+00 
    2.5000000000032763E-01     5.6250000000094724E-01     0.0000000000000000E+00 
    2.5000000000042938E-01     6.2500000000066314E-01     0.0000000000000000E+00 
    2.5000000000053119E-01     6.8750000000037925E-01     0.0000000000000000E+00 
[...]
CELL_DATA 256 
SCALARS Pressure double 1 
LOOKUP_TABLE default 

    1.9950895973888745E+00 
    1.7502252433370091E+00 
    1.6020546426424709E+00 
    1.5008398069237170E+00 
    1.4256166347445940E+00 
    1.3667123318607031E+00 
    1.3192704973878386E+00 
    1.2806218344173361E+00 
    1.2491408094003404E+00 
    1.2237172230010103E+00 
    1.2035226701673691E+00 
    1.1876239793712875E+00 
    1.1751395889286864E+00 
    1.1695833300826881E+00 
    1.1675318367308267E+00 
    1.1669877495432455E+00 
    1.7502176034161905E+00 
    1.7001898046116271E+00 
    1.6051002756814148E+00 
    1.5169196427182219E+00 
    1.4433149925408424E+00 
    1.3828257795462593E+00 
    1.3329951532093531E+00 
    1.2918795333919457E+00 
    1.2580914090365733E+00 
    1.2306104672740101E+00 
    1.2086424125948296E+00 
    1.1913750651390558E+00 
    1.1774837111112793E+00 
    1.1697181504194631E+00 
    1.1670302060497337E+00 
    1.1664557922043992E+00 
    1.6020364841333845E+00 
    1.6050901301839975E+00 
    1.5627572172633482E+00 
    1.5028329097463256E+00 
    1.4418700248250413E+00 
    1.3862174249355086E+00 
    1.3375962410644850E+00 
    1.2960722966673197E+00 
    1.2612261343015496E+00 
    1.2325257137727430E+00 
    1.2094274770793629E+00 
    1.1913519300333046E+00 
    1.1771746413900916E+00 
    1.1675772669622153E+00 
    1.1645719329630613E+00 
    1.1644214957398784E+00 
    1.5008085434924310E+00 
    1.5168973859997044E+00 
    1.5028212802563861E+00 
    1.4676713496663734E+00 
    1.4228390494657428E+00 
    1.3761772767053022E+00 
    1.3319362699801289E+00 
    1.2921260982003684E+00 
    1.2575861503007031E+00 
    1.2285636704399796E+00 
    1.2049874135994720E+00 
    1.1866009444369201E+00 
    1.1726887686723801E+00 
    1.1623087130648502E+00 
    1.1592194468582750E+00 
    1.1599816658488460E+00 
    1.4255680825660970E+00 
    1.4432769720618839E+00 
    1.4418440308145106E+00 
    1.4228258646628194E+00 
    1.3918568537230662E+00 
    1.3549204687188436E+00 
    1.3166008962335112E+00 
    1.2799244631856446E+00 
    1.2467441416749385E+00 
    1.2181229334678307E+00 
    1.1945862422436995E+00 
    1.1762823261766284E+00 
    1.1629042929248197E+00 
    1.1530911306576159E+00 
    1.1502014065118391E+00 
    1.1522830238223896E+00 
    1.3666424214044255E+00 
    1.3827682763729443E+00 
    1.3861737940068926E+00 
    1.3761484234059937E+00 
    1.3549062244803058E+00 
    1.3261331523357627E+00 
    1.2935862338911828E+00 
    1.2604115427646010E+00 
    1.2290049351097474E+00 
    1.2010849551827070E+00 
    1.1777891392134705E+00 
    1.1597464646397988E+00 
    1.1470812361575520E+00 
    1.1387183265788685E+00 
    1.1364272929545365E+00 
    1.1402735158491841E+00 
    1.3191761608667891E+00 
    1.3329151538970885E+00 
    1.3375323704929558E+00 
    1.3318894799722125E+00 
    1.3165711200479504E+00 
    1.2935724045055097E+00 
    1.2655724377144510E+00 
    1.2353362574187925E+00 
    1.2053917470918769E+00 
    1.1778934388228250E+00 
    1.1545486594450238E+00 
    1.1365435170005234E+00 
    1.1244911207111530E+00 
    1.1178447046977091E+00 
    1.1165131296440822E+00 
    1.1226311593528657E+00 
    1.2805007917456595E+00 
    1.2917741331500865E+00 
    1.2959853702888664E+00 
    1.2920591758645597E+00 
    1.2798777860626478E+00 
    1.2603841823727910E+00 
    1.2353249577741712E+00 
    1.2069070984342742E+00 
    1.1775257168018243E+00 
    1.1495754556819349E+00 
    1.1252825877031478E+00 
    1.1064932459448311E+00 
    1.0944452391460620E+00 
    1.0892469600477499E+00 
    1.0894854434957784E+00 
    1.0984702708078300E+00 
    1.2489911780027947E+00 
    1.2579577639032351E+00 
    1.2611125007414574E+00 
    1.2574957310170041E+00 
    1.2466782322636321E+00 
    1.2289634048781513E+00 
    1.2053712017200582E+00 
    1.1775195527431264E+00 
    1.1474992539603939E+00 
    1.1177644374807503E+00 
    1.0909922668528567E+00 
    1.0698209565466221E+00 
    1.0564213808207010E+00 
    1.0517889592751344E+00 
    1.0541201946114893E+00 
    1.0667800884704943E+00 
    1.2235385541241233E+00 
    1.2304466601709438E+00 
    1.2323819503651026E+00 
    1.2284457551890886E+00 
    1.2180350808646363E+00 
    1.2010282833541128E+00 
    1.1778651364426829E+00 
    1.1495681829835613E+00 
    1.1177671069847726E+00 
    1.0847443927039870E+00 
    1.0534583432580964E+00 
    1.0274037968135910E+00 
    1.0101248227376676E+00 
    1.0042007504457025E+00 
    1.0086029237984466E+00 
    1.0259232704772487E+00 
    1.2033199779379127E+00 
    1.2084496124916495E+00 
    1.2092520593694531E+00 
    1.2048377229839999E+00 
    1.1944721591011180E+00 
    1.1777152223710774E+00 
    1.1545134521260980E+00 
    1.1252797557461145E+00 
    1.0910079941282815E+00 
    1.0534741900438516E+00 
    1.0155210614024177E+00 
    9.8127909446499528E-01 
    9.5599614633698615E-01 
    9.4493987065636964E-01 
    9.4933801595465916E-01 
    9.7188890608802159E-01 
    1.1874177714622927E+00 
    1.1911647067635369E+00 
    1.1911434290587986E+00 
    1.1864091083264598E+00 
    1.1761306972765622E+00 
    1.1596456557967056E+00 
    1.1364943352124151E+00 
    1.1064958595897663E+00 
    1.0698609864446538E+00 
    1.0274510852343710E+00 
    9.8130865080118124E-01 
    9.3538790202383115E-01 
    8.9628662421195415E-01 
    8.7313258818931638E-01 
    8.7299830184300531E-01 
    8.9993122305560436E-01 
    1.1748546382851381E+00 
    1.1772295297557416E+00 
    1.1769182994456640E+00 
    1.1724337730837835E+00 
    1.1626924465057360E+00 
    1.1469329462325151E+00 
    1.1244068804353806E+00 
    1.0944397854335408E+00 
    1.0564930821135923E+00 
    1.0102228060820850E+00 
    9.5607113390823228E-01 
    8.9632114011208841E-01 
    8.3688769908391847E-01 
    7.8990247730652130E-01 
    7.7233635527071509E-01 
    7.9916658913873573E-01 
    1.1692563205664768E+00 
    1.1693904205991090E+00 
    1.1672385056109165E+00 
    1.1619492949511525E+00 
    1.1527611281572441E+00 
    1.1384565547563754E+00 
    1.1176750899379266E+00 
    1.0891808611856482E+00 
    1.0518665313466731E+00 
    1.0043773672301035E+00 
    9.4508634809429126E-01 
    8.7319264798330809E-01 
    7.8996774720985263E-01 
    7.0487545354456704E-01 
    6.4326889817637078E-01 
    6.4578358322512508E-01 
    1.1672016723364842E+00 
    1.1666985493800361E+00 
    1.1642335201324103E+00 
    1.1588758065532876E+00 
    1.1498994768823274E+00 
    1.1361921150425729E+00 
    1.1163503188630468E+00 
    1.0893502856522805E+00 
    1.0540952219750375E+00 
    1.0088342442433573E+00 
    9.4955592534773903E-01 
    8.7293245124410024E-01 
    7.7237595317813357E-01 
    6.4348766163592763E-01 
    4.9863455036237270E-01 
    4.1052754901522753E-01 
    1.1666571100814516E+00 
    1.1661243780658213E+00 
    1.1640873283130511E+00 
    1.1596479025920299E+00 
    1.1519742642407467E+00 
    1.1400208146090827E+00 
    1.1224410674608984E+00 
    1.0982866895333669E+00 
    1.0666472255963115E+00 
    1.0261283685181621E+00 
    9.7230678584212882E-01 
    8.9990495043947416E-01 
    7.9912258539778158E-01 
    6.4636720016952043E-01 
    4.1068724622654373E-01 
    0.0000000000000000E+00 

SCALARS Saturarion double 1 
LOOKUP_TABLE default 

    1.0000000000022138E+00 
    9.9704478634698857E-01 
    9.9084167996627814E-01 
    9.8125978785253576E-01 
    9.6791464779780834E-01 
    9.5140422830275140E-01 
    9.3215182111483952E-01 
    9.1016693702436258E-01 
    8.8527533032303318E-01 
    8.5734705331274241E-01 
    8.2800992096373593E-01 
    7.7471786658093622E-01 
    3.7773520098866348E-01 
    7.8101013537223399E-04 
    1.0258484305693951E-06 
    1.0000000003393067E-06 
    9.9703970084399585E-01 
    9.9519751003579815E-01 
    9.9005278680866826E-01 
    9.8158425209820177E-01 
    9.6964813734293254E-01 
    9.5451201557665366E-01 
    9.3647241239366263E-01 
    9.1565066384215488E-01 
    8.9187782208816169E-01 
    8.6490592417752188E-01 
    8.3583434855693428E-01 
    7.9572537219511830E-01 
    6.3218612978153932E-01 
    7.9634021178732334E-02 
    4.6046631554680904E-04 
    1.0019917461620207E-06 
    9.9084358321346611E-01 
    9.9005868706364519E-01 
    9.8630469431478440E-01 
    9.7942259355407935E-01 
    9.6930915437969689E-01 
    9.5620160377541463E-01 
    9.4024749986986800E-01 
    9.2153700479731659E-01 
    8.9982658552316752E-01 
    8.7476963371196392E-01 
    8.4652661356996994E-01 
    8.1565881617006808E-01 
    7.3853121112519737E-01 
    2.7037920811529365E-01 
    2.3473307405753019E-03 
    1.0791099259622229E-06 
    9.8125911994030646E-01 
    9.8158730830462526E-01 
    9.7942436241279041E-01 
    9.7398590651369843E-01 
    9.6572830795291753E-01 
    9.5462385446873699E-01 
    9.4081429181704679E-01 
    9.2431018817247312E-01 
    9.0494567589247632E-01 
    8.8220758017647294E-01 
    8.5583544567476044E-01 
    8.2758189881471322E-01 
    7.7407477903376920E-01 
    4.8013736404252910E-01 
    8.6269348093756370E-03 
    3.9012744630393545E-06 
    9.6789430217955019E-01 
    9.6964363929436648E-01 
    9.6930335908550969E-01 
    9.6571924154534616E-01 
    9.5925309042500628E-01 
    9.5020391709674590E-01 
    9.3854704081325813E-01 
    9.2431628724268966E-01 
    9.0730554015074627E-01 
    8.8705226433105200E-01 
    8.6310418860059945E-01 
    8.3637562092271855E-01 
    7.9769809398151892E-01 
    6.1725297807976331E-01 
    5.6462148991907879E-02 
    1.6132923816940478E-05 
    9.5136257314714534E-01 
    9.5451036282599033E-01 
    9.5620423504744878E-01 
    9.5460879325041037E-01 
    9.5019021865614051E-01 
    9.4318815969763292E-01 
    9.3375923974718600E-01 
    9.2185418884643533E-01 
    9.0730488559125355E-01 
    8.8965174490258614E-01 
    8.6830489700222335E-01 
    8.4310437465298349E-01 
    8.1171444625101785E-01 
    6.9595245878514600E-01 
    1.8169537874559519E-01 
    1.0544429362388176E-04 
    9.3211427256457691E-01 
    9.3647685566387173E-01 
    9.4026692123375422E-01 
    9.4081535523101945E-01 
    9.3853198191299714E-01 
    9.3374743015106199E-01 
    9.2657965474313830E-01 
    9.1710053947428238E-01 
    9.0510449521232672E-01 
    8.9017690954480111E-01 
    8.7157263704265864E-01 
    8.4863291245463157E-01 
    8.2239819579811202E-01 
    7.4656790106905924E-01 
    2.9394299074483687E-01 
    6.5383903526253250E-04 
    9.1015470268973342E-01 
    9.1567106367579110E-01 
    9.2156440651634075E-01 
    9.2433002996412084E-01 
    9.2432797097011055E-01 
    9.2184192768982887E-01 
    9.1708795929667819E-01 
    9.1011953428392067E-01 
    9.0082824642359904E-01 
    8.8875945613232621E-01 
    8.7311534976729477E-01 
    8.5283544550470980E-01 
    8.2886028901259867E-01 
    7.7579223492213711E-01 
    4.2826773660081530E-01 
    7.6989828664577318E-04 
    8.8528379779727440E-01 
    8.9193969903439907E-01 
    8.9988854508523708E-01 
    9.0496544473609697E-01 
    9.0734117691448868E-01 
    9.0732124836214723E-01 
    9.0508469892528054E-01 
    9.0081317630353608E-01 
    8.9438451372815564E-01 
    8.8541489076882507E-01 
    8.7303536750095878E-01 
    8.5596737877773843E-01 
    8.3378722313691433E-01 
    7.9765595463785621E-01 
    5.3503426064552140E-01 
    1.3475727402927417E-02 
    8.5741067321675746E-01 
    8.6504842201641807E-01 
    8.7492189141319177E-01 
    8.8228284237660071E-01 
    8.8713464278594278E-01 
    8.8975812414619604E-01 
    8.9021960261040878E-01 
    8.8874599785215846E-01 
    8.8540216473664557E-01 
    8.7980626777018855E-01 
    8.7114433029955218E-01 
    8.5793204642406018E-01 
    8.3833026148162881E-01 
    8.0762893388474399E-01 
    6.1759197129931076E-01 
    5.5764174487087405E-02 
    8.2836324573411968E-01 
    8.3618529272705633E-01 
    8.4680208566376414E-01 
    8.5612995968477146E-01 
    8.6326916139289822E-01 
    8.6845018026975740E-01 
    8.7172109059125058E-01 
    8.7320177619893480E-01 
    8.7306237826356448E-01 
    8.7115641001102317E-01 
    8.6672404110483259E-01 
    8.5820354032868562E-01 
    8.4301710422125564E-01 
    8.1767646608374900E-01 
    6.7663467072606065E-01 
    1.4255529566365688E-01 
    7.7639966673688743E-01 
    7.9701524826151793E-01 
    8.1605260113511169E-01 
    8.2763511188160388E-01 
    8.3663738647535513E-01 
    8.4324489181223450E-01 
    8.4870934878824511E-01 
    8.5296044766129209E-01 
    8.5607066886300009E-01 
    8.5796857259739601E-01 
    8.5822817031182907E-01 
    8.5540296174721386E-01 
    8.4648002937836853E-01 
    8.2757799840797197E-01 
    7.2237182539409817E-01 
    1.9274888891656730E-01 
    3.9287378347798418E-01 
    6.3261815151564194E-01 
    7.3766996632405590E-01 
    7.7416692530761100E-01 
    7.9827998863025240E-01 
    8.1166040749767410E-01 
    8.2231228900422459E-01 
    8.2894351766820340E-01 
    8.3383360111787008E-01 
    8.3836133218075515E-01 
    8.4301881869628204E-01 
    8.4648667069664718E-01 
    8.4596682615350660E-01 
    8.3534158525871760E-01 
    7.6097801625748629E-01 
    3.7107138446155918E-01 
    6.9749857069553636E-04 
    8.2343315233304737E-02 
    2.8148215811762006E-01 
    4.6868996559468884E-01 
    6.1079425188908565E-01 
    6.9297282821806128E-01 
    7.4353135871047760E-01 
    7.7560506561889508E-01 
    7.9676596370358355E-01 
    8.0662270785281043E-01 
    8.1774337113389017E-01 
    8.2729974322239574E-01 
    8.3527071078908255E-01 
    8.3498599074731517E-01 
    8.0030081667102759E-01 
    5.1847472767934821E-01 
    1.0059012337334502E-06 
    3.7355339306881360E-04 
    3.1298700634418096E-04 
    4.2513185066663777E-03 
    4.6129356477254406E-02 
    1.6749434251621870E-01 
    2.8158970181301873E-01 
    4.1820260498225548E-01 
    5.2224817598252427E-01 
    6.0365966468990273E-01 
    6.6734223650506275E-01 
    7.1613475322277986E-01 
    7.5887570153305528E-01 
    7.9913460830781990E-01 
    8.0765473630019413E-01 
    6.3738804702960195E-01 
    1.0000000001267332E-06 
    1.0002869822151603E-06 
    1.0045808467295070E-06 
    1.0300240713625217E-06 
    8.1844919301403300E-06 
    1.0046286920072506E-04 
    1.3531268404321200E-04 
    5.2925847470019604E-04 
    6.7820100026843542E-03 
    4.3918893738743428E-02 
    1.4382356768360594E-01 
    1.9517589540686389E-01 
    3.5873502128383833E-01 
    5.2034344525620280E-01 
    6.2709711510384536E-01 
    6.4125462872199179E-01 
