# vtk DataFile Version 2.0
Pressure Field Data 
ASCII 
DATASET UNSTRUCTURED_GRID 

POINTS 289 double 

    0.0000000000000000E+00     0.0000000000000000E+00     0.0000000000000000E+00 
    1.0000000000000000E+00     0.0000000000000000E+00     0.0000000000000000E+00 
    1.0000000000000000E+00     1.0000000000000000E+00     0.0000000000000000E+00 
    0.0000000000000000E+00     1.0000000000000000E+00     0.0000000000000000E+00 
    6.2499999999872928E-02     0.0000000000000000E+00     0.0000000000000000E+00 
    1.2499999999977310E-01     0.0000000000000000E+00     0.0000000000000000E+00 
    1.8749999999959341E-01     0.0000000000000000E+00     0.0000000000000000E+00 
    2.4999999999941089E-01     0.0000000000000000E+00     0.0000000000000000E+00 
    3.1249999999922851E-01     0.0000000000000000E+00     0.0000000000000000E+00 
    3.7499999999904610E-01     0.0000000000000000E+00     0.0000000000000000E+00 
    4.3749999999886358E-01     0.0000000000000000E+00     0.0000000000000000E+00 
    4.9999999999869210E-01     0.0000000000000000E+00     0.0000000000000000E+00 
    5.6249999999884603E-01     0.0000000000000000E+00     0.0000000000000000E+00 
    6.2499999999901090E-01     0.0000000000000000E+00     0.0000000000000000E+00 
    6.8749999999917577E-01     0.0000000000000000E+00     0.0000000000000000E+00 
    7.4999999999934064E-01     0.0000000000000000E+00     0.0000000000000000E+00 
    8.1249999999950551E-01     0.0000000000000000E+00     0.0000000000000000E+00 
    8.7499999999967026E-01     0.0000000000000000E+00     0.0000000000000000E+00 
    9.3749999999983513E-01     0.0000000000000000E+00     0.0000000000000000E+00 
    1.0000000000000000E+00     6.2499999999872928E-02     0.0000000000000000E+00 
    1.0000000000000000E+00     1.2499999999977310E-01     0.0000000000000000E+00 
    1.0000000000000000E+00     1.8749999999959341E-01     0.0000000000000000E+00 
    1.0000000000000000E+00     2.4999999999941089E-01     0.0000000000000000E+00 
    1.0000000000000000E+00     3.1249999999922851E-01     0.0000000000000000E+00 
    1.0000000000000000E+00     3.7499999999904610E-01     0.0000000000000000E+00 
    1.0000000000000000E+00     4.3749999999886358E-01     0.0000000000000000E+00 
    1.0000000000000000E+00     4.9999999999869210E-01     0.0000000000000000E+00 
    1.0000000000000000E+00     5.6249999999884603E-01     0.0000000000000000E+00 
    1.0000000000000000E+00     6.2499999999901090E-01     0.0000000000000000E+00 
    1.0000000000000000E+00     6.8749999999917577E-01     0.0000000000000000E+00 
    1.0000000000000000E+00     7.4999999999934064E-01     0.0000000000000000E+00 
    1.0000000000000000E+00     8.1249999999950551E-01     0.0000000000000000E+00 
    1.0000000000000000E+00     8.7499999999967026E-01     0.0000000000000000E+00 
    1.0000000000000000E+00     9.3749999999983513E-01     0.0000000000000000E+00 
    9.3749999999973976E-01     1.0000000000000000E+00     0.0000000000000000E+00 
    8.7499999999950118E-01     1.0000000000000000E+00     0.0000000000000000E+00 
    8.1249999999991318E-01     1.0000000000000000E+00     0.0000000000000000E+00 
    7.5000000000034706E-01     1.0000000000000000E+00     0.0000000000000000E+00 
    6.8750000000078049E-01     1.0000000000000000E+00     0.0000000000000000E+00 
    6.2500000000121403E-01     1.0000000000000000E+00     0.0000000000000000E+00 
    5.6250000000164757E-01     1.0000000000000000E+00     0.0000000000000000E+00 
    5.0000000000205946E-01     1.0000000000000000E+00     0.0000000000000000E+00 
    4.3750000000182099E-01     1.0000000000000000E+00     0.0000000000000000E+00 
    3.7500000000156092E-01     1.0000000000000000E+00     0.0000000000000000E+00 
    3.1250000000130068E-01     1.0000000000000000E+00     0.0000000000000000E+00 
    2.5000000000104050E-01     1.0000000000000000E+00     0.0000000000000000E+00 
    1.8750000000078040E-01     1.0000000000000000E+00     0.0000000000000000E+00 
    1.2500000000052031E-01     1.0000000000000000E+00     0.0000000000000000E+00 
    6.2500000000260125E-02     1.0000000000000000E+00     0.0000000000000000E+00 
    0.0000000000000000E+00     9.3749999999973976E-01     0.0000000000000000E+00 
    0.0000000000000000E+00     8.7499999999950118E-01     0.0000000000000000E+00 
    0.0000000000000000E+00     8.1249999999991318E-01     0.0000000000000000E+00 
    0.0000000000000000E+00     7.5000000000034706E-01     0.0000000000000000E+00 
    0.0000000000000000E+00     6.8750000000078049E-01     0.0000000000000000E+00 
    0.0000000000000000E+00     6.2500000000121403E-01     0.0000000000000000E+00 
    0.0000000000000000E+00     5.6250000000164757E-01     0.0000000000000000E+00 
    0.0000000000000000E+00     5.0000000000205946E-01     0.0000000000000000E+00 
    0.0000000000000000E+00     4.3750000000182099E-01     0.0000000000000000E+00 
    0.0000000000000000E+00     3.7500000000156092E-01     0.0000000000000000E+00 
    0.0000000000000000E+00     3.1250000000130068E-01     0.0000000000000000E+00 
    0.0000000000000000E+00     2.5000000000104050E-01     0.0000000000000000E+00 
    0.0000000000000000E+00     1.8750000000078040E-01     0.0000000000000000E+00 
    0.0000000000000000E+00     1.2500000000052031E-01     0.0000000000000000E+00 
    0.0000000000000000E+00     6.2500000000260125E-02     0.0000000000000000E+00 
    6.2499999999897131E-02     6.2500000000235922E-02     0.0000000000000000E+00 
    6.2499999999921327E-02     1.2500000000047351E-01     0.0000000000000000E+00 
    6.2499999999945530E-02     1.8750000000070621E-01     0.0000000000000000E+00 
    6.2499999999969733E-02     2.5000000000093858E-01     0.0000000000000000E+00 
    6.2499999999993928E-02     3.1250000000117117E-01     0.0000000000000000E+00 
    6.2500000000018124E-02     3.7500000000140382E-01     0.0000000000000000E+00 
    6.2500000000042327E-02     4.3750000000163619E-01     0.0000000000000000E+00 
    6.2500000000066530E-02     5.0000000000184897E-01     0.0000000000000000E+00 
    6.2500000000090733E-02     5.6250000000147260E-01     0.0000000000000000E+00 
    6.2500000000114922E-02     6.2500000000107636E-01     0.0000000000000000E+00 
    6.2500000000139125E-02     6.8750000000068034E-01     0.0000000000000000E+00 
    6.2500000000163328E-02     7.5000000000028411E-01     0.0000000000000000E+00 
    6.2500000000187531E-02     8.1249999999988787E-01     0.0000000000000000E+00 
    6.2500000000211720E-02     8.7499999999951172E-01     0.0000000000000000E+00 
    6.2500000000235922E-02     9.3749999999974565E-01     0.0000000000000000E+00 
    1.2499999999981980E-01     6.2500000000211733E-02     0.0000000000000000E+00 
    1.2499999999986650E-01     1.2500000000042691E-01     0.0000000000000000E+00 
    1.2499999999991319E-01     1.8750000000063199E-01     0.0000000000000000E+00 
    1.2499999999995989E-01     2.5000000000083678E-01     0.0000000000000000E+00 
    1.2500000000000661E-01     3.1250000000104172E-01     0.0000000000000000E+00 
    1.2500000000005329E-01     3.7500000000124661E-01     0.0000000000000000E+00 
    1.2500000000010000E-01     4.3750000000145117E-01     0.0000000000000000E+00 
    1.2500000000014669E-01     5.0000000000163858E-01     0.0000000000000000E+00 
    1.2500000000019340E-01     5.6250000000129741E-01     0.0000000000000000E+00 
    1.2500000000024011E-01     6.2500000000093847E-01     0.0000000000000000E+00 
    1.2500000000028680E-01     6.8750000000057998E-01     0.0000000000000000E+00 
    1.2500000000033351E-01     7.5000000000022127E-01     0.0000000000000000E+00 
    1.2500000000038020E-01     8.1249999999986211E-01     0.0000000000000000E+00 
    1.2500000000042691E-01     8.7499999999952238E-01     0.0000000000000000E+00 
    1.2500000000047359E-01     9.3749999999975164E-01     0.0000000000000000E+00 
    1.8749999999966760E-01     6.2500000000187531E-02     0.0000000000000000E+00 
    1.8749999999974179E-01     1.2500000000038020E-01     0.0000000000000000E+00 
    1.8749999999981601E-01     1.8750000000055780E-01     0.0000000000000000E+00 
    1.8749999999989009E-01     2.5000000000073502E-01     0.0000000000000000E+00 
    1.8749999999996431E-01     3.1250000000091221E-01     0.0000000000000000E+00 
    1.8750000000003850E-01     3.7500000000108941E-01     0.0000000000000000E+00 
    1.8750000000011269E-01     4.3750000000126649E-01     0.0000000000000000E+00 
    1.8750000000018691E-01     5.0000000000142808E-01     0.0000000000000000E+00 
    1.8750000000026110E-01     5.6250000000112244E-01     0.0000000000000000E+00 
    1.8750000000033529E-01     6.2500000000080080E-01     0.0000000000000000E+00 
    1.8750000000040951E-01     6.8750000000047962E-01     0.0000000000000000E+00 
    1.8750000000048361E-01     7.5000000000015843E-01     0.0000000000000000E+00 
    1.8750000000055780E-01     8.1249999999983680E-01     0.0000000000000000E+00 
    1.8750000000063199E-01     8.7499999999953304E-01     0.0000000000000000E+00 
    1.8750000000070621E-01     9.3749999999975764E-01     0.0000000000000000E+00 
    2.4999999999951281E-01     6.2500000000163314E-02     0.0000000000000000E+00 
    2.4999999999961461E-01     1.2500000000033351E-01     0.0000000000000000E+00 
    2.4999999999971650E-01     1.8750000000048361E-01     0.0000000000000000E+00 
    2.4999999999981831E-01     2.5000000000063310E-01     0.0000000000000000E+00 
    2.4999999999992020E-01     3.1250000000078260E-01     0.0000000000000000E+00 
    2.5000000000002198E-01     3.7500000000093209E-01     0.0000000000000000E+00 
    2.5000000000012390E-01     4.3750000000108180E-01     0.0000000000000000E+00 
    2.5000000000022571E-01     5.0000000000121769E-01     0.0000000000000000E+00 
    2.5000000000032763E-01     5.6250000000094724E-01     0.0000000000000000E+00 
    2.5000000000042938E-01     6.2500000000066314E-01     0.0000000000000000E+00 
    2.5000000000053119E-01     6.8750000000037925E-01     0.0000000000000000E+00 
[...]
CELL_DATA 256 
SCALARS Pressure double 1 
LOOKUP_TABLE default 

    1.9713445067772664E+00 
    1.7265921026346156E+00 
    1.5786472780663763E+00 
    1.4777907368512095E+00 
    1.4030632163470254E+00 
    1.3447812895983999E+00 
    1.2980730880517755E+00 
    1.2602549862285102E+00 
    1.2296879404203089E+00 
    1.2052398757101082E+00 
    1.1860431614055629E+00 
    1.1712806020748241E+00 
    1.1595184268181378E+00 
    1.1535659776764005E+00 
    1.1514708870369614E+00 
    1.1509308207408753E+00 
    1.7266059400463309E+00 
    1.6765960960981308E+00 
    1.5816530318164896E+00 
    1.4937512944263438E+00 
    1.4205654252308841E+00 
    1.3606278937920788E+00 
    1.3114684433935080E+00 
    1.2711299773135667E+00 
    1.2382126773901956E+00 
    1.2116793756165953E+00 
    1.1907000957299509E+00 
    1.1745257616120983E+00 
    1.1619244227226386E+00 
    1.1537585889475270E+00 
    1.1509668217891338E+00 
    1.1504010368190210E+00 
    1.5786817636069697E+00 
    1.5816724208107249E+00 
    1.5394030579531774E+00 
    1.4796729107911450E+00 
    1.4190415050310037E+00 
    1.3638555352591246E+00 
    1.3158275444466365E+00 
    1.2750125952298643E+00 
    1.2409803542152453E+00 
    1.2131859833520651E+00 
    1.1910563729117913E+00 
    1.1740111346297453E+00 
    1.1611855317891036E+00 
    1.1517862036704223E+00 
    1.1484958895008848E+00 
    1.1483740063387224E+00 
    1.4778512643001376E+00 
    1.4937958317092452E+00 
    1.4796979076646908E+00 
    1.4446524452847376E+00 
    1.4000563052151125E+00 
    1.3537638704932999E+00 
    1.3100226412698253E+00 
    1.2708367726056564E+00 
    1.2370380967046013E+00 
    1.2088651114240345E+00 
    1.1862233681728960E+00 
    1.1688146770552532E+00 
    1.1560864297374738E+00 
    1.1467957071983206E+00 
    1.1432451832955468E+00 
    1.1439888114837717E+00 
    1.4031519909040695E+00 
    1.4206384582671863E+00 
    1.4190959811434194E+00 
    1.4000870049028835E+00 
    1.3692515191455126E+00 
    1.3325768641847227E+00 
    1.2946493872730267E+00 
    1.2584951269132896E+00 
    1.2259649265866246E+00 
    1.1981183342635844E+00 
    1.1754668721749657E+00 
    1.1581156514199720E+00 
    1.1458306608040574E+00 
    1.1375438540821794E+00 
    1.1342010552832844E+00 
    1.1362411578259191E+00 
    1.3448985400578664E+00 
    1.3607309730133639E+00 
    1.3639424402005680E+00 
    1.3538299258313886E+00 
    1.3326145102580513E+00 
    1.3039881308419921E+00 
    1.2717135954476209E+00 
    1.2389419649478959E+00 
    1.2080729837001649E+00 
    1.1808281782686323E+00 
    1.1583427704733895E+00 
    1.1412211329955404E+00 
    1.1295979720860629E+00 
    1.1227707708828911E+00 
    1.1201717236497004E+00 
    1.1239804950837775E+00 
    1.2982180000704220E+00 
    1.3116019718550773E+00 
    1.3159489520174730E+00 
    1.3101279351711339E+00 
    1.2947311971541093E+00 
    1.2717612709150699E+00 
    1.2439057190739387E+00 
    1.2139388473911930E+00 
    1.1843979236300619E+00 
    1.1574470278823783E+00 
    1.1348028325805157E+00 
    1.1176506112697515E+00 
    1.1065828512070204E+00 
    1.1013296699031139E+00 
    1.1003275004759974E+00 
    1.1064974054754391E+00 
    1.2604252732697010E+00 
    1.2712924784346662E+00 
    1.2751686029296110E+00 
    1.2709837227540148E+00 
    1.2586265263522918E+00 
    1.2390470916227523E+00 
    1.2140015604897738E+00 
    1.1857092181717841E+00 
    1.1565791785495025E+00 
    1.1290210891848647E+00 
    1.1052789803114174E+00 
    1.0872198290996498E+00 
    1.0760845998609194E+00 
    1.0721643344617100E+00 
    1.0736135081843292E+00 
    1.0829456938266615E+00 
    1.2298789246531958E+00 
    1.2384001839986196E+00 
    1.2411679863042344E+00 
    1.2372259008497994E+00 
    1.2261484774584570E+00 
    1.2082430784411606E+00 
    1.1845377784906248E+00 
    1.1566641582811374E+00 
    1.1267311301448879E+00 
    1.0972123799914888E+00 
    1.0708044156893122E+00 
    1.0501680393919910E+00 
    1.0375017371649387E+00 
    1.0340043373475936E+00 
    1.0382458415768780E+00 
    1.0517456589622678E+00 
    1.2054451576954928E+00 
    1.2118857587074472E+00 
    1.2133993278388653E+00 
    1.2090886796480007E+00 
    1.1983518459844231E+00 
    1.1810661855724591E+00 
    1.1576750065182044E+00 
    1.1292124863637980E+00 
    1.0973297409086744E+00 
    1.0643367185099819E+00 
    1.0332128503344267E+00 
    1.0074596498899895E+00 
    9.9062023993954640E-01 
    9.8541965176622104E-01 
    9.9163141809871325E-01 
    1.0098481630604430E+00 
    1.1862565209402165E+00 
    1.1909181113506504E+00 
    1.1912879620608385E+00 
    1.1864745628975040E+00 
    1.1757432811660593E+00 
    1.1586457157515231E+00 
    1.1351242715873531E+00 
    1.1055952395961575E+00 
    1.0710720842908099E+00 
    1.0333739323655595E+00 
    9.9538424689281768E-01 
    9.6123550282453551E-01 
    9.3611630196739204E-01 
    9.2525938559662879E-01 
    9.3107783828350343E-01 
    9.5387546634998643E-01 
    1.1715036503822023E+00 
    1.1747529562317549E+00 
    1.1742545791663497E+00 
    1.1690825615114269E+00 
    1.1584206036994587E+00 
    1.1415735934905111E+00 
    1.1180564106905710E+00 
    1.0876697569462976E+00 
    1.0506203332470163E+00 
    1.0078316593306260E+00 
    9.6143935993417284E-01 
    9.1545445398224401E-01 
    8.7638548012743889E-01 
    8.5301162469172143E-01 
    8.5332966125022092E-01 
    8.7938795422411209E-01 
    1.1597766353695180E+00 
    1.1621713777994989E+00 
    1.1614310148414793E+00 
    1.1563514650989575E+00 
    1.1461417852123554E+00 
    1.1299693951228613E+00 
    1.1070369893206917E+00 
    1.0766476707975345E+00 
    1.0381658850192754E+00 
    9.9127762903045824E-01 
    9.3658690860752092E-01 
    8.7657999563321987E-01 
    8.1731196169873988E-01 
    7.7041654065542708E-01 
    7.5285101598857862E-01 
    7.7639940355201553E-01 
    1.1538025832150762E+00 
    1.1539934560007528E+00 
    1.1520133608253429E+00 
    1.1470164002328549E+00 
    1.1378128670077206E+00 
    1.1231132215693400E+00 
    1.1017649136650385E+00 
    1.0727407963616447E+00 
    1.0348423976226919E+00 
    9.8645923114309508E-01 
    9.2615833038062700E-01 
    8.5343496396823082E-01 
    7.7047098561742300E-01 
    6.8660040118746990E-01 
    6.2646705392651114E-01 
    6.2638909856443692E-01 
    1.1517057395930534E+00 
    1.1512018784273532E+00 
    1.1487348948997074E+00 
    1.1434978654962447E+00 
    1.1345001527276164E+00 
    1.1205322354100806E+00 
    1.1007320246927632E+00 
    1.0740250898042316E+00 
    1.0390675875192830E+00 
    9.9300829347657038E-01 
    9.3228943201611791E-01 
    8.5367177528794114E-01 
    7.5252529971414606E-01 
    6.2621574975681571E-01 
    4.8565449832193658E-01 
    3.9865308654603548E-01 
    1.1511667807999797E+00 
    1.1506378385362537E+00 
    1.1486149807554284E+00 
    1.1442427101388617E+00 
    1.1365304001172243E+00 
    1.1243261621309042E+00 
    1.1068751686124716E+00 
    1.0832546207425109E+00 
    1.0523321152330329E+00 
    1.0113732202419565E+00 
    9.5550479969292634E-01 
    8.7993402393169939E-01 
    7.7584682247122705E-01 
    6.2585094707730116E-01 
    3.9830799370698738E-01 
    0.0000000000000000E+00 

SCALARS Saturarion double 1 
LOOKUP_TABLE default 

    1.0000000000017704E+00 
    9.9738001350568084E-01 
    9.9181321380030041E-01 
    9.8326823500074756E-01 
    9.7128430756349149E-01 
    9.5627957988616463E-01 
    9.3859295406717247E-01 
    9.1821091474528316E-01 
    8.9495698170910654E-01 
    8.6836803556902853E-01 
    8.3945218232784391E-01 
    8.0031123059138132E-01 
    6.0818240293282999E-01 
    2.0758637663520742E-02 
    3.2524904643008482E-06 
    1.0000000116106391E-06 
    9.9737558713912344E-01 
    9.9573036601135989E-01 
    9.9111010347992157E-01 
    9.8356637814961956E-01 
    9.7286728557545499E-01 
    9.5914683497017916E-01 
    9.4261831686928221E-01 
    9.2335711402698351E-01 
    9.0119895495510449E-01 
    8.7571645971865753E-01 
    8.4715601209536706E-01 
    8.1439821441561411E-01 
    7.2120358511891980E-01 
    2.3102285635334321E-01 
    1.8343780542876733E-03 
    1.0230866637166574E-06 
    9.9181333563375285E-01 
    9.9111404120457369E-01 
    9.8776630515159103E-01 
    9.8164361621081619E-01 
    9.7258091802888202E-01 
    9.6072145397088260E-01 
    9.4614848272473562E-01 
    9.2889754300325444E-01 
    9.0872076789684197E-01 
    8.8520740781195806E-01 
    8.5795782931895559E-01 
    8.2863471588996040E-01 
    7.7947088821110200E-01 
    4.8538092049190745E-01 
    7.9999567073486145E-03 
    4.1376784630452211E-06 
    9.8326923007146827E-01 
    9.8357060718369504E-01 
    9.8164670460747383E-01 
    9.7678149025952943E-01 
    9.6935927734762140E-01 
    9.5931169768729807E-01 
    9.4671810008283142E-01 
    9.3153620610441312E-01 
    9.1358160580814696E-01 
    8.9236680380439681E-01 
    8.6719407430978768E-01 
    8.3906411580624818E-01 
    8.0194340578671541E-01 
    6.3005947033923848E-01 
    7.1856755471307029E-02 
    2.9175127385521617E-05 
    9.7126762404181854E-01 
    9.7286423638937436E-01 
    9.7257694835334574E-01 
    9.6935184117988027E-01 
    9.6351257151149994E-01 
    9.5531270818482839E-01 
    9.4468972372131410E-01 
    9.3162364074633075E-01 
    9.1588528139552505E-01 
    8.9702873369905600E-01 
    8.7429910827460833E-01 
    8.4747279308433976E-01 
    8.1636912980793019E-01 
    7.1990766254322824E-01 
    2.2306082923667869E-01 
    1.1458126956791081E-04 
    9.5624093687205436E-01 
    9.5914234674232690E-01 
    9.6072148532375579E-01 
    9.5929716884446314E-01 
    9.5529952245476413E-01 
    9.4894615922926095E-01 
    9.4035635599755740E-01 
    9.2944543150570713E-01 
    9.1601797443545563E-01 
    8.9958325836446329E-01 
    8.7941843019280119E-01 
    8.5474068147644289E-01 
    8.2676838032112643E-01 
    7.5713122554752021E-01 
    3.2940470964557489E-01 
    1.4386443683997300E-04 
    9.3855422806794631E-01 
    9.4261551726615689E-01 
    9.4615918750406336E-01 
    9.4671377621069064E-01 
    9.4467179676418733E-01 
    9.4034243206809021E-01 
    9.3382616527930196E-01 
    9.2515994732865614E-01 
    9.1411254128151864E-01 
    9.0024098498207672E-01 
    8.8277052670431866E-01 
    8.6062836235368623E-01 
    8.3454143269088310E-01 
    7.8436560620801532E-01 
    4.6526915812434005E-01 
    2.1114365331229550E-03 
    9.1818968509307330E-01 
    9.2336495228698046E-01 
    9.2891132623789430E-01 
    9.3154429521843873E-01 
    9.3162629979888767E-01 
    9.2942867980771282E-01 
    9.2514537872982117E-01 
    9.1880980718256422E-01 
    9.1028571278496395E-01 
    8.9911329568223930E-01 
    8.8450341368371643E-01 
    8.6519000694815296E-01 
    8.4072058112306147E-01 
    8.0338291009294205E-01 
    5.5555874635426139E-01 
    1.5055433957459565E-02 
    8.9494148335536783E-01 
    9.0123316698702316E-01 
    9.0875730731284998E-01 
    9.1358652689991104E-01 
    9.1590810892355878E-01 
    9.1602250125719398E-01 
    9.1408597167922567E-01 
    9.1026815676486061E-01 
    9.0443346766304611E-01 
    8.9619215269878993E-01 
    8.8469790296088413E-01 
    8.6857164026575562E-01 
    8.4604976027436418E-01 
    8.1447345095452961E-01 
    6.2715231621080225E-01 
    7.6863857417678413E-02 
    8.6838594336270902E-01 
    8.7580689746690477E-01 
    8.8530400710103285E-01 
    8.9238972726106935E-01 
    8.9705039850188673E-01 
    8.9962858808151736E-01 
    9.0024283992995857E-01 
    8.9907849025501174E-01 
    8.9616745251988006E-01 
    8.9112622080283632E-01 
    8.8316949801748557E-01 
    8.7078493515306687E-01 
    8.5164947855640905E-01 
    8.2411767918668255E-01 
    6.8910671386508915E-01 
    1.5503657505510121E-01 
    8.3961270459750859E-01 
    8.4735077659943503E-01 
    8.5814483197909941E-01 
    8.6734887562345531E-01 
    8.7441002540582002E-01 
    8.7952626122032629E-01 
    8.8286451995040660E-01 
    8.8453230015186990E-01 
    8.8467570417193242E-01 
    8.8314503620192042E-01 
    8.7920617054448358E-01 
    8.7135002595342748E-01 
    8.5687206680796546E-01 
    8.3333955428339657E-01 
    7.4078781425569940E-01 
    2.3602003629893473E-01 
    8.0125192142413326E-01 
    8.1533349851334702E-01 
    8.2907947067236965E-01 
    8.3933501848217684E-01 
    8.4773988123784538E-01 
    8.5484130600770825E-01 
    8.6067103822509294E-01 
    8.6525996083958057E-01 
    8.6863174391242848E-01 
    8.7079185756534538E-01 
    8.7133779530230926E-01 
    8.6890624627801849E-01 
    8.6062204564446554E-01 
    8.4172770247914530E-01 
    7.8257318472677273E-01 
    3.0857146665158364E-01 
    6.1938331063277796E-01 
    7.2716947497414730E-01 
    7.7851469968157971E-01 
    8.0188005267962037E-01 
    8.1655338128359878E-01 
    8.2701341016096341E-01 
    8.3458344466890466E-01 
    8.4067160718387901E-01 
    8.4610096480825581E-01 
    8.5172190362180844E-01 
    8.5685959895622288E-01 
    8.6060984669226981E-01 
    8.6034580046584230E-01 
    8.5020536653986145E-01 
    8.1050313020632847E-01 
    4.5191335434207192E-01 
    2.5294818456371215E-02 
    2.3294895593842316E-01 
    4.8816823071044990E-01 
    6.3214514316167758E-01 
    7.1686579051473687E-01 
    7.5545452180022488E-01 
    7.8419755446288164E-01 
    8.0303144409757210E-01 
    8.1331875042344204E-01 
    8.2339323074400139E-01 
    8.3288699062738347E-01 
    8.4193232267147400E-01 
    8.5019241457122596E-01 
    8.5023740424262551E-01 
    8.2868399555144390E-01 
    5.7189867280403794E-01 
    4.8443192971608375E-06 
    1.4872206620510967E-03 
    5.8941730925279948E-03 
    6.6442520348325304E-02 
    2.0944321085688114E-01 
    3.2098292275849793E-01 
    4.5548602735972504E-01 
    5.5552215198309496E-01 
    6.2943946243207793E-01 
    6.8408573428309660E-01 
    7.2473893986195559E-01 
    7.6012974758672969E-01 
    8.0007087775288288E-01 
    8.2682968651113453E-01 
    8.3437383344337868E-01 
    6.7062723408763725E-01 
    1.0000000155835010E-06 
    1.0161956272325121E-06 
    1.3539645532152174E-06 
    1.7430035536434758E-05 
    9.4251568990738250E-05 
    1.4317698546501248E-04 
    1.1900238067803607E-03 
    1.9390546215619694E-02 
    5.3879054691601043E-02 
    1.4439984261148497E-01 
    2.4668491441527712E-01 
    3.2267864365004240E-01 
    4.5444476944368822E-01 
    5.6613123554753608E-01 
    6.6000959373791124E-01 
    6.7502712746728610E-01 
