# vtk DataFile Version 2.0
Pressure Field Data 
ASCII 
DATASET UNSTRUCTURED_GRID 

POINTS 289 double 

    0.0000000000000000E+00     0.0000000000000000E+00     0.0000000000000000E+00 
    1.0000000000000000E+00     0.0000000000000000E+00     0.0000000000000000E+00 
    1.0000000000000000E+00     1.0000000000000000E+00     0.0000000000000000E+00 
    0.0000000000000000E+00     1.0000000000000000E+00     0.0000000000000000E+00 
    6.2499999999872928E-02     0.0000000000000000E+00     0.0000000000000000E+00 
    1.2499999999977310E-01     0.0000000000000000E+00     0.0000000000000000E+00 
    1.8749999999959341E-01     0.0000000000000000E+00     0.0000000000000000E+00 
    2.4999999999941089E-01     0.0000000000000000E+00     0.0000000000000000E+00 
    3.1249999999922851E-01     0.0000000000000000E+00     0.0000000000000000E+00 
    3.7499999999904610E-01     0.0000000000000000E+00     0.0000000000000000E+00 
    4.3749999999886358E-01     0.0000000000000000E+00     0.0000000000000000E+00 
    4.9999999999869210E-01     0.0000000000000000E+00     0.0000000000000000E+00 
    5.6249999999884603E-01     0.0000000000000000E+00     0.0000000000000000E+00 
    6.2499999999901090E-01     0.0000000000000000E+00     0.0000000000000000E+00 
    6.8749999999917577E-01     0.0000000000000000E+00     0.0000000000000000E+00 
    7.4999999999934064E-01     0.0000000000000000E+00     0.0000000000000000E+00 
    8.1249999999950551E-01     0.0000000000000000E+00     0.0000000000000000E+00 
    8.7499999999967026E-01     0.0000000000000000E+00     0.0000000000000000E+00 
    9.3749999999983513E-01     0.0000000000000000E+00     0.0000000000000000E+00 
    1.0000000000000000E+00     6.2499999999872928E-02     0.0000000000000000E+00 
    1.0000000000000000E+00     1.2499999999977310E-01     0.0000000000000000E+00 
    1.0000000000000000E+00     1.8749999999959341E-01     0.0000000000000000E+00 
    1.0000000000000000E+00     2.4999999999941089E-01     0.0000000000000000E+00 
    1.0000000000000000E+00     3.1249999999922851E-01     0.0000000000000000E+00 
    1.0000000000000000E+00     3.7499999999904610E-01     0.0000000000000000E+00 
    1.0000000000000000E+00     4.3749999999886358E-01     0.0000000000000000E+00 
    1.0000000000000000E+00     4.9999999999869210E-01     0.0000000000000000E+00 
    1.0000000000000000E+00     5.6249999999884603E-01     0.0000000000000000E+00 
    1.0000000000000000E+00     6.2499999999901090E-01     0.0000000000000000E+00 
    1.0000000000000000E+00     6.8749999999917577E-01     0.0000000000000000E+00 
    1.0000000000000000E+00     7.4999999999934064E-01     0.0000000000000000E+00 
    1.0000000000000000E+00     8.1249999999950551E-01     0.0000000000000000E+00 
    1.0000000000000000E+00     8.7499999999967026E-01     0.0000000000000000E+00 
    1.0000000000000000E+00     9.3749999999983513E-01     0.0000000000000000E+00 
    9.3749999999973976E-01     1.0000000000000000E+00     0.0000000000000000E+00 
    8.7499999999950118E-01     1.0000000000000000E+00     0.0000000000000000E+00 
    8.1249999999991318E-01     1.0000000000000000E+00     0.0000000000000000E+00 
    7.5000000000034706E-01     1.0000000000000000E+00     0.0000000000000000E+00 
    6.8750000000078049E-01     1.0000000000000000E+00     0.0000000000000000E+00 
    6.2500000000121403E-01     1.0000000000000000E+00     0.0000000000000000E+00 
    5.6250000000164757E-01     1.0000000000000000E+00     0.0000000000000000E+00 
    5.0000000000205946E-01     1.0000000000000000E+00     0.0000000000000000E+00 
    4.3750000000182099E-01     1.0000000000000000E+00     0.0000000000000000E+00 
    3.7500000000156092E-01     1.0000000000000000E+00     0.0000000000000000E+00 
    3.1250000000130068E-01     1.0000000000000000E+00     0.0000000000000000E+00 
    2.5000000000104050E-01     1.0000000000000000E+00     0.0000000000000000E+00 
    1.8750000000078040E-01     1.0000000000000000E+00     0.0000000000000000E+00 
    1.2500000000052031E-01     1.0000000000000000E+00     0.0000000000000000E+00 
    6.2500000000260125E-02     1.0000000000000000E+00     0.0000000000000000E+00 
    0.0000000000000000E+00     9.3749999999973976E-01     0.0000000000000000E+00 
    0.0000000000000000E+00     8.7499999999950118E-01     0.0000000000000000E+00 
    0.0000000000000000E+00     8.1249999999991318E-01     0.0000000000000000E+00 
    0.0000000000000000E+00     7.5000000000034706E-01     0.0000000000000000E+00 
    0.0000000000000000E+00     6.8750000000078049E-01     0.0000000000000000E+00 
    0.0000000000000000E+00     6.2500000000121403E-01     0.0000000000000000E+00 
    0.0000000000000000E+00     5.6250000000164757E-01     0.0000000000000000E+00 
    0.0000000000000000E+00     5.0000000000205946E-01     0.0000000000000000E+00 
    0.0000000000000000E+00     4.3750000000182099E-01     0.0000000000000000E+00 
    0.0000000000000000E+00     3.7500000000156092E-01     0.0000000000000000E+00 
    0.0000000000000000E+00     3.1250000000130068E-01     0.0000000000000000E+00 
    0.0000000000000000E+00     2.5000000000104050E-01     0.0000000000000000E+00 
    0.0000000000000000E+00     1.8750000000078040E-01     0.0000000000000000E+00 
    0.0000000000000000E+00     1.2500000000052031E-01     0.0000000000000000E+00 
    0.0000000000000000E+00     6.2500000000260125E-02     0.0000000000000000E+00 
    6.2499999999897131E-02     6.2500000000235922E-02     0.0000000000000000E+00 
    6.2499999999921327E-02     1.2500000000047351E-01     0.0000000000000000E+00 
    6.2499999999945530E-02     1.8750000000070621E-01     0.0000000000000000E+00 
    6.2499999999969733E-02     2.5000000000093858E-01     0.0000000000000000E+00 
    6.2499999999993928E-02     3.1250000000117117E-01     0.0000000000000000E+00 
    6.2500000000018124E-02     3.7500000000140382E-01     0.0000000000000000E+00 
    6.2500000000042327E-02     4.3750000000163619E-01     0.0000000000000000E+00 
    6.2500000000066530E-02     5.0000000000184897E-01     0.0000000000000000E+00 
    6.2500000000090733E-02     5.6250000000147260E-01     0.0000000000000000E+00 
    6.2500000000114922E-02     6.2500000000107636E-01     0.0000000000000000E+00 
    6.2500000000139125E-02     6.8750000000068034E-01     0.0000000000000000E+00 
    6.2500000000163328E-02     7.5000000000028411E-01     0.0000000000000000E+00 
    6.2500000000187531E-02     8.1249999999988787E-01     0.0000000000000000E+00 
    6.2500000000211720E-02     8.7499999999951172E-01     0.0000000000000000E+00 
    6.2500000000235922E-02     9.3749999999974565E-01     0.0000000000000000E+00 
    1.2499999999981980E-01     6.2500000000211733E-02     0.0000000000000000E+00 
    1.2499999999986650E-01     1.2500000000042691E-01     0.0000000000000000E+00 
    1.2499999999991319E-01     1.8750000000063199E-01     0.0000000000000000E+00 
    1.2499999999995989E-01     2.5000000000083678E-01     0.0000000000000000E+00 
    1.2500000000000661E-01     3.1250000000104172E-01     0.0000000000000000E+00 
    1.2500000000005329E-01     3.7500000000124661E-01     0.0000000000000000E+00 
    1.2500000000010000E-01     4.3750000000145117E-01     0.0000000000000000E+00 
    1.2500000000014669E-01     5.0000000000163858E-01     0.0000000000000000E+00 
    1.2500000000019340E-01     5.6250000000129741E-01     0.0000000000000000E+00 
    1.2500000000024011E-01     6.2500000000093847E-01     0.0000000000000000E+00 
    1.2500000000028680E-01     6.8750000000057998E-01     0.0000000000000000E+00 
    1.2500000000033351E-01     7.5000000000022127E-01     0.0000000000000000E+00 
    1.2500000000038020E-01     8.1249999999986211E-01     0.0000000000000000E+00 
    1.2500000000042691E-01     8.7499999999952238E-01     0.0000000000000000E+00 
    1.2500000000047359E-01     9.3749999999975164E-01     0.0000000000000000E+00 
    1.8749999999966760E-01     6.2500000000187531E-02     0.0000000000000000E+00 
    1.8749999999974179E-01     1.2500000000038020E-01     0.0000000000000000E+00 
    1.8749999999981601E-01     1.8750000000055780E-01     0.0000000000000000E+00 
    1.8749999999989009E-01     2.5000000000073502E-01     0.0000000000000000E+00 
    1.8749999999996431E-01     3.1250000000091221E-01     0.0000000000000000E+00 
    1.8750000000003850E-01     3.7500000000108941E-01     0.0000000000000000E+00 
    1.8750000000011269E-01     4.3750000000126649E-01     0.0000000000000000E+00 
    1.8750000000018691E-01     5.0000000000142808E-01     0.0000000000000000E+00 
    1.8750000000026110E-01     5.6250000000112244E-01     0.0000000000000000E+00 
    1.8750000000033529E-01     6.2500000000080080E-01     0.0000000000000000E+00 
    1.8750000000040951E-01     6.8750000000047962E-01     0.0000000000000000E+00 
    1.8750000000048361E-01     7.5000000000015843E-01     0.0000000000000000E+00 
    1.8750000000055780E-01     8.1249999999983680E-01     0.0000000000000000E+00 
    1.8750000000063199E-01     8.7499999999953304E-01     0.0000000000000000E+00 
    1.8750000000070621E-01     9.3749999999975764E-01     0.0000000000000000E+00 
    2.4999999999951281E-01     6.2500000000163314E-02     0.0000000000000000E+00 
    2.4999999999961461E-01     1.2500000000033351E-01     0.0000000000000000E+00 
    2.4999999999971650E-01     1.8750000000048361E-01     0.0000000000000000E+00 
    2.4999999999981831E-01     2.5000000000063310E-01     0.0000000000000000E+00 
    2.4999999999992020E-01     3.1250000000078260E-01     0.0000000000000000E+00 
    2.5000000000002198E-01     3.7500000000093209E-01     0.0000000000000000E+00 
    2.5000000000012390E-01     4.3750000000108180E-01     0.0000000000000000E+00 
    2.5000000000022571E-01     5.0000000000121769E-01     0.0000000000000000E+00 
    2.5000000000032763E-01     5.6250000000094724E-01     0.0000000000000000E+00 
    2.5000000000042938E-01     6.2500000000066314E-01     0.0000000000000000E+00 
    2.5000000000053119E-01     6.8750000000037925E-01     0.0000000000000000E+00 
[...]
CELL_DATA 256 
SCALARS Pressure double 1 
LOOKUP_TABLE default 

    1.7428318059101990E+00 
    1.4973837392512954E+00 
    1.3480135404342071E+00 
    1.2448637280768611E+00 
    1.1669588740977848E+00 
    1.1046838763389177E+00 
    1.0532372092554352E+00 
    1.0099962371059603E+00 
    9.7344099714675358E-01 
    9.4251907883906627E-01 
    9.1547729069681560E-01 
    8.9742178513655757E-01 
    8.8890326222056482E-01 
    8.8446667360053655E-01 
    8.8240364601095478E-01 
    8.8184710114967657E-01 
    1.4973577518563070E+00 
    1.4472214642594445E+00 
    1.3513575823538380E+00 
    1.2616833937202214E+00 
    1.1858275964475855E+00 
    1.1223680383230583E+00 
    1.0688947115500702E+00 
    1.0235006581724941E+00 
    9.8487208376188928E-01 
    9.5209126288313284E-01 
    9.2378830987202065E-01 
    9.0101504929016674E-01 
    8.8984593315680260E-01 
    8.8438717810925238E-01 
    8.8185879466134898E-01 
    8.8129389791229662E-01 
    1.3479503715641841E+00 
    1.3513222805070328E+00 
    1.3086667746230856E+00 
    1.2477307316539359E+00 
    1.1850219802922135E+00 
    1.1268923833150908E+00 
    1.0750839430000951E+00 
    1.0296810277291586E+00 
    9.9030607610876631E-01 
    9.5653874570183506E-01 
    9.2762570448492532E-01 
    9.0236794942996423E-01 
    8.8800126255437051E-01 
    8.8191839246936032E-01 
    8.7936820445403474E-01 
    8.7922782927489596E-01 
    1.2447509279036453E+00 
    1.2616022284706454E+00 
    1.2476867615842138E+00 
    1.2120522446886604E+00 
    1.1660446182091511E+00 
    1.1174885094828992E+00 
    1.0706195939166743E+00 
    1.0274375301145986E+00 
    9.8878731974269407E-01 
    9.5499564128830439E-01 
    9.2597264517608513E-01 
    9.0048956407701353E-01 
    8.8285323969184615E-01 
    8.7617160240052683E-01 
    8.7404497551892679E-01 
    8.7476881106672100E-01 
    1.1667843935886000E+00 
    1.1856883414938424E+00 
    1.1849229859936645E+00 
    1.1659917326639062E+00 
    1.1344764298782410E+00 
    1.0963107186231591E+00 
    1.0560310029814655E+00 
    1.0166172032507401E+00 
    9.7988278202174461E-01 
    9.4690970731062640E-01 
    9.1827872660253462E-01 
    8.9351200862013502E-01 
    8.7346732730578591E-01 
    8.6618952196499721E-01 
    8.6498820787983000E-01 
    8.6702846291489766E-01 
    1.1044385032660406E+00 
    1.1221611819484487E+00 
    1.1267284794472001E+00 
    1.1173730976656788E+00 
    1.0962495728703892E+00 
    1.0669789750490644E+00 
    1.0332439997178353E+00 
    9.9810574016761378E-01 
    9.6386602084620832E-01 
    9.3217943813830473E-01 
    9.0419753671407588E-01 
    8.8015272008938772E-01 
    8.5916640664705179E-01 
    8.5129582994675201E-01 
    8.5137563797803928E-01 
    8.5514286797668049E-01 
    1.0529141953848917E+00 
    1.0686125543485803E+00 
    1.0748468586920390E+00 
    1.0704325515795905E+00 
    1.0558997784653117E+00 
    1.0331748743296527E+00 
    1.0048465870954375E+00 
    9.7356276509215200E-01 
    9.4170171395607483E-01 
    9.1126027718203584E-01 
    8.8384675358835041E-01 
    8.6032328029423522E-01 
    8.3957458237767280E-01 
    8.3100235326870586E-01 
    8.3239681756421857E-01 
    8.3825061718860527E-01 
    1.0095934535234905E+00 
    1.0231382180900428E+00 
    1.0293644449670816E+00 
    1.0271721074858513E+00 
    1.0164086183619621E+00 
    9.9795996611830240E-01 
    9.7348521942058319E-01 
    9.4505970370368941E-01 
    9.1488718474656638E-01 
    8.8511437694777662E-01 
    8.5771444966439492E-01 
    8.3420371813346295E-01 
    8.1419361759016784E-01 
    8.0443265067100322E-01 
    8.0703705892265076E-01 
    8.1537969058953419E-01 
    9.7296148993655751E-01 
    9.8442902195500415E-01 
    9.8990711773501605E-01 
    9.8843942589861844E-01 
    9.7959348402486202E-01 
    9.6364062735077227E-01 
    9.4154147694713319E-01 
    9.1479828964792376E-01 
    8.8529784981552084E-01 
    8.5518298099024159E-01 
    8.2672565934836439E-01 
    8.0210336686743355E-01 
    7.8215552798472354E-01 
    7.7040261079398875E-01 
    7.7411099226138624E-01 
    7.8538835815409891E-01 
    9.4197573215850916E-01 
    9.5156883526904190E-01 
    9.5604987188785329E-01 
    9.5455216015741984E-01 
    9.4652915826415795E-01 
    9.3186825266132889E-01 
    9.1101208381340992E-01 
    8.8492550018882954E-01 
    8.5506896087224860E-01 
    8.2339904992280910E-01 
    7.9235786622921855E-01 
    7.6476216223475602E-01 
    7.4284984260211517E-01 
    7.2795522008671465E-01 
    7.3216924629443025E-01 
    7.4687981494774114E-01 
    9.1491481190980517E-01 
    9.2320285673153701E-01 
    9.2703547529479224E-01 
    9.2539900883535309E-01 
    9.1777806619812319E-01 
    9.0378837303787418E-01 
    8.8350592745660050E-01 
    8.5742143404763949E-01 
    8.2647699777318195E-01 
    7.9220402195284967E-01 
    7.5690992437620397E-01 
    7.2384455242332302E-01 
    6.9663280580174292E-01 
    6.7693931751148961E-01 
    6.7970453354666771E-01 
    6.9809275212882849E-01 
    8.9681233486398015E-01 
    9.0038605173123942E-01 
    9.0167795619948665E-01 
    8.9974495259982212E-01 
    8.9284710444127668E-01 
    8.7963853267400882E-01 
    8.5990336979898052E-01 
    8.3381445246263408E-01 
    8.0169515979074302E-01 
    7.6440232022791998E-01 
    7.2362732969832999E-01 
    6.8247592056298856E-01 
    6.4557279324892491E-01 
    6.1709385694277841E-01 
    6.1345864908906000E-01 
    6.3548421701589486E-01 
    8.8830117242992557E-01 
    8.8924126859885377E-01 
    8.8739372163048424E-01 
    8.8223089550999678E-01 
    8.7284174393636149E-01 
    8.5856882447902771E-01 
    8.3910106283415875E-01 
    8.1377398198023632E-01 
    7.8159663920786937E-01 
    7.4220020768136807E-01 
    6.9611368309421251E-01 
    6.4532321615663057E-01 
    5.9414600563824116E-01 
    5.4923952388954045E-01 
    5.2869034076775978E-01 
    5.5252651498080241E-01 
    8.8387691358250975E-01 
    8.8379858584741955E-01 
    8.8133725008363939E-01 
    8.7560552819338555E-01 
    8.6565023344111636E-01 
    8.5079891149138465E-01 
    8.3057198919009356E-01 
    8.0396472210646419E-01 
    7.6965218885633013E-01 
    7.2689910560805870E-01 
    6.7592394537671463E-01 
    6.1650261083211810E-01 
    5.4909301832336632E-01 
    4.7755389579051671E-01 
    4.2246820462104190E-01 
    4.3849528558015555E-01 
    8.8181863964300378E-01 
    8.8127528545146183E-01 
    8.7879081573983497E-01 
    8.7347993539815494E-01 
    8.6444417737164969E-01 
    8.5086067036274149E-01 
    8.3193390435323133E-01 
    8.0656569013570523E-01 
    7.7342117006910549E-01 
    7.3124139178895187E-01 
    6.7886509753763224E-01 
    6.1324445679026973E-01 
    5.2913126573203317E-01 
    4.2309917470897490E-01 
    3.0116913876525647E-01 
    2.6204437325912977E-01 
    8.8126335933504518E-01 
    8.8071148358240781E-01 
    8.7865017207867191E-01 
    8.7420088476791691E-01 
    8.6647650189997583E-01 
    8.5461212800720665E-01 
    8.3774646211690507E-01 
    8.1486782426172866E-01 
    7.8475896133448086E-01 
    7.4608480936934063E-01 
    6.9728688419477214E-01 
    6.3514481444292537E-01 
    5.5285192972014963E-01 
    4.3924046015587176E-01 
    2.6270005511573924E-01 
    0.0000000000000000E+00 

SCALARS Saturarion double 1 
LOOKUP_TABLE default 

    1.0000000000194902E+00 
    9.9542700720000621E-01 
    9.8611729102842449E-01 
    9.7142261872770397E-01 
    9.5187053672190303E-01 
    9.2880036342726269E-01 
    9.0280784630465893E-01 
    8.7391491298582658E-01 
    8.4359698824389651E-01 
    8.0634886914924619E-01 
    6.9072809791241396E-01 
    9.1881451387709590E-02 
    1.4984478367601389E-04 
    1.0000048200445349E-06 
    1.0000000000000196E-06 
    9.9999999999999995E-07 
    9.9542134480530120E-01 
    9.9266510922629858E-01 
    9.8489389674794259E-01 
    9.7185112675164564E-01 
    9.5423879668466671E-01 
    9.3289006416012876E-01 
    9.0835630281632906E-01 
    8.8077294324993971E-01 
    8.5093162776328957E-01 
    8.1890199355796156E-01 
    7.5422688310468022E-01 
    3.6590994861148474E-01 
    2.3876367015886494E-03 
    1.3084781828562248E-06 
    1.0000000088996904E-06 
    9.9999999999999995E-07 
    9.8612115648387966E-01 
    9.8490215472988130E-01 
    9.7909878138973527E-01 
    9.6856562669268931E-01 
    9.5364860898666848E-01 
    9.3503629773920838E-01 
    9.1315051793424062E-01 
    8.8810924050344331E-01 
    8.6009220742465697E-01 
    8.3038291219146498E-01 
    7.8808396455882157E-01 
    5.9532177882992121E-01 
    4.5746642108523999E-02 
    8.6193068182925783E-05 
    1.0000969059778856E-06 
    1.0000000000013914E-06 
    9.7139728290973959E-01 
    9.7183464276325704E-01 
    9.6855515594123709E-01 
    9.6050240981363644E-01 
    9.4847319838393207E-01 
    9.3270599396548182E-01 
    9.1367043888379207E-01 
    8.9145120563775371E-01 
    8.6626141696752557E-01 
    8.3915468880367849E-01 
    8.0441867911475051E-01 
    6.9722828790715097E-01 
    1.7852447165885757E-01 
    1.8258383688364627E-03 
    1.0145382949177684E-06 
    1.0000000002829310E-06 
    9.5181451960337760E-01 
    9.5421453467145623E-01 
    9.5362589105265483E-01 
    9.4845271836004852E-01 
    9.3919851743096261E-01 
    9.2641448260359083E-01 
    9.1030618673580066E-01 
    8.9110615871759458E-01 
    8.6880180593973322E-01 
    8.4394733158265645E-01 
    8.1557712014207706E-01 
    7.4987177277158401E-01 
    3.7752578053564945E-01 
    2.3322388528197076E-03 
    1.1609446011924032E-06 
    1.0000000162261887E-06 
    9.2870761673708846E-01 
    9.3287624481738662E-01 
    9.3503392740264979E-01 
    9.3267780481045326E-01 
    9.2639401359114260E-01 
    9.1653617357250328E-01 
    9.0349987202777859E-01 
    8.8739481367544559E-01 
    8.6811515586872312E-01 
    8.4584220453733239E-01 
    8.2120215035905730E-01 
    7.7389421750917742E-01 
    5.3754257110740289E-01 
    1.9382661453351248E-02 
    2.0630979731720500E-05 
    1.0000062444382971E-06 
    9.0271815415257084E-01 
    9.0834587265774880E-01 
    9.1316936405588833E-01 
    9.1365581089296299E-01 
    9.1027162922567983E-01 
    9.0347392379398184E-01 
    8.9351581349284115E-01 
    8.8062285722643574E-01 
    8.6460288106045868E-01 
    8.4549401690350567E-01 
    8.2378327402847695E-01 
    7.8693979010374371E-01 
    6.3307042030559202E-01 
    7.6057150012250482E-02 
    1.7069144164575238E-04 
    1.0000617924655425E-06 
    8.7390430934277985E-01 
    8.8080896182708024E-01 
    8.8815145106790805E-01 
    8.9149228529301361E-01 
    8.9114310685757947E-01 
    8.8738329578261810E-01 
    8.8060757156127734E-01 
    8.7098718080039417E-01 
    8.5842643669304475E-01 
    8.4268137729420922E-01 
    8.2388044264696436E-01 
    7.9536895193103452E-01 
    6.8570406318150745E-01 
    1.4635171761372445E-01 
    4.9205110408561173E-05 
    1.0000759594697262E-06 
    8.4371780709295041E-01 
    8.5108071800457041E-01 
    8.6028394360324756E-01 
    8.6636816730138377E-01 
    8.6893752654030154E-01 
    8.6822521235420813E-01 
    8.6462982749931749E-01 
    8.5846500192584174E-01 
    8.4958014486435574E-01 
    8.3754385535040066E-01 
    8.2196338962725368E-01 
    8.0210771368305944E-01 
    7.3172951089405092E-01 
    2.6530202702910721E-01 
    1.4144082158548460E-03 
    1.1001941467138853E-06 
    8.0692643085181304E-01 
    8.1919698752791781E-01 
    8.3041716033240121E-01 
    8.3906935898313828E-01 
    8.4395580153293248E-01 
    8.4591707607638222E-01 
    8.4541266365469225E-01 
    8.4258741523433078E-01 
    8.3754813010394025E-01 
    8.2980580087311573E-01 
    8.1824690163574099E-01 
    8.0255696644850227E-01 
    7.5848586804983187E-01 
    4.0287864936076967E-01 
    2.0075641295878681E-03 
    1.2154234592520083E-06 
    6.9337721958430021E-01 
    7.5583627719485080E-01 
    7.8742628631858347E-01 
    8.0384970701228398E-01 
    8.1520696384271929E-01 
    8.2114492635804093E-01 
    8.2366065281516443E-01 
    8.2365787417618885E-01 
    8.2191999273504734E-01 
    8.1841430917175784E-01 
    8.1217177176708566E-01 
    8.0146729522822613E-01 
    7.7252570932489384E-01 
    5.4968390570320391E-01 
    3.4138418900244251E-02 
    1.4128718906684722E-04 
    9.6315231654955508E-02 
    3.6064819133387460E-01 
    5.8825474664924604E-01 
    6.9588451737656065E-01 
    7.5131943332681239E-01 
    7.7354702697021682E-01 
    7.8708737065797540E-01 
    7.9528670352647524E-01 
    8.0103799864080227E-01 
    8.0224228255569963E-01 
    8.0124870129397563E-01 
    7.9684957645580856E-01 
    7.7789323458702664E-01 
    6.4362948518300866E-01 
    1.3488392841129657E-01 
    5.4222579604572361E-04 
    1.3924137989111750E-04 
    1.5542479764055572E-03 
    4.1110426230701561E-02 
    1.6762045453046517E-01 
    3.5169246665472820E-01 
    5.1809044723987452E-01 
    6.2127502937085799E-01 
    6.8582147705391161E-01 
    7.3076106322479328E-01 
    7.5823573553045109E-01 
    7.7095221708291983E-01 
    7.7836755007957836E-01 
    7.7334912636438846E-01 
    7.0726116812965600E-01 
    2.8114453905346398E-01 
    5.7397158044102883E-05 
    1.0000034662924598E-06 
    1.1532619980096950E-06 
    2.0582124545725594E-05 
    1.2696952074221470E-04 
    2.1794501695147878E-04 
    9.7164358149997680E-03 
    6.0818807790891473E-02 
    1.5096206535374984E-01 
    2.7688514215047622E-01 
    4.0784473921809866E-01 
    5.4798249565899715E-01 
    6.4156659798093618E-01 
    7.0705317374832599E-01 
    7.0042146399893745E-01 
    4.7855898402102659E-01 
    1.6627811366593324E-02 
    1.0000000000000338E-06 
    1.0000000020523604E-06 
    1.0000070267921865E-06 
    1.0004955951302305E-06 
    1.0031901014543357E-06 
    1.4483699450316885E-06 
    1.9711580525503748E-05 
    7.5201453142500100E-05 
    1.1870043340356312E-04 
    6.5200073756477284E-04 
    1.9297033723316356E-02 
    1.1254210624285714E-01 
    2.6361117503347908E-01 
    4.6424227912496346E-01 
    5.2301096681946335E-01 
    1.6407060751394320E-01 
    9.9999999999999995E-07 
    9.9999999999999995E-07 
    1.0000000000000412E-06 
    1.0000000000053166E-06 
    1.0000000000177724E-06 
    1.0000000108026844E-06 
    1.0000054030073107E-06 
    1.0001355244548419E-06 
    1.0008643168960871E-06 
    1.0050789089296865E-06 
    2.3109243458125399E-06 
    4.3524755482376926E-05 
    1.7246923189148685E-04 
    1.3421955545028199E-02 
    1.6573149047198643E-01 
    5.9189045061517932E-02 
