# vtk DataFile Version 2.0
Pressure Field Data 
ASCII 
DATASET UNSTRUCTURED_GRID 

POINTS 289 double 

    0.0000000000000000E+00     0.0000000000000000E+00     0.0000000000000000E+00 
    1.0000000000000000E+00     0.0000000000000000E+00     0.0000000000000000E+00 
    1.0000000000000000E+00     1.0000000000000000E+00     0.0000000000000000E+00 
    0.0000000000000000E+00     1.0000000000000000E+00     0.0000000000000000E+00 
    6.2499999999872928E-02     0.0000000000000000E+00     0.0000000000000000E+00 
    1.2499999999977310E-01     0.0000000000000000E+00     0.0000000000000000E+00 
    1.8749999999959341E-01     0.0000000000000000E+00     0.0000000000000000E+00 
    2.4999999999941089E-01     0.0000000000000000E+00     0.0000000000000000E+00 
    3.1249999999922851E-01     0.0000000000000000E+00     0.0000000000000000E+00 
    3.7499999999904610E-01     0.0000000000000000E+00     0.0000000000000000E+00 
    4.3749999999886358E-01     0.0000000000000000E+00     0.0000000000000000E+00 
    4.9999999999869210E-01     0.0000000000000000E+00     0.0000000000000000E+00 
    5.6249999999884603E-01     0.0000000000000000E+00     0.0000000000000000E+00 
    6.2499999999901090E-01     0.0000000000000000E+00     0.0000000000000000E+00 
    6.8749999999917577E-01     0.0000000000000000E+00     0.0000000000000000E+00 
    7.4999999999934064E-01     0.0000000000000000E+00     0.0000000000000000E+00 
    8.1249999999950551E-01     0.0000000000000000E+00     0.0000000000000000E+00 
    8.7499999999967026E-01     0.0000000000000000E+00     0.0000000000000000E+00 
    9.3749999999983513E-01     0.0000000000000000E+00     0.0000000000000000E+00 
    1.0000000000000000E+00     6.2499999999872928E-02     0.0000000000000000E+00 
    1.0000000000000000E+00     1.2499999999977310E-01     0.0000000000000000E+00 
    1.0000000000000000E+00     1.8749999999959341E-01     0.0000000000000000E+00 
    1.0000000000000000E+00     2.4999999999941089E-01     0.0000000000000000E+00 
    1.0000000000000000E+00     3.1249999999922851E-01     0.0000000000000000E+00 
    1.0000000000000000E+00     3.7499999999904610E-01     0.0000000000000000E+00 
    1.0000000000000000E+00     4.3749999999886358E-01     0.0000000000000000E+00 
    1.0000000000000000E+00     4.9999999999869210E-01     0.0000000000000000E+00 
    1.0000000000000000E+00     5.6249999999884603E-01     0.0000000000000000E+00 
    1.0000000000000000E+00     6.2499999999901090E-01     0.0000000000000000E+00 
    1.0000000000000000E+00     6.8749999999917577E-01     0.0000000000000000E+00 
    1.0000000000000000E+00     7.4999999999934064E-01     0.0000000000000000E+00 
    1.0000000000000000E+00     8.1249999999950551E-01     0.0000000000000000E+00 
    1.0000000000000000E+00     8.7499999999967026E-01     0.0000000000000000E+00 
    1.0000000000000000E+00     9.3749999999983513E-01     0.0000000000000000E+00 
    9.3749999999973976E-01     1.0000000000000000E+00     0.0000000000000000E+00 
    8.7499999999950118E-01     1.0000000000000000E+00     0.0000000000000000E+00 
    8.1249999999991318E-01     1.0000000000000000E+00     0.0000000000000000E+00 
    7.5000000000034706E-01     1.0000000000000000E+00     0.0000000000000000E+00 
    6.8750000000078049E-01     1.0000000000000000E+00     0.0000000000000000E+00 
    6.2500000000121403E-01     1.0000000000000000E+00     0.0000000000000000E+00 
    5.6250000000164757E-01     1.0000000000000000E+00     0.0000000000000000E+00 
    5.0000000000205946E-01     1.0000000000000000E+00     0.0000000000000000E+00 
    4.3750000000182099E-01     1.0000000000000000E+00     0.0000000000000000E+00 
    3.7500000000156092E-01     1.0000000000000000E+00     0.0000000000000000E+00 
    3.1250000000130068E-01     1.0000000000000000E+00     0.0000000000000000E+00 
    2.5000000000104050E-01     1.0000000000000000E+00     0.0000000000000000E+00 
    1.8750000000078040E-01     1.0000000000000000E+00     0.0000000000000000E+00 
    1.2500000000052031E-01     1.0000000000000000E+00     0.0000000000000000E+00 
    6.2500000000260125E-02     1.0000000000000000E+00     0.0000000000000000E+00 
    0.0000000000000000E+00     9.3749999999973976E-01     0.0000000000000000E+00 
    0.0000000000000000E+00     8.7499999999950118E-01     0.0000000000000000E+00 
    0.0000000000000000E+00     8.1249999999991318E-01     0.0000000000000000E+00 
    0.0000000000000000E+00     7.5000000000034706E-01     0.0000000000000000E+00 
    0.0000000000000000E+00     6.8750000000078049E-01     0.0000000000000000E+00 
    0.0000000000000000E+00     6.2500000000121403E-01     0.0000000000000000E+00 
    0.0000000000000000E+00     5.6250000000164757E-01     0.0000000000000000E+00 
    0.0000000000000000E+00     5.0000000000205946E-01     0.0000000000000000E+00 
    0.0000000000000000E+00     4.3750000000182099E-01     0.0000000000000000E+00 
    0.0000000000000000E+00     3.7500000000156092E-01     0.0000000000000000E+00 
    0.0000000000000000E+00     3.1250000000130068E-01     0.0000000000000000E+00 
    0.0000000000000000E+00     2.5000000000104050E-01     0.0000000000000000E+00 
    0.0000000000000000E+00     1.8750000000078040E-01     0.0000000000000000E+00 
    0.0000000000000000E+00     1.2500000000052031E-01     0.0000000000000000E+00 
    0.0000000000000000E+00     6.2500000000260125E-02     0.0000000000000000E+00 
    6.2499999999897131E-02     6.2500000000235922E-02     0.0000000000000000E+00 
    6.2499999999921327E-02     1.2500000000047351E-01     0.0000000000000000E+00 
    6.2499999999945530E-02     1.8750000000070621E-01     0.0000000000000000E+00 
    6.2499999999969733E-02     2.5000000000093858E-01     0.0000000000000000E+00 
    6.2499999999993928E-02     3.1250000000117117E-01     0.0000000000000000E+00 
    6.2500000000018124E-02     3.7500000000140382E-01     0.0000000000000000E+00 
    6.2500000000042327E-02     4.3750000000163619E-01     0.0000000000000000E+00 
    6.2500000000066530E-02     5.0000000000184897E-01     0.0000000000000000E+00 
    6.2500000000090733E-02     5.6250000000147260E-01     0.0000000000000000E+00 
    6.2500000000114922E-02     6.2500000000107636E-01     0.0000000000000000E+00 
    6.2500000000139125E-02     6.8750000000068034E-01     0.0000000000000000E+00 
    6.2500000000163328E-02     7.5000000000028411E-01     0.0000000000000000E+00 
    6.2500000000187531E-02     8.1249999999988787E-01     0.0000000000000000E+00 
    6.2500000000211720E-02     8.7499999999951172E-01     0.0000000000000000E+00 
    6.2500000000235922E-02     9.3749999999974565E-01     0.0000000000000000E+00 
    1.2499999999981980E-01     6.2500000000211733E-02     0.0000000000000000E+00 
    1.2499999999986650E-01     1.2500000000042691E-01     0.0000000000000000E+00 
    1.2499999999991319E-01     1.8750000000063199E-01     0.0000000000000000E+00 
    1.2499999999995989E-01     2.5000000000083678E-01     0.0000000000000000E+00 
    1.2500000000000661E-01     3.1250000000104172E-01     0.0000000000000000E+00 
    1.2500000000005329E-01     3.7500000000124661E-01     0.0000000000000000E+00 
    1.2500000000010000E-01     4.3750000000145117E-01     0.0000000000000000E+00 
    1.2500000000014669E-01     5.0000000000163858E-01     0.0000000000000000E+00 
    1.2500000000019340E-01     5.6250000000129741E-01     0.0000000000000000E+00 
    1.2500000000024011E-01     6.2500000000093847E-01     0.0000000000000000E+00 
    1.2500000000028680E-01     6.8750000000057998E-01     0.0000000000000000E+00 
    1.2500000000033351E-01     7.5000000000022127E-01     0.0000000000000000E+00 
    1.2500000000038020E-01     8.1249999999986211E-01     0.0000000000000000E+00 
    1.2500000000042691E-01     8.7499999999952238E-01     0.0000000000000000E+00 
    1.2500000000047359E-01     9.3749999999975164E-01     0.0000000000000000E+00 
    1.8749999999966760E-01     6.2500000000187531E-02     0.0000000000000000E+00 
    1.8749999999974179E-01     1.2500000000038020E-01     0.0000000000000000E+00 
    1.8749999999981601E-01     1.8750000000055780E-01     0.0000000000000000E+00 
    1.8749999999989009E-01     2.5000000000073502E-01     0.0000000000000000E+00 
    1.8749999999996431E-01     3.1250000000091221E-01     0.0000000000000000E+00 
    1.8750000000003850E-01     3.7500000000108941E-01     0.0000000000000000E+00 
    1.8750000000011269E-01     4.3750000000126649E-01     0.0000000000000000E+00 
    1.8750000000018691E-01     5.0000000000142808E-01     0.0000000000000000E+00 
    1.8750000000026110E-01     5.6250000000112244E-01     0.0000000000000000E+00 
    1.8750000000033529E-01     6.2500000000080080E-01     0.0000000000000000E+00 
    1.8750000000040951E-01     6.8750000000047962E-01     0.0000000000000000E+00 
    1.8750000000048361E-01     7.5000000000015843E-01     0.0000000000000000E+00 
    1.8750000000055780E-01     8.1249999999983680E-01     0.0000000000000000E+00 
    1.8750000000063199E-01     8.7499999999953304E-01     0.0000000000000000E+00 
    1.8750000000070621E-01     9.3749999999975764E-01     0.0000000000000000E+00 
    2.4999999999951281E-01     6.2500000000163314E-02     0.0000000000000000E+00 
    2.4999999999961461E-01     1.2500000000033351E-01     0.0000000000000000E+00 
    2.4999999999971650E-01     1.8750000000048361E-01     0.0000000000000000E+00 
    2.4999999999981831E-01     2.5000000000063310E-01     0.0000000000000000E+00 
    2.4999999999992020E-01     3.1250000000078260E-01     0.0000000000000000E+00 
    2.5000000000002198E-01     3.7500000000093209E-01     0.0000000000000000E+00 
    2.5000000000012390E-01     4.3750000000108180E-01     0.0000000000000000E+00 
    2.5000000000022571E-01     5.0000000000121769E-01     0.0000000000000000E+00 
    2.5000000000032763E-01     5.6250000000094724E-01     0.0000000000000000E+00 
    2.5000000000042938E-01     6.2500000000066314E-01     0.0000000000000000E+00 
    2.5000000000053119E-01     6.8750000000037925E-01     0.0000000000000000E+00 
[...]
CELL_DATA 256 
SCALARS Pressure double 1 
LOOKUP_TABLE default 

    1.6738335995446869E+00 
    1.4283533059996492E+00 
    1.2789165583973743E+00 
    1.1756599527052858E+00 
    1.0976090818411697E+00 
    1.0351527717638005E+00 
    9.8349217407356171E-01 
    9.4000855425675744E-01 
    9.0319333565276394E-01 
    8.7197604467863288E-01 
    8.4445319717272849E-01 
    8.2687486449945469E-01 
    8.1852532236105136E-01 
    8.1409305529351916E-01 
    8.1203115898658795E-01 
    8.1147499989179528E-01 
    1.4283296695175856E+00 
    1.3781858866597867E+00 
    1.2822781780112189E+00 
    1.1925208418067232E+00 
    1.1165416664556824E+00 
    1.0529213898201861E+00 
    9.9925217699237345E-01 
    9.5362901285283785E-01 
    9.1474614744956273E-01 
    8.8167602871581752E-01 
    8.5291801378750309E-01 
    8.3030728568679624E-01 
    8.1943239578616056E-01 
    8.1400623916202097E-01 
    8.1148479009166885E-01 
    8.1092163860373423E-01 
    1.2788591533834586E+00 
    1.2822460983967212E+00 
    1.2395707919035377E+00 
    1.1785775913213732E+00 
    1.1157725940615351E+00 
    1.0575083080583556E+00 
    1.0055274993249537E+00 
    9.5991482265940153E-01 
    9.2029818507459682E-01 
    8.8626096777434982E-01 
    8.5697884268995905E-01 
    8.3147418453200328E-01 
    8.1753188217786688E-01 
    8.1153144426986634E-01 
    8.0899422589249415E-01 
    8.0885698037687115E-01 
    1.1755570306915812E+00 
    1.1924468273810025E+00 
    1.1785374992651247E+00 
    1.1428745675756660E+00 
    1.0968018306609773E+00 
    1.0481424818860008E+00 
    1.0011309619794784E+00 
    9.5776532382933577E-01 
    9.1889148069808491E-01 
    8.8484102472440906E-01 
    8.5547661901220129E-01 
    8.2950327117358402E-01 
    8.1230207401329391E-01 
    8.0579790680252561E-01 
    8.0368042669595618E-01 
    8.0440565111850304E-01 
    1.0974492706819343E+00 
    1.1164141567372399E+00 
    1.1156820009171680E+00 
    1.0967534585168834E+00 
    1.0652076035255147E+00 
    1.0269752070763596E+00 
    9.8658955703612861E-01 
    9.4702682330099830E-01 
    9.1009755518358271E-01 
    8.7688694609397877E-01 
    8.4795166914963815E-01 
    8.2269295598545733E-01 
    8.0284193604440979E-01 
    7.9583570583916929E-01 
    7.9464283322791485E-01 
    7.9668275178736248E-01 
    1.0349274774407951E+00 
    1.0527315585792343E+00 
    1.0573580267330842E+00 
    1.0480367768083392E+00 
    1.0269192473601254E+00 
    9.9762273229524123E-01 
    9.6382522766254342E-01 
    9.2858153112286634E-01 
    8.9418630836897928E-01 
    8.6229227552446464E-01 
    8.3404344941657405E-01 
    8.0958569864630103E-01 
    7.8836080157791522E-01 
    7.8089219472372995E-01 
    7.8104358557792897E-01 
    7.8482351481543755E-01 
    9.8319516745486757E-01 
    9.9899291967412551E-01 
    1.0053099102564083E+00 
    1.0009594926972005E+00 
    9.8646938269237650E-01 
    9.6376197207545455E-01 
    9.3542052834007239E-01 
    9.0408463468690325E-01 
    8.7212065456196519E-01 
    8.4151402330600811E-01 
    8.1386374745916334E-01 
    7.8996032581528908E-01 
    7.6857562498575283E-01 
    7.6056652446672979E-01 
    7.6213154559412821E-01 
    7.6799515674438923E-01 
    9.3963823847521233E-01 
    9.5329603693586484E-01 
    9.5962459981543957E-01 
    9.5752246071473068E-01 
    9.4683619429619204E-01 
    9.2844848912561284E-01 
    9.0401374047903738E-01 
    8.7559912982858323E-01 
    8.4539329199717528E-01 
    8.1552116174628420E-01 
    7.8793256604996997E-01 
    7.6407663225107447E-01 
    7.4330405257146437E-01 
    7.3420300247741899E-01 
    7.3700677178953311E-01 
    7.4528582659251985E-01 
    9.0275318608669064E-01 
    9.1433939164208666E-01 
    9.1993282453316183E-01 
    9.1857387838385851E-01 
    9.0983389963289463E-01 
    8.9398147576947695E-01 
    8.7197462357185318E-01 
    8.4531119682437661E-01 
    8.1586395461270211E-01 
    7.8574668029675643E-01 
    7.5718775533892846E-01 
    7.3228576420616720E-01 
    7.1160722103258289E-01 
    7.0047981081844202E-01 
    7.0441784846875066E-01 
    7.1554615885658934E-01 
    8.7147967450826425E-01 
    8.8119657133896212E-01 
    8.8581208681713886E-01 
    8.8443590707921560E-01 
    8.7653943993207584E-01 
    8.6200955372942234E-01 
    8.4128847810254703E-01 
    8.1534585561000861E-01 
    7.8563885857943849E-01 
    7.5409627477368169E-01 
    7.2310334582980440E-01 
    6.9538607546506126E-01 
    6.7292044181382971E-01 
    6.5815019335336289E-01 
    6.6269836160536466E-01 
    6.7728026977271227E-01 
    8.4394251967489931E-01 
    8.5237757658741098E-01 
    8.5643198788632269E-01 
    8.5495149112750635E-01 
    8.4749098833301728E-01 
    8.3366983809440076E-01 
    8.1355686511599978E-01 
    7.8766055033331506E-01 
    7.5695222561708653E-01 
    7.2295475696677192E-01 
    6.8791512855770498E-01 
    6.5498048246313534E-01 
    6.2750933497449068E-01 
    6.0729297430862228E-01 
    6.1066956129172290E-01 
    6.2886839275171025E-01 
    8.2634280392541515E-01 
    8.2974697453485458E-01 
    8.3083562614989992E-01 
    8.2880926442722758E-01 
    8.2206509128943284E-01 
    8.0910571674723319E-01 
    7.8958845555604207E-01 
    7.6371998917197248E-01 
    7.3189663437529295E-01 
    6.9503007267403150E-01 
    6.5474921138179942E-01 
    6.1404499317243066E-01 
    5.7729001612445963E-01 
    5.4818251819132124E-01 
    5.4581358559632542E-01 
    5.6741807974036873E-01 
    8.1801115661152879E-01 
    8.1891423024304366E-01 
    8.1701096836862153E-01 
    8.1178016300929323E-01 
    8.0233949939643956E-01 
    7.8788014790178118E-01 
    7.6822548797879497E-01 
    7.4298055063403601E-01 
    7.1108969894613472E-01 
    6.7229540011687194E-01 
    6.2696356628319727E-01 
    5.7700731931037419E-01 
    5.2643251744394215E-01 
    4.8133822097639289E-01 
    4.6325491581960260E-01 
    4.8652444497037828E-01 
    8.1359446586615847E-01 
    8.1350890545797472E-01 
    8.1104395109905569E-01 
    8.0533518549286853E-01 
    7.9541884653705619E-01 
    7.8050759336284858E-01 
    7.6024753781159093E-01 
    7.3383879798135077E-01 
    6.9982001002600092E-01 
    6.5723596764313630E-01 
    6.0626160871884194E-01 
    5.4749394869694223E-01 
    4.8118027980384848E-01 
    4.1084324540099609E-01 
    3.5996556414918052E-01 
    3.7542902490155805E-01 
    8.1153873240250229E-01 
    8.1099424865471770E-01 
    8.0851169946208112E-01 
    8.0321524339373751E-01 
    7.9420699613418266E-01 
    7.8063570684086081E-01 
    7.6176405027305127E-01 
    7.3662845185306747E-01 
    7.0381785963213006E-01 
    6.6187910874749167E-01 
    6.0980708283789697E-01 
    5.4540558435166497E-01 
    4.6369799548962520E-01 
    3.6058222657407740E-01 
    2.5250753986334024E-01 
    2.1895063574120247E-01 
    8.1098421239265162E-01 
    8.1043255738695563E-01 
    8.0837410452109959E-01 
    8.0393582965835686E-01 
    7.9623402547819799E-01 
    7.8439752991045852E-01 
    7.6759083249418558E-01 
    7.4486969889248000E-01 
    7.1501077993153994E-01 
    6.7658618978479268E-01 
    6.2808957182721337E-01 
    5.6690598501035627E-01 
    4.8682751275669844E-01 
    3.7614177953852201E-01 
    2.1940753243299141E-01 
    0.0000000000000000E+00 

SCALARS Saturarion double 1 
LOOKUP_TABLE default 

    1.0000000000286691E+00 
    9.9534486497871821E-01 
    9.8587242177300927E-01 
    9.7091452070294071E-01 
    9.5106068702429047E-01 
    9.2767918558384155E-01 
    9.0135965054010125E-01 
    8.7215408880773659E-01 
    8.4167684951028443E-01 
    8.0268230062022239E-01 
    6.6595070090399544E-01 
    6.3091389695693639E-02 
    3.5004029994440206E-05 
    1.0000020745337632E-06 
    1.0000000000000072E-06 
    9.9999999999999995E-07 
    9.9533929181524838E-01 
    9.9253743423123364E-01 
    9.8462589793145838E-01 
    9.7134789518965392E-01 
    9.5345888478848018E-01 
    9.3181511717517174E-01 
    9.0696882000593437E-01 
    8.7906730980289538E-01 
    8.4902111330670771E-01 
    8.1631529653551116E-01 
    7.4701194737214094E-01 
    3.1963872946879385E-01 
    2.2599835453647045E-03 
    1.1504179038220657E-06 
    1.0000000050995921E-06 
    9.9999999999999995E-07 
    9.8587606758519808E-01 
    9.8463396296205652E-01 
    9.7872376290080421E-01 
    9.6800789861271985E-01 
    9.5285754493828434E-01 
    9.3398411621464017E-01 
    9.1181647515257069E-01 
    8.8646326994292157E-01 
    8.5823094432433567E-01 
    8.2820095150556439E-01 
    7.8263802043475250E-01 
    5.6061986229080307E-01 
    3.1148559660714892E-02 
    5.7154200091329392E-05 
    1.0000432882016001E-06 
    1.0000000000005613E-06 
    9.7088759802627467E-01 
    9.7133015233377329E-01 
    9.6799676186186978E-01 
    9.5981800984520338E-01 
    9.4760747800729750E-01 
    9.3161991698860724E-01 
    9.1233726500135937E-01 
    8.8984462687842003E-01 
    8.6443078306825827E-01 
    8.3719767861332661E-01 
    8.0055503286418939E-01 
    6.7618508330817872E-01 
    1.4479116265183109E-01 
    1.5330302220486897E-03 
    1.0047732528890350E-06 
    1.0000000001424720E-06 
    9.5100276323829558E-01 
    9.5343363018984773E-01 
    9.5283403902621455E-01 
    9.4758656490967963E-01 
    9.3820044070583364E-01 
    9.2524103625175369E-01 
    9.0892538792997646E-01 
    8.8949571655330795E-01 
    8.6694757534980604E-01 
    8.4197934076017400E-01 
    8.1267245262153576E-01 
    7.4315689258673623E-01 
    3.3006356822056354E-01 
    2.1733942657311918E-03 
    1.1251578799337749E-06 
    1.0000000078036584E-06 
    9.2758346925218005E-01 
    9.3180050845974915E-01 
    9.3398150297778704E-01 
    9.3159103949576838E-01 
    9.2522006784686683E-01 
    9.1523030512963854E-01 
    9.0203118849064867E-01 
    8.8573062327400554E-01 
    8.6622857548711585E-01 
    8.4381865603950534E-01 
    8.1868199560361599E-01 
    7.6599019407851421E-01 
    4.9585267718873205E-01 
    1.0431168282038954E-02 
    7.6193988493711586E-06 
    1.0000011305524576E-06 
    9.0126796392079289E-01 
    9.0695799359497220E-01 
    9.1183462704032414E-01 
    9.1232099868595307E-01 
    9.0888974084033325E-01 
    9.0200410056845759E-01 
    8.9192373811438830E-01 
    8.7887472452710291E-01 
    8.6267272665910599E-01 
    8.4342446997925324E-01 
    8.2151867860673311E-01 
    7.8215513834595995E-01 
    5.9675644922218596E-01 
    4.7443997846464012E-02 
    8.0351950600430610E-05 
    1.0000137153993979E-06 
    8.7214743278535167E-01 
    8.7910658583241985E-01 
    8.8651134630321748E-01 
    8.8989511497558116E-01 
    8.8953904204652079E-01 
    8.8572259261572839E-01 
    8.7886305985665780E-01 
    8.6913256222659385E-01 
    8.5642985038943464E-01 
    8.4053608923714573E-01 
    8.2163308770084187E-01 
    7.9093714299343454E-01 
    6.5818827816931491E-01 
    1.0177530883304235E-01 
    3.4943635572524922E-05 
    1.0000226980466291E-06 
    8.4181735622868548E-01 
    8.4917249214226875E-01 
    8.5842219933180552E-01 
    8.6452579178592370E-01 
    8.6708211212563646E-01 
    8.6633783700879896E-01 
    8.6269562401067890E-01 
    8.5646899996050396E-01 
    8.4749400921472773E-01 
    8.3532837156918138E-01 
    8.1961626459645420E-01 
    7.9861350797494990E-01 
    7.1551564632260389E-01 
    2.2081074040353002E-01 
    1.3832154319713809E-03 
    1.0272335641557639E-06 
    8.0330605088227591E-01 
    8.1662337834383270E-01 
    8.2819974562594201E-01 
    8.3708119667906589E-01 
    8.4198028030116467E-01 
    8.4387174721758318E-01 
    8.4331811248959265E-01 
    8.4042762808532878E-01 
    8.3533320094915209E-01 
    8.2753900499974886E-01 
    8.1586626260747708E-01 
    7.9974571369366165E-01 
    7.4946671732752690E-01 
    3.4894390375747503E-01 
    1.4805876533955020E-03 
    1.1535495587193288E-06 
    6.6914608439646339E-01 
    7.4806096276845935E-01 
    7.8207682211547769E-01 
    8.0006267813578436E-01 
    8.1220878721989664E-01 
    8.1861862069159086E-01 
    8.2136480572701709E-01 
    8.2138628145469383E-01 
    8.1959291820890956E-01 
    8.1606576068414460E-01 
    8.0978299638703666E-01 
    7.9896311207948523E-01 
    7.6589992571026599E-01 
    5.0005069257457990E-01 
    1.1167696985319768E-02 
    1.1403583213501702E-05 
    6.6767771439041002E-02 
    3.1444642926263017E-01 
    5.5334008833556181E-01 
    6.7401531001336668E-01 
    7.4256418964144943E-01 
    7.6606532373949310E-01 
    7.8215050814240628E-01 
    7.9062198292542962E-01 
    7.9773037992656537E-01 
    7.9917641174615239E-01 
    7.9852119111595488E-01 
    7.9387670428407398E-01 
    7.7142901220497972E-01 
    6.0547629269102532E-01 
    7.9585956789530315E-02 
    4.4688774125531145E-04 
    5.2135079306696980E-05 
    1.4689209748030643E-03 
    2.6541358121563881E-02 
    1.2988396113426237E-01 
    3.0883694370592663E-01 
    4.7082717345887615E-01 
    5.8571486369233550E-01 
    6.5984357782464020E-01 
    7.1561124032282131E-01 
    7.4912549795253158E-01 
    7.6474835096330296E-01 
    7.7228120291754565E-01 
    7.6624297199723346E-01 
    6.7932932059133899E-01 
    2.3003089736763949E-01 
    5.4786820552034970E-05 
    1.0000012715809126E-06 
    1.0849772903852816E-06 
    1.4450462417076454E-05 
    8.5564288409007460E-05 
    1.6821006394930808E-04 
    4.1662368782801208E-03 
    3.4284520073048191E-02 
    1.0802238817360497E-01 
    2.3398747629468927E-01 
    3.4845435576891709E-01 
    4.9772867903290946E-01 
    5.9958778881735453E-01 
    6.7872947056724453E-01 
    6.7640532439073109E-01 
    3.8988467313508629E-01 
    2.5179094282376342E-03 
    1.0000000000000042E-06 
    1.0000000013825449E-06 
    1.0000017021875418E-06 
    1.0001795169940258E-06 
    1.0023341681397320E-06 
    1.0544442694535245E-06 
    1.3690422586240053E-05 
    4.4692473992915100E-05 
    1.0063679711607996E-04 
    1.7873976446440440E-04 
    6.1370317377732880E-03 
    5.6878020326914316E-02 
    2.1173735952604772E-01 
    3.8109196694759118E-01 
    3.9090938103165107E-01 
    2.2401104193274374E-02 
    9.9999999999999995E-07 
    9.9999999999999995E-07 
    1.0000000000000127E-06 
    1.0000000000016955E-06 
    1.0000000000174355E-06 
    1.0000000010081360E-06 
    1.0000007984403448E-06 
    1.0000326914015284E-06 
    1.0004359429240739E-06 
    1.0036276184909558E-06 
    1.1465749905915982E-06 
    1.4132834054973876E-05 
    1.4675877809349603E-04 
    1.7827266176834965E-03 
    2.3138805367022335E-02 
    5.0846328260519534E-04 
