# vtk DataFile Version 2.0
Pressure Field Data 
ASCII 
DATASET UNSTRUCTURED_GRID 

POINTS 289 double 

    0.0000000000000000E+00     0.0000000000000000E+00     0.0000000000000000E+00 
    1.0000000000000000E+00     0.0000000000000000E+00     0.0000000000000000E+00 
    1.0000000000000000E+00     1.0000000000000000E+00     0.0000000000000000E+00 
    0.0000000000000000E+00     1.0000000000000000E+00     0.0000000000000000E+00 
    6.2499999999872928E-02     0.0000000000000000E+00     0.0000000000000000E+00 
    1.2499999999977310E-01     0.0000000000000000E+00     0.0000000000000000E+00 
    1.8749999999959341E-01     0.0000000000000000E+00     0.0000000000000000E+00 
    2.4999999999941089E-01     0.0000000000000000E+00     0.0000000000000000E+00 
    3.1249999999922851E-01     0.0000000000000000E+00     0.0000000000000000E+00 
    3.7499999999904610E-01     0.0000000000000000E+00     0.0000000000000000E+00 
    4.3749999999886358E-01     0.0000000000000000E+00     0.0000000000000000E+00 
    4.9999999999869210E-01     0.0000000000000000E+00     0.0000000000000000E+00 
    5.6249999999884603E-01     0.0000000000000000E+00     0.0000000000000000E+00 
    6.2499999999901090E-01     0.0000000000000000E+00     0.0000000000000000E+00 
    6.8749999999917577E-01     0.0000000000000000E+00     0.0000000000000000E+00 
    7.4999999999934064E-01     0.0000000000000000E+00     0.0000000000000000E+00 
    8.1249999999950551E-01     0.0000000000000000E+00     0.0000000000000000E+00 
    8.7499999999967026E-01     0.0000000000000000E+00     0.0000000000000000E+00 
    9.3749999999983513E-01     0.0000000000000000E+00     0.0000000000000000E+00 
    1.0000000000000000E+00     6.2499999999872928E-02     0.0000000000000000E+00 
    1.0000000000000000E+00     1.2499999999977310E-01     0.0000000000000000E+00 
    1.0000000000000000E+00     1.8749999999959341E-01     0.0000000000000000E+00 
    1.0000000000000000E+00     2.4999999999941089E-01     0.0000000000000000E+00 
    1.0000000000000000E+00     3.1249999999922851E-01     0.0000000000000000E+00 
    1.0000000000000000E+00     3.7499999999904610E-01     0.0000000000000000E+00 
    1.0000000000000000E+00     4.3749999999886358E-01     0.0000000000000000E+00 
    1.0000000000000000E+00     4.9999999999869210E-01     0.0000000000000000E+00 
    1.0000000000000000E+00     5.6249999999884603E-01     0.0000000000000000E+00 
    1.0000000000000000E+00     6.2499999999901090E-01     0.0000000000000000E+00 
    1.0000000000000000E+00     6.8749999999917577E-01     0.0000000000000000E+00 
    1.0000000000000000E+00     7.4999999999934064E-01     0.0000000000000000E+00 
    1.0000000000000000E+00     8.1249999999950551E-01     0.0000000000000000E+00 
    1.0000000000000000E+00     8.7499999999967026E-01     0.0000000000000000E+00 
    1.0000000000000000E+00     9.3749999999983513E-01     0.0000000000000000E+00 
    9.3749999999973976E-01     1.0000000000000000E+00     0.0000000000000000E+00 
    8.7499999999950118E-01     1.0000000000000000E+00     0.0000000000000000E+00 
    8.1249999999991318E-01     1.0000000000000000E+00     0.0000000000000000E+00 
    7.5000000000034706E-01     1.0000000000000000E+00     0.0000000000000000E+00 
    6.8750000000078049E-01     1.0000000000000000E+00     0.0000000000000000E+00 
    6.2500000000121403E-01     1.0000000000000000E+00     0.0000000000000000E+00 
    5.6250000000164757E-01     1.0000000000000000E+00     0.0000000000000000E+00 
    5.0000000000205946E-01     1.0000000000000000E+00     0.0000000000000000E+00 
    4.3750000000182099E-01     1.0000000000000000E+00     0.0000000000000000E+00 
    3.7500000000156092E-01     1.0000000000000000E+00     0.0000000000000000E+00 
    3.1250000000130068E-01     1.0000000000000000E+00     0.0000000000000000E+00 
    2.5000000000104050E-01     1.0000000000000000E+00     0.0000000000000000E+00 
    1.8750000000078040E-01     1.0000000000000000E+00     0.0000000000000000E+00 
    1.2500000000052031E-01     1.0000000000000000E+00     0.0000000000000000E+00 
    6.2500000000260125E-02     1.0000000000000000E+00     0.0000000000000000E+00 
    0.0000000000000000E+00     9.3749999999973976E-01     0.0000000000000000E+00 
    0.0000000000000000E+00     8.7499999999950118E-01     0.0000000000000000E+00 
    0.0000000000000000E+00     8.1249999999991318E-01     0.0000000000000000E+00 
    0.0000000000000000E+00     7.5000000000034706E-01     0.0000000000000000E+00 
    0.0000000000000000E+00     6.8750000000078049E-01     0.0000000000000000E+00 
    0.0000000000000000E+00     6.2500000000121403E-01     0.0000000000000000E+00 
    0.0000000000000000E+00     5.6250000000164757E-01     0.0000000000000000E+00 
    0.0000000000000000E+00     5.0000000000205946E-01     0.0000000000000000E+00 
    0.0000000000000000E+00     4.3750000000182099E-01     0.0000000000000000E+00 
    0.0000000000000000E+00     3.7500000000156092E-01     0.0000000000000000E+00 
    0.0000000000000000E+00     3.1250000000130068E-01     0.0000000000000000E+00 
    0.0000000000000000E+00     2.5000000000104050E-01     0.0000000000000000E+00 
    0.0000000000000000E+00     1.8750000000078040E-01     0.0000000000000000E+00 
    0.0000000000000000E+00     1.2500000000052031E-01     0.0000000000000000E+00 
    0.0000000000000000E+00     6.2500000000260125E-02     0.0000000000000000E+00 
    6.2499999999897131E-02     6.2500000000235922E-02     0.0000000000000000E+00 
    6.2499999999921327E-02     1.2500000000047351E-01     0.0000000000000000E+00 
    6.2499999999945530E-02     1.8750000000070621E-01     0.0000000000000000E+00 
    6.2499999999969733E-02     2.5000000000093858E-01     0.0000000000000000E+00 
    6.2499999999993928E-02     3.1250000000117117E-01     0.0000000000000000E+00 
    6.2500000000018124E-02     3.7500000000140382E-01     0.0000000000000000E+00 
    6.2500000000042327E-02     4.3750000000163619E-01     0.0000000000000000E+00 
    6.2500000000066530E-02     5.0000000000184897E-01     0.0000000000000000E+00 
    6.2500000000090733E-02     5.6250000000147260E-01     0.0000000000000000E+00 
    6.2500000000114922E-02     6.2500000000107636E-01     0.0000000000000000E+00 
    6.2500000000139125E-02     6.8750000000068034E-01     0.0000000000000000E+00 
    6.2500000000163328E-02     7.5000000000028411E-01     0.0000000000000000E+00 
    6.2500000000187531E-02     8.1249999999988787E-01     0.0000000000000000E+00 
    6.2500000000211720E-02     8.7499999999951172E-01     0.0000000000000000E+00 
    6.2500000000235922E-02     9.3749999999974565E-01     0.0000000000000000E+00 
    1.2499999999981980E-01     6.2500000000211733E-02     0.0000000000000000E+00 
    1.2499999999986650E-01     1.2500000000042691E-01     0.0000000000000000E+00 
    1.2499999999991319E-01     1.8750000000063199E-01     0.0000000000000000E+00 
    1.2499999999995989E-01     2.5000000000083678E-01     0.0000000000000000E+00 
    1.2500000000000661E-01     3.1250000000104172E-01     0.0000000000000000E+00 
    1.2500000000005329E-01     3.7500000000124661E-01     0.0000000000000000E+00 
    1.2500000000010000E-01     4.3750000000145117E-01     0.0000000000000000E+00 
    1.2500000000014669E-01     5.0000000000163858E-01     0.0000000000000000E+00 
    1.2500000000019340E-01     5.6250000000129741E-01     0.0000000000000000E+00 
    1.2500000000024011E-01     6.2500000000093847E-01     0.0000000000000000E+00 
    1.2500000000028680E-01     6.8750000000057998E-01     0.0000000000000000E+00 
    1.2500000000033351E-01     7.5000000000022127E-01     0.0000000000000000E+00 
    1.2500000000038020E-01     8.1249999999986211E-01     0.0000000000000000E+00 
    1.2500000000042691E-01     8.7499999999952238E-01     0.0000000000000000E+00 
    1.2500000000047359E-01     9.3749999999975164E-01     0.0000000000000000E+00 
    1.8749999999966760E-01     6.2500000000187531E-02     0.0000000000000000E+00 
    1.8749999999974179E-01     1.2500000000038020E-01     0.0000000000000000E+00 
    1.8749999999981601E-01     1.8750000000055780E-01     0.0000000000000000E+00 
    1.8749999999989009E-01     2.5000000000073502E-01     0.0000000000000000E+00 
    1.8749999999996431E-01     3.1250000000091221E-01     0.0000000000000000E+00 
    1.8750000000003850E-01     3.7500000000108941E-01     0.0000000000000000E+00 
    1.8750000000011269E-01     4.3750000000126649E-01     0.0000000000000000E+00 
    1.8750000000018691E-01     5.0000000000142808E-01     0.0000000000000000E+00 
    1.8750000000026110E-01     5.6250000000112244E-01     0.0000000000000000E+00 
    1.8750000000033529E-01     6.2500000000080080E-01     0.0000000000000000E+00 
    1.8750000000040951E-01     6.8750000000047962E-01     0.0000000000000000E+00 
    1.8750000000048361E-01     7.5000000000015843E-01     0.0000000000000000E+00 
    1.8750000000055780E-01     8.1249999999983680E-01     0.0000000000000000E+00 
    1.8750000000063199E-01     8.7499999999953304E-01     0.0000000000000000E+00 
    1.8750000000070621E-01     9.3749999999975764E-01     0.0000000000000000E+00 
    2.4999999999951281E-01     6.2500000000163314E-02     0.0000000000000000E+00 
    2.4999999999961461E-01     1.2500000000033351E-01     0.0000000000000000E+00 
    2.4999999999971650E-01     1.8750000000048361E-01     0.0000000000000000E+00 
    2.4999999999981831E-01     2.5000000000063310E-01     0.0000000000000000E+00 
    2.4999999999992020E-01     3.1250000000078260E-01     0.0000000000000000E+00 
    2.5000000000002198E-01     3.7500000000093209E-01     0.0000000000000000E+00 
    2.5000000000012390E-01     4.3750000000108180E-01     0.0000000000000000E+00 
    2.5000000000022571E-01     5.0000000000121769E-01     0.0000000000000000E+00 
    2.5000000000032763E-01     5.6250000000094724E-01     0.0000000000000000E+00 
    2.5000000000042938E-01     6.2500000000066314E-01     0.0000000000000000E+00 
    2.5000000000053119E-01     6.8750000000037925E-01     0.0000000000000000E+00 
[...]
CELL_DATA 256 
SCALARS Pressure double 1 
LOOKUP_TABLE default 

    1.4993802377477516E+00 
    1.2523588588720880E+00 
    1.0997780648907287E+00 
    9.9180195282127503E-01 
    9.0785451750582680E-01 
    8.3870400101916043E-01 
    7.7987905743616115E-01 
    7.2834877639192153E-01 
    6.8474596176219227E-01 
    6.6243491416130662E-01 
    6.4927511493233325E-01 
    6.4013319772160682E-01 
    6.3418542347229057E-01 
    6.3074939108646999E-01 
    6.2915060619645735E-01 
    6.2871969638284397E-01 
    1.2523622344227590E+00 
    1.2016987082564436E+00 
    1.1035328790967260E+00 
    1.0098675172671985E+00 
    9.2863432657693934E-01 
    8.5878554487301695E-01 
    7.9824365188151369E-01 
    7.4489474168205205E-01 
    6.9632634152088257E-01 
    6.6788406328928518E-01 
    6.5231178427079317E-01 
    6.4172710665196109E-01 
    6.3475664059273174E-01 
    6.3065112559556202E-01 
    6.2871932612328718E-01 
    6.2828868108775471E-01 
    1.0997792984660577E+00 
    1.1035332506856550E+00 
    1.0594677612280916E+00 
    9.9543964669132767E-01 
    9.2818748767630155E-01 
    8.6436856624311964E-01 
    8.0602458460824089E-01 
    7.5323223855878185E-01 
    7.0368927035436935E-01 
    6.6968975179173629E-01 
    6.5216497005745178E-01 
    6.4069704507530822E-01 
    6.3311533925816865E-01 
    6.2870350488251636E-01 
    6.2678307846542392E-01 
    6.2668906376546896E-01 
    9.9179224958524526E-01 
    1.0098601142890271E+00 
    9.9543492830575353E-01 
    9.5765657932532255E-01 
    9.0803842658787981E-01 
    8.5464710084860018E-01 
    8.0198596842175007E-01 
    7.5215762125991881E-01 
    7.0461343385217423E-01 
    6.6692811459429824E-01 
    6.4779715645708758E-01 
    6.3620994416911592E-01 
    6.2853255003820541E-01 
    6.2422043305895880E-01 
    6.2267141038929197E-01 
    6.2325402482139958E-01 
    9.0783286046681233E-01 
    9.2861532690364856E-01 
    9.2817365299239241E-01 
    9.0803130594048020E-01 
    8.7386287068671253E-01 
    8.3179026672482426E-01 
    7.8658279049269819E-01 
    7.4134517587163473E-01 
    6.9710917874534573E-01 
    6.5853797426106397E-01 
    6.3868650238538494E-01 
    6.2763877673768942E-01 
    6.2035869346928962E-01 
    6.1654840052382720E-01 
    6.1572990022241580E-01 
    6.1732678032879906E-01 
    8.3867799633188989E-01 
    8.5876534688028772E-01 
    8.6435469277176291E-01 
    8.5463824380711961E-01 
    8.3178477064689038E-01 
    7.9954206665390137E-01 
    7.6179754125234211E-01 
    7.2165582644241677E-01 
    6.8073890346757193E-01 
    6.4417988324914843E-01 
    6.2481544140093459E-01 
    6.1466698987354196E-01 
    6.0810672637172791E-01 
    6.0511075736338671E-01 
    6.0534085860137854E-01 
    6.0827295580467533E-01 
    7.7985401809363808E-01 
    7.9822516890602535E-01 
    8.0601256307931390E-01 
    8.0197504578805734E-01 
    7.8657161490319005E-01 
    7.6178742598673199E-01 
    7.3038836301973264E-01 
    6.9499080814799563E-01 
    6.5655942478689855E-01 
    6.2439105728499666E-01 
    6.0661949670070525E-01 
    5.9730862702504306E-01 
    5.9148774112364044E-01 
    5.8942914059181650E-01 
    5.9093055781065240E-01 
    5.9548457348665540E-01 
    7.2831486606044538E-01 
    7.4487271446765513E-01 
    7.5320601322826486E-01 
    7.5212612091323905E-01 
    7.4132569737097331E-01 
    7.2164676786897375E-01 
    6.9499680664803332E-01 
    6.6322009420016015E-01 
    6.2780373426233060E-01 
    6.0097423696636310E-01 
    5.8512504329447179E-01 
    5.7595797433656581E-01 
    5.7042786160740033E-01 
    5.6911617599227926E-01 
    5.7194731013788147E-01 
    5.7835976634700603E-01 
    6.8473697537566625E-01 
    6.9630445569661603E-01 
    7.0366249735396003E-01 
    7.0457038851063636E-01 
    6.9708335766575702E-01 
    6.8074723905719359E-01 
    6.5658824729373266E-01 
    6.2779705775425898E-01 
    5.9943692911773594E-01 
    5.7717427803765975E-01 
    5.6204953691272297E-01 
    5.5143653276087090E-01 
    5.4507845587158410E-01 
    5.4384144626620656E-01 
    5.4779705416086133E-01 
    5.5623962211934885E-01 
    6.6244989533674004E-01 
    6.6789380410801513E-01 
    6.6969258948537891E-01 
    6.6692636953169759E-01 
    6.5855357421635841E-01 
    6.4420268885248622E-01 
    6.2440513221828886E-01 
    6.0096645720709319E-01 
    5.7716804065638128E-01 
    5.5603249665000065E-01 
    5.3883314608404675E-01 
    5.2477383107422992E-01 
    5.1577406530746783E-01 
    5.1326770935444710E-01 
    5.1771907665211692E-01 
    5.2827434594112554E-01 
    6.4929177314455089E-01 
    6.5232911431206519E-01 
    6.5218180508490653E-01 
    6.4780803937982034E-01 
    6.3870787409583563E-01 
    6.2484084172471266E-01 
    6.0663291254523688E-01 
    5.8512046576325782E-01 
    5.6204663822699363E-01 
    5.3884383479018072E-01 
    5.1657864699433642E-01 
    4.9717579384569405E-01 
    4.8311078485369185E-01 
    4.7704263218475734E-01 
    4.8060385503328945E-01 
    4.9317417794370261E-01 
    6.4014939721207487E-01 
    6.4174360121939167E-01 
    6.4071353419552490E-01 
    6.3622466487815865E-01 
    6.2765478705855682E-01 
    6.1468487999501453E-01 
    5.9732188875818348E-01 
    5.7596198637919815E-01 
    5.5144038918680305E-01 
    5.2477916099846711E-01 
    4.9717869818587662E-01 
    4.7065339874786355E-01 
    4.4846567431442275E-01 
    4.3508717538595876E-01 
    4.3481470419737306E-01 
    4.4875312953660379E-01 
    6.3420123522047123E-01 
    6.3477253236727482E-01 
    6.3313114236171086E-01 
    6.2854764232701099E-01 
    6.2037361548239067E-01 
    6.0812177290458469E-01 
    5.9150079877914907E-01 
    5.7043648507108702E-01 
    5.4508448266121778E-01 
    5.1577922341742355E-01 
    4.8311452149926826E-01 
    4.4846743347840545E-01 
    4.1495064014149247E-01 
    3.8857706525811581E-01 
    3.7823821347030862E-01 
    3.9101438367969982E-01 
    6.3076497566632794E-01 
    6.3066669936544606E-01 
    6.2871894370609194E-01 
    6.2423545359039567E-01 
    6.1656296463394233E-01 
    6.0512483252902871E-01 
    5.8944192096500925E-01 
    5.6912645997572242E-01 
    5.4384928833994506E-01 
    5.1327382347466055E-01 
    4.7704721604666606E-01 
    4.3509011651729601E-01 
    3.8857841697236373E-01 
    3.4237977457298774E-01 
    3.0953727664938974E-01 
    3.1208342438436082E-01 
    6.2916608627879800E-01 
    6.2873476013813412E-01 
    6.2679836514065013E-01 
    6.2268637780163305E-01 
    6.1574439834790529E-01 
    6.0535472198801543E-01 
    5.9094335272902698E-01 
    5.7195838066162386E-01 
    5.4780610592014378E-01 
    5.1772626331462401E-01 
    4.8060936720581487E-01 
    4.3481861718180553E-01 
    3.7824061243356966E-01 
    3.0953834351692133E-01 
    2.3468016873462721E-01 
    1.9504576420415157E-01 
    6.2873514571387124E-01 
    6.2830408714525898E-01 
    6.2670434378547291E-01 
    6.2326904882934742E-01 
    6.1734139191079418E-01 
    6.0828696724224396E-01 
    5.9549766179663655E-01 
    5.7837146516108051E-01 
    5.5624957967332700E-01 
    5.2828248958387025E-01 
    4.9318059238971346E-01 
    4.4875791133809184E-01 
    3.9101763612162632E-01 
    3.1208530923718458E-01 
    1.9504653059826518E-01 
    0.0000000000000000E+00 

SCALARS Saturarion double 1 
LOOKUP_TABLE default 

    1.0000000009469474E+00 
    9.9119697824220065E-01 
    9.7267422431965245E-01 
    9.4476253226442697E-01 
    9.1123867248923951E-01 
    8.7378217875060338E-01 
    8.3383600667627689E-01 
    7.6924969495588114E-01 
    3.2809040121207650E-01 
    7.0762913206705096E-04 
    1.0009332030854291E-06 
    1.0000000000127567E-06 
    9.9999999999999995E-07 
    9.9999999999999995E-07 
    9.9999999999999995E-07 
    9.9999999999999995E-07 
    9.9120334079950312E-01 
    9.8598684736921305E-01 
    9.7018782468162335E-01 
    9.4542010839484736E-01 
    9.1498618127160369E-01 
    8.7991958727081210E-01 
    8.4244239369716312E-01 
    7.9013257857206309E-01 
    5.7039937093188176E-01 
    1.9878376351629898E-02 
    8.8474598194604399E-06 
    1.0000003644227107E-06 
    1.0000000000000076E-06 
    9.9999999999999995E-07 
    9.9999999999999995E-07 
    9.9999999999999995E-07 
    9.7263478641585954E-01 
    9.7016436952368557E-01 
    9.5900401800408275E-01 
    9.3967914611477987E-01 
    9.1397506356610647E-01 
    8.8337900316024265E-01 
    8.4964297687137835E-01 
    8.0842068406456524E-01 
    6.8849290716494549E-01 
    1.3339280672388307E-01 
    6.0911698235133335E-04 
    1.0011904897708289E-06 
    1.0000000000131872E-06 
    9.9999999999999995E-07 
    9.9999999999999995E-07 
    9.9999999999999995E-07 
    9.4466782711627140E-01 
    9.4535288200124590E-01 
    9.3965524522181165E-01 
    9.2575584131324296E-01 
    9.0544691392377108E-01 
    8.7984416811797428E-01 
    8.5029691461246792E-01 
    8.1516665344319383E-01 
    7.4029961090604335E-01 
    2.5846884856460989E-01 
    5.4504450736979023E-04 
    1.0059720239766576E-06 
    1.0000000002238875E-06 
    9.9999999999999995E-07 
    9.9999999999999995E-07 
    9.9999999999999995E-07 
    9.1112446014605042E-01 
    9.1494992214958315E-01 
    9.1394488419492659E-01 
    9.0542144438938610E-01 
    8.9034965038954905E-01 
    8.7004204946287900E-01 
    8.4530710790544117E-01 
    8.1512172745824296E-01 
    7.5842869459982909E-01 
    3.5712781347173822E-01 
    4.1908848841558660E-05 
    1.0001355209275649E-06 
    1.0000000000028555E-06 
    9.9999999999999995E-07 
    9.9999999999999995E-07 
    9.9999999999999995E-07 
    8.7371480073370866E-01 
    8.8004057419409865E-01 
    8.8356383993007481E-01 
    8.7992043039182177E-01 
    8.7008901733158805E-01 
    8.5515451717174051E-01 
    8.3559847038765500E-01 
    8.0986140320029876E-01 
    7.6340876715843220E-01 
    3.9250834134719753E-01 
    6.6904611202181946E-05 
    1.0000942028128889E-06 
    1.0000000000178364E-06 
    9.9999999999999995E-07 
    9.9999999999999995E-07 
    9.9999999999999995E-07 
    8.3395580763566646E-01 
    8.4265949443756794E-01 
    8.4954788528285163E-01 
    8.5028702976315229E-01 
    8.4515729468540013E-01 
    8.3562881034290837E-01 
    8.2213087309255450E-01 
    8.0005917100483515E-01 
    7.5187028421741153E-01 
    3.3880851230723796E-01 
    2.2127398162754311E-04 
    1.0016680642124751E-06 
    1.0000000000531328E-06 
    9.9999999999999995E-07 
    9.9999999999999995E-07 
    9.9999999999999995E-07 
    7.6923854841386896E-01 
    7.9025905339484970E-01 
    8.0792103660523018E-01 
    8.1472485514894855E-01 
    8.1499110721184231E-01 
    8.1011454642952174E-01 
    8.0069024174348602E-01 
    7.8125261135823765E-01 
    7.1235374379640826E-01 
    1.9196921815141060E-01 
    1.3358845166571150E-03 
    1.0121758476535001E-06 
    1.0000000002243900E-06 
    9.9999999999999974E-07 
    9.9999999999999995E-07 
    9.9999999999999995E-07 
    3.2640215018036534E-01 
    5.6791709333091500E-01 
    6.8571478421810028E-01 
    7.4168740416046519E-01 
    7.5909312685289687E-01 
    7.6334246345280199E-01 
    7.5243220802346700E-01 
    7.1158411521143172E-01 
    4.1551311717235029E-01 
    1.2095431166415701E-02 
    7.5597963257654664E-06 
    1.0000012816631786E-06 
    1.0000000000004137E-06 
    9.9999999999999995E-07 
    9.9999999999999995E-07 
    9.9999999999999995E-07 
    1.0164874739261216E-03 
    1.7468435523440587E-02 
    1.3486398317778980E-01 
    2.5765811723182885E-01 
    3.5492294635437471E-01 
    3.9058562275904857E-01 
    3.4050281804096383E-01 
    1.9522788952514841E-01 
    8.9850818007532890E-03 
    1.7064717430983976E-05 
    1.0000058734482064E-06 
    1.0000000000000656E-06 
    9.9999999999999995E-07 
    9.9999999999999995E-07 
    9.9999999999999995E-07 
    9.9999999999999995E-07 
    1.0024254501143974E-06 
    6.5314646590153142E-06 
    3.6385514112720021E-04 
    6.7252081901529538E-04 
    3.2529812388205575E-05 
    5.3189409510016102E-05 
    6.9835444712605730E-04 
    9.1711034734356825E-04 
    5.1678448507496290E-06 
    1.0000167089779078E-06 
    1.0000000000004396E-06 
    9.9999999999999995E-07 
    9.9999999999999995E-07 
    9.9999999999999995E-07 
    9.9999999999999995E-07 
    9.9999999999999995E-07 
    1.0000000000813151E-06 
    1.0000000482811170E-06 
    1.0003660344568722E-06 
    1.0062288163552428E-06 
    1.0000610262754094E-06 
    1.0000509436944116E-06 
    1.0073585994141074E-06 
    1.0049486992786762E-06 
    1.0000006560859393E-06 
    1.0000000000004756E-06 
    9.9999999999999995E-07 
    9.9999999999999995E-07 
    9.9999999999999995E-07 
    9.9999999999999995E-07 
    9.9999999999999995E-07 
    9.9999999999999995E-07 
    9.9999999999999995E-07 
    1.0000000000000004E-06 
    1.0000000000055294E-06 
    1.0000000001480963E-06 
    1.0000000000039884E-06 
    1.0000000000014473E-06 
    1.0000000003281297E-06 
    1.0000000001477295E-06 
    1.0000000000002517E-06 
    9.9999999999999995E-07 
    9.9999999999999995E-07 
    9.9999999999999995E-07 
    9.9999999999999995E-07 
    9.9999999999999995E-07 
    9.9999999999999995E-07 
    9.9999999999999995E-07 
    9.9999999999999995E-07 
    9.9999999999999995E-07 
    9.9999999999999995E-07 
    9.9999999999999995E-07 
    9.9999999999999995E-07 
    9.9999999999999995E-07 
    1.0000000000000002E-06 
    1.0000000000000002E-06 
    9.9999999999999995E-07 
    9.9999999999999995E-07 
    9.9999999999999995E-07 
    9.9999999999999995E-07 
    9.9999999999999995E-07 
    9.9999999999999995E-07 
    9.9999999999999995E-07 
    9.9999999999999995E-07 
    9.9999999999999995E-07 
    9.9999999999999995E-07 
    9.9999999999999995E-07 
    9.9999999999999995E-07 
    9.9999999999999995E-07 
    9.9999999999999995E-07 
    9.9999999999999995E-07 
    9.9999999999999995E-07 
    9.9999999999999995E-07 
    9.9999999999999995E-07 
    9.9999999999999995E-07 
    9.9999999999999995E-07 
    9.9999999999999995E-07 
    9.9999999999999995E-07 
    9.9999999999999995E-07 
    9.9999999999999995E-07 
    9.9999999999999995E-07 
    9.9999999999999995E-07 
    9.9999999999999995E-07 
    9.9999999999999995E-07 
    9.9999999999999995E-07 
    9.9999999999999995E-07 
    9.9999999999999995E-07 
    9.9999999999999995E-07 
    9.9999999999999995E-07 
    9.9999999999999995E-07 
    9.9999999999999995E-07 
    9.9999999999999995E-07 
    9.9999999999999995E-07 
    9.9999999999999995E-07 
    9.9999999999999995E-07 
    1.0000000244060435E-06 
