# vtk DataFile Version 2.0
Pressure Field Data 
ASCII 
DATASET UNSTRUCTURED_GRID 

POINTS 289 double 

    0.0000000000000000E+00     0.0000000000000000E+00     0.0000000000000000E+00 
    1.0000000000000000E+00     0.0000000000000000E+00     0.0000000000000000E+00 
    1.0000000000000000E+00     1.0000000000000000E+00     0.0000000000000000E+00 
    0.0000000000000000E+00     1.0000000000000000E+00     0.0000000000000000E+00 
    6.2499999999872928E-02     0.0000000000000000E+00     0.0000000000000000E+00 
    1.2499999999977310E-01     0.0000000000000000E+00     0.0000000000000000E+00 
    1.8749999999959341E-01     0.0000000000000000E+00     0.0000000000000000E+00 
    2.4999999999941089E-01     0.0000000000000000E+00     0.0000000000000000E+00 
    3.1249999999922851E-01     0.0000000000000000E+00     0.0000000000000000E+00 
    3.7499999999904610E-01     0.0000000000000000E+00     0.0000000000000000E+00 
    4.3749999999886358E-01     0.0000000000000000E+00     0.0000000000000000E+00 
    4.9999999999869210E-01     0.0000000000000000E+00     0.0000000000000000E+00 
    5.6249999999884603E-01     0.0000000000000000E+00     0.0000000000000000E+00 
    6.2499999999901090E-01     0.0000000000000000E+00     0.0000000000000000E+00 
    6.8749999999917577E-01     0.0000000000000000E+00     0.0000000000000000E+00 
    7.4999999999934064E-01     0.0000000000000000E+00     0.0000000000000000E+00 
    8.1249999999950551E-01     0.0000000000000000E+00     0.0000000000000000E+00 
    8.7499999999967026E-01     0.0000000000000000E+00     0.0000000000000000E+00 
    9.3749999999983513E-01     0.0000000000000000E+00     0.0000000000000000E+00 
    1.0000000000000000E+00     6.2499999999872928E-02     0.0000000000000000E+00 
    1.0000000000000000E+00     1.2499999999977310E-01     0.0000000000000000E+00 
    1.0000000000000000E+00     1.8749999999959341E-01     0.0000000000000000E+00 
    1.0000000000000000E+00     2.4999999999941089E-01     0.0000000000000000E+00 
    1.0000000000000000E+00     3.1249999999922851E-01     0.0000000000000000E+00 
    1.0000000000000000E+00     3.7499999999904610E-01     0.0000000000000000E+00 
    1.0000000000000000E+00     4.3749999999886358E-01     0.0000000000000000E+00 
    1.0000000000000000E+00     4.9999999999869210E-01     0.0000000000000000E+00 
    1.0000000000000000E+00     5.6249999999884603E-01     0.0000000000000000E+00 
    1.0000000000000000E+00     6.2499999999901090E-01     0.0000000000000000E+00 
    1.0000000000000000E+00     6.8749999999917577E-01     0.0000000000000000E+00 
    1.0000000000000000E+00     7.4999999999934064E-01     0.0000000000000000E+00 
    1.0000000000000000E+00     8.1249999999950551E-01     0.0000000000000000E+00 
    1.0000000000000000E+00     8.7499999999967026E-01     0.0000000000000000E+00 
    1.0000000000000000E+00     9.3749999999983513E-01     0.0000000000000000E+00 
    9.3749999999973976E-01     1.0000000000000000E+00     0.0000000000000000E+00 
    8.7499999999950118E-01     1.0000000000000000E+00     0.0000000000000000E+00 
    8.1249999999991318E-01     1.0000000000000000E+00     0.0000000000000000E+00 
    7.5000000000034706E-01     1.0000000000000000E+00     0.0000000000000000E+00 
    6.8750000000078049E-01     1.0000000000000000E+00     0.0000000000000000E+00 
    6.2500000000121403E-01     1.0000000000000000E+00     0.0000000000000000E+00 
    5.6250000000164757E-01     1.0000000000000000E+00     0.0000000000000000E+00 
    5.0000000000205946E-01     1.0000000000000000E+00     0.0000000000000000E+00 
    4.3750000000182099E-01     1.0000000000000000E+00     0.0000000000000000E+00 
    3.7500000000156092E-01     1.0000000000000000E+00     0.0000000000000000E+00 
    3.1250000000130068E-01     1.0000000000000000E+00     0.0000000000000000E+00 
    2.5000000000104050E-01     1.0000000000000000E+00     0.0000000000000000E+00 
    1.8750000000078040E-01     1.0000000000000000E+00     0.0000000000000000E+00 
    1.2500000000052031E-01     1.0000000000000000E+00     0.0000000000000000E+00 
    6.2500000000260125E-02     1.0000000000000000E+00     0.0000000000000000E+00 
    0.0000000000000000E+00     9.3749999999973976E-01     0.0000000000000000E+00 
    0.0000000000000000E+00     8.7499999999950118E-01     0.0000000000000000E+00 
    0.0000000000000000E+00     8.1249999999991318E-01     0.0000000000000000E+00 
    0.0000000000000000E+00     7.5000000000034706E-01     0.0000000000000000E+00 
    0.0000000000000000E+00     6.8750000000078049E-01     0.0000000000000000E+00 
    0.0000000000000000E+00     6.2500000000121403E-01     0.0000000000000000E+00 
    0.0000000000000000E+00     5.6250000000164757E-01     0.0000000000000000E+00 
    0.0000000000000000E+00     5.0000000000205946E-01     0.0000000000000000E+00 
    0.0000000000000000E+00     4.3750000000182099E-01     0.0000000000000000E+00 
    0.0000000000000000E+00     3.7500000000156092E-01     0.0000000000000000E+00 
    0.0000000000000000E+00     3.1250000000130068E-01     0.0000000000000000E+00 
    0.0000000000000000E+00     2.5000000000104050E-01     0.0000000000000000E+00 
    0.0000000000000000E+00     1.8750000000078040E-01     0.0000000000000000E+00 
    0.0000000000000000E+00     1.2500000000052031E-01     0.0000000000000000E+00 
    0.0000000000000000E+00     6.2500000000260125E-02     0.0000000000000000E+00 
    6.2499999999897131E-02     6.2500000000235922E-02     0.0000000000000000E+00 
    6.2499999999921327E-02     1.2500000000047351E-01     0.0000000000000000E+00 
    6.2499999999945530E-02     1.8750000000070621E-01     0.0000000000000000E+00 
    6.2499999999969733E-02     2.5000000000093858E-01     0.0000000000000000E+00 
    6.2499999999993928E-02     3.1250000000117117E-01     0.0000000000000000E+00 
    6.2500000000018124E-02     3.7500000000140382E-01     0.0000000000000000E+00 
    6.2500000000042327E-02     4.3750000000163619E-01     0.0000000000000000E+00 
    6.2500000000066530E-02     5.0000000000184897E-01     0.0000000000000000E+00 
    6.2500000000090733E-02     5.6250000000147260E-01     0.0000000000000000E+00 
    6.2500000000114922E-02     6.2500000000107636E-01     0.0000000000000000E+00 
    6.2500000000139125E-02     6.8750000000068034E-01     0.0000000000000000E+00 
    6.2500000000163328E-02     7.5000000000028411E-01     0.0000000000000000E+00 
    6.2500000000187531E-02     8.1249999999988787E-01     0.0000000000000000E+00 
    6.2500000000211720E-02     8.7499999999951172E-01     0.0000000000000000E+00 
    6.2500000000235922E-02     9.3749999999974565E-01     0.0000000000000000E+00 
    1.2499999999981980E-01     6.2500000000211733E-02     0.0000000000000000E+00 
    1.2499999999986650E-01     1.2500000000042691E-01     0.0000000000000000E+00 
    1.2499999999991319E-01     1.8750000000063199E-01     0.0000000000000000E+00 
    1.2499999999995989E-01     2.5000000000083678E-01     0.0000000000000000E+00 
    1.2500000000000661E-01     3.1250000000104172E-01     0.0000000000000000E+00 
    1.2500000000005329E-01     3.7500000000124661E-01     0.0000000000000000E+00 
    1.2500000000010000E-01     4.3750000000145117E-01     0.0000000000000000E+00 
    1.2500000000014669E-01     5.0000000000163858E-01     0.0000000000000000E+00 
    1.2500000000019340E-01     5.6250000000129741E-01     0.0000000000000000E+00 
    1.2500000000024011E-01     6.2500000000093847E-01     0.0000000000000000E+00 
    1.2500000000028680E-01     6.8750000000057998E-01     0.0000000000000000E+00 
    1.2500000000033351E-01     7.5000000000022127E-01     0.0000000000000000E+00 
    1.2500000000038020E-01     8.1249999999986211E-01     0.0000000000000000E+00 
    1.2500000000042691E-01     8.7499999999952238E-01     0.0000000000000000E+00 
    1.2500000000047359E-01     9.3749999999975164E-01     0.0000000000000000E+00 
    1.8749999999966760E-01     6.2500000000187531E-02     0.0000000000000000E+00 
    1.8749999999974179E-01     1.2500000000038020E-01     0.0000000000000000E+00 
    1.8749999999981601E-01     1.8750000000055780E-01     0.0000000000000000E+00 
    1.8749999999989009E-01     2.5000000000073502E-01     0.0000000000000000E+00 
    1.8749999999996431E-01     3.1250000000091221E-01     0.0000000000000000E+00 
    1.8750000000003850E-01     3.7500000000108941E-01     0.0000000000000000E+00 
    1.8750000000011269E-01     4.3750000000126649E-01     0.0000000000000000E+00 
    1.8750000000018691E-01     5.0000000000142808E-01     0.0000000000000000E+00 
    1.8750000000026110E-01     5.6250000000112244E-01     0.0000000000000000E+00 
    1.8750000000033529E-01     6.2500000000080080E-01     0.0000000000000000E+00 
    1.8750000000040951E-01     6.8750000000047962E-01     0.0000000000000000E+00 
    1.8750000000048361E-01     7.5000000000015843E-01     0.0000000000000000E+00 
    1.8750000000055780E-01     8.1249999999983680E-01     0.0000000000000000E+00 
    1.8750000000063199E-01     8.7499999999953304E-01     0.0000000000000000E+00 
    1.8750000000070621E-01     9.3749999999975764E-01     0.0000000000000000E+00 
    2.4999999999951281E-01     6.2500000000163314E-02     0.0000000000000000E+00 
    2.4999999999961461E-01     1.2500000000033351E-01     0.0000000000000000E+00 
    2.4999999999971650E-01     1.8750000000048361E-01     0.0000000000000000E+00 
    2.4999999999981831E-01     2.5000000000063310E-01     0.0000000000000000E+00 
    2.4999999999992020E-01     3.1250000000078260E-01     0.0000000000000000E+00 
    2.5000000000002198E-01     3.7500000000093209E-01     0.0000000000000000E+00 
    2.5000000000012390E-01     4.3750000000108180E-01     0.0000000000000000E+00 
    2.5000000000022571E-01     5.0000000000121769E-01     0.0000000000000000E+00 
    2.5000000000032763E-01     5.6250000000094724E-01     0.0000000000000000E+00 
    2.5000000000042938E-01     6.2500000000066314E-01     0.0000000000000000E+00 
    2.5000000000053119E-01     6.8750000000037925E-01     0.0000000000000000E+00 
[...]
CELL_DATA 256 
SCALARS Pressure double 1 
LOOKUP_TABLE default 

    1.5931059664545402E+00 
    1.3475233731241794E+00 
    1.1978805161363562E+00 
    1.0943001013301181E+00 
    1.0158157710602482E+00 
    9.5283268290120671E-01 
    9.0056388184393188E-01 
    8.5640891401886332E-01 
    8.1889884676670088E-01 
    7.8689535351202944E-01 
    7.5825009019570311E-01 
    7.4203579690664923E-01 
    7.3416784686403136E-01 
    7.2980662369809979E-01 
    7.2777486182954776E-01 
    7.2722692289827551E-01 
    1.3475139030853918E+00 
    1.2973404222046767E+00 
    1.2012918371811072E+00 
    1.1112769594633933E+00 
    1.0349254619590094E+00 
    9.7083137238199113E-01 
    9.1659700194233740E-01 
    8.7032748655732739E-01 
    8.3074600127389586E-01 
    7.9687276015716879E-01 
    7.6679129105954191E-01 
    7.4508468171299513E-01 
    7.3500991439544627E-01 
    7.2971245113047334E-01 
    7.2723435361015698E-01 
    7.2668110747936199E-01 
    1.1978579858475717E+00 
    1.2012792957873419E+00 
    1.1585302727878675E+00 
    1.0973511105523734E+00 
    1.0342470055346515E+00 
    9.7557704794401079E-01 
    9.2309029480524929E-01 
    8.7687615515473682E-01 
    8.3658294118029264E-01 
    8.0178658360601718E-01 
    7.7137411329242367E-01 
    7.4566825374816492E-01 
    7.3304242204139747E-01 
    7.2726854999636903E-01 
    7.2477941428511139E-01 
    7.2464716859737888E-01 
    1.0942575658841938E+00 
    1.1112467962128563E+00 
    1.0973349901751761E+00 
    1.0615641687350508E+00 
    1.0152756275586881E+00 
    9.6629297969102623E-01 
    9.1885189605146622E-01 
    8.7495047591046782E-01 
    8.3544300434333552E-01 
    8.0067561965170819E-01 
    7.7034044571480498E-01 
    7.4313706754149467E-01 
    7.2762907048412584E-01 
    7.2162556718378468E-01 
    7.1954950104458071E-01 
    7.2026641915160028E-01 
    1.0157461188007750E+00 
    1.0348705223375934E+00 
    1.0342088147105053E+00 
    1.0152557768905093E+00 
    9.8358544169580953E-01 
    9.4512462168565037E-01 
    9.0440315429337981E-01 
    8.6439200614202916E-01 
    8.2689849009115945E-01 
    7.9301636804327635E-01 
    7.6318451763202477E-01 
    7.3641311876206250E-01 
    7.1808274556048290E-01 
    7.1187210323364669E-01 
    7.1067024714664728E-01 
    7.1267381404647234E-01 
    9.5273085731766538E-01 
    9.7074686124400533E-01 
    9.7551196950351193E-01 
    9.6624903464864520E-01 
    9.4510239818012076E-01 
    9.1568196625337528E-01 
    8.8165801371692665E-01 
    8.4607525471130185E-01 
    8.1121704922547144E-01 
    7.7873524993286780E-01 
    7.4970549188481372E-01 
    7.2388490966817398E-01 
    7.0336843306990848E-01 
    6.9705839438333583E-01 
    6.9726030361670521E-01 
    7.0100265776392379E-01 
    9.0042634668685673E-01 
    9.1647904390153057E-01 
    9.2299448792162508E-01 
    9.1877986097250774E-01 
    9.0435577132623945E-01 
    8.8163487024849663E-01 
    8.5318888322187958E-01 
    8.2164339464898928E-01 
    7.8934644516146324E-01 
    7.5826917369445279E-01 
    7.2997875661520728E-01 
    7.0498902610398506E-01 
    6.8309362028113818E-01 
    6.7668161198065990E-01 
    6.7858286043008187E-01 
    6.8444065328325532E-01 
    8.5623616605099284E-01 
    8.7017484083008179E-01 
    8.7674856540833501E-01 
    8.7484976246625490E-01 
    8.6431922508067005E-01 
    8.4602987009039510E-01 
    8.2162136773016814E-01 
    7.9314435648600934E-01 
    7.6276367458987515E-01 
    7.3257277693582468E-01 
    7.0448726292716601E-01 
    6.7973748752252061E-01 
    6.5744889185614952E-01 
    6.5058988783489935E-01 
    6.5400697622073600E-01 
    6.6221517373536576E-01 
    8.1869535746087108E-01 
    8.3055907804878715E-01 
    8.3642172130140413E-01 
    8.3531194362251271E-01 
    8.2680086477446790E-01 
    8.1115291733029449E-01 
    7.8930626891275291E-01 
    7.6274136700371553E-01 
    7.3330633898105768E-01 
    7.0306937122352198E-01 
    6.7418373381353747E-01 
    6.4851691295196912E-01 
    6.2582266758004579E-01 
    6.1762399369240084E-01 
    6.2246987547482679E-01 
    6.3333761157120394E-01 
    7.8667633663615788E-01 
    7.9665173898065589E-01 
    8.0158013334528377E-01 
    8.0049846702780469E-01 
    7.9288074494802974E-01 
    7.7864762758723327E-01 
    7.5821145342737228E-01 
    7.3252708508712250E-01 
    7.0304089111461143E-01 
    6.7164260191537972E-01 
    6.4061477211748186E-01 
    6.1240095783550574E-01 
    5.8796032429869427E-01 
    5.7647503722581039E-01 
    5.8232638426028538E-01 
    5.9639552245264171E-01 
    7.5802973889514091E-01 
    7.6652405774863996E-01 
    7.7109070314840311E-01 
    7.7007799165063318E-01 
    7.6297531582320366E-01 
    7.4958175831150753E-01 
    7.2990217360472531E-01 
    7.0441626705210880E-01 
    6.7412634664501980E-01 
    6.4057711018028751E-01 
    6.0593285115580187E-01 
    5.7300745609738202E-01 
    5.4416243905981976E-01 
    5.2632914534076181E-01 
    5.3205444484886222E-01 
    5.4969205985699876E-01 
    7.4186689258052785E-01 
    7.4487473102524626E-01 
    7.4535396881932514E-01 
    7.4275418073733879E-01 
    7.3605161666029817E-01 
    7.2368334539602430E-01 
    7.0489786564374213E-01 
    6.7963351368334424E-01 
    6.4841590362932999E-01 
    6.1229450427412890E-01 
    5.7294258420926436E-01 
    5.3293761460240896E-01 
    4.9577886046215830E-01 
    4.6724228090040826E-01 
    4.7012713695060948E-01 
    4.9109417715875991E-01 
    7.3404389833380934E-01 
    7.3487890805810807E-01 
    7.3290730112568703E-01 
    7.2751783139376336E-01 
    7.1804389778805489E-01 
    7.0339199564837607E-01 
    6.8314884268650544E-01 
    6.5737660449743962E-01 
    6.2572257471694004E-01 
    5.8774484023083806E-01 
    5.4397312791948438E-01 
    4.9574310663830579E-01 
    4.4579707663233414E-01 
    4.0157009866224247E-01 
    3.9524708545787823E-01 
    4.1732022832255988E-01 
    7.2970624560842612E-01 
    7.2961314662070964E-01 
    7.2718285733118082E-01 
    7.2158226962858196E-01 
    7.1191983020046934E-01 
    6.9715582150071909E-01 
    6.7680531138350175E-01 
    6.5060230831584387E-01 
    6.1758683996011288E-01 
    5.7640888945078572E-01 
    5.2628554250067250E-01 
    4.6739441054768355E-01 
    4.0169515179961179E-01 
    3.3890348918444502E-01 
    3.0910979008151396E-01 
    3.2256745615617594E-01 
    7.2768435389099628E-01 
    7.2714663829549631E-01 
    7.2470407674146020E-01 
    7.1950296447695061E-01 
    7.1067555612984390E-01 
    6.9731249102965376E-01 
    6.7865613170617900E-01 
    6.5404862567712796E-01 
    6.2246933739920407E-01 
    5.8232840067137603E-01 
    5.3205922838234332E-01 
    4.7029526296158730E-01 
    3.9542615541884979E-01 
    3.0918877624358865E-01 
    2.2871683845043458E-01 
    1.9587684684838633E-01 
    7.2713905451811089E-01 
    7.2659592098433046E-01 
    7.2457188920855797E-01 
    7.2021288019366192E-01 
    7.1265705542588187E-01 
    7.0102566590973103E-01 
    6.8448949723325969E-01 
    6.6225892575834344E-01 
    6.3335814128075762E-01 
    5.9640975232631266E-01 
    5.4971935513274928E-01 
    4.9119291628238104E-01 
    4.1745971054636993E-01 
    3.2267192467234074E-01 
    1.9592269898082845E-01 
    0.0000000000000000E+00 

SCALARS Saturarion double 1 
LOOKUP_TABLE default 

    1.0000000000469924E+00 
    9.9508725791878705E-01 
    9.8510018299310209E-01 
    9.6931567698203014E-01 
    9.4852324940792843E-01 
    9.2417487976156654E-01 
    8.9683444510451171E-01 
    8.6669970123659690E-01 
    8.3561147034137673E-01 
    7.9028363579385297E-01 
    5.5823818988402130E-01 
    8.9053720469497305E-03 
    1.4763533936334817E-06 
    1.0000000027607279E-06 
    9.9999999999999995E-07 
    9.9999999999999995E-07 
    9.9508204001465306E-01 
    9.9213712754314820E-01 
    9.8378047176156924E-01 
    9.6976426362250456E-01 
    9.5101438879449740E-01 
    9.2845509889299660E-01 
    9.0263347872433031E-01 
    8.7376245171268030E-01 
    8.4312003094725385E-01 
    8.0706908189583937E-01 
    7.0668324404440663E-01 
    1.9281134122249438E-01 
    1.5873508835515387E-03 
    1.0359341880787654E-06 
    1.0000000010138531E-06 
    9.9999999999999995E-07 
    9.8510300053186306E-01 
    9.8378779761874924E-01 
    9.7754180679320757E-01 
    9.6625536343566265E-01 
    9.5037937469281797E-01 
    9.3069663145417691E-01 
    9.0765024046004239E-01 
    8.8132857836410128E-01 
    8.5252121489775967E-01 
    8.2117106279001340E-01 
    7.6480763148194042E-01 
    4.3171845896072780E-01 
    3.7919755812342529E-03 
    2.2593004649443728E-06 
    1.0000000915507262E-06 
    1.0000000000000002E-06 
    9.6928395166479886E-01 
    9.6974271246395105E-01 
    9.6624228595614026E-01 
    9.5767226383763604E-01 
    9.4489884204281582E-01 
    9.2822887575327839E-01 
    9.0817693404375277E-01 
    8.8485162655142080E-01 
    8.5876816802601730E-01 
    8.3100104196181424E-01 
    7.8722058804042927E-01 
    6.0299592502324673E-01 
    6.0166212147992996E-02 
    3.5409412812209659E-04 
    1.0003473357837507E-06 
    1.0000000000043050E-06 
    9.4846001559822446E-01 
    9.5098661296248366E-01 
    9.5035389956697003E-01 
    9.4487696537171728E-01 
    9.3508231754278326E-01 
    9.2158078962343759E-01 
    9.0462585159153408E-01 
    8.8448391673447879E-01 
    8.6119309329568294E-01 
    8.3589015597991900E-01 
    8.0228023543120031E-01 
    6.9814055810743103E-01 
    1.8766952314325019E-01 
    1.7790815452052380E-03 
    1.0381129410664585E-06 
    1.0000000005457365E-06 
    9.2407108422159423E-01 
    9.2843909862397944E-01 
    9.3069405821539752E-01 
    9.2819814935303935E-01 
    9.2155831099734387E-01 
    9.1116402900694693E-01 
    8.9746606816424790E-01 
    8.8055524891657211E-01 
    8.6039197021300962E-01 
    8.3761952388697336E-01 
    8.1008924766629264E-01 
    7.4359690398290468E-01 
    3.5266597127822985E-01 
    8.4010668889119457E-05 
    1.0002480142334167E-06 
    1.0000000000267984E-06 
    8.9674023495559374E-01 
    9.0262413094963601E-01 
    9.0766779490069760E-01 
    9.0815853981562322E-01 
    9.0458915948418184E-01 
    8.9743648202307602E-01 
    8.8698334448454608E-01 
    8.7345443599830508E-01 
    8.5671015951423635E-01 
    8.3705318670952344E-01 
    8.1391355468603466E-01 
    7.6256183277278933E-01 
    4.2930294311973122E-01 
    1.4143476383300831E-03 
    1.1622356948683864E-06 
    1.0000000015551076E-06 
    8.6671277212404318E-01 
    8.7381750528354662E-01 
    8.8140586017314126E-01 
    8.8493707689063017E-01 
    8.8454966314266392E-01 
    8.8056292313701989E-01 
    8.7345790155733705E-01 
    8.6340165520998302E-01 
    8.5027437662150940E-01 
    8.3391948393614201E-01 
    8.1463183972123943E-01 
    7.7657347960280376E-01 
    5.4763130623756728E-01 
    1.6078605461007173E-02 
    2.1435571515949286E-06 
    1.0000000396188829E-06 
    8.3583565539809312E-01 
    8.4327553912882092E-01 
    8.5268175622137288E-01 
    8.5881495751848935E-01 
    8.6132146413985389E-01 
    8.6048221806072867E-01 
    8.5670767898785960E-01 
    8.5030794119524278E-01 
    8.4108043608166849E-01 
    8.2851318407610386E-01 
    8.1232236418313974E-01 
    7.8469483874787938E-01 
    6.4137500571898654E-01 
    9.0168135490269238E-02 
    3.0313119871765273E-04 
    1.0001150522931496E-06 
    7.9107648671230746E-01 
    8.0743684431380214E-01 
    8.2101706374655825E-01 
    8.3075870978246091E-01 
    8.3585184996021611E-01 
    8.3760653933081120E-01 
    8.3688030568822602E-01 
    8.3378562833856207E-01 
    8.2855413783580378E-01 
    8.2064252798654669E-01 
    8.0861050751235741E-01 
    7.8949075845752392E-01 
    7.0304085365750235E-01 
    1.8325646484946864E-01 
    1.0899676619849758E-03 
    1.0056615747708905E-06 
    5.6392856879334663E-01 
    7.0656466971707699E-01 
    7.6344342748016847E-01 
    7.8650571357086818E-01 
    8.0170313015720351E-01 
    8.1000072754373165E-01 
    8.1366581432346763E-01 
    8.1421521689907750E-01 
    8.1235285012425151E-01 
    8.0884253450440857E-01 
    8.0261837987763018E-01 
    7.8916410694738237E-01 
    7.3071434056104057E-01 
    2.9314615234863972E-01 
    9.2596849093550307E-04 
    1.0152898092781690E-06 
    1.0068339653031035E-02 
    1.8724260019376351E-01 
    4.2516637881535924E-01 
    5.9564199476322677E-01 
    6.9602448070521195E-01 
    7.4302838511273772E-01 
    7.6107733672034295E-01 
    7.7602008804414846E-01 
    7.8416139287545961E-01 
    7.8851520100863248E-01 
    7.8881161467893623E-01 
    7.8212162543898167E-01 
    7.4271624615598697E-01 
    4.0507340116905688E-01 
    1.3907827822198160E-03 
    1.0796074308911285E-06 
    1.4187251000990724E-06 
    9.6375155620942563E-04 
    1.2882380422643710E-03 
    3.8832072837772506E-02 
    1.7339272944372461E-01 
    3.2255159164672759E-01 
    4.3036257123365745E-01 
    5.5727003454270396E-01 
    6.4454675055805677E-01 
    7.0209230348230711E-01 
    7.3006745435541764E-01 
    7.4233424539527781E-01 
    7.3309855738772556E-01 
    5.2411991184554674E-01 
    1.3607759563381172E-02 
    1.3681634612117997E-06 
    1.0000000030645700E-06 
    1.0017686863010247E-06 
    1.0199605297387286E-06 
    1.0503884238065966E-05 
    9.2690273310414945E-05 
    1.1581867437117347E-04 
    8.0434715084762613E-04 
    1.7969576192697616E-02 
    8.7430188587820562E-02 
    1.8756303363685897E-01 
    2.7777521070110522E-01 
    3.9500000465073815E-01 
    5.2292401487043172E-01 
    4.3241047975944780E-01 
    1.4434170564747158E-02 
    2.0509402169980762E-06 
    9.9999999999999995E-07 
    1.0000000001119250E-06 
    1.0000000002900416E-06 
    1.0000014040848858E-06 
    1.0002721583906306E-06 
    1.0014370059466005E-06 
    1.0060316652911246E-06 
    2.1518621305683584E-06 
    2.1990311630834847E-05 
    1.2675386864998388E-04 
    7.4412255763532437E-04 
    1.0835991779149534E-03 
    1.3527686556600513E-02 
    1.4378561683824297E-02 
    5.0229812545302279E-05 
    1.0001725563975036E-06 
    9.9999999999999995E-07 
    9.9999999999999995E-07 
    9.9999999999999995E-07 
    1.0000000000000078E-06 
    1.0000000000030455E-06 
    1.0000000000408587E-06 
    1.0000000000326635E-06 
    1.0000000334123960E-06 
    1.0000070776828383E-06 
    1.0006495708058579E-06 
    1.0124953258677814E-06 
    1.0500902585596054E-06 
    1.4007684696580464E-06 
    1.5262030727419200E-06 
    1.0003895836650591E-06 
    1.0000000457613329E-06 
