# vtk DataFile Version 2.0
Pressure Field Data 
ASCII 
DATASET UNSTRUCTURED_GRID 

POINTS 289 double 

    0.0000000000000000E+00     0.0000000000000000E+00     0.0000000000000000E+00 
    1.0000000000000000E+00     0.0000000000000000E+00     0.0000000000000000E+00 
    1.0000000000000000E+00     1.0000000000000000E+00     0.0000000000000000E+00 
    0.0000000000000000E+00     1.0000000000000000E+00     0.0000000000000000E+00 
    6.2499999999872928E-02     0.0000000000000000E+00     0.0000000000000000E+00 
    1.2499999999977310E-01     0.0000000000000000E+00     0.0000000000000000E+00 
    1.8749999999959341E-01     0.0000000000000000E+00     0.0000000000000000E+00 
    2.4999999999941089E-01     0.0000000000000000E+00     0.0000000000000000E+00 
    3.1249999999922851E-01     0.0000000000000000E+00     0.0000000000000000E+00 
    3.7499999999904610E-01     0.0000000000000000E+00     0.0000000000000000E+00 
    4.3749999999886358E-01     0.0000000000000000E+00     0.0000000000000000E+00 
    4.9999999999869210E-01     0.0000000000000000E+00     0.0000000000000000E+00 
    5.6249999999884603E-01     0.0000000000000000E+00     0.0000000000000000E+00 
    6.2499999999901090E-01     0.0000000000000000E+00     0.0000000000000000E+00 
    6.8749999999917577E-01     0.0000000000000000E+00     0.0000000000000000E+00 
    7.4999999999934064E-01     0.0000000000000000E+00     0.0000000000000000E+00 
    8.1249999999950551E-01     0.0000000000000000E+00     0.0000000000000000E+00 
    8.7499999999967026E-01     0.0000000000000000E+00     0.0000000000000000E+00 
    9.3749999999983513E-01     0.0000000000000000E+00     0.0000000000000000E+00 
    1.0000000000000000E+00     6.2499999999872928E-02     0.0000000000000000E+00 
    1.0000000000000000E+00     1.2499999999977310E-01     0.0000000000000000E+00 
    1.0000000000000000E+00     1.8749999999959341E-01     0.0000000000000000E+00 
    1.0000000000000000E+00     2.4999999999941089E-01     0.0000000000000000E+00 
    1.0000000000000000E+00     3.1249999999922851E-01     0.0000000000000000E+00 
    1.0000000000000000E+00     3.7499999999904610E-01     0.0000000000000000E+00 
    1.0000000000000000E+00     4.3749999999886358E-01     0.0000000000000000E+00 
    1.0000000000000000E+00     4.9999999999869210E-01     0.0000000000000000E+00 
    1.0000000000000000E+00     5.6249999999884603E-01     0.0000000000000000E+00 
    1.0000000000000000E+00     6.2499999999901090E-01     0.0000000000000000E+00 
    1.0000000000000000E+00     6.8749999999917577E-01     0.0000000000000000E+00 
    1.0000000000000000E+00     7.4999999999934064E-01     0.0000000000000000E+00 
    1.0000000000000000E+00     8.1249999999950551E-01     0.0000000000000000E+00 
    1.0000000000000000E+00     8.7499999999967026E-01     0.0000000000000000E+00 
    1.0000000000000000E+00     9.3749999999983513E-01     0.0000000000000000E+00 
    9.3749999999973976E-01     1.0000000000000000E+00     0.0000000000000000E+00 
    8.7499999999950118E-01     1.0000000000000000E+00     0.0000000000000000E+00 
    8.1249999999991318E-01     1.0000000000000000E+00     0.0000000000000000E+00 
    7.5000000000034706E-01     1.0000000000000000E+00     0.0000000000000000E+00 
    6.8750000000078049E-01     1.0000000000000000E+00     0.0000000000000000E+00 
    6.2500000000121403E-01     1.0000000000000000E+00     0.0000000000000000E+00 
    5.6250000000164757E-01     1.0000000000000000E+00     0.0000000000000000E+00 
    5.0000000000205946E-01     1.0000000000000000E+00     0.0000000000000000E+00 
    4.3750000000182099E-01     1.0000000000000000E+00     0.0000000000000000E+00 
    3.7500000000156092E-01     1.0000000000000000E+00     0.0000000000000000E+00 
    3.1250000000130068E-01     1.0000000000000000E+00     0.0000000000000000E+00 
    2.5000000000104050E-01     1.0000000000000000E+00     0.0000000000000000E+00 
    1.8750000000078040E-01     1.0000000000000000E+00     0.0000000000000000E+00 
    1.2500000000052031E-01     1.0000000000000000E+00     0.0000000000000000E+00 
    6.2500000000260125E-02     1.0000000000000000E+00     0.0000000000000000E+00 
    0.0000000000000000E+00     9.3749999999973976E-01     0.0000000000000000E+00 
    0.0000000000000000E+00     8.7499999999950118E-01     0.0000000000000000E+00 
    0.0000000000000000E+00     8.1249999999991318E-01     0.0000000000000000E+00 
    0.0000000000000000E+00     7.5000000000034706E-01     0.0000000000000000E+00 
    0.0000000000000000E+00     6.8750000000078049E-01     0.0000000000000000E+00 
    0.0000000000000000E+00     6.2500000000121403E-01     0.0000000000000000E+00 
    0.0000000000000000E+00     5.6250000000164757E-01     0.0000000000000000E+00 
    0.0000000000000000E+00     5.0000000000205946E-01     0.0000000000000000E+00 
    0.0000000000000000E+00     4.3750000000182099E-01     0.0000000000000000E+00 
    0.0000000000000000E+00     3.7500000000156092E-01     0.0000000000000000E+00 
    0.0000000000000000E+00     3.1250000000130068E-01     0.0000000000000000E+00 
    0.0000000000000000E+00     2.5000000000104050E-01     0.0000000000000000E+00 
    0.0000000000000000E+00     1.8750000000078040E-01     0.0000000000000000E+00 
    0.0000000000000000E+00     1.2500000000052031E-01     0.0000000000000000E+00 
    0.0000000000000000E+00     6.2500000000260125E-02     0.0000000000000000E+00 
    6.2499999999897131E-02     6.2500000000235922E-02     0.0000000000000000E+00 
    6.2499999999921327E-02     1.2500000000047351E-01     0.0000000000000000E+00 
    6.2499999999945530E-02     1.8750000000070621E-01     0.0000000000000000E+00 
    6.2499999999969733E-02     2.5000000000093858E-01     0.0000000000000000E+00 
    6.2499999999993928E-02     3.1250000000117117E-01     0.0000000000000000E+00 
    6.2500000000018124E-02     3.7500000000140382E-01     0.0000000000000000E+00 
    6.2500000000042327E-02     4.3750000000163619E-01     0.0000000000000000E+00 
    6.2500000000066530E-02     5.0000000000184897E-01     0.0000000000000000E+00 
    6.2500000000090733E-02     5.6250000000147260E-01     0.0000000000000000E+00 
    6.2500000000114922E-02     6.2500000000107636E-01     0.0000000000000000E+00 
    6.2500000000139125E-02     6.8750000000068034E-01     0.0000000000000000E+00 
    6.2500000000163328E-02     7.5000000000028411E-01     0.0000000000000000E+00 
    6.2500000000187531E-02     8.1249999999988787E-01     0.0000000000000000E+00 
    6.2500000000211720E-02     8.7499999999951172E-01     0.0000000000000000E+00 
    6.2500000000235922E-02     9.3749999999974565E-01     0.0000000000000000E+00 
    1.2499999999981980E-01     6.2500000000211733E-02     0.0000000000000000E+00 
    1.2499999999986650E-01     1.2500000000042691E-01     0.0000000000000000E+00 
    1.2499999999991319E-01     1.8750000000063199E-01     0.0000000000000000E+00 
    1.2499999999995989E-01     2.5000000000083678E-01     0.0000000000000000E+00 
    1.2500000000000661E-01     3.1250000000104172E-01     0.0000000000000000E+00 
    1.2500000000005329E-01     3.7500000000124661E-01     0.0000000000000000E+00 
    1.2500000000010000E-01     4.3750000000145117E-01     0.0000000000000000E+00 
    1.2500000000014669E-01     5.0000000000163858E-01     0.0000000000000000E+00 
    1.2500000000019340E-01     5.6250000000129741E-01     0.0000000000000000E+00 
    1.2500000000024011E-01     6.2500000000093847E-01     0.0000000000000000E+00 
    1.2500000000028680E-01     6.8750000000057998E-01     0.0000000000000000E+00 
    1.2500000000033351E-01     7.5000000000022127E-01     0.0000000000000000E+00 
    1.2500000000038020E-01     8.1249999999986211E-01     0.0000000000000000E+00 
    1.2500000000042691E-01     8.7499999999952238E-01     0.0000000000000000E+00 
    1.2500000000047359E-01     9.3749999999975164E-01     0.0000000000000000E+00 
    1.8749999999966760E-01     6.2500000000187531E-02     0.0000000000000000E+00 
    1.8749999999974179E-01     1.2500000000038020E-01     0.0000000000000000E+00 
    1.8749999999981601E-01     1.8750000000055780E-01     0.0000000000000000E+00 
    1.8749999999989009E-01     2.5000000000073502E-01     0.0000000000000000E+00 
    1.8749999999996431E-01     3.1250000000091221E-01     0.0000000000000000E+00 
    1.8750000000003850E-01     3.7500000000108941E-01     0.0000000000000000E+00 
    1.8750000000011269E-01     4.3750000000126649E-01     0.0000000000000000E+00 
    1.8750000000018691E-01     5.0000000000142808E-01     0.0000000000000000E+00 
    1.8750000000026110E-01     5.6250000000112244E-01     0.0000000000000000E+00 
    1.8750000000033529E-01     6.2500000000080080E-01     0.0000000000000000E+00 
    1.8750000000040951E-01     6.8750000000047962E-01     0.0000000000000000E+00 
    1.8750000000048361E-01     7.5000000000015843E-01     0.0000000000000000E+00 
    1.8750000000055780E-01     8.1249999999983680E-01     0.0000000000000000E+00 
    1.8750000000063199E-01     8.7499999999953304E-01     0.0000000000000000E+00 
    1.8750000000070621E-01     9.3749999999975764E-01     0.0000000000000000E+00 
    2.4999999999951281E-01     6.2500000000163314E-02     0.0000000000000000E+00 
    2.4999999999961461E-01     1.2500000000033351E-01     0.0000000000000000E+00 
    2.4999999999971650E-01     1.8750000000048361E-01     0.0000000000000000E+00 
    2.4999999999981831E-01     2.5000000000063310E-01     0.0000000000000000E+00 
    2.4999999999992020E-01     3.1250000000078260E-01     0.0000000000000000E+00 
    2.5000000000002198E-01     3.7500000000093209E-01     0.0000000000000000E+00 
    2.5000000000012390E-01     4.3750000000108180E-01     0.0000000000000000E+00 
    2.5000000000022571E-01     5.0000000000121769E-01     0.0000000000000000E+00 
    2.5000000000032763E-01     5.6250000000094724E-01     0.0000000000000000E+00 
    2.5000000000042938E-01     6.2500000000066314E-01     0.0000000000000000E+00 
    2.5000000000053119E-01     6.8750000000037925E-01     0.0000000000000000E+00 
[...]
CELL_DATA 256 
SCALARS Pressure double 1 
LOOKUP_TABLE default 

    1.5728060582993983E+00 
    1.3271591588999920E+00 
    1.1773864986012501E+00 
    1.0736039642615487E+00 
    9.9485362007798250E-01 
    9.3155367684978740E-01 
    8.7892606169892573E-01 
    8.3438414527124116E-01 
    7.9647785809604243E-01 
    7.6398722859426405E-01 
    7.3522741887373144E-01 
    7.1983074381009560E-01 
    7.1220910099479762E-01 
    7.0792639340555286E-01 
    7.0592995861626406E-01 
    7.0539154545189353E-01 
    1.3271506758106471E+00 
    1.2769592394212403E+00 
    1.1808208830106719E+00 
    1.0906433358645884E+00 
    1.0140607688674885E+00 
    9.4967888507842957E-01 
    8.9510848851738167E-01 
    8.4846373213124837E-01 
    8.0848624523761337E-01 
    7.7413329894235927E-01 
    7.4341457623621898E-01 
    7.2269466774674962E-01 
    7.1303518879525929E-01 
    7.0783505898116172E-01 
    7.0539913049212177E-01 
    7.0485529992932339E-01 
    1.1773662548845198E+00 
    1.1808096331508529E+00 
    1.1380112416688801E+00 
    1.0767114025022688E+00 
    1.0134181288354205E+00 
    9.5449829679454934E-01 
    9.0170782956806039E-01 
    8.5514219013719095E-01 
    8.1446475449401579E-01 
    7.7922532423777302E-01 
    7.4810378854674753E-01 
    7.2287519856279181E-01 
    7.1107508494303340E-01 
    7.0543330608619192E-01 
    7.0298667053655139E-01 
    7.0285659429180258E-01 
    1.0735649884605751E+00 
    1.0906157997889805E+00 
    1.0766967157761227E+00 
    1.0408502634227530E+00 
    9.9441952554530910E-01 
    9.4523233228599990E-01 
    8.9752912585576161E-01 
    8.5331207185379354E-01 
    8.1344579730831246E-01 
    7.7828037655762050E-01 
    7.4737328863042030E-01 
    7.1982663881186693E-01 
    7.0559369540721628E-01 
    6.9987270851862171E-01 
    6.9784328302697562E-01 
    6.9855041601745527E-01 
    9.9478895134887824E-01 
    1.0140099106626570E+00 
    1.0133829615797065E+00 
    9.9440137748261093E-01 
    9.6263910337896330E-01 
    9.2402463791055522E-01 
    8.8309060507386350E-01 
    8.4280964163020911E-01 
    8.0499255039226314E-01 
    7.7073765838967723E-01 
    7.4037777390625525E-01 
    7.1273260975683572E-01 
    6.9601047219659484E-01 
    6.9032781681070088E-01 
    6.8912767521149787E-01 
    6.9109267675114483E-01 
    9.3145839113510709E-01 
    9.4960012881478828E-01 
    9.5443806653668173E-01 
    9.4519207964782037E-01 
    9.2400454232615536E-01 
    8.9448475670450367E-01 
    8.6030381614999774E-01 
    8.2450700575004843E-01 
    7.8937829653178893E-01 
    7.5657040815708954E-01 
    7.2707347122577348E-01 
    7.0026746591421063E-01 
    6.8137910074772934E-01 
    6.7579931978052299E-01 
    6.7595867985538405E-01 
    6.7962791002505574E-01 
    8.7879679190865378E-01 
    8.9499815638945868E-01 
    9.0161895408758341E-01 
    8.9746312843839215E-01 
    8.8304797428683179E-01 
    8.6028336741858147E-01 
    8.3173927748071497E-01 
    8.0004132203456457E-01 
    7.6753935528896122E-01 
    7.3620759161459715E-01 
    7.0757169013185095E-01 
    6.8182274419284816E-01 
    6.6109444805523743E-01 
    6.5563871370325777E-01 
    6.5755268407579015E-01 
    6.6333512356297397E-01 
    8.3422181287413300E-01 
    8.4832136487858711E-01 
    8.5502470821460475E-01 
    8.5322080305471260E-01 
    8.4274556074042195E-01 
    8.2446831825164391E-01 
    8.0002293115166412E-01 
    7.7145662190263831E-01 
    7.4093692283290324E-01 
    7.1056456019918457E-01 
    6.8224821209558550E-01 
    6.5702220563418112E-01 
    6.3493962046662777E-01 
    6.2954446694296351E-01 
    6.3325458491522213E-01 
    6.4144966912661128E-01 
    7.9628745429964565E-01 
    8.0831158668750236E-01 
    8.1431554969234432E-01 
    8.1332620967226599E-01 
    8.0490719684423029E-01 
    7.8932487106592009E-01 
    7.6750644117562317E-01 
    7.4091878260155541E-01 
    7.1140776306384634E-01 
    6.8105049907366666E-01 
    6.5200859081144857E-01 
    6.2601459526181424E-01 
    6.0263880122337055E-01 
    5.9675093686693992E-01 
    6.0226218415733879E-01 
    6.1313270999792879E-01 
    7.6378565758829242E-01 
    7.7392596072048103E-01 
    7.7902967031321124E-01 
    7.7811061681325655E-01 
    7.7061545089614636E-01 
    7.5649696131460509E-01 
    7.3615966601488725E-01 
    7.1052780542166372E-01 
    6.8103245421476011E-01 
    6.4956960944114472E-01 
    6.1842785268706035E-01 
    5.8992700179926838E-01 
    5.6432800025033270E-01 
    5.5657488224317631E-01 
    5.6346569160833193E-01 
    5.7729913922187615E-01 
    7.3498076362151643E-01 
    7.4313632384458861E-01 
    7.4781806529447636E-01 
    7.4710260387831062E-01 
    7.4018277257211429E-01 
    7.2697133284848237E-01 
    7.0750217347508437E-01 
    6.8218276733978822E-01 
    6.5197132195035967E-01 
    6.1842326558505889E-01 
    5.8369996078530173E-01 
    5.5051623590340981E-01 
    5.2049174664676190E-01 
    5.0830263413121002E-01 
    5.1544370543544793E-01 
    5.3246786197406282E-01 
    7.1964752664304521E-01 
    7.2248524246386348E-01 
    7.2261514577660879E-01 
    7.1945151721305689E-01 
    7.1237084837198006E-01 
    7.0011676407492573E-01 
    6.8175702376715963E-01 
    6.5691595420488369E-01 
    6.2592721302577647E-01 
    5.8991167895905405E-01 
    5.5053740040519472E-01 
    5.1024305659587088E-01 
    4.7189532936551437E-01 
    4.5160756093826071E-01 
    4.5660991813012247E-01 
    4.7655795685826352E-01 
    7.1206381581095246E-01 
    7.1288741285707991E-01 
    7.1093085423050006E-01 
    7.0543187858302092E-01 
    6.9590309137748674E-01 
    6.8139602074281058E-01 
    6.6107352598364488E-01 
    6.3475407286676100E-01 
    6.0242086025319719E-01 
    5.6420054159422661E-01 
    5.2049777710932288E-01 
    4.7195287052491830E-01 
    4.2140386370678834E-01 
    3.8878817030721113E-01 
    3.8570079647998545E-01 
    4.0637372119607773E-01 
    7.0779721823219521E-01 
    7.0770708415813555E-01 
    7.0531558631447699E-01 
    6.9977156634372695E-01 
    6.9027987034257210E-01 
    6.7586224454727239E-01 
    6.5568769394681536E-01 
    6.2945904289720089E-01 
    5.9663969262759720E-01 
    5.5657729700762615E-01 
    5.0843511020836463E-01 
    4.5176022214263417E-01 
    3.8883005342413590E-01 
    3.3496978215387863E-01 
    3.0703113715045233E-01 
    3.1708189410943238E-01 
    7.0580761884023424E-01 
    7.0527882780164408E-01 
    7.0287507155933759E-01 
    6.9774817364825403E-01 
    6.8906579989388661E-01 
    6.7595281994954914E-01 
    6.5756555887526613E-01 
    6.3323210949257280E-01 
    6.0222039824232665E-01 
    5.6349556471410167E-01 
    5.1557632908931950E-01 
    4.5678923733009175E-01 
    3.8579168740090258E-01 
    3.0704635876156411E-01 
    2.3204470243336200E-01 
    1.9541249779286540E-01 
    7.0527103504788724E-01 
    7.0473667661455974E-01 
    7.0274484706966767E-01 
    6.9845257549539896E-01 
    6.9101982928899963E-01 
    6.7959301547511231E-01 
    6.6332635551031549E-01 
    6.4143754522570628E-01 
    6.1311346941938494E-01 
    5.7731364436205157E-01 
    5.3254816482732947E-01 
    4.7668581111731906E-01 
    4.0647906497975045E-01 
    3.1713523208727640E-01 
    1.9543278745168280E-01 
    0.0000000000000000E+00 

SCALARS Saturarion double 1 
LOOKUP_TABLE default 

    1.0000000000817635E+00 
    9.9492059164232693E-01 
    9.8459699378215637E-01 
    9.6827720980470477E-01 
    9.4688405216184635E-01 
    9.2191767340053565E-01 
    8.9392237347685877E-01 
    8.6323673204972773E-01 
    8.3155620341304637E-01 
    7.8110312153237993E-01 
    4.6684023700574262E-01 
    1.2763048492250182E-03 
    1.0124251070629347E-06 
    1.0000000005813132E-06 
    9.9999999999999995E-07 
    9.9999999999999995E-07 
    9.9491565648389479E-01 
    9.9187811719263441E-01 
    9.8322940265357561E-01 
    9.6873553905817678E-01 
    9.4943441279201857E-01 
    9.2629054409064615E-01 
    8.9984258774291037E-01 
    8.7037270136439049E-01 
    8.3935465939206133E-01 
    7.9989763891294907E-01 
    6.7019135965883847E-01 
    1.2855849619877924E-01 
    1.1302683777948991E-03 
    1.0147614763281387E-06 
    1.0000000003378757E-06 
    9.9999999999999995E-07 
    9.8459912981611064E-01 
    9.8323612541613592E-01 
    9.7677245405381352E-01 
    9.6511890774570774E-01 
    9.4877844167575198E-01 
    9.2857971583890153E-01 
    9.0496814029412331E-01 
    8.7803805900645049E-01 
    8.4890716600756455E-01 
    8.1635762313727511E-01 
    7.5127454649852599E-01 
    3.3810306783246868E-01 
    3.0113509114773566E-03 
    1.5400414908705987E-06 
    1.0000000207369814E-06 
    1.0000000000000002E-06 
    9.6824240896012115E-01 
    9.6871155943063481E-01 
    9.6510464748935942E-01 
    9.5628449632085877E-01 
    9.4315142048268730E-01 
    9.2604665904866779E-01 
    9.0550158398669733E-01 
    8.8166160969627805E-01 
    8.5517592880930493E-01 
    8.2685446856733291E-01 
    7.7683921958301250E-01 
    5.3850726178147856E-01 
    1.8284046967674585E-02 
    1.6583958660850858E-05 
    1.0000017430181339E-06 
    1.0000000000000169E-06 
    9.4681761082115923E-01 
    9.4940524005389948E-01 
    9.4875193695831328E-01 
    9.4312914245446455E-01 
    9.3307407784733509E-01 
    9.1922802014858074E-01 
    9.0186852451768029E-01 
    8.8126941079444365E-01 
    8.5752770994018856E-01 
    8.3191831563511776E-01 
    7.9456612144478311E-01 
    6.5492278658708880E-01 
    1.1506131564216869E-01 
    1.0229410339530301E-03 
    1.0065242632331501E-06 
    1.0000000000859257E-06 
    9.2180908463815847E-01 
    9.2627404458076124E-01 
    9.2857737429749820E-01 
    9.2601465503542812E-01 
    9.1920446328753591E-01 
    9.0855588839635126E-01 
    8.9454343251173540E-01 
    8.7724108717933180E-01 
    8.5668984292033401E-01 
    8.3370573494820965E-01 
    8.0372546680762957E-01 
    7.2276159895868874E-01 
    2.5006176299487842E-01 
    5.6934676287553310E-05 
    1.0000999385934598E-06 
    1.0000000000015903E-06 
    8.9382866283790097E-01 
    8.9983555598816545E-01 
    9.0498644271685047E-01 
    9.0548467001971278E-01 
    9.0183291214298467E-01 
    8.9451327225367416E-01 
    8.8382713191213291E-01 
    8.6999646844858836E-01 
    8.5292651746098747E-01 
    8.3301043854854095E-01 
    8.0845782439894565E-01 
    7.4521542171664490E-01 
    3.2206997583373848E-01 
    9.8561828470123975E-04 
    1.0560657949809340E-06 
    1.0000000008737155E-06 
    8.6326679487062719E-01 
    8.7044128011056121E-01 
    8.7814083315714753E-01 
    8.8176918722290099E-01 
    8.8135026515263248E-01 
    8.7726124127481397E-01 
    8.7001139082588053E-01 
    8.5975937864551832E-01 
    8.4637364229368561E-01 
    8.2971842474641366E-01 
    8.0989252634892728E-01 
    7.6428719148518542E-01 
    4.4992926565910807E-01 
    2.6955355537252564E-03 
    1.0358970347101716E-06 
    1.0000000023078490E-06 
    8.3185032844682205E-01 
    8.3951225926983430E-01 
    8.4901938724109305E-01 
    8.5518624100888385E-01 
    8.5764737839943173E-01 
    8.5675134324003943E-01 
    8.5289860620213775E-01 
    8.4639820529264331E-01 
    8.3703360182384978E-01 
    8.2421151130290327E-01 
    8.0756549630372809E-01 
    7.7487345209571279E-01 
    5.7207122722712866E-01 
    2.8640982374572577E-02 
    2.7892017453987460E-05 
    1.0000016702634311E-06 
    7.8201214893861692E-01 
    8.0030638718011116E-01 
    8.1605852853823924E-01 
    8.2649082905889626E-01 
    8.3183824952069396E-01 
    8.3365037294374333E-01 
    8.3280392651882085E-01 
    8.2959290317262113E-01 
    8.2430449110080062E-01 
    8.1633223364370600E-01 
    8.0399255591197449E-01 
    7.8044478844440657E-01 
    6.4628471498544449E-01 
    8.7063250927544716E-02 
    2.1116047601989435E-04 
    1.0000439447973565E-06 
    4.7363569695023416E-01 
    6.6874398008961311E-01 
    7.4933066835611939E-01 
    7.7577825739080697E-01 
    7.9428569289272388E-01 
    8.0353239801998766E-01 
    8.0814329558088160E-01 
    8.0928625067988902E-01 
    8.0758111376743624E-01 
    8.0415348205226611E-01 
    7.9770883974750595E-01 
    7.8039077898393228E-01 
    6.8826873924948928E-01 
    1.5256167223379150E-01 
    5.6011160513381672E-04 
    1.0007765577077822E-06 
    1.5720593076033100E-03 
    1.2111343484889980E-01 
    3.3388381097925557E-01 
    5.2601755345155399E-01 
    6.5328122550151635E-01 
    7.1978001235019695E-01 
    7.4474187458384844E-01 
    7.6432282788442385E-01 
    7.7443648342739579E-01 
    7.7960576723039599E-01 
    7.8027156379907492E-01 
    7.7129906398590331E-01 
    7.0776757284131664E-01 
    2.3616435102748595E-01 
    6.7118212097942330E-04 
    1.0029978319377866E-06 
    1.0157014047111120E-06 
    7.3622367781947930E-04 
    2.7161221730950336E-04 
    1.3319208866982114E-02 
    9.3920935078699988E-02 
    2.3080830309545597E-01 
    3.2860858160401712E-01 
    4.6069763144481835E-01 
    5.7470118489682931E-01 
    6.4389919161960629E-01 
    6.8422760258576631E-01 
    7.0620553962249233E-01 
    6.9072585889107951E-01 
    2.7544827410538225E-01 
    9.1488101208652621E-04 
    1.0101113192592071E-06 
    1.0000000004119856E-06 
    1.0011718999982405E-06 
    1.0074238084832988E-06 
    1.8025742384590754E-06 
    3.4265631371128520E-05 
    9.6162530427452766E-05 
    8.8493983746038997E-05 
    2.2358425421547066E-03 
    2.3380028737145446E-02 
    8.0788142430414267E-02 
    1.4564354425444956E-01 
    2.3493021020920218E-01 
    2.7718286584281326E-01 
    4.9987455532514803E-02 
    2.1889527545009821E-04 
    1.0007413248879453E-06 
    9.9999999999999995E-07 
    1.0000000000465700E-06 
    1.0000000001472475E-06 
    1.0000000277823166E-06 
    1.0000228706208448E-06 
    1.0004898614914902E-06 
    1.0008824361860515E-06 
    1.0114232450158553E-06 
    3.0349709306462590E-06 
    8.8007728512535751E-05 
    5.0701628685197750E-04 
    5.9592455269282256E-04 
    8.9855186602892417E-04 
    2.1528647237404122E-04 
    1.0065482953515661E-06 
    1.0000000006671559E-06 
    9.9999999999999995E-07 
    9.9999999999999995E-07 
    9.9999999999999995E-07 
    9.9999999999999995E-07 
    1.0000000000001480E-06 
    1.0000000000086253E-06 
    1.0000000000126722E-06 
    1.0000000001726352E-06 
    1.0000000915008662E-06 
    1.0000142091266494E-06 
    1.0001198488096070E-06 
    1.0076908532458567E-06 
    1.0114781661617451E-06 
    1.0009643345182349E-06 
    1.0000000006385499E-06 
    1.0000000441732037E-06 
