# vtk DataFile Version 2.0
Pressure Field Data 
ASCII 
DATASET UNSTRUCTURED_GRID 

POINTS 289 double 

    0.0000000000000000E+00     0.0000000000000000E+00     0.0000000000000000E+00 
    1.0000000000000000E+00     0.0000000000000000E+00     0.0000000000000000E+00 
    1.0000000000000000E+00     1.0000000000000000E+00     0.0000000000000000E+00 
    0.0000000000000000E+00     1.0000000000000000E+00     0.0000000000000000E+00 
    6.2499999999872928E-02     0.0000000000000000E+00     0.0000000000000000E+00 
    1.2499999999977310E-01     0.0000000000000000E+00     0.0000000000000000E+00 
    1.8749999999959341E-01     0.0000000000000000E+00     0.0000000000000000E+00 
    2.4999999999941089E-01     0.0000000000000000E+00     0.0000000000000000E+00 
    3.1249999999922851E-01     0.0000000000000000E+00     0.0000000000000000E+00 
    3.7499999999904610E-01     0.0000000000000000E+00     0.0000000000000000E+00 
    4.3749999999886358E-01     0.0000000000000000E+00     0.0000000000000000E+00 
    4.9999999999869210E-01     0.0000000000000000E+00     0.0000000000000000E+00 
    5.6249999999884603E-01     0.0000000000000000E+00     0.0000000000000000E+00 
    6.2499999999901090E-01     0.0000000000000000E+00     0.0000000000000000E+00 
    6.8749999999917577E-01     0.0000000000000000E+00     0.0000000000000000E+00 
    7.4999999999934064E-01     0.0000000000000000E+00     0.0000000000000000E+00 
    8.1249999999950551E-01     0.0000000000000000E+00     0.0000000000000000E+00 
    8.7499999999967026E-01     0.0000000000000000E+00     0.0000000000000000E+00 
    9.3749999999983513E-01     0.0000000000000000E+00     0.0000000000000000E+00 
    1.0000000000000000E+00     6.2499999999872928E-02     0.0000000000000000E+00 
    1.0000000000000000E+00     1.2499999999977310E-01     0.0000000000000000E+00 
    1.0000000000000000E+00     1.8749999999959341E-01     0.0000000000000000E+00 
    1.0000000000000000E+00     2.4999999999941089E-01     0.0000000000000000E+00 
    1.0000000000000000E+00     3.1249999999922851E-01     0.0000000000000000E+00 
    1.0000000000000000E+00     3.7499999999904610E-01     0.0000000000000000E+00 
    1.0000000000000000E+00     4.3749999999886358E-01     0.0000000000000000E+00 
    1.0000000000000000E+00     4.9999999999869210E-01     0.0000000000000000E+00 
    1.0000000000000000E+00     5.6249999999884603E-01     0.0000000000000000E+00 
    1.0000000000000000E+00     6.2499999999901090E-01     0.0000000000000000E+00 
    1.0000000000000000E+00     6.8749999999917577E-01     0.0000000000000000E+00 
    1.0000000000000000E+00     7.4999999999934064E-01     0.0000000000000000E+00 
    1.0000000000000000E+00     8.1249999999950551E-01     0.0000000000000000E+00 
    1.0000000000000000E+00     8.7499999999967026E-01     0.0000000000000000E+00 
    1.0000000000000000E+00     9.3749999999983513E-01     0.0000000000000000E+00 
    9.3749999999973976E-01     1.0000000000000000E+00     0.0000000000000000E+00 
    8.7499999999950118E-01     1.0000000000000000E+00     0.0000000000000000E+00 
    8.1249999999991318E-01     1.0000000000000000E+00     0.0000000000000000E+00 
    7.5000000000034706E-01     1.0000000000000000E+00     0.0000000000000000E+00 
    6.8750000000078049E-01     1.0000000000000000E+00     0.0000000000000000E+00 
    6.2500000000121403E-01     1.0000000000000000E+00     0.0000000000000000E+00 
    5.6250000000164757E-01     1.0000000000000000E+00     0.0000000000000000E+00 
    5.0000000000205946E-01     1.0000000000000000E+00     0.0000000000000000E+00 
    4.3750000000182099E-01     1.0000000000000000E+00     0.0000000000000000E+00 
    3.7500000000156092E-01     1.0000000000000000E+00     0.0000000000000000E+00 
    3.1250000000130068E-01     1.0000000000000000E+00     0.0000000000000000E+00 
    2.5000000000104050E-01     1.0000000000000000E+00     0.0000000000000000E+00 
    1.8750000000078040E-01     1.0000000000000000E+00     0.0000000000000000E+00 
    1.2500000000052031E-01     1.0000000000000000E+00     0.0000000000000000E+00 
    6.2500000000260125E-02     1.0000000000000000E+00     0.0000000000000000E+00 
    0.0000000000000000E+00     9.3749999999973976E-01     0.0000000000000000E+00 
    0.0000000000000000E+00     8.7499999999950118E-01     0.0000000000000000E+00 
    0.0000000000000000E+00     8.1249999999991318E-01     0.0000000000000000E+00 
    0.0000000000000000E+00     7.5000000000034706E-01     0.0000000000000000E+00 
    0.0000000000000000E+00     6.8750000000078049E-01     0.0000000000000000E+00 
    0.0000000000000000E+00     6.2500000000121403E-01     0.0000000000000000E+00 
    0.0000000000000000E+00     5.6250000000164757E-01     0.0000000000000000E+00 
    0.0000000000000000E+00     5.0000000000205946E-01     0.0000000000000000E+00 
    0.0000000000000000E+00     4.3750000000182099E-01     0.0000000000000000E+00 
    0.0000000000000000E+00     3.7500000000156092E-01     0.0000000000000000E+00 
    0.0000000000000000E+00     3.1250000000130068E-01     0.0000000000000000E+00 
    0.0000000000000000E+00     2.5000000000104050E-01     0.0000000000000000E+00 
    0.0000000000000000E+00     1.8750000000078040E-01     0.0000000000000000E+00 
    0.0000000000000000E+00     1.2500000000052031E-01     0.0000000000000000E+00 
    0.0000000000000000E+00     6.2500000000260125E-02     0.0000000000000000E+00 
    6.2499999999897131E-02     6.2500000000235922E-02     0.0000000000000000E+00 
    6.2499999999921327E-02     1.2500000000047351E-01     0.0000000000000000E+00 
    6.2499999999945530E-02     1.8750000000070621E-01     0.0000000000000000E+00 
    6.2499999999969733E-02     2.5000000000093858E-01     0.0000000000000000E+00 
    6.2499999999993928E-02     3.1250000000117117E-01     0.0000000000000000E+00 
    6.2500000000018124E-02     3.7500000000140382E-01     0.0000000000000000E+00 
    6.2500000000042327E-02     4.3750000000163619E-01     0.0000000000000000E+00 
    6.2500000000066530E-02     5.0000000000184897E-01     0.0000000000000000E+00 
    6.2500000000090733E-02     5.6250000000147260E-01     0.0000000000000000E+00 
    6.2500000000114922E-02     6.2500000000107636E-01     0.0000000000000000E+00 
    6.2500000000139125E-02     6.8750000000068034E-01     0.0000000000000000E+00 
    6.2500000000163328E-02     7.5000000000028411E-01     0.0000000000000000E+00 
    6.2500000000187531E-02     8.1249999999988787E-01     0.0000000000000000E+00 
    6.2500000000211720E-02     8.7499999999951172E-01     0.0000000000000000E+00 
    6.2500000000235922E-02     9.3749999999974565E-01     0.0000000000000000E+00 
    1.2499999999981980E-01     6.2500000000211733E-02     0.0000000000000000E+00 
    1.2499999999986650E-01     1.2500000000042691E-01     0.0000000000000000E+00 
    1.2499999999991319E-01     1.8750000000063199E-01     0.0000000000000000E+00 
    1.2499999999995989E-01     2.5000000000083678E-01     0.0000000000000000E+00 
    1.2500000000000661E-01     3.1250000000104172E-01     0.0000000000000000E+00 
    1.2500000000005329E-01     3.7500000000124661E-01     0.0000000000000000E+00 
    1.2500000000010000E-01     4.3750000000145117E-01     0.0000000000000000E+00 
    1.2500000000014669E-01     5.0000000000163858E-01     0.0000000000000000E+00 
    1.2500000000019340E-01     5.6250000000129741E-01     0.0000000000000000E+00 
    1.2500000000024011E-01     6.2500000000093847E-01     0.0000000000000000E+00 
    1.2500000000028680E-01     6.8750000000057998E-01     0.0000000000000000E+00 
    1.2500000000033351E-01     7.5000000000022127E-01     0.0000000000000000E+00 
    1.2500000000038020E-01     8.1249999999986211E-01     0.0000000000000000E+00 
    1.2500000000042691E-01     8.7499999999952238E-01     0.0000000000000000E+00 
    1.2500000000047359E-01     9.3749999999975164E-01     0.0000000000000000E+00 
    1.8749999999966760E-01     6.2500000000187531E-02     0.0000000000000000E+00 
    1.8749999999974179E-01     1.2500000000038020E-01     0.0000000000000000E+00 
    1.8749999999981601E-01     1.8750000000055780E-01     0.0000000000000000E+00 
    1.8749999999989009E-01     2.5000000000073502E-01     0.0000000000000000E+00 
    1.8749999999996431E-01     3.1250000000091221E-01     0.0000000000000000E+00 
    1.8750000000003850E-01     3.7500000000108941E-01     0.0000000000000000E+00 
    1.8750000000011269E-01     4.3750000000126649E-01     0.0000000000000000E+00 
    1.8750000000018691E-01     5.0000000000142808E-01     0.0000000000000000E+00 
    1.8750000000026110E-01     5.6250000000112244E-01     0.0000000000000000E+00 
    1.8750000000033529E-01     6.2500000000080080E-01     0.0000000000000000E+00 
    1.8750000000040951E-01     6.8750000000047962E-01     0.0000000000000000E+00 
    1.8750000000048361E-01     7.5000000000015843E-01     0.0000000000000000E+00 
    1.8750000000055780E-01     8.1249999999983680E-01     0.0000000000000000E+00 
    1.8750000000063199E-01     8.7499999999953304E-01     0.0000000000000000E+00 
    1.8750000000070621E-01     9.3749999999975764E-01     0.0000000000000000E+00 
    2.4999999999951281E-01     6.2500000000163314E-02     0.0000000000000000E+00 
    2.4999999999961461E-01     1.2500000000033351E-01     0.0000000000000000E+00 
    2.4999999999971650E-01     1.8750000000048361E-01     0.0000000000000000E+00 
    2.4999999999981831E-01     2.5000000000063310E-01     0.0000000000000000E+00 
    2.4999999999992020E-01     3.1250000000078260E-01     0.0000000000000000E+00 
    2.5000000000002198E-01     3.7500000000093209E-01     0.0000000000000000E+00 
    2.5000000000012390E-01     4.3750000000108180E-01     0.0000000000000000E+00 
    2.5000000000022571E-01     5.0000000000121769E-01     0.0000000000000000E+00 
    2.5000000000032763E-01     5.6250000000094724E-01     0.0000000000000000E+00 
    2.5000000000042938E-01     6.2500000000066314E-01     0.0000000000000000E+00 
    2.5000000000053119E-01     6.8750000000037925E-01     0.0000000000000000E+00 
[...]
CELL_DATA 256 
SCALARS Pressure double 1 
LOOKUP_TABLE default 

    1.4955306474410699E+00 
    1.2483029996072796E+00 
    1.0952906049119369E+00 
    9.8668606358200028E-01 
    9.0198443574547005E-01 
    8.3201416466476941E-01 
    7.7228040336784676E-01 
    7.1917960471946896E-01 
    6.7983066805378300E-01 
    6.5961404903862986E-01 
    6.4679653358653866E-01 
    6.3783282817916220E-01 
    6.3200200653278471E-01 
    6.2863343797443139E-01 
    6.2706598065382835E-01 
    6.2664350927546830E-01 
    1.2483064905773296E+00 
    1.1975691287016801E+00 
    1.0990909580878692E+00 
    1.0048986436797578E+00 
    9.2298376411501337E-01 
    8.5236270592113184E-01 
    7.9098473775702505E-01 
    7.3637136461565500E-01 
    6.8945217052826790E-01 
    6.6450768929139203E-01 
    6.4971033417670643E-01 
    6.3937954945923303E-01 
    6.3255834224794782E-01 
    6.2853630577758446E-01 
    6.2664297305590833E-01 
    6.2622088512059682E-01 
    1.0952904284955884E+00 
    1.0990906778085132E+00 
    1.0548317917605292E+00 
    9.9039368281905027E-01 
    9.2255808796321204E-01 
    8.5803278046160703E-01 
    7.9891641663174284E-01 
    7.4513278471445155E-01 
    6.9488349266436200E-01 
    6.6560467847790517E-01 
    6.4954806143366906E-01 
    6.3836744280803082E-01 
    6.3095055740291472E-01 
    6.2662784822296924E-01 
    6.2474501530132720E-01 
    6.2465274194933329E-01 
    9.8667228876258184E-01 
    1.0048890011340372E+00 
    9.9038821400651900E-01 
    9.5232745646854589E-01 
    9.0224670702403886E-01 
    8.4823860254697725E-01 
    7.9483165184068338E-01 
    7.4397665689255699E-01 
    6.9442483573205260E-01 
    6.6235499413480059E-01 
    6.4546822407663573E-01 
    6.3404849639255767E-01 
    6.2648899570583660E-01 
    6.2224365830944217E-01 
    6.2071705173889069E-01 
    6.2128602261511767E-01 
    9.0195573440706212E-01 
    9.2296113291326864E-01 
    9.2254365044332276E-01 
    9.0223974636999960E-01 
    8.6774658377370517E-01 
    8.2519710416362080E-01 
    7.7934594953010827E-01 
    7.3307837441907653E-01 
    6.8620742611366570E-01 
    6.5384741812141722E-01 
    6.3680623541881731E-01 
    6.2578726252249206E-01 
    6.1853897601858465E-01 
    6.1474484933727769E-01 
    6.1391698796011951E-01 
    6.1547583384670401E-01 
    8.3197840115141475E-01 
    8.5233978509860753E-01 
    8.5802280623448890E-01 
    8.4823399354572637E-01 
    8.2519231352286593E-01 
    7.9265130138422835E-01 
    7.5446380121104351E-01 
    7.1356477485469760E-01 
    6.6984239004733381E-01 
    6.3970457297386996E-01 
    6.2348074996691982E-01 
    6.1323157003925444E-01 
    6.0660279380745985E-01 
    6.0355474056390157E-01 
    6.0373098814097648E-01 
    6.0659402262085582E-01 
    7.7223289276608131E-01 
    7.9095185863085693E-01 
    7.9890527850757798E-01 
    7.9482748620432897E-01 
    7.7933670090982432E-01 
    7.5445149318422822E-01 
    7.2275881029996958E-01 
    6.8684568818523106E-01 
    6.4719595226782978E-01 
    6.2080551881019308E-01 
    6.0605765351537455E-01 
    5.9640802202037457E-01 
    5.9038099233818331E-01 
    5.8818518902767325E-01 
    5.8957956935866085E-01 
    5.9403070314630169E-01 
    7.1912433895682415E-01 
    7.3633095109913294E-01 
    7.4510795033834010E-01 
    7.4396194879695743E-01 
    7.3306920897481342E-01 
    7.1355158492970217E-01 
    6.8683647731464559E-01 
    6.5322795596827776E-01 
    6.2110657597116015E-01 
    5.9901188364290148E-01 
    5.8546243136514786E-01 
    5.7566665491492930E-01 
    5.6976890084923359E-01 
    5.6822607791959401E-01 
    5.7089459518624563E-01 
    5.7717256693181251E-01 
    6.7984978774102856E-01 
    6.8945539256719568E-01 
    6.9488074508838871E-01 
    6.9440395389948062E-01 
    6.8621633338428123E-01 
    6.6988096181086898E-01 
    6.4721334462311186E-01 
    6.2111459356825538E-01 
    5.9637662610046172E-01 
    5.7697547415146999E-01 
    5.6282683249959709E-01 
    5.5160916413617145E-01 
    5.4482387280599553E-01 
    5.4329835493148348E-01 
    5.4705153620080305E-01 
    5.5533838870955721E-01 
    6.5965699516671539E-01 
    6.6454408849698876E-01 
    6.6562949778934699E-01 
    6.6236664896040354E-01 
    6.5386677317193853E-01 
    6.3972811086041315E-01 
    6.2081111740394146E-01 
    5.9901433720868347E-01 
    5.7698195888291715E-01 
    5.5727923793104117E-01 
    5.3957032830382479E-01 
    5.2514053730647181E-01 
    5.1579194390635463E-01 
    5.1300847474025335E-01 
    5.1725147373822056E-01 
    5.2764829290204884E-01 
    6.4683407717181907E-01 
    6.4974762784298923E-01 
    6.4958096142300192E-01 
    6.4549080411223547E-01 
    6.3683089291434092E-01 
    6.2350321421032961E-01 
    6.0605699760811493E-01 
    5.8545430228637063E-01 
    5.6283113837040744E-01 
    5.3957268946794312E-01 
    5.1719526142954353E-01 
    4.9757226550425104E-01 
    4.8326609429223372E-01 
    4.7697664612735535E-01 
    4.8035568189110867E-01 
    4.9278431796296840E-01 
    6.3786617796483991E-01 
    6.3941291237702780E-01 
    6.3839851612706489E-01 
    6.3407439946812238E-01 
    6.2581025511112909E-01 
    6.1325149994436756E-01 
    5.9641811141185574E-01 
    5.7566831442971123E-01 
    5.5161175146342412E-01 
    5.2514321962786326E-01 
    4.9757366774644024E-01 
    4.7097289226764721E-01 
    4.4865239240052124E-01 
    4.3512534998196661E-01 
    4.3471585849719213E-01 
    4.4854289401532293E-01 
    6.3203296494091910E-01 
    6.3258927093775197E-01 
    6.3098011399800513E-01 
    6.2651553545640304E-01 
    6.1856229874472080E-01 
    6.0662270388521722E-01 
    5.9039531662227807E-01 
    5.6977721102657020E-01 
    5.4482925837192397E-01 
    5.1579592445987799E-01 
    4.8326875041340567E-01 
    4.4865368328023936E-01 
    4.1509782412901691E-01 
    3.8864770087357564E-01 
    3.7822262070817986E-01 
    3.9092292149915414E-01 
    6.2866311873260061E-01 
    6.2856585644590490E-01 
    6.2665642418802092E-01 
    6.2227020072986772E-01 
    6.1476867452414807E-01 
    6.0357539036835128E-01 
    5.8820176580070893E-01 
    5.6823811211993902E-01 
    5.4330679005873372E-01 
    5.1301445132236212E-01 
    4.7698077690417179E-01 
    4.3512791692987368E-01 
    3.8864889620798870E-01 
    3.4243486918192589E-01 
    3.0955292033031240E-01 
    3.1205673885072982E-01 
    6.2709508945635695E-01 
    6.2667188854445111E-01 
    6.2477315844993264E-01 
    6.2074366553131910E-01 
    6.1394137009366412E-01 
    6.0375256870852689E-01 
    5.8959775879607457E-01 
    5.7090900634075825E-01 
    5.4706240990627619E-01 
    5.1725944957465742E-01 
    4.8036136834467069E-01 
    4.3471969208472638E-01 
    3.7822491634345468E-01 
    3.0955394074795428E-01 
    2.3469378673161553E-01 
    1.9504382492797537E-01 
    6.2667246303037394E-01 
    6.2624966557789752E-01 
    6.2468092277842968E-01 
    6.2131299878352986E-01 
    6.1550094859549032E-01 
    6.0661667347252268E-01 
    5.9405033915116157E-01 
    5.7718878976442545E-01 
    5.5535117835093073E-01 
    5.2765800181921363E-01 
    4.9279144660930518E-01 
    4.4854790772820957E-01 
    3.9092620012949042E-01 
    3.1205860178731337E-01 
    1.9504457900013897E-01 
    0.0000000000000000E+00 

SCALARS Saturarion double 1 
LOOKUP_TABLE default 

    1.0000000011655537E+00 
    9.9064032386435252E-01 
    9.7081342852583630E-01 
    9.4129066377100012E-01 
    9.0613768927913052E-01 
    8.6715918626675703E-01 
    8.2410508098092528E-01 
    7.3841923610878268E-01 
    1.7386406767638421E-01 
    5.4387633881818845E-04 
    1.0003210886711294E-06 
    1.0000000000002797E-06 
    9.9999999999999995E-07 
    9.9999999999999995E-07 
    9.9999999999999995E-07 
    9.9999999999999995E-07 
    9.9064834111925149E-01 
    9.8508132455206798E-01 
    9.6816337826156162E-01 
    9.4197510594115408E-01 
    9.1004897125995210E-01 
    8.7345947856223216E-01 
    8.3440809555748063E-01 
    7.7288104101740962E-01 
    4.1459057258802895E-01 
    2.1888727352868966E-03 
    1.4454853925366071E-06 
    1.0000000038319277E-06 
    9.9999999999999974E-07 
    9.9999999999999995E-07 
    9.9999999999999995E-07 
    9.9999999999999995E-07 
    9.7076487017986213E-01 
    9.6813430852352289E-01 
    9.5632560033370451E-01 
    9.3595346981993799E-01 
    9.0900237299822517E-01 
    8.7713133036342827E-01 
    8.4198319791262421E-01 
    7.9479676939269706E-01 
    5.9998431200630298E-01 
    3.4927923436326405E-02 
    4.6149530151187112E-05 
    1.0000052042100099E-06 
    9.9999999999998005E-07 
    9.9999999999999995E-07 
    9.9999999999999995E-07 
    9.9999999999999995E-07 
    9.4118854660763618E-01 
    9.4190352385313869E-01 
    9.3593105027179491E-01 
    9.2134594503003187E-01 
    9.0011792148031877E-01 
    8.7342893716125825E-01 
    8.4292958419814967E-01 
    8.0274011160898617E-01 
    6.7790897425596497E-01 
    1.1038527578292545E-01 
    2.2317740301626277E-04 
    1.0003135080467599E-06 
    9.9999999999827158E-07 
    9.9999999999999995E-07 
    9.9999999999999995E-07 
    9.9999999999999995E-07 
    9.0602411498812851E-01 
    9.1001765969874215E-01 
    9.0897848702381834E-01 
    9.0009465981023240E-01 
    8.8442341391419743E-01 
    8.6333728718292724E-01 
    8.3780828992031919E-01 
    8.0345997669154823E-01 
    7.1611326266098740E-01 
    1.7717926298830858E-01 
    5.5907677057206700E-06 
    1.0000019170254182E-06 
    1.0000000000000364E-06 
    9.9999999999999995E-07 
    9.9999999999999995E-07 
    9.9999999999999995E-07 
    8.6712817166143841E-01 
    8.7365340485876053E-01 
    8.7737535750914319E-01 
    8.7354302613207002E-01 
    8.6342035317647370E-01 
    8.4814459896191530E-01 
    8.2791780228699996E-01 
    7.9827029090729251E-01 
    7.2110348331755991E-01 
    1.7871591872734000E-01 
    5.7940004077644503E-05 
    1.0000313192193540E-06 
    1.0000000000018067E-06 
    9.9999999999999995E-07 
    9.9999999999999995E-07 
    9.9999999999999995E-07 
    8.2423985702757130E-01 
    8.3445960408494346E-01 
    8.4170560049693666E-01 
    8.4275073728772720E-01 
    8.3758674207547346E-01 
    8.2799992507325793E-01 
    8.1379521352591144E-01 
    7.8598833672934554E-01 
    6.8921234915417173E-01 
    1.1263784714836153E-01 
    3.1498524073237317E-05 
    1.0000303165339037E-06 
    1.0000000000003299E-06 
    9.9999999999999995E-07 
    9.9999999999999995E-07 
    9.9999999999999995E-07 
    7.3823522575964440E-01 
    7.7397006581031669E-01 
    7.9439550161578898E-01 
    8.0228139742679250E-01 
    8.0339772402763709E-01 
    7.9866170298319183E-01 
    7.8662740968451694E-01 
    7.5870763060280966E-01 
    5.3137819169263234E-01 
    1.8734875859469310E-02 
    2.7195776362776279E-05 
    1.0000058688597978E-06 
    1.0000000000000275E-06 
    9.9999999999999995E-07 
    9.9999999999999995E-07 
    9.9999999999999995E-07 
    1.7118821287159697E-01 
    4.1302496509386694E-01 
    5.9588964221820528E-01 
    6.7967981712826042E-01 
    7.1533282157220524E-01 
    7.2184105667945409E-01 
    6.9125361261451479E-01 
    5.3060131523278642E-01 
    7.5579443002683502E-02 
    4.3996460612148242E-04 
    1.0068263262521255E-06 
    1.0000000004899543E-06 
    1.0000000000000002E-06 
    9.9999999999999995E-07 
    9.9999999999999995E-07 
    9.9999999999999995E-07 
    7.1608130877475991E-04 
    5.5937729641362737E-04 
    3.5293520670945974E-02 
    1.0934123556923901E-01 
    1.7480583967948490E-01 
    1.8018798855769771E-01 
    1.1562738228328197E-01 
    1.1810860492170549E-02 
    3.5185141776561770E-04 
    1.0039059629650575E-06 
    1.0000000001469288E-06 
    1.0000000000000002E-06 
    9.9999999999999995E-07 
    9.9999999999999995E-07 
    9.9999999999999995E-07 
    9.9999999999999995E-07 
    1.0010541894455262E-06 
    1.0110392800045733E-06 
    4.8597806947550219E-05 
    2.3683685924776279E-04 
    5.3561358679407267E-06 
    7.7477103070241436E-06 
    1.9087587870637501E-04 
    3.6434896923926000E-06 
    1.0026349297927141E-06 
    1.0000000001378868E-06 
    1.0000000000000002E-06 
    9.9999999999999995E-07 
    9.9999999999999995E-07 
    9.9999999999999995E-07 
    9.9999999999999995E-07 
    9.9999999999999995E-07 
    1.0000000000166278E-06 
    1.0000000001898562E-06 
    1.0000041140309858E-06 
    1.0002159420407433E-06 
    1.0000017809314737E-06 
    1.0000043852259989E-06 
    1.0000746149814107E-06 
    1.0000001678897057E-06 
    1.0000000000715516E-06 
    1.0000000000000002E-06 
    9.9999999999999995E-07 
    9.9999999999999995E-07 
    9.9999999999999995E-07 
    9.9999999999999995E-07 
    9.9999999999999995E-07 
    9.9999999999999995E-07 
    9.9999999999999995E-07 
    9.9999999999999995E-07 
    1.0000000000000347E-06 
    1.0000000000026520E-06 
    1.0000000000000887E-06 
    1.0000000000000832E-06 
    9.9999999999999890E-07 
    1.0000000000000008E-06 
    9.9999999999999995E-07 
    9.9999999999999995E-07 
    9.9999999999999995E-07 
    9.9999999999999995E-07 
    9.9999999999999995E-07 
    9.9999999999999995E-07 
    9.9999999999999995E-07 
    9.9999999999999995E-07 
    9.9999999999999995E-07 
    9.9999999999999995E-07 
    9.9999999999999995E-07 
    9.9999999999999995E-07 
    9.9999999999999995E-07 
    9.9999999999999995E-07 
    9.9999999999999995E-07 
    9.9999999999999995E-07 
    9.9999999999999995E-07 
    9.9999999999999995E-07 
    9.9999999999999995E-07 
    9.9999999999999995E-07 
    9.9999999999999995E-07 
    9.9999999999999995E-07 
    9.9999999999999995E-07 
    9.9999999999999995E-07 
    9.9999999999999995E-07 
    9.9999999999999995E-07 
    9.9999999999999995E-07 
    9.9999999999999995E-07 
    9.9999999999999995E-07 
    9.9999999999999995E-07 
    9.9999999999999995E-07 
    9.9999999999999995E-07 
    9.9999999999999995E-07 
    9.9999999999999995E-07 
    9.9999999999999995E-07 
    9.9999999999999995E-07 
    9.9999999999999995E-07 
    9.9999999999999995E-07 
    9.9999999999999995E-07 
    9.9999999999999995E-07 
    9.9999999999999995E-07 
    9.9999999999999995E-07 
    9.9999999999999995E-07 
    9.9999999999999995E-07 
    9.9999999999999995E-07 
    9.9999999999999995E-07 
    9.9999999999999995E-07 
    9.9999999999999995E-07 
    9.9999999999999995E-07 
    9.9999999999999995E-07 
    9.9999999999999995E-07 
    9.9999999999999995E-07 
    9.9999999999999995E-07 
    9.9999999999999995E-07 
    9.9999999999999995E-07 
    1.0000000228271692E-06 
