# vtk DataFile Version 2.0
Pressure Field Data 
ASCII 
DATASET UNSTRUCTURED_GRID 

POINTS 289 double 

    0.0000000000000000E+00     0.0000000000000000E+00     0.0000000000000000E+00 
    1.0000000000000000E+00     0.0000000000000000E+00     0.0000000000000000E+00 
    1.0000000000000000E+00     1.0000000000000000E+00     0.0000000000000000E+00 
    0.0000000000000000E+00     1.0000000000000000E+00     0.0000000000000000E+00 
    6.2499999999872928E-02     0.0000000000000000E+00     0.0000000000000000E+00 
    1.2499999999977310E-01     0.0000000000000000E+00     0.0000000000000000E+00 
    1.8749999999959341E-01     0.0000000000000000E+00     0.0000000000000000E+00 
    2.4999999999941089E-01     0.0000000000000000E+00     0.0000000000000000E+00 
    3.1249999999922851E-01     0.0000000000000000E+00     0.0000000000000000E+00 
    3.7499999999904610E-01     0.0000000000000000E+00     0.0000000000000000E+00 
    4.3749999999886358E-01     0.0000000000000000E+00     0.0000000000000000E+00 
    4.9999999999869210E-01     0.0000000000000000E+00     0.0000000000000000E+00 
    5.6249999999884603E-01     0.0000000000000000E+00     0.0000000000000000E+00 
    6.2499999999901090E-01     0.0000000000000000E+00     0.0000000000000000E+00 
    6.8749999999917577E-01     0.0000000000000000E+00     0.0000000000000000E+00 
    7.4999999999934064E-01     0.0000000000000000E+00     0.0000000000000000E+00 
    8.1249999999950551E-01     0.0000000000000000E+00     0.0000000000000000E+00 
    8.7499999999967026E-01     0.0000000000000000E+00     0.0000000000000000E+00 
    9.3749999999983513E-01     0.0000000000000000E+00     0.0000000000000000E+00 
    1.0000000000000000E+00     6.2499999999872928E-02     0.0000000000000000E+00 
    1.0000000000000000E+00     1.2499999999977310E-01     0.0000000000000000E+00 
    1.0000000000000000E+00     1.8749999999959341E-01     0.0000000000000000E+00 
    1.0000000000000000E+00     2.4999999999941089E-01     0.0000000000000000E+00 
    1.0000000000000000E+00     3.1249999999922851E-01     0.0000000000000000E+00 
    1.0000000000000000E+00     3.7499999999904610E-01     0.0000000000000000E+00 
    1.0000000000000000E+00     4.3749999999886358E-01     0.0000000000000000E+00 
    1.0000000000000000E+00     4.9999999999869210E-01     0.0000000000000000E+00 
    1.0000000000000000E+00     5.6249999999884603E-01     0.0000000000000000E+00 
    1.0000000000000000E+00     6.2499999999901090E-01     0.0000000000000000E+00 
    1.0000000000000000E+00     6.8749999999917577E-01     0.0000000000000000E+00 
    1.0000000000000000E+00     7.4999999999934064E-01     0.0000000000000000E+00 
    1.0000000000000000E+00     8.1249999999950551E-01     0.0000000000000000E+00 
    1.0000000000000000E+00     8.7499999999967026E-01     0.0000000000000000E+00 
    1.0000000000000000E+00     9.3749999999983513E-01     0.0000000000000000E+00 
    9.3749999999973976E-01     1.0000000000000000E+00     0.0000000000000000E+00 
    8.7499999999950118E-01     1.0000000000000000E+00     0.0000000000000000E+00 
    8.1249999999991318E-01     1.0000000000000000E+00     0.0000000000000000E+00 
    7.5000000000034706E-01     1.0000000000000000E+00     0.0000000000000000E+00 
    6.8750000000078049E-01     1.0000000000000000E+00     0.0000000000000000E+00 
    6.2500000000121403E-01     1.0000000000000000E+00     0.0000000000000000E+00 
    5.6250000000164757E-01     1.0000000000000000E+00     0.0000000000000000E+00 
    5.0000000000205946E-01     1.0000000000000000E+00     0.0000000000000000E+00 
    4.3750000000182099E-01     1.0000000000000000E+00     0.0000000000000000E+00 
    3.7500000000156092E-01     1.0000000000000000E+00     0.0000000000000000E+00 
    3.1250000000130068E-01     1.0000000000000000E+00     0.0000000000000000E+00 
    2.5000000000104050E-01     1.0000000000000000E+00     0.0000000000000000E+00 
    1.8750000000078040E-01     1.0000000000000000E+00     0.0000000000000000E+00 
    1.2500000000052031E-01     1.0000000000000000E+00     0.0000000000000000E+00 
    6.2500000000260125E-02     1.0000000000000000E+00     0.0000000000000000E+00 
    0.0000000000000000E+00     9.3749999999973976E-01     0.0000000000000000E+00 
    0.0000000000000000E+00     8.7499999999950118E-01     0.0000000000000000E+00 
    0.0000000000000000E+00     8.1249999999991318E-01     0.0000000000000000E+00 
    0.0000000000000000E+00     7.5000000000034706E-01     0.0000000000000000E+00 
    0.0000000000000000E+00     6.8750000000078049E-01     0.0000000000000000E+00 
    0.0000000000000000E+00     6.2500000000121403E-01     0.0000000000000000E+00 
    0.0000000000000000E+00     5.6250000000164757E-01     0.0000000000000000E+00 
    0.0000000000000000E+00     5.0000000000205946E-01     0.0000000000000000E+00 
    0.0000000000000000E+00     4.3750000000182099E-01     0.0000000000000000E+00 
    0.0000000000000000E+00     3.7500000000156092E-01     0.0000000000000000E+00 
    0.0000000000000000E+00     3.1250000000130068E-01     0.0000000000000000E+00 
    0.0000000000000000E+00     2.5000000000104050E-01     0.0000000000000000E+00 
    0.0000000000000000E+00     1.8750000000078040E-01     0.0000000000000000E+00 
    0.0000000000000000E+00     1.2500000000052031E-01     0.0000000000000000E+00 
    0.0000000000000000E+00     6.2500000000260125E-02     0.0000000000000000E+00 
    6.2499999999897131E-02     6.2500000000235922E-02     0.0000000000000000E+00 
    6.2499999999921327E-02     1.2500000000047351E-01     0.0000000000000000E+00 
    6.2499999999945530E-02     1.8750000000070621E-01     0.0000000000000000E+00 
    6.2499999999969733E-02     2.5000000000093858E-01     0.0000000000000000E+00 
    6.2499999999993928E-02     3.1250000000117117E-01     0.0000000000000000E+00 
    6.2500000000018124E-02     3.7500000000140382E-01     0.0000000000000000E+00 
    6.2500000000042327E-02     4.3750000000163619E-01     0.0000000000000000E+00 
    6.2500000000066530E-02     5.0000000000184897E-01     0.0000000000000000E+00 
    6.2500000000090733E-02     5.6250000000147260E-01     0.0000000000000000E+00 
    6.2500000000114922E-02     6.2500000000107636E-01     0.0000000000000000E+00 
    6.2500000000139125E-02     6.8750000000068034E-01     0.0000000000000000E+00 
    6.2500000000163328E-02     7.5000000000028411E-01     0.0000000000000000E+00 
    6.2500000000187531E-02     8.1249999999988787E-01     0.0000000000000000E+00 
    6.2500000000211720E-02     8.7499999999951172E-01     0.0000000000000000E+00 
    6.2500000000235922E-02     9.3749999999974565E-01     0.0000000000000000E+00 
    1.2499999999981980E-01     6.2500000000211733E-02     0.0000000000000000E+00 
    1.2499999999986650E-01     1.2500000000042691E-01     0.0000000000000000E+00 
    1.2499999999991319E-01     1.8750000000063199E-01     0.0000000000000000E+00 
    1.2499999999995989E-01     2.5000000000083678E-01     0.0000000000000000E+00 
    1.2500000000000661E-01     3.1250000000104172E-01     0.0000000000000000E+00 
    1.2500000000005329E-01     3.7500000000124661E-01     0.0000000000000000E+00 
    1.2500000000010000E-01     4.3750000000145117E-01     0.0000000000000000E+00 
    1.2500000000014669E-01     5.0000000000163858E-01     0.0000000000000000E+00 
    1.2500000000019340E-01     5.6250000000129741E-01     0.0000000000000000E+00 
    1.2500000000024011E-01     6.2500000000093847E-01     0.0000000000000000E+00 
    1.2500000000028680E-01     6.8750000000057998E-01     0.0000000000000000E+00 
    1.2500000000033351E-01     7.5000000000022127E-01     0.0000000000000000E+00 
    1.2500000000038020E-01     8.1249999999986211E-01     0.0000000000000000E+00 
    1.2500000000042691E-01     8.7499999999952238E-01     0.0000000000000000E+00 
    1.2500000000047359E-01     9.3749999999975164E-01     0.0000000000000000E+00 
    1.8749999999966760E-01     6.2500000000187531E-02     0.0000000000000000E+00 
    1.8749999999974179E-01     1.2500000000038020E-01     0.0000000000000000E+00 
    1.8749999999981601E-01     1.8750000000055780E-01     0.0000000000000000E+00 
    1.8749999999989009E-01     2.5000000000073502E-01     0.0000000000000000E+00 
    1.8749999999996431E-01     3.1250000000091221E-01     0.0000000000000000E+00 
    1.8750000000003850E-01     3.7500000000108941E-01     0.0000000000000000E+00 
    1.8750000000011269E-01     4.3750000000126649E-01     0.0000000000000000E+00 
    1.8750000000018691E-01     5.0000000000142808E-01     0.0000000000000000E+00 
    1.8750000000026110E-01     5.6250000000112244E-01     0.0000000000000000E+00 
    1.8750000000033529E-01     6.2500000000080080E-01     0.0000000000000000E+00 
    1.8750000000040951E-01     6.8750000000047962E-01     0.0000000000000000E+00 
    1.8750000000048361E-01     7.5000000000015843E-01     0.0000000000000000E+00 
    1.8750000000055780E-01     8.1249999999983680E-01     0.0000000000000000E+00 
    1.8750000000063199E-01     8.7499999999953304E-01     0.0000000000000000E+00 
    1.8750000000070621E-01     9.3749999999975764E-01     0.0000000000000000E+00 
    2.4999999999951281E-01     6.2500000000163314E-02     0.0000000000000000E+00 
    2.4999999999961461E-01     1.2500000000033351E-01     0.0000000000000000E+00 
    2.4999999999971650E-01     1.8750000000048361E-01     0.0000000000000000E+00 
    2.4999999999981831E-01     2.5000000000063310E-01     0.0000000000000000E+00 
    2.4999999999992020E-01     3.1250000000078260E-01     0.0000000000000000E+00 
    2.5000000000002198E-01     3.7500000000093209E-01     0.0000000000000000E+00 
    2.5000000000012390E-01     4.3750000000108180E-01     0.0000000000000000E+00 
    2.5000000000022571E-01     5.0000000000121769E-01     0.0000000000000000E+00 
    2.5000000000032763E-01     5.6250000000094724E-01     0.0000000000000000E+00 
    2.5000000000042938E-01     6.2500000000066314E-01     0.0000000000000000E+00 
    2.5000000000053119E-01     6.8750000000037925E-01     0.0000000000000000E+00 
[...]
CELL_DATA 256 
SCALARS Pressure double 1 
LOOKUP_TABLE default 

    2.0107174302077815E+00 
    1.7657358299984480E+00 
    1.6173278771118735E+00 
    1.5157338081880312E+00 
    1.4399855767764487E+00 
    1.3804222481134609E+00 
    1.3322018809694538E+00 
    1.2926664471148270E+00 
    1.2602006350751411E+00 
    1.2337197029193112E+00 
    1.2123809883873260E+00 
    1.1949388475182023E+00 
    1.1829857001423698E+00 
    1.1779230761412856E+00 
    1.1758670492227725E+00 
    1.1753142819350433E+00 
    1.7657120082691196E+00 
    1.7156645309643628E+00 
    1.6204212865444807E+00 
    1.5319463209227437E+00 
    1.4578990451780824E+00 
    1.3968271294865238E+00 
    1.3462867627131159E+00 
    1.3043458506116608E+00 
    1.2696267320971455E+00 
    1.2411299308252708E+00 
    1.2180822620553067E+00 
    1.1994766691360099E+00 
    1.1848503678822890E+00 
    1.1779587818742507E+00 
    1.1753490847318298E+00 
    1.1747714590876346E+00 
    1.6172700328370233E+00 
    1.6203889321511236E+00 
    1.5779901311949593E+00 
    1.5178625783511495E+00 
    1.4565516132536873E+00 
    1.4004086455188367E+00 
    1.3511631050513053E+00 
    1.3088903587994354E+00 
    1.2731796635473465E+00 
    1.2435131798480166E+00 
    1.2193792720363130E+00 
    1.2001121983416632E+00 
    1.1844731948367728E+00 
    1.1756261312239051E+00 
    1.1728761767229334E+00 
    1.1727139189093014E+00 
    1.5156329520444418E+00 
    1.5318736380590834E+00 
    1.5178234043681476E+00 
    1.4825677209362067E+00 
    1.4374915892915696E+00 
    1.3904457959668077E+00 
    1.3456826597875340E+00 
    1.3052172727311717E+00 
    1.2698947811845716E+00 
    1.2399731547043875E+00 
    1.2154130805678423E+00 
    1.1959518936670197E+00 
    1.1805727750445700E+00 
    1.1701786735850381E+00 
    1.1674950415638758E+00 
    1.1682260989174669E+00 
    1.4398321824668125E+00 
    1.4577767269739357E+00 
    1.4564649404543919E+00 
    1.4374455274531996E+00 
    1.4063457404654494E+00 
    1.3691437894733565E+00 
    1.3304203964436243E+00 
    1.2932008430704207E+00 
    1.2593385570729354E+00 
    1.2299019402989995E+00 
    1.2054390225091025E+00 
    1.1861414290788734E+00 
    1.1715040532405931E+00 
    1.1606415045681273E+00 
    1.1582787376087638E+00 
    1.1604017241390654E+00 
    1.3802082898024861E+00 
    1.3966469884633361E+00 
    1.4002662633716008E+00 
    1.3903458693702027E+00 
    1.3690910625930981E+00 
    1.3401799692092291E+00 
    1.3073618239253095E+00 
    1.2737754628618254E+00 
    1.2418104041454703E+00 
    1.2131815879220005E+00 
    1.1890332937190784E+00 
    1.1700383641701952E+00 
    1.1562309438420881E+00 
    1.1462990596136422E+00 
    1.1445189790226651E+00 
    1.1484065850440317E+00 
    1.3319214533143420E+00 
    1.3460423281121043E+00 
    1.3509583442505742E+00 
    1.3455218241777516E+00 
    1.3303080882472977E+00 
    1.3073030735632283E+00 
    1.2791751994990592E+00 
    1.2486771506852621E+00 
    1.2183232217553646E+00 
    1.1902536117223537E+00 
    1.1661647986342172E+00 
    1.1472592992337018E+00 
    1.1341088632010141E+00 
    1.1257913454400890E+00 
    1.1248971439121747E+00 
    1.1310582098360809E+00 
    1.2923157914268657E+00 
    1.3040318322964868E+00 
    1.3086171663975668E+00 
    1.3049892071658538E+00 
    1.2930223640095198E+00 
    1.2736516725192297E+00 
    1.2486127245210674E+00 
    1.2200970610058317E+00 
    1.1904799506995982E+00 
    1.1621317843268884E+00 
    1.1372527003302295E+00 
    1.1176760912831258E+00 
    1.1046202578552222E+00 
    1.0978202484345423E+00 
    1.0978452406204613E+00 
    1.1067672081207753E+00 
    1.2597782441154661E+00 
    1.2692395244360273E+00 
    1.2728324909337487E+00 
    1.2695933685763992E+00 
    1.2590878731184765E+00 
    1.2416154597142295E+00 
    1.2181883619056744E+00 
    1.1904096044270984E+00 
    1.1603464457909005E+00 
    1.1304211466549865E+00 
    1.1032734082574676E+00 
    1.0815060183176730E+00 
    1.0672652468836967E+00 
    1.0612626467190804E+00 
    1.0624094781717568E+00 
    1.0746002853597827E+00 
    1.2332277968004091E+00 
    1.2406689517751961E+00 
    1.2430889213526488E+00 
    1.2395940897742177E+00 
    1.2295755978678291E+00 
    1.2129121810497647E+00 
    1.1900442420163964E+00 
    1.1619861544840220E+00 
    1.1303449159325767E+00 
    1.0973647103350175E+00 
    1.0659581028866731E+00 
    1.0395746651000779E+00 
    1.0217218215939130E+00 
    1.0147293749715272E+00 
    1.0170984286242470E+00 
    1.0333829440457096E+00 
    1.2118334833491191E+00 
    1.2175544620922034E+00 
    1.2188777484565296E+00 
    1.2149500665329798E+00 
    1.2050309793189642E+00 
    1.1886861993073421E+00 
    1.1658782957297031E+00 
    1.1370281002031972E+00 
    1.1031167483190814E+00 
    1.0658744473640571E+00 
    1.0280839368309260E+00 
    9.9382634662108205E-01 
    9.6833125622420368E-01 
    9.5676576811585368E-01 
    9.5967403447329658E-01 
    9.8131905746347514E-01 
    1.1943766595136391E+00 
    1.1989023744741309E+00 
    1.1995317942319481E+00 
    1.1953905271464824E+00 
    1.1856373682357362E+00 
    1.1696053143310066E+00 
    1.1468925398442418E+00 
    1.1173650952791117E+00 
    1.0812633776695812E+00 
    1.0394003570515722E+00 
    9.9372417065100849E-01 
    9.4810784778621016E-01 
    9.0912495892104916E-01 
    8.8585772692056053E-01 
    8.8455404887564437E-01 
    9.1218377442155196E-01 
    1.1823158070536723E+00 
    1.1841966924107266E+00 
    1.1838014010546594E+00 
    1.1798864288144142E+00 
    1.1708759399737696E+00 
    1.1556848511216287E+00 
    1.1336544386711964E+00 
    1.1042099955740317E+00 
    1.0669321858071110E+00 
    1.0214593258630813E+00 
    9.6810280948506500E-01 
    9.0899296046352984E-01 
    8.4999528900322674E-01 
    8.0321917773383267E-01 
    7.8507734756889458E-01 
    8.1320496731249703E-01 
    1.1772240901490836E+00 
    1.1772613747653471E+00 
    1.1749247181630758E+00 
    1.1694593482536422E+00 
    1.1599162306325099E+00 
    1.1455619275884132E+00 
    1.1251678660394047E+00 
    1.0972708892406469E+00 
    1.0608062308642412E+00 
    1.0143876256862523E+00 
    9.5637114682566005E-01 
    8.8553838864837076E-01 
    8.0316070179239274E-01 
    7.1827469932368559E-01 
    6.5626319335448302E-01 
    6.6280648599766412E-01 
    1.1751674677931627E+00 
    1.1746496096320997E+00 
    1.1721747559894773E+00 
    1.1667883525891596E+00 
    1.1575855123090806E+00 
    1.1438521772823538E+00 
    1.1243577053473928E+00 
    1.0974604275265525E+00 
    1.0620548721065113E+00 
    1.0168203282336310E+00 
    9.5910161382180859E-01 
    8.8383710213276934E-01 
    7.8495436155676512E-01 
    6.5659294305625837E-01 
    5.0897556007390021E-01 
    4.2157056804618809E-01 
    1.1746145791151910E+00 
    1.1740716942102962E+00 
    1.1720132743114731E+00 
    1.1675241727377028E+00 
    1.1597069540047591E+00 
    1.1477357497207914E+00 
    1.1304888263326318E+00 
    1.1063736627264489E+00 
    1.0742570195140668E+00 
    1.0331198276552549E+00 
    9.8075952317726356E-01 
    9.1119557272573171E-01 
    8.1295743086921468E-01 
    6.6385937878832446E-01 
    4.2233133048001942E-01 
    0.0000000000000000E+00 

SCALARS Saturarion double 1 
LOOKUP_TABLE default 

    1.0000000000027680E+00 
    9.9670188994631737E-01 
    9.8984986407497111E-01 
    9.7919861483923243E-01 
    9.6449067692161206E-01 
    9.4650237794367975E-01 
    9.2573294212584989E-01 
    9.0218903888155055E-01 
    8.7573877653077459E-01 
    8.4698129328145311E-01 
    8.1446012075874563E-01 
    7.2988694426508638E-01 
    1.5800511734514372E-01 
    6.2045055663065404E-04 
    1.0009917904301080E-06 
    1.0000000000031698E-06 
    9.9669631370296896E-01 
    9.9465621647746305E-01 
    9.8897208540791137E-01 
    9.7954778560239619E-01 
    9.6636951733222920E-01 
    9.4983865080944818E-01 
    9.3033215826725912E-01 
    9.0799487498390374E-01 
    8.8266570200080019E-01 
    8.5453334059528230E-01 
    8.2434126439089750E-01 
    7.6802755111931409E-01 
    4.5746217424455587E-01 
    4.2063845236203186E-03 
    1.5979718296247270E-06 
    1.0000000186712461E-06 
    9.8985320330264503E-01 
    9.8897953361939539E-01 
    9.8480292232673550E-01 
    9.7714249251612229E-01 
    9.6597546207807916E-01 
    9.5163482538308231E-01 
    9.3433575106994171E-01 
    9.1421057640981929E-01 
    8.9101686883031206E-01 
    8.6451268751962562E-01 
    8.3587054317405407E-01 
    7.9980071476725423E-01 
    6.5241641513783788E-01 
    9.5091918481300469E-02 
    9.5770573706530039E-04 
    1.0022950906532260E-06 
    9.7919471679861458E-01 
    9.7954833060701751E-01 
    9.7714227285663913E-01 
    9.7112861831106845E-01 
    9.6203768971082282E-01 
    9.4988823223912977E-01 
    9.3489169682163153E-01 
    9.1710901501388609E-01 
    8.9636221623907053E-01 
    8.7220764442018051E-01 
    8.4518723965152298E-01 
    8.1489910556107381E-01 
    7.3882922466649359E-01 
    2.7922870230967684E-01 
    1.7347832825810267E-03 
    1.0244840264531122E-06 
    9.6446478536316482E-01 
    9.6636217194874519E-01 
    9.6596688228702199E-01 
    9.6202647537994890E-01 
    9.5493817353837029E-01 
    9.4504971030517049E-01 
    9.3238165342985146E-01 
    9.1702161986291031E-01 
    8.9876401302836184E-01 
    8.7725573718899041E-01 
    8.5237341483550555E-01 
    8.2497835549655330E-01 
    7.6584055427243869E-01 
    4.4536827723892602E-01 
    5.3880891572730821E-03 
    2.3633202711296463E-06 
    9.4645430835835720E-01 
    9.4983748516676603E-01 
    9.5163831443690738E-01 
    9.4987132634848892E-01 
    9.4503496513842422E-01 
    9.3739064917935067E-01 
    9.2713777962078492E-01 
    9.1426472668385284E-01 
    8.9863418057308031E-01 
    8.7985426229716657E-01 
    8.5743194151006619E-01 
    8.3261937611942605E-01 
    7.9304360187023359E-01 
    5.9343824547190005E-01 
    4.3011485918924078E-02 
    1.2547234582668491E-05 
    9.2569038453309582E-01 
    9.3033877334393078E-01 
    9.3436005654785581E-01 
    9.3489531022722616E-01 
    9.3236721340776030E-01 
    9.2712637782223561E-01 
    9.1931380419556630E-01 
    9.0904305142827824E-01 
    8.9613810488813661E-01 
    8.8018841251315860E-01 
    8.6050221340883937E-01 
    8.3736989369778780E-01 
    8.0681440891422240E-01 
    6.8005158481672923E-01 
    1.6837458691918386E-01 
    6.1092249036754265E-04 
    9.0217854950225562E-01 
    9.0802105457133364E-01 
    9.1424532980945672E-01 
    9.1713242463426803E-01 
    9.1703347325965701E-01 
    9.1425073646111943E-01 
    9.0902848942295478E-01 
    9.0144149750026792E-01 
    8.9140616040830578E-01 
    8.7845302762410749E-01 
    8.6183629287248298E-01 
    8.4105569563299987E-01 
    8.1631376997310734E-01 
    7.4001279000758902E-01 
    2.7157602299430472E-01 
    3.1974839692843230E-04 
    8.7576417378147309E-01 
    8.8274925659273173E-01 
    8.9109644060965520E-01 
    8.9639159924991829E-01 
    8.9881619454094097E-01 
    8.9866706036155430E-01 
    8.9612281630513468E-01 
    8.9139108121556843E-01 
    8.8437232124151854E-01 
    8.7467816333068948E-01 
    8.6146608917084277E-01 
    8.4372056323423683E-01 
    8.2168278448959098E-01 
    7.6834903390188047E-01 
    3.8748402748517485E-01 
    9.5262078329317863E-04 
    8.4709631006470865E-01 
    8.5472336242885394E-01 
    8.6471823448694496E-01 
    8.7235176637848666E-01 
    8.7739691849129053E-01 
    8.8000836414497197E-01 
    8.8026556021862667E-01 
    8.7846445790647010E-01 
    8.7468629138604781E-01 
    8.6853904878215671E-01 
    8.5918998090568766E-01 
    8.4526726401647356E-01 
    8.2599885304238274E-01 
    7.8840084898278329E-01 
    5.0207503710119750E-01 
    4.2231287803747193E-03 
    8.1512955547040833E-01 
    8.2496472045674263E-01 
    8.3619895348416040E-01 
    8.4549858327178651E-01 
    8.5248922635407898E-01 
    8.5756124074264728E-01 
    8.6067038052946709E-01 
    8.6193282826003359E-01 
    8.6150151925973451E-01 
    8.5922561056027058E-01 
    8.5430585273059156E-01 
    8.4515910965896912E-01 
    8.2976504210018598E-01 
    8.0110414901821148E-01 
    5.8235252478338329E-01 
    3.1433832987517653E-02 
    7.3387715139205667E-01 
    7.6942808636845306E-01 
    7.9972711342030833E-01 
    8.1492860732364658E-01 
    8.2532586939376851E-01 
    8.3269481467067985E-01 
    8.3746856247011481E-01 
    8.4121660585695579E-01 
    8.4374459196867146E-01 
    8.4525486390038118E-01 
    8.4517621705388102E-01 
    8.4194864035695394E-01 
    8.3252523176479831E-01 
    8.1211170866911830E-01 
    6.5262733037673903E-01 
    1.3806723524628048E-01 
    1.6819699978833647E-01 
    4.5815466246540110E-01 
    6.5035947288715934E-01 
    7.4014298815326551E-01 
    7.6647650291512803E-01 
    7.9294831103812735E-01 
    8.0617626404618981E-01 
    8.1600482607010316E-01 
    8.2198137508844971E-01 
    8.2608141065963936E-01 
    8.2964455403649373E-01 
    8.3242106804062144E-01 
    8.3150349637188981E-01 
    8.1970459513916849E-01 
    7.1640378638204105E-01 
    2.6085738551019044E-01 
    5.6015207121558471E-04 
    3.9970716571392957E-03 
    9.7259497270956605E-02 
    2.6903045901526190E-01 
    4.2717264948212957E-01 
    5.8383063340792807E-01 
    6.7442603237661680E-01 
    7.3282398728581610E-01 
    7.6949901855370362E-01 
    7.8701116046329878E-01 
    8.0003956768073259E-01 
    8.1199600474294809E-01 
    8.1983424419010587E-01 
    8.1888205316375495E-01 
    7.6900257937979821E-01 
    4.5068073328073344E-01 
    1.0010071338471238E-06 
    1.4957960578036269E-06 
    7.2637128043303014E-05 
    1.4630380139730911E-04 
    1.9255041340451296E-03 
    3.2058676448898135E-02 
    1.4133233186348113E-01 
    2.5804313294873737E-01 
    3.6116880952382852E-01 
    4.7360265281150316E-01 
    5.7366234193536059E-01 
    6.5283489267464623E-01 
    7.1687630746806719E-01 
    7.6885106164253569E-01 
    7.8206929457524665E-01 
    5.8214204893857935E-01 
    1.0000000000032483E-06 
    1.0000000025600958E-06 
    1.0000743805178041E-06 
    1.0008628530018320E-06 
    1.0123264102308695E-06 
    5.4763577715738445E-06 
    7.8407658955233434E-05 
    1.0313401763293463E-04 
    9.9473502212073727E-05 
    3.6399014185541177E-03 
    3.6198758283392446E-02 
    1.3145055485019247E-01 
    2.4158971059413406E-01 
    4.3921308643806700E-01 
    5.7917155813001631E-01 
    5.9003314264503581E-01 
