# vtk DataFile Version 2.0
Pressure Field Data 
ASCII 
DATASET UNSTRUCTURED_GRID 

POINTS 289 double 

    0.0000000000000000E+00     0.0000000000000000E+00     0.0000000000000000E+00 
    1.0000000000000000E+00     0.0000000000000000E+00     0.0000000000000000E+00 
    1.0000000000000000E+00     1.0000000000000000E+00     0.0000000000000000E+00 
    0.0000000000000000E+00     1.0000000000000000E+00     0.0000000000000000E+00 
    6.2499999999872928E-02     0.0000000000000000E+00     0.0000000000000000E+00 
    1.2499999999977310E-01     0.0000000000000000E+00     0.0000000000000000E+00 
    1.8749999999959341E-01     0.0000000000000000E+00     0.0000000000000000E+00 
    2.4999999999941089E-01     0.0000000000000000E+00     0.0000000000000000E+00 
    3.1249999999922851E-01     0.0000000000000000E+00     0.0000000000000000E+00 
    3.7499999999904610E-01     0.0000000000000000E+00     0.0000000000000000E+00 
    4.3749999999886358E-01     0.0000000000000000E+00     0.0000000000000000E+00 
    4.9999999999869210E-01     0.0000000000000000E+00     0.0000000000000000E+00 
    5.6249999999884603E-01     0.0000000000000000E+00     0.0000000000000000E+00 
    6.2499999999901090E-01     0.0000000000000000E+00     0.0000000000000000E+00 
    6.8749999999917577E-01     0.0000000000000000E+00     0.0000000000000000E+00 
    7.4999999999934064E-01     0.0000000000000000E+00     0.0000000000000000E+00 
    8.1249999999950551E-01     0.0000000000000000E+00     0.0000000000000000E+00 
    8.7499999999967026E-01     0.0000000000000000E+00     0.0000000000000000E+00 
    9.3749999999983513E-01     0.0000000000000000E+00     0.0000000000000000E+00 
    1.0000000000000000E+00     6.2499999999872928E-02     0.0000000000000000E+00 
    1.0000000000000000E+00     1.2499999999977310E-01     0.0000000000000000E+00 
    1.0000000000000000E+00     1.8749999999959341E-01     0.0000000000000000E+00 
    1.0000000000000000E+00     2.4999999999941089E-01     0.0000000000000000E+00 
    1.0000000000000000E+00     3.1249999999922851E-01     0.0000000000000000E+00 
    1.0000000000000000E+00     3.7499999999904610E-01     0.0000000000000000E+00 
    1.0000000000000000E+00     4.3749999999886358E-01     0.0000000000000000E+00 
    1.0000000000000000E+00     4.9999999999869210E-01     0.0000000000000000E+00 
    1.0000000000000000E+00     5.6249999999884603E-01     0.0000000000000000E+00 
    1.0000000000000000E+00     6.2499999999901090E-01     0.0000000000000000E+00 
    1.0000000000000000E+00     6.8749999999917577E-01     0.0000000000000000E+00 
    1.0000000000000000E+00     7.4999999999934064E-01     0.0000000000000000E+00 
    1.0000000000000000E+00     8.1249999999950551E-01     0.0000000000000000E+00 
    1.0000000000000000E+00     8.7499999999967026E-01     0.0000000000000000E+00 
    1.0000000000000000E+00     9.3749999999983513E-01     0.0000000000000000E+00 
    9.3749999999973976E-01     1.0000000000000000E+00     0.0000000000000000E+00 
    8.7499999999950118E-01     1.0000000000000000E+00     0.0000000000000000E+00 
    8.1249999999991318E-01     1.0000000000000000E+00     0.0000000000000000E+00 
    7.5000000000034706E-01     1.0000000000000000E+00     0.0000000000000000E+00 
    6.8750000000078049E-01     1.0000000000000000E+00     0.0000000000000000E+00 
    6.2500000000121403E-01     1.0000000000000000E+00     0.0000000000000000E+00 
    5.6250000000164757E-01     1.0000000000000000E+00     0.0000000000000000E+00 
    5.0000000000205946E-01     1.0000000000000000E+00     0.0000000000000000E+00 
    4.3750000000182099E-01     1.0000000000000000E+00     0.0000000000000000E+00 
    3.7500000000156092E-01     1.0000000000000000E+00     0.0000000000000000E+00 
    3.1250000000130068E-01     1.0000000000000000E+00     0.0000000000000000E+00 
    2.5000000000104050E-01     1.0000000000000000E+00     0.0000000000000000E+00 
    1.8750000000078040E-01     1.0000000000000000E+00     0.0000000000000000E+00 
    1.2500000000052031E-01     1.0000000000000000E+00     0.0000000000000000E+00 
    6.2500000000260125E-02     1.0000000000000000E+00     0.0000000000000000E+00 
    0.0000000000000000E+00     9.3749999999973976E-01     0.0000000000000000E+00 
    0.0000000000000000E+00     8.7499999999950118E-01     0.0000000000000000E+00 
    0.0000000000000000E+00     8.1249999999991318E-01     0.0000000000000000E+00 
    0.0000000000000000E+00     7.5000000000034706E-01     0.0000000000000000E+00 
    0.0000000000000000E+00     6.8750000000078049E-01     0.0000000000000000E+00 
    0.0000000000000000E+00     6.2500000000121403E-01     0.0000000000000000E+00 
    0.0000000000000000E+00     5.6250000000164757E-01     0.0000000000000000E+00 
    0.0000000000000000E+00     5.0000000000205946E-01     0.0000000000000000E+00 
    0.0000000000000000E+00     4.3750000000182099E-01     0.0000000000000000E+00 
    0.0000000000000000E+00     3.7500000000156092E-01     0.0000000000000000E+00 
    0.0000000000000000E+00     3.1250000000130068E-01     0.0000000000000000E+00 
    0.0000000000000000E+00     2.5000000000104050E-01     0.0000000000000000E+00 
    0.0000000000000000E+00     1.8750000000078040E-01     0.0000000000000000E+00 
    0.0000000000000000E+00     1.2500000000052031E-01     0.0000000000000000E+00 
    0.0000000000000000E+00     6.2500000000260125E-02     0.0000000000000000E+00 
    6.2499999999897131E-02     6.2500000000235922E-02     0.0000000000000000E+00 
    6.2499999999921327E-02     1.2500000000047351E-01     0.0000000000000000E+00 
    6.2499999999945530E-02     1.8750000000070621E-01     0.0000000000000000E+00 
    6.2499999999969733E-02     2.5000000000093858E-01     0.0000000000000000E+00 
    6.2499999999993928E-02     3.1250000000117117E-01     0.0000000000000000E+00 
    6.2500000000018124E-02     3.7500000000140382E-01     0.0000000000000000E+00 
    6.2500000000042327E-02     4.3750000000163619E-01     0.0000000000000000E+00 
    6.2500000000066530E-02     5.0000000000184897E-01     0.0000000000000000E+00 
    6.2500000000090733E-02     5.6250000000147260E-01     0.0000000000000000E+00 
    6.2500000000114922E-02     6.2500000000107636E-01     0.0000000000000000E+00 
    6.2500000000139125E-02     6.8750000000068034E-01     0.0000000000000000E+00 
    6.2500000000163328E-02     7.5000000000028411E-01     0.0000000000000000E+00 
    6.2500000000187531E-02     8.1249999999988787E-01     0.0000000000000000E+00 
    6.2500000000211720E-02     8.7499999999951172E-01     0.0000000000000000E+00 
    6.2500000000235922E-02     9.3749999999974565E-01     0.0000000000000000E+00 
    1.2499999999981980E-01     6.2500000000211733E-02     0.0000000000000000E+00 
    1.2499999999986650E-01     1.2500000000042691E-01     0.0000000000000000E+00 
    1.2499999999991319E-01     1.8750000000063199E-01     0.0000000000000000E+00 
    1.2499999999995989E-01     2.5000000000083678E-01     0.0000000000000000E+00 
    1.2500000000000661E-01     3.1250000000104172E-01     0.0000000000000000E+00 
    1.2500000000005329E-01     3.7500000000124661E-01     0.0000000000000000E+00 
    1.2500000000010000E-01     4.3750000000145117E-01     0.0000000000000000E+00 
    1.2500000000014669E-01     5.0000000000163858E-01     0.0000000000000000E+00 
    1.2500000000019340E-01     5.6250000000129741E-01     0.0000000000000000E+00 
    1.2500000000024011E-01     6.2500000000093847E-01     0.0000000000000000E+00 
    1.2500000000028680E-01     6.8750000000057998E-01     0.0000000000000000E+00 
    1.2500000000033351E-01     7.5000000000022127E-01     0.0000000000000000E+00 
    1.2500000000038020E-01     8.1249999999986211E-01     0.0000000000000000E+00 
    1.2500000000042691E-01     8.7499999999952238E-01     0.0000000000000000E+00 
    1.2500000000047359E-01     9.3749999999975164E-01     0.0000000000000000E+00 
    1.8749999999966760E-01     6.2500000000187531E-02     0.0000000000000000E+00 
    1.8749999999974179E-01     1.2500000000038020E-01     0.0000000000000000E+00 
    1.8749999999981601E-01     1.8750000000055780E-01     0.0000000000000000E+00 
    1.8749999999989009E-01     2.5000000000073502E-01     0.0000000000000000E+00 
    1.8749999999996431E-01     3.1250000000091221E-01     0.0000000000000000E+00 
    1.8750000000003850E-01     3.7500000000108941E-01     0.0000000000000000E+00 
    1.8750000000011269E-01     4.3750000000126649E-01     0.0000000000000000E+00 
    1.8750000000018691E-01     5.0000000000142808E-01     0.0000000000000000E+00 
    1.8750000000026110E-01     5.6250000000112244E-01     0.0000000000000000E+00 
    1.8750000000033529E-01     6.2500000000080080E-01     0.0000000000000000E+00 
    1.8750000000040951E-01     6.8750000000047962E-01     0.0000000000000000E+00 
    1.8750000000048361E-01     7.5000000000015843E-01     0.0000000000000000E+00 
    1.8750000000055780E-01     8.1249999999983680E-01     0.0000000000000000E+00 
    1.8750000000063199E-01     8.7499999999953304E-01     0.0000000000000000E+00 
    1.8750000000070621E-01     9.3749999999975764E-01     0.0000000000000000E+00 
    2.4999999999951281E-01     6.2500000000163314E-02     0.0000000000000000E+00 
    2.4999999999961461E-01     1.2500000000033351E-01     0.0000000000000000E+00 
    2.4999999999971650E-01     1.8750000000048361E-01     0.0000000000000000E+00 
    2.4999999999981831E-01     2.5000000000063310E-01     0.0000000000000000E+00 
    2.4999999999992020E-01     3.1250000000078260E-01     0.0000000000000000E+00 
    2.5000000000002198E-01     3.7500000000093209E-01     0.0000000000000000E+00 
    2.5000000000012390E-01     4.3750000000108180E-01     0.0000000000000000E+00 
    2.5000000000022571E-01     5.0000000000121769E-01     0.0000000000000000E+00 
    2.5000000000032763E-01     5.6250000000094724E-01     0.0000000000000000E+00 
    2.5000000000042938E-01     6.2500000000066314E-01     0.0000000000000000E+00 
    2.5000000000053119E-01     6.8750000000037925E-01     0.0000000000000000E+00 
[...]
CELL_DATA 256 
SCALARS Pressure double 1 
LOOKUP_TABLE default 

    1.0736042760443694E+00 
    1.0611044039101030E+00 
    1.0478120906708563E+00 
    1.0352311024934115E+00 
    1.0258283403474902E+00 
    1.0199400955763318E+00 
    1.0112855306063884E+00 
    1.0044853346218714E+00 
    9.9934160056462940E-01 
    9.9475539806671598E-01 
    9.8934494316648147E-01 
    9.8419618462385317E-01 
    9.7956835152620347E-01 
    9.7512210977760361E-01 
    9.7117300312985388E-01 
    9.6827993438824744E-01 
    1.0233179014070146E+00 
    1.0193976941916212E+00 
    1.0144753641751045E+00 
    1.0088183784872895E+00 
    1.0027226750266494E+00 
    9.9573245418645528E-01 
    9.8890569277176521E-01 
    9.8398618308525199E-01 
    9.7834466689460231E-01 
    9.7287630585805862E-01 
    9.6776789877471281E-01 
    9.6263123943278317E-01 
    9.5837012068641836E-01 
    9.5521741824878859E-01 
    9.5315783062260018E-01 
    9.5180851002545674E-01 
    9.8182414934395690E-01 
    9.7973972455005798E-01 
    9.7709968953667836E-01 
    9.7352704125899336E-01 
    9.6877639314828601E-01 
    9.6281515429181674E-01 
    9.5699063425983966E-01 
    9.5236566741639139E-01 
    9.4649219641486948E-01 
    9.4096357214598425E-01 
    9.3592172915861649E-01 
    9.3066956217501262E-01 
    9.2664691351984274E-01 
    9.2442337445740763E-01 
    9.2378785396762531E-01 
    9.2384749043037540E-01 
    9.3683454778896169E-01 
    9.3641852036983875E-01 
    9.3548444513535878E-01 
    9.3346146470373881E-01 
    9.2996462772270760E-01 
    9.2500741171538392E-01 
    9.1989005799420243E-01 
    9.1531093578532063E-01 
    9.0956054032967892E-01 
    9.0402965886441078E-01 
    8.9887032024076574E-01 
    8.9383973511123760E-01 
    8.9019369761311173E-01 
    8.8869007842163084E-01 
    8.8897035910868882E-01 
    8.8964488655393703E-01 
    8.9367829850439306E-01 
    8.9484345538193055E-01 
    8.9336596298969118E-01 
    8.9102939394638159E-01 
    8.8748612658831638E-01 
    8.8284333030033069E-01 
    8.7823419086173382E-01 
    8.7428033328147370E-01 
    8.6890226517043068E-01 
    8.6361589364104130E-01 
    8.5910457961359432E-01 
    8.5525023307683179E-01 
    8.5216412224925531E-01 
    8.5098409803873432E-01 
    8.5096908268354432E-01 
    8.5048532631049567E-01 
    8.4552793132246429E-01 
    8.4384759163029288E-01 
    8.4106131702325848E-01 
    8.3740829218125767E-01 
    8.3382785746971244E-01 
    8.3091823490085626E-01 
    8.2806212151165937E-01 
    8.2455907158129849E-01 
    8.2077348409128104E-01 
    8.1762564968994400E-01 
    8.1490896599602236E-01 
    8.1205888421994166E-01 
    8.0938569445314790E-01 
    8.0701445193711563E-01 
    8.0488767901481295E-01 
    8.0333738057645687E-01 
    7.7688620758197025E-01 
    7.7629519125279722E-01 
    7.7494623595592627E-01 
    7.7316515299601785E-01 
    7.7125686265269311E-01 
    7.6890798841892061E-01 
    7.6523901092628643E-01 
    7.6119688168850541E-01 
    7.5873072728827440E-01 
    7.5701419393862657E-01 
    7.5485548374297795E-01 
    7.5253095304137219E-01 
    7.5102810653579000E-01 
    7.4997956148210965E-01 
    7.4950584353628236E-01 
    7.4925189367181222E-01 
    7.0702589389528914E-01 
    7.0716952555021440E-01 
    7.0655718720554372E-01 
    7.0545111862469612E-01 
    7.0397374629911513E-01 
    7.0218092185460712E-01 
    6.9997138766345746E-01 
    6.9758894761933221E-01 
    6.9551208473836990E-01 
    6.9392375988487265E-01 
    6.9230964815644080E-01 
    6.9069414504373139E-01 
    6.8951628150255895E-01 
    6.8945237744407817E-01 
    6.9049489361088723E-01 
    6.9150574284868715E-01 
    6.4568461878867311E-01 
    6.4601903139616101E-01 
    6.4516494482398712E-01 
    6.4412859702355829E-01 
    6.4262802749510384E-01 
    6.4082069401528052E-01 
    6.3874465434067984E-01 
    6.3690479866759309E-01 
    6.3501321491094576E-01 
    6.3396804331718548E-01 
    6.3312364875797389E-01 
    6.3214975718321931E-01 
    6.3124204943708428E-01 
    6.3171240857866295E-01 
    6.3309863863862703E-01 
    6.3355939294244756E-01 
    5.8555299147836903E-01 
    5.8497693318253996E-01 
    5.8368747391078646E-01 
    5.8217510369591097E-01 
    5.8084845895211079E-01 
    5.7970531929737967E-01 
    5.7850937067259078E-01 
    5.7779523102642671E-01 
    5.7768674959039934E-01 
    5.7813970697021466E-01 
    5.7866613030647840E-01 
    5.7799890704077594E-01 
    5.7681357266919853E-01 
    5.7534587017413796E-01 
    5.7379838142633033E-01 
    5.7285218032541574E-01 
    5.2765011572872023E-01 
    5.2722624396852269E-01 
    5.2641876227633155E-01 
    5.2560235949386891E-01 
    5.2480263744845101E-01 
    5.2344025487869605E-01 
    5.2108907107977598E-01 
    5.1937119932463494E-01 
    5.1846288579997168E-01 
    5.1708264123625969E-01 
    5.1495097842806936E-01 
    5.1281156705139930E-01 
    5.1137908526574372E-01 
    5.1015966981681626E-01 
    5.0947761324501817E-01 
    5.0911920903383123E-01 
    4.7567678706547556E-01 
    4.7531346037696831E-01 
    4.7445500695352089E-01 
    4.7309290272101995E-01 
    4.7118307732377895E-01 
    4.6876590680011021E-01 
    4.6603322346195297E-01 
    4.6261850709455477E-01 
    4.5844519157304381E-01 
    4.5385663530657561E-01 
    4.4961457921447484E-01 
    4.4575829173711884E-01 
    4.4256902320592928E-01 
    4.4082065999943343E-01 
    4.4063533525418364E-01 
    4.4114933138861540E-01 
    4.2536713934567166E-01 
    4.2480085124345224E-01 
    4.2347182054782628E-01 
    4.2119448536637843E-01 
    4.1804737139954945E-01 
    4.1436298615860234E-01 
    4.1026426805512628E-01 
    4.0467758830906114E-01 
    3.9776442794691574E-01 
    3.9056759184201090E-01 
    3.8385891323700166E-01 
    3.7752514714966856E-01 
    3.7224613725427586E-01 
    3.6943962308185962E-01 
    3.6915013497093052E-01 
    3.7010404416805293E-01 
    3.7594747739965878E-01 
    3.7513926032395650E-01 
    3.7329929150501046E-01 
    3.7008292576237650E-01 
    3.6562662276436458E-01 
    3.6047721160036927E-01 
    3.5489627835752435E-01 
    3.4739934701567432E-01 
    3.3813771350353150E-01 
    3.2847322945247032E-01 
    3.1909411953269645E-01 
    3.0992631636556139E-01 
    3.0179396673114284E-01 
    2.9645406924285223E-01 
    2.9395807273697422E-01 
    2.9326669501261238E-01 
    3.3080475583260349E-01 
    3.2980845599577890E-01 
    3.2755787579783907E-01 
    3.2355333329799651E-01 
    3.1794461956458059E-01 
    3.1149716416210743E-01 
    3.0479360399987593E-01 
    2.9605993615345844E-01 
    2.8510301003573479E-01 
    2.7298404219418676E-01 
    2.6013482090374540E-01 
    2.4635491685126565E-01 
    2.3167796188323253E-01 
    2.1728427336501330E-01 
    2.0400277218493246E-01 
    1.9427531313135177E-01 
    3.0198834069027397E-01 
    3.0080555906758616E-01 
    2.9819318684964496E-01 
    2.9365505080458826E-01 
    2.8736073924037780E-01 
    2.8028962449854783E-01 
    2.7350286044894573E-01 
    2.6498934429952731E-01 
    2.5305000549476991E-01 
    2.3714099376497852E-01 
    2.1857039025805319E-01 
    1.9577963225693626E-01 
    1.6454818300114249E-01 
    1.2235762558257561E-01 
    6.8035069794227382E-02 
    0.0000000000000000E+00 

SCALARS Saturarion double 1 
LOOKUP_TABLE default 

    1.0000000143128736E+00 
    9.4734225611306233E-01 
    8.7028976096402810E-01 
    8.0012817871148667E-01 
    7.3678287603678827E-01 
    6.7689999121356925E-01 
    6.2393166353963514E-01 
    5.6893607640172028E-01 
    5.1632194818350208E-01 
    4.6267035255412764E-01 
    2.7361439243851676E-01 
    1.6040411982853344E-04 
    1.0000001018042199E-06 
    9.9999999999993283E-07 
    9.9999999999999995E-07 
    9.9999999999999995E-07 
    8.9156598274742505E-01 
    8.6655432998947779E-01 
    8.1348018544725909E-01 
    7.5987362274606551E-01 
    7.0652485241592877E-01 
    6.5566154305211677E-01 
    6.0885685401769474E-01 
    5.6251833107303417E-01 
    5.1796578506300095E-01 
    4.7267707844932827E-01 
    3.3102034740578828E-01 
    4.1422065506676589E-03 
    1.0295473946036279E-06 
    1.0000000039387646E-06 
    9.9999999999999995E-07 
    9.9999999999999995E-07 
    7.5206355938219605E-01 
    7.4351841715618927E-01 
    7.1821285366415344E-01 
    6.8725445531616602E-01 
    6.5389909317733863E-01 
    6.1617083125504724E-01 
    5.7796994638785615E-01 
    5.4229201354465273E-01 
    5.0435375172107821E-01 
    4.6433636486584307E-01 
    2.7617338304235856E-01 
    1.5492593487752059E-03 
    1.0322190898398712E-06 
    1.0000000022887986E-06 
    9.9999999999999995E-07 
    9.9999999999999995E-07 
    6.4796257771829069E-01 
    6.4326929818093281E-01 
    6.2829571801949735E-01 
    6.0914335612056325E-01 
    5.9234159387460195E-01 
    5.6597600865282449E-01 
    5.3663582855094372E-01 
    5.0867896377083965E-01 
    4.7872991006158078E-01 
    4.2723349014213097E-01 
    1.4197189780788538E-01 
    3.0439843650610925E-04 
    1.0217879636052412E-06 
    1.0000000000000021E-06 
    9.9999999999999995E-07 
    9.9999999999999995E-07 
    5.6364075122870638E-01 
    5.6058878101799958E-01 
    5.5456236598682163E-01 
    5.4579413132395271E-01 
    5.3098790768387660E-01 
    5.1489492740125486E-01 
    4.9355828615659308E-01 
    4.6909229546532666E-01 
    4.3325692776608937E-01 
    2.7288962092361907E-01 
    1.1916527401753476E-02 
    5.2242889821885048E-06 
    1.0000010487385104E-06 
    1.0000000000000021E-06 
    9.9999999999999995E-07 
    9.9999999999999995E-07 
    4.9259591572868394E-01 
    4.8954455517817164E-01 
    4.8448628180404874E-01 
    4.7990853509786663E-01 
    4.7353089727838393E-01 
    4.6378304943026677E-01 
    4.3316066058622466E-01 
    3.4046421457800807E-01 
    1.6691337521620750E-01 
    1.7030395561366086E-02 
    1.8612009589667795E-05 
    1.0000135540947019E-06 
    1.0000000000002481E-06 
    9.9999999999999995E-07 
    9.9999999999999995E-07 
    9.9999999999999995E-07 
    3.9908394237311889E-01 
    3.8457460130215521E-01 
    3.5411740762314176E-01 
    3.0716806953525405E-01 
    2.9881437398272453E-01 
    2.5081501620900026E-01 
    1.2376072668709799E-01 
    1.9079896744500790E-02 
    4.4971083740511175E-04 
    1.3816574842263730E-05 
    1.0000256584344193E-06 
    1.0000000000021271E-06 
    9.9999999999999995E-07 
    9.9999999999999995E-07 
    9.9999999999999995E-07 
    9.9999999999999995E-07 
    2.3147685176674194E-02 
    1.2912217316123263E-02 
    3.7943642826387845E-03 
    9.0156600699911062E-04 
    8.3621960934230147E-04 
    6.0426749568256793E-04 
    2.8147741777484648E-04 
    1.6423367274065580E-05 
    1.0937062600802835E-06 
    1.0000132592355108E-06 
    1.0000000000010852E-06 
    9.9999999999999995E-07 
    9.9999999999999995E-07 
    9.9999999999999995E-07 
    9.9999999999999995E-07 
    9.9999999999999995E-07 
    1.0000003153840171E-06 
    1.2045245168374253E-06 
    1.1103898722293283E-06 
    1.0332652563890051E-06 
    1.0000203282960473E-06 
    1.0361508150885159E-06 
    1.0232151494668236E-06 
    1.0000219143568368E-06 
    1.0000000002337705E-06 
    1.0000000000000131E-06 
    9.9999999999999995E-07 
    9.9999999999999995E-07 
    9.9999999999999995E-07 
    9.9999999999999995E-07 
    9.9999999999999995E-07 
    9.9999999999999995E-07 
    1.0000000000001365E-06 
    1.0000000254375249E-06 
    1.0000000200930320E-06 
    1.0000000051667648E-06 
    1.0000000000088396E-06 
    1.0000000015088898E-06 
    1.0000000000000010E-06 
    1.0000000000000042E-06 
    9.9999999999999995E-07 
    9.9999999999999995E-07 
    9.9999999999999995E-07 
    9.9999999999999995E-07 
    9.9999999999999995E-07 
    9.9999999999999995E-07 
    9.9999999999999995E-07 
    9.9999999999999995E-07 
    9.9999999999999995E-07 
    1.0000000000000021E-06 
    9.9999999999999932E-07 
    9.9999999999999953E-07 
    9.9999999999999995E-07 
    9.9999999999999995E-07 
    9.9999999999999995E-07 
    9.9999999999999995E-07 
    9.9999999999999995E-07 
    9.9999999999999995E-07 
    9.9999999999999995E-07 
    9.9999999999999995E-07 
    9.9999999999999995E-07 
    9.9999999999999995E-07 
    9.9999999999999995E-07 
    9.9999999999999995E-07 
    9.9999999999999995E-07 
    9.9999999999999995E-07 
    9.9999999999999995E-07 
    9.9999999999999995E-07 
    9.9999999999999995E-07 
    9.9999999999999995E-07 
    9.9999999999999995E-07 
    9.9999999999999995E-07 
    9.9999999999999995E-07 
    9.9999999999999995E-07 
    9.9999999999999995E-07 
    9.9999999999999995E-07 
    9.9999999999999995E-07 
    9.9999999999999995E-07 
    9.9999999999999995E-07 
    9.9999999999999995E-07 
    9.9999999999999995E-07 
    9.9999999999999995E-07 
    9.9999999999999995E-07 
    9.9999999999999995E-07 
    9.9999999999999995E-07 
    9.9999999999999995E-07 
    9.9999999999999995E-07 
    9.9999999999999995E-07 
    9.9999999999999995E-07 
    9.9999999999999995E-07 
    9.9999999999999995E-07 
    9.9999999999999995E-07 
    9.9999999999999995E-07 
    9.9999999999999995E-07 
    9.9999999999999995E-07 
    9.9999999999999995E-07 
    9.9999999999999995E-07 
    9.9999999999999995E-07 
    9.9999999999999995E-07 
    9.9999999999999995E-07 
    9.9999999999999995E-07 
    9.9999999999999995E-07 
    9.9999999999999995E-07 
    9.9999999999999995E-07 
    9.9999999999999995E-07 
    9.9999999999999995E-07 
    9.9999999999999995E-07 
    9.9999999999999995E-07 
    9.9999999999999995E-07 
    9.9999999999999995E-07 
    9.9999999999999995E-07 
    9.9999999999999995E-07 
    9.9999999999999995E-07 
    9.9999999999999995E-07 
    9.9999999999999995E-07 
    9.9999999999999995E-07 
    9.9999999999999995E-07 
    9.9999999999999995E-07 
    9.9999999999999995E-07 
    9.9999999999999995E-07 
    9.9999999999999995E-07 
    9.9999999999999995E-07 
    9.9999999999999995E-07 
    9.9999999999999995E-07 
    9.9999999999999995E-07 
    9.9999999999999995E-07 
    9.9999999999999995E-07 
    9.9999999999999995E-07 
    9.9999999999999995E-07 
    9.9999999999999995E-07 
    9.9999999999999995E-07 
    9.9999999999999995E-07 
    9.9999999999999995E-07 
    9.9999999999999995E-07 
    9.9999999999999995E-07 
    9.9999999999999995E-07 
    9.9999999999999995E-07 
    9.9999999999999995E-07 
    9.9999999999999995E-07 
    9.9999999999999995E-07 
    9.9999999999999995E-07 
    9.9999999999999995E-07 
    9.9999999999999995E-07 
    1.0000000404381561E-06 
