# vtk DataFile Version 2.0
Pressure Field Data 
ASCII 
DATASET UNSTRUCTURED_GRID 

POINTS 289 double 

    0.0000000000000000E+00     0.0000000000000000E+00     0.0000000000000000E+00 
    1.0000000000000000E+00     0.0000000000000000E+00     0.0000000000000000E+00 
    1.0000000000000000E+00     1.0000000000000000E+00     0.0000000000000000E+00 
    0.0000000000000000E+00     1.0000000000000000E+00     0.0000000000000000E+00 
    6.2499999999872928E-02     0.0000000000000000E+00     0.0000000000000000E+00 
    1.2499999999977310E-01     0.0000000000000000E+00     0.0000000000000000E+00 
    1.8749999999959341E-01     0.0000000000000000E+00     0.0000000000000000E+00 
    2.4999999999941089E-01     0.0000000000000000E+00     0.0000000000000000E+00 
    3.1249999999922851E-01     0.0000000000000000E+00     0.0000000000000000E+00 
    3.7499999999904610E-01     0.0000000000000000E+00     0.0000000000000000E+00 
    4.3749999999886358E-01     0.0000000000000000E+00     0.0000000000000000E+00 
    4.9999999999869210E-01     0.0000000000000000E+00     0.0000000000000000E+00 
    5.6249999999884603E-01     0.0000000000000000E+00     0.0000000000000000E+00 
    6.2499999999901090E-01     0.0000000000000000E+00     0.0000000000000000E+00 
    6.8749999999917577E-01     0.0000000000000000E+00     0.0000000000000000E+00 
    7.4999999999934064E-01     0.0000000000000000E+00     0.0000000000000000E+00 
    8.1249999999950551E-01     0.0000000000000000E+00     0.0000000000000000E+00 
    8.7499999999967026E-01     0.0000000000000000E+00     0.0000000000000000E+00 
    9.3749999999983513E-01     0.0000000000000000E+00     0.0000000000000000E+00 
    1.0000000000000000E+00     6.2499999999872928E-02     0.0000000000000000E+00 
    1.0000000000000000E+00     1.2499999999977310E-01     0.0000000000000000E+00 
    1.0000000000000000E+00     1.8749999999959341E-01     0.0000000000000000E+00 
    1.0000000000000000E+00     2.4999999999941089E-01     0.0000000000000000E+00 
    1.0000000000000000E+00     3.1249999999922851E-01     0.0000000000000000E+00 
    1.0000000000000000E+00     3.7499999999904610E-01     0.0000000000000000E+00 
    1.0000000000000000E+00     4.3749999999886358E-01     0.0000000000000000E+00 
    1.0000000000000000E+00     4.9999999999869210E-01     0.0000000000000000E+00 
    1.0000000000000000E+00     5.6249999999884603E-01     0.0000000000000000E+00 
    1.0000000000000000E+00     6.2499999999901090E-01     0.0000000000000000E+00 
    1.0000000000000000E+00     6.8749999999917577E-01     0.0000000000000000E+00 
    1.0000000000000000E+00     7.4999999999934064E-01     0.0000000000000000E+00 
    1.0000000000000000E+00     8.1249999999950551E-01     0.0000000000000000E+00 
    1.0000000000000000E+00     8.7499999999967026E-01     0.0000000000000000E+00 
    1.0000000000000000E+00     9.3749999999983513E-01     0.0000000000000000E+00 
    9.3749999999973976E-01     1.0000000000000000E+00     0.0000000000000000E+00 
    8.7499999999950118E-01     1.0000000000000000E+00     0.0000000000000000E+00 
    8.1249999999991318E-01     1.0000000000000000E+00     0.0000000000000000E+00 
    7.5000000000034706E-01     1.0000000000000000E+00     0.0000000000000000E+00 
    6.8750000000078049E-01     1.0000000000000000E+00     0.0000000000000000E+00 
    6.2500000000121403E-01     1.0000000000000000E+00     0.0000000000000000E+00 
    5.6250000000164757E-01     1.0000000000000000E+00     0.0000000000000000E+00 
    5.0000000000205946E-01     1.0000000000000000E+00     0.0000000000000000E+00 
    4.3750000000182099E-01     1.0000000000000000E+00     0.0000000000000000E+00 
    3.7500000000156092E-01     1.0000000000000000E+00     0.0000000000000000E+00 
    3.1250000000130068E-01     1.0000000000000000E+00     0.0000000000000000E+00 
    2.5000000000104050E-01     1.0000000000000000E+00     0.0000000000000000E+00 
    1.8750000000078040E-01     1.0000000000000000E+00     0.0000000000000000E+00 
    1.2500000000052031E-01     1.0000000000000000E+00     0.0000000000000000E+00 
    6.2500000000260125E-02     1.0000000000000000E+00     0.0000000000000000E+00 
    0.0000000000000000E+00     9.3749999999973976E-01     0.0000000000000000E+00 
    0.0000000000000000E+00     8.7499999999950118E-01     0.0000000000000000E+00 
    0.0000000000000000E+00     8.1249999999991318E-01     0.0000000000000000E+00 
    0.0000000000000000E+00     7.5000000000034706E-01     0.0000000000000000E+00 
    0.0000000000000000E+00     6.8750000000078049E-01     0.0000000000000000E+00 
    0.0000000000000000E+00     6.2500000000121403E-01     0.0000000000000000E+00 
    0.0000000000000000E+00     5.6250000000164757E-01     0.0000000000000000E+00 
    0.0000000000000000E+00     5.0000000000205946E-01     0.0000000000000000E+00 
    0.0000000000000000E+00     4.3750000000182099E-01     0.0000000000000000E+00 
    0.0000000000000000E+00     3.7500000000156092E-01     0.0000000000000000E+00 
    0.0000000000000000E+00     3.1250000000130068E-01     0.0000000000000000E+00 
    0.0000000000000000E+00     2.5000000000104050E-01     0.0000000000000000E+00 
    0.0000000000000000E+00     1.8750000000078040E-01     0.0000000000000000E+00 
    0.0000000000000000E+00     1.2500000000052031E-01     0.0000000000000000E+00 
    0.0000000000000000E+00     6.2500000000260125E-02     0.0000000000000000E+00 
    6.2499999999897131E-02     6.2500000000235922E-02     0.0000000000000000E+00 
    6.2499999999921327E-02     1.2500000000047351E-01     0.0000000000000000E+00 
    6.2499999999945530E-02     1.8750000000070621E-01     0.0000000000000000E+00 
    6.2499999999969733E-02     2.5000000000093858E-01     0.0000000000000000E+00 
    6.2499999999993928E-02     3.1250000000117117E-01     0.0000000000000000E+00 
    6.2500000000018124E-02     3.7500000000140382E-01     0.0000000000000000E+00 
    6.2500000000042327E-02     4.3750000000163619E-01     0.0000000000000000E+00 
    6.2500000000066530E-02     5.0000000000184897E-01     0.0000000000000000E+00 
    6.2500000000090733E-02     5.6250000000147260E-01     0.0000000000000000E+00 
    6.2500000000114922E-02     6.2500000000107636E-01     0.0000000000000000E+00 
    6.2500000000139125E-02     6.8750000000068034E-01     0.0000000000000000E+00 
    6.2500000000163328E-02     7.5000000000028411E-01     0.0000000000000000E+00 
    6.2500000000187531E-02     8.1249999999988787E-01     0.0000000000000000E+00 
    6.2500000000211720E-02     8.7499999999951172E-01     0.0000000000000000E+00 
    6.2500000000235922E-02     9.3749999999974565E-01     0.0000000000000000E+00 
    1.2499999999981980E-01     6.2500000000211733E-02     0.0000000000000000E+00 
    1.2499999999986650E-01     1.2500000000042691E-01     0.0000000000000000E+00 
    1.2499999999991319E-01     1.8750000000063199E-01     0.0000000000000000E+00 
    1.2499999999995989E-01     2.5000000000083678E-01     0.0000000000000000E+00 
    1.2500000000000661E-01     3.1250000000104172E-01     0.0000000000000000E+00 
    1.2500000000005329E-01     3.7500000000124661E-01     0.0000000000000000E+00 
    1.2500000000010000E-01     4.3750000000145117E-01     0.0000000000000000E+00 
    1.2500000000014669E-01     5.0000000000163858E-01     0.0000000000000000E+00 
    1.2500000000019340E-01     5.6250000000129741E-01     0.0000000000000000E+00 
    1.2500000000024011E-01     6.2500000000093847E-01     0.0000000000000000E+00 
    1.2500000000028680E-01     6.8750000000057998E-01     0.0000000000000000E+00 
    1.2500000000033351E-01     7.5000000000022127E-01     0.0000000000000000E+00 
    1.2500000000038020E-01     8.1249999999986211E-01     0.0000000000000000E+00 
    1.2500000000042691E-01     8.7499999999952238E-01     0.0000000000000000E+00 
    1.2500000000047359E-01     9.3749999999975164E-01     0.0000000000000000E+00 
    1.8749999999966760E-01     6.2500000000187531E-02     0.0000000000000000E+00 
    1.8749999999974179E-01     1.2500000000038020E-01     0.0000000000000000E+00 
    1.8749999999981601E-01     1.8750000000055780E-01     0.0000000000000000E+00 
    1.8749999999989009E-01     2.5000000000073502E-01     0.0000000000000000E+00 
    1.8749999999996431E-01     3.1250000000091221E-01     0.0000000000000000E+00 
    1.8750000000003850E-01     3.7500000000108941E-01     0.0000000000000000E+00 
    1.8750000000011269E-01     4.3750000000126649E-01     0.0000000000000000E+00 
    1.8750000000018691E-01     5.0000000000142808E-01     0.0000000000000000E+00 
    1.8750000000026110E-01     5.6250000000112244E-01     0.0000000000000000E+00 
    1.8750000000033529E-01     6.2500000000080080E-01     0.0000000000000000E+00 
    1.8750000000040951E-01     6.8750000000047962E-01     0.0000000000000000E+00 
    1.8750000000048361E-01     7.5000000000015843E-01     0.0000000000000000E+00 
    1.8750000000055780E-01     8.1249999999983680E-01     0.0000000000000000E+00 
    1.8750000000063199E-01     8.7499999999953304E-01     0.0000000000000000E+00 
    1.8750000000070621E-01     9.3749999999975764E-01     0.0000000000000000E+00 
    2.4999999999951281E-01     6.2500000000163314E-02     0.0000000000000000E+00 
    2.4999999999961461E-01     1.2500000000033351E-01     0.0000000000000000E+00 
    2.4999999999971650E-01     1.8750000000048361E-01     0.0000000000000000E+00 
    2.4999999999981831E-01     2.5000000000063310E-01     0.0000000000000000E+00 
    2.4999999999992020E-01     3.1250000000078260E-01     0.0000000000000000E+00 
    2.5000000000002198E-01     3.7500000000093209E-01     0.0000000000000000E+00 
    2.5000000000012390E-01     4.3750000000108180E-01     0.0000000000000000E+00 
    2.5000000000022571E-01     5.0000000000121769E-01     0.0000000000000000E+00 
    2.5000000000032763E-01     5.6250000000094724E-01     0.0000000000000000E+00 
    2.5000000000042938E-01     6.2500000000066314E-01     0.0000000000000000E+00 
    2.5000000000053119E-01     6.8750000000037925E-01     0.0000000000000000E+00 
[...]
CELL_DATA 256 
SCALARS Pressure double 1 
LOOKUP_TABLE default 

    8.9787698582715703E-01 
    8.8561378379714306E-01 
    8.7334729798640331E-01 
    8.6222432952212447E-01 
    8.5419945574643030E-01 
    8.5069418665185259E-01 
    8.4453281280228398E-01 
    8.3949647771863134E-01 
    8.3598002326396159E-01 
    8.3383095022724485E-01 
    8.3104327644655684E-01 
    8.2827878222346940E-01 
    8.2529381794568357E-01 
    8.2210107764772855E-01 
    8.1926670523047296E-01 
    8.1747148154217064E-01 
    8.5271331554607377E-01 
    8.4930525952572100E-01 
    8.4525080651025220E-01 
    8.4085566023758729E-01 
    8.3648258947052112E-01 
    8.3162599079007316E-01 
    8.2647240055002136E-01 
    8.2338721878081522E-01 
    8.2004107384301039E-01 
    8.1667176425751042E-01 
    8.1378931523866915E-01 
    8.1163658686661622E-01 
    8.0946476934066025E-01 
    8.0764209791306285E-01 
    8.0625945916234099E-01 
    8.0537206379556436E-01 
    8.1932048856242423E-01 
    8.1772309253155939E-01 
    8.1585226434474600E-01 
    8.1351579499921611E-01 
    8.1055621204920891E-01 
    8.0663729094373127E-01 
    8.0234501577937234E-01 
    7.9973977961047249E-01 
    7.9637232636882138E-01 
    7.9288768958513944E-01 
    7.9022563488836184E-01 
    7.8857127815747641E-01 
    7.8695131922742878E-01 
    7.8597046280358651E-01 
    7.8559141618919837E-01 
    7.8556030770509433E-01 
    7.8504552340196931E-01 
    7.8484735648801907E-01 
    7.8448463564211313E-01 
    7.8360107828132730E-01 
    7.8188672302858442E-01 
    7.7895497606316344E-01 
    7.7542575848529938E-01 
    7.7308344913902993E-01 
    7.6991174984102451E-01 
    7.6661328048431543E-01 
    7.6429281621139944E-01 
    7.6305091511613710E-01 
    7.6179389485168125E-01 
    7.6130289607714596E-01 
    7.6149493220761511E-01 
    7.6180026831255288E-01 
    7.5335514015075233E-01 
    7.5536279642344173E-01 
    7.5513143240004643E-01 
    7.5428461203871433E-01 
    7.5266899132269593E-01 
    7.4983339327402165E-01 
    7.4656313174802746E-01 
    7.4502108075034401E-01 
    7.4247814989987182E-01 
    7.3954662778468072E-01 
    7.3759158595045038E-01 
    7.3714503524730535E-01 
    7.3601774357857064E-01 
    7.3547862846342804E-01 
    7.3534981175191105E-01 
    7.3491329768704938E-01 
    7.2611578853909853E-01 
    7.2458864097062947E-01 
    7.2222154883379985E-01 
    7.1889253742227188E-01 
    7.1542987297669092E-01 
    7.1308129781755303E-01 
    7.1200333779157932E-01 
    7.1142557967768361E-01 
    7.1074775640708376E-01 
    7.1066332219340556E-01 
    7.1049274365059656E-01 
    7.0947773573453521E-01 
    7.0760348712458132E-01 
    7.0577294355437592E-01 
    7.0427280628149258E-01 
    7.0337992824639617E-01 
    6.7872408391715000E-01 
    6.7838553517217681E-01 
    6.7751595964905353E-01 
    6.7626526998779790E-01 
    6.7521474091073574E-01 
    6.7517439837481596E-01 
    6.7520788355015648E-01 
    6.7291283341150332E-01 
    6.7203995673206574E-01 
    6.7215364955072576E-01 
    6.7198939606894470E-01 
    6.7045459144847686E-01 
    6.6947113499974253E-01 
    6.6857598805977336E-01 
    6.6812211704275704E-01 
    6.6795062937415461E-01 
    6.3486167350694955E-01 
    6.3579038628946782E-01 
    6.3641326643961371E-01 
    6.3671823445384257E-01 
    6.3667757773594957E-01 
    6.3633660926488478E-01 
    6.3538648157148203E-01 
    6.3390134714403246E-01 
    6.3242788533738670E-01 
    6.3132055419767452E-01 
    6.3039576300424494E-01 
    6.2956694281061887E-01 
    6.2875922669940520E-01 
    6.2842830184707998E-01 
    6.2885648936697469E-01 
    6.2919510606727758E-01 
    5.9638093103937728E-01 
    5.9814982313957288E-01 
    5.9810724510771607E-01 
    5.9781731913806713E-01 
    5.9694721861598288E-01 
    5.9540079324268247E-01 
    5.9342820410854125E-01 
    5.9226010790011208E-01 
    5.9049229230587308E-01 
    5.8926658985406666E-01 
    5.8865173784979374E-01 
    5.8854826185602960E-01 
    5.8774350040483947E-01 
    5.8756584347939533E-01 
    5.8788956595656094E-01 
    5.8740130256983236E-01 
    5.5899956705291431E-01 
    5.5824986107184371E-01 
    5.5660964314354877E-01 
    5.5429280719823748E-01 
    5.5191634137929946E-01 
    5.4996992174095216E-01 
    5.4835361095768564E-01 
    5.4726344935534854E-01 
    5.4675615757589846E-01 
    5.4730491047120611E-01 
    5.4797672141569653E-01 
    5.4690512801953683E-01 
    5.4481762495887454E-01 
    5.4264852400553620E-01 
    5.4066820835557272E-01 
    5.3950265694523858E-01 
    5.1528119655031668E-01 
    5.1450669566904184E-01 
    5.1311750054974425E-01 
    5.1141802813926784E-01 
    5.0990977508289737E-01 
    5.0847650009971990E-01 
    5.0596821367258760E-01 
    5.0305256413065047E-01 
    5.0145082538549535E-01 
    4.9985357468265895E-01 
    4.9708241567590422E-01 
    4.9330517626368575E-01 
    4.9003154135312854E-01 
    4.8763376572199990E-01 
    4.8660101444963899E-01 
    4.8631273261798896E-01 
    4.7475465338349310E-01 
    4.7418126052698722E-01 
    4.7307989843368520E-01 
    4.7135071552784447E-01 
    4.6894197599397042E-01 
    4.6589543585890214E-01 
    4.6260249720157326E-01 
    4.5866384533646581E-01 
    4.5349912359827788E-01 
    4.4737387384250504E-01 
    4.4119019038413393E-01 
    4.3471516795867360E-01 
    4.2909737330529873E-01 
    4.2616922345118130E-01 
    4.2572720075114145E-01 
    4.2643472475940647E-01 
    4.3132985809379853E-01 
    4.3059948362990896E-01 
    4.2905305602914678E-01 
    4.2635350748056761E-01 
    4.2249011744198306E-01 
    4.1792353742091637E-01 
    4.1311229799468252E-01 
    4.0667438501596476E-01 
    3.9822808863359116E-01 
    3.8898151249820051E-01 
    3.7978989296913074E-01 
    3.7074560518365762E-01 
    3.6368964960645567E-01 
    3.6014604952291773E-01 
    3.5977518543335923E-01 
    3.6094458035948734E-01 
    3.8046088060451350E-01 
    3.7950383037903157E-01 
    3.7736830469302857E-01 
    3.7366123871663393E-01 
    3.6855495332874549E-01 
    3.6272109838702377E-01 
    3.5649360697133381E-01 
    3.4811876803924996E-01 
    3.3762839479447854E-01 
    3.2657885575247858E-01 
    3.1579492945687310E-01 
    3.0547209149779186E-01 
    2.9671990269982740E-01 
    2.9111793395411711E-01 
    2.8861765214319729E-01 
    2.8801169393044163E-01 
    3.3048966609593061E-01 
    3.2945654719310324E-01 
    3.2710991174391252E-01 
    3.2295947109717721E-01 
    3.1721103203726936E-01 
    3.1068315616047426E-01 
    3.0392303730286668E-01 
    2.9500527913534869E-01 
    2.8381545371162703E-01 
    2.7152402927310348E-01 
    2.5856965296783957E-01 
    2.4466886596576054E-01 
    2.2989725432978483E-01 
    2.1540542094465187E-01 
    2.0197107584050109E-01 
    1.9205644095187607E-01 
    3.0002996221345418E-01 
    2.9887580360478011E-01 
    2.9633217653670252E-01 
    2.9193588247466823E-01 
    2.8586958119952272E-01 
    2.7909393249641240E-01 
    2.7261223860951989E-01 
    2.6434324342349336E-01 
    2.5268058488558232E-01 
    2.3707469474610493E-01 
    2.1876899992472459E-01 
    1.9615133040835700E-01 
    1.6499671034816749E-01 
    1.2273178939682790E-01 
    6.8221320247764256E-02 
    0.0000000000000000E+00 

SCALARS Saturarion double 1 
LOOKUP_TABLE default 

    1.0000000002385516E+00 
    9.7765255538924833E-01 
    9.3900883317282535E-01 
    8.9770247450978702E-01 
    8.5484446902246836E-01 
    8.0947006665478405E-01 
    7.6356092585971169E-01 
    7.1610486902608050E-01 
    6.6595245353399890E-01 
    6.1886703191129855E-01 
    5.7340409833975869E-01 
    5.3211949757139909E-01 
    4.9355177270727291E-01 
    4.4531877644646800E-01 
    1.6937376174265206E-01 
    1.0039085201688054E-06 
    9.4417001144548762E-01 
    9.3016413573167134E-01 
    8.9992548512822501E-01 
    8.6493098736313390E-01 
    8.2713446841001514E-01 
    7.8674410440472875E-01 
    7.4758676363414911E-01 
    7.0623815748864549E-01 
    6.6137424725783345E-01 
    6.1648044357576903E-01 
    5.7140963168283765E-01 
    5.2661866599831719E-01 
    4.8196024379019764E-01 
    4.0538524943668347E-01 
    5.9035588967204893E-02 
    2.4790209070007029E-05 
    8.5453836954895879E-01 
    8.4775807969280059E-01 
    8.3046829947105116E-01 
    8.0609679246789256E-01 
    7.7903602972069652E-01 
    7.4911299859898473E-01 
    7.1726683430622185E-01 
    6.8454519054212271E-01 
    6.4928032706642935E-01 
    6.0862060822242292E-01 
    5.6596342475880601E-01 
    5.2219297047397806E-01 
    4.7476861207227133E-01 
    3.3722996726322935E-01 
    6.2838526323131250E-03 
    1.5545170163226872E-06 
    7.7644907469123581E-01 
    7.7257236737246116E-01 
    7.6252026183133725E-01 
    7.4732537208238148E-01 
    7.2994017480398810E-01 
    7.0864128548005623E-01 
    6.8444326208247519E-01 
    6.5976468931374077E-01 
    6.3177862872601331E-01 
    5.9611721539364881E-01 
    5.5610089892387016E-01 
    5.1184016520779763E-01 
    4.6237841435124222E-01 
    2.3823326241877907E-01 
    3.4509853601336098E-04 
    1.0017747557618512E-06 
    7.1557475839778062E-01 
    7.1207012813532178E-01 
    7.0477916114212580E-01 
    6.9461922581867364E-01 
    6.8065115639774709E-01 
    6.6719050214956388E-01 
    6.4999371318873278E-01 
    6.3037937467012539E-01 
    6.0926867587943956E-01 
    5.8030254189844110E-01 
    5.4436887077415019E-01 
    5.0103448782521487E-01 
    4.4661981146719704E-01 
    1.6250533478015383E-01 
    3.7362859999422200E-05 
    1.0005296276445203E-06 
    6.6783401680037924E-01 
    6.6573885142518863E-01 
    6.6068098975516210E-01 
    6.5394701902441754E-01 
    6.4215816866505604E-01 
    6.2913608071040261E-01 
    6.1492911433473041E-01 
    5.9636241056961725E-01 
    5.7938676737587924E-01 
    5.5875366030665574E-01 
    5.2934561862782792E-01 
    4.9328310636458100E-01 
    4.3883826048248681E-01 
    1.2384980114375597E-01 
    2.0376020521525810E-05 
    1.0000683835461833E-06 
    6.2490372797291627E-01 
    6.2292245859298268E-01 
    6.1859144219733131E-01 
    6.1302508808081424E-01 
    6.1044941502157113E-01 
    5.9782034996148703E-01 
    5.8384565405336564E-01 
    5.6648730837662542E-01 
    5.4720721772634606E-01 
    5.3136566165563781E-01 
    5.0665779332855121E-01 
    4.7755711857137628E-01 
    4.2009622517808443E-01 
    5.8910783335130487E-02 
    2.3535392023632111E-05 
    1.0000194188116036E-06 
    5.8386685026882501E-01 
    5.8169023032322742E-01 
    5.7764578120766630E-01 
    5.7243251765290593E-01 
    5.7768661021747780E-01 
    5.6917908484885060E-01 
    5.5646873526804053E-01 
    5.4191746812691166E-01 
    5.2136282364054898E-01 
    5.0543442176941600E-01 
    4.8419680655531933E-01 
    4.5767640101997148E-01 
    3.4400031829420424E-01 
    9.0478793442929709E-03 
    2.0375653827745618E-06 
    1.0000000757599407E-06 
    5.4833345410920553E-01 
    5.4652692812086123E-01 
    5.4315426875183392E-01 
    5.3877931287266834E-01 
    5.4398019053817970E-01 
    5.4017041839449453E-01 
    5.3041355728318851E-01 
    5.1864388972335973E-01 
    5.0318025266595234E-01 
    4.8388239663373217E-01 
    4.6821809165232914E-01 
    4.4001926913097028E-01 
    2.2095284206812585E-01 
    5.9716482068313762E-04 
    1.0269197341075032E-06 
    1.0000000036558831E-06 
    5.1947949201944643E-01 
    5.1806224395640144E-01 
    5.1512194313045723E-01 
    5.1172925222877497E-01 
    5.1039615929231263E-01 
    5.1068954221343210E-01 
    5.0377478241055540E-01 
    4.9460992092256723E-01 
    4.8468214606083765E-01 
    4.6644486224045878E-01 
    4.5275080484569097E-01 
    4.1534449208373292E-01 
    1.0548902939122869E-01 
    1.1093732387681145E-04 
    1.0013890305266216E-06 
    9.9999999999999953E-07 
    4.9066826742150382E-01 
    4.8952373374710556E-01 
    4.8679771915190723E-01 
    4.8420158320640649E-01 
    4.8135192730359350E-01 
    4.8075434113826854E-01 
    4.7803305077891306E-01 
    4.7244929241901706E-01 
    4.6392181454492282E-01 
    4.5083008828380078E-01 
    4.3037219608983845E-01 
    3.3862728073628207E-01 
    2.6378964960157184E-02 
    1.8911004724911298E-05 
    1.0000139333818590E-06 
    1.0000000000000002E-06 
    4.5899366080054466E-01 
    4.5819723220943975E-01 
    4.5656040845871082E-01 
    4.5465344852704831E-01 
    4.5216869476422356E-01 
    4.5054778883903790E-01 
    4.5158492683309931E-01 
    4.4957776777722308E-01 
    4.4162534514205554E-01 
    4.2914564388032211E-01 
    3.9146424976264432E-01 
    1.7306931949032406E-01 
    6.2947695927392507E-04 
    1.0986649319898807E-06 
    1.0000000007036446E-06 
    1.0000000000000002E-06 
    4.1539054084954885E-01 
    4.1247942450755715E-01 
    4.0802203514466773E-01 
    3.9925987303770794E-01 
    3.9595763445960375E-01 
    3.9551063569183376E-01 
    3.9781077685747701E-01 
    3.9663479240855443E-01 
    3.9573667189096257E-01 
    3.5210337670795910E-01 
    1.9327743038518189E-01 
    1.0812910854856632E-02 
    6.3748463454835739E-06 
    1.0000025900442272E-06 
    1.0000000000000351E-06 
    9.9999999999999995E-07 
    6.6535205101854650E-02 
    6.1346477415808467E-02 
    5.6297941054658532E-02 
    5.5536515677518578E-02 
    4.7708809620041127E-02 
    3.5449533217591499E-02 
    3.0720416859380290E-02 
    3.3719089391581622E-02 
    6.0378814452849913E-02 
    3.9386244075995329E-02 
    1.7167688695386761E-03 
    6.1323635623153153E-06 
    1.0000074295796220E-06 
    1.0000000000012847E-06 
    9.9999999999999995E-07 
    9.9999999999999995E-07 
    1.0000000743090279E-06 
    1.3858729209667189E-06 
    2.8773045386990708E-06 
    2.4587978660371803E-06 
    2.0431990692423358E-06 
    2.2544773247483630E-06 
    1.0432582846724202E-06 
    1.0165514124997986E-06 
    7.3181303112201013E-06 
    3.4452254187829146E-05 
    1.1104680951489986E-06 
    1.0000030015450044E-06 
    1.0000000000015824E-06 
    9.9999999999999995E-07 
    9.9999999999999995E-07 
    9.9999999999999995E-07 
    1.0000000000000288E-06 
    1.0000000474438900E-06 
    1.0000005317325972E-06 
    1.0000002159453885E-06 
    1.0000005476755536E-06 
    1.0000004453894562E-06 
    1.0000000086779956E-06 
    1.0000000052861731E-06 
    1.0000085323533870E-06 
    1.0001282355232665E-06 
    1.0000000215990896E-06 
    1.0000000000000444E-06 
    9.9999999999999995E-07 
    9.9999999999999995E-07 
    9.9999999999999995E-07 
    1.0000001041038353E-06 
