# vtk DataFile Version 2.0
Pressure Field Data 
ASCII 
DATASET UNSTRUCTURED_GRID 

POINTS 289 double 

    0.0000000000000000E+00     0.0000000000000000E+00     0.0000000000000000E+00 
    1.0000000000000000E+00     0.0000000000000000E+00     0.0000000000000000E+00 
    1.0000000000000000E+00     1.0000000000000000E+00     0.0000000000000000E+00 
    0.0000000000000000E+00     1.0000000000000000E+00     0.0000000000000000E+00 
    6.2499999999872928E-02     0.0000000000000000E+00     0.0000000000000000E+00 
    1.2499999999977310E-01     0.0000000000000000E+00     0.0000000000000000E+00 
    1.8749999999959341E-01     0.0000000000000000E+00     0.0000000000000000E+00 
    2.4999999999941089E-01     0.0000000000000000E+00     0.0000000000000000E+00 
    3.1249999999922851E-01     0.0000000000000000E+00     0.0000000000000000E+00 
    3.7499999999904610E-01     0.0000000000000000E+00     0.0000000000000000E+00 
    4.3749999999886358E-01     0.0000000000000000E+00     0.0000000000000000E+00 
    4.9999999999869210E-01     0.0000000000000000E+00     0.0000000000000000E+00 
    5.6249999999884603E-01     0.0000000000000000E+00     0.0000000000000000E+00 
    6.2499999999901090E-01     0.0000000000000000E+00     0.0000000000000000E+00 
    6.8749999999917577E-01     0.0000000000000000E+00     0.0000000000000000E+00 
    7.4999999999934064E-01     0.0000000000000000E+00     0.0000000000000000E+00 
    8.1249999999950551E-01     0.0000000000000000E+00     0.0000000000000000E+00 
    8.7499999999967026E-01     0.0000000000000000E+00     0.0000000000000000E+00 
    9.3749999999983513E-01     0.0000000000000000E+00     0.0000000000000000E+00 
    1.0000000000000000E+00     6.2499999999872928E-02     0.0000000000000000E+00 
    1.0000000000000000E+00     1.2499999999977310E-01     0.0000000000000000E+00 
    1.0000000000000000E+00     1.8749999999959341E-01     0.0000000000000000E+00 
    1.0000000000000000E+00     2.4999999999941089E-01     0.0000000000000000E+00 
    1.0000000000000000E+00     3.1249999999922851E-01     0.0000000000000000E+00 
    1.0000000000000000E+00     3.7499999999904610E-01     0.0000000000000000E+00 
    1.0000000000000000E+00     4.3749999999886358E-01     0.0000000000000000E+00 
    1.0000000000000000E+00     4.9999999999869210E-01     0.0000000000000000E+00 
    1.0000000000000000E+00     5.6249999999884603E-01     0.0000000000000000E+00 
    1.0000000000000000E+00     6.2499999999901090E-01     0.0000000000000000E+00 
    1.0000000000000000E+00     6.8749999999917577E-01     0.0000000000000000E+00 
    1.0000000000000000E+00     7.4999999999934064E-01     0.0000000000000000E+00 
    1.0000000000000000E+00     8.1249999999950551E-01     0.0000000000000000E+00 
    1.0000000000000000E+00     8.7499999999967026E-01     0.0000000000000000E+00 
    1.0000000000000000E+00     9.3749999999983513E-01     0.0000000000000000E+00 
    9.3749999999973976E-01     1.0000000000000000E+00     0.0000000000000000E+00 
    8.7499999999950118E-01     1.0000000000000000E+00     0.0000000000000000E+00 
    8.1249999999991318E-01     1.0000000000000000E+00     0.0000000000000000E+00 
    7.5000000000034706E-01     1.0000000000000000E+00     0.0000000000000000E+00 
    6.8750000000078049E-01     1.0000000000000000E+00     0.0000000000000000E+00 
    6.2500000000121403E-01     1.0000000000000000E+00     0.0000000000000000E+00 
    5.6250000000164757E-01     1.0000000000000000E+00     0.0000000000000000E+00 
    5.0000000000205946E-01     1.0000000000000000E+00     0.0000000000000000E+00 
    4.3750000000182099E-01     1.0000000000000000E+00     0.0000000000000000E+00 
    3.7500000000156092E-01     1.0000000000000000E+00     0.0000000000000000E+00 
    3.1250000000130068E-01     1.0000000000000000E+00     0.0000000000000000E+00 
    2.5000000000104050E-01     1.0000000000000000E+00     0.0000000000000000E+00 
    1.8750000000078040E-01     1.0000000000000000E+00     0.0000000000000000E+00 
    1.2500000000052031E-01     1.0000000000000000E+00     0.0000000000000000E+00 
    6.2500000000260125E-02     1.0000000000000000E+00     0.0000000000000000E+00 
    0.0000000000000000E+00     9.3749999999973976E-01     0.0000000000000000E+00 
    0.0000000000000000E+00     8.7499999999950118E-01     0.0000000000000000E+00 
    0.0000000000000000E+00     8.1249999999991318E-01     0.0000000000000000E+00 
    0.0000000000000000E+00     7.5000000000034706E-01     0.0000000000000000E+00 
    0.0000000000000000E+00     6.8750000000078049E-01     0.0000000000000000E+00 
    0.0000000000000000E+00     6.2500000000121403E-01     0.0000000000000000E+00 
    0.0000000000000000E+00     5.6250000000164757E-01     0.0000000000000000E+00 
    0.0000000000000000E+00     5.0000000000205946E-01     0.0000000000000000E+00 
    0.0000000000000000E+00     4.3750000000182099E-01     0.0000000000000000E+00 
    0.0000000000000000E+00     3.7500000000156092E-01     0.0000000000000000E+00 
    0.0000000000000000E+00     3.1250000000130068E-01     0.0000000000000000E+00 
    0.0000000000000000E+00     2.5000000000104050E-01     0.0000000000000000E+00 
    0.0000000000000000E+00     1.8750000000078040E-01     0.0000000000000000E+00 
    0.0000000000000000E+00     1.2500000000052031E-01     0.0000000000000000E+00 
    0.0000000000000000E+00     6.2500000000260125E-02     0.0000000000000000E+00 
    6.2499999999897131E-02     6.2500000000235922E-02     0.0000000000000000E+00 
    6.2499999999921327E-02     1.2500000000047351E-01     0.0000000000000000E+00 
    6.2499999999945530E-02     1.8750000000070621E-01     0.0000000000000000E+00 
    6.2499999999969733E-02     2.5000000000093858E-01     0.0000000000000000E+00 
    6.2499999999993928E-02     3.1250000000117117E-01     0.0000000000000000E+00 
    6.2500000000018124E-02     3.7500000000140382E-01     0.0000000000000000E+00 
    6.2500000000042327E-02     4.3750000000163619E-01     0.0000000000000000E+00 
    6.2500000000066530E-02     5.0000000000184897E-01     0.0000000000000000E+00 
    6.2500000000090733E-02     5.6250000000147260E-01     0.0000000000000000E+00 
    6.2500000000114922E-02     6.2500000000107636E-01     0.0000000000000000E+00 
    6.2500000000139125E-02     6.8750000000068034E-01     0.0000000000000000E+00 
    6.2500000000163328E-02     7.5000000000028411E-01     0.0000000000000000E+00 
    6.2500000000187531E-02     8.1249999999988787E-01     0.0000000000000000E+00 
    6.2500000000211720E-02     8.7499999999951172E-01     0.0000000000000000E+00 
    6.2500000000235922E-02     9.3749999999974565E-01     0.0000000000000000E+00 
    1.2499999999981980E-01     6.2500000000211733E-02     0.0000000000000000E+00 
    1.2499999999986650E-01     1.2500000000042691E-01     0.0000000000000000E+00 
    1.2499999999991319E-01     1.8750000000063199E-01     0.0000000000000000E+00 
    1.2499999999995989E-01     2.5000000000083678E-01     0.0000000000000000E+00 
    1.2500000000000661E-01     3.1250000000104172E-01     0.0000000000000000E+00 
    1.2500000000005329E-01     3.7500000000124661E-01     0.0000000000000000E+00 
    1.2500000000010000E-01     4.3750000000145117E-01     0.0000000000000000E+00 
    1.2500000000014669E-01     5.0000000000163858E-01     0.0000000000000000E+00 
    1.2500000000019340E-01     5.6250000000129741E-01     0.0000000000000000E+00 
    1.2500000000024011E-01     6.2500000000093847E-01     0.0000000000000000E+00 
    1.2500000000028680E-01     6.8750000000057998E-01     0.0000000000000000E+00 
    1.2500000000033351E-01     7.5000000000022127E-01     0.0000000000000000E+00 
    1.2500000000038020E-01     8.1249999999986211E-01     0.0000000000000000E+00 
    1.2500000000042691E-01     8.7499999999952238E-01     0.0000000000000000E+00 
    1.2500000000047359E-01     9.3749999999975164E-01     0.0000000000000000E+00 
    1.8749999999966760E-01     6.2500000000187531E-02     0.0000000000000000E+00 
    1.8749999999974179E-01     1.2500000000038020E-01     0.0000000000000000E+00 
    1.8749999999981601E-01     1.8750000000055780E-01     0.0000000000000000E+00 
    1.8749999999989009E-01     2.5000000000073502E-01     0.0000000000000000E+00 
    1.8749999999996431E-01     3.1250000000091221E-01     0.0000000000000000E+00 
    1.8750000000003850E-01     3.7500000000108941E-01     0.0000000000000000E+00 
    1.8750000000011269E-01     4.3750000000126649E-01     0.0000000000000000E+00 
    1.8750000000018691E-01     5.0000000000142808E-01     0.0000000000000000E+00 
    1.8750000000026110E-01     5.6250000000112244E-01     0.0000000000000000E+00 
    1.8750000000033529E-01     6.2500000000080080E-01     0.0000000000000000E+00 
    1.8750000000040951E-01     6.8750000000047962E-01     0.0000000000000000E+00 
    1.8750000000048361E-01     7.5000000000015843E-01     0.0000000000000000E+00 
    1.8750000000055780E-01     8.1249999999983680E-01     0.0000000000000000E+00 
    1.8750000000063199E-01     8.7499999999953304E-01     0.0000000000000000E+00 
    1.8750000000070621E-01     9.3749999999975764E-01     0.0000000000000000E+00 
    2.4999999999951281E-01     6.2500000000163314E-02     0.0000000000000000E+00 
    2.4999999999961461E-01     1.2500000000033351E-01     0.0000000000000000E+00 
    2.4999999999971650E-01     1.8750000000048361E-01     0.0000000000000000E+00 
    2.4999999999981831E-01     2.5000000000063310E-01     0.0000000000000000E+00 
    2.4999999999992020E-01     3.1250000000078260E-01     0.0000000000000000E+00 
    2.5000000000002198E-01     3.7500000000093209E-01     0.0000000000000000E+00 
    2.5000000000012390E-01     4.3750000000108180E-01     0.0000000000000000E+00 
    2.5000000000022571E-01     5.0000000000121769E-01     0.0000000000000000E+00 
    2.5000000000032763E-01     5.6250000000094724E-01     0.0000000000000000E+00 
    2.5000000000042938E-01     6.2500000000066314E-01     0.0000000000000000E+00 
    2.5000000000053119E-01     6.8750000000037925E-01     0.0000000000000000E+00 
[...]
CELL_DATA 256 
SCALARS Pressure double 1 
LOOKUP_TABLE default 

    8.9219449133739803E-01 
    8.7993005998979368E-01 
    8.6767574509878465E-01 
    8.5657291239621891E-01 
    8.4856497396473085E-01 
    8.4509253282688124E-01 
    8.3896173905203875E-01 
    8.3394761715194854E-01 
    8.3045321914682368E-01 
    8.2835438919953286E-01 
    8.2562355097529938E-01 
    8.2291460782974690E-01 
    8.1998102075800094E-01 
    8.1682513006904289E-01 
    8.1401726135419528E-01 
    8.1223704564673960E-01 
    8.4713594185193175E-01 
    8.4373466933844798E-01 
    8.3969321836326127E-01 
    8.3531760507329755E-01 
    8.3097175642385790E-01 
    8.2615058099767036E-01 
    8.2102186075300398E-01 
    8.1796307237215282E-01 
    8.1465129173088979E-01 
    8.1131378714060731E-01 
    8.0845253217421109E-01 
    8.0632494555725742E-01 
    8.0416958149569673E-01 
    8.0237876043005896E-01 
    8.0103009173758222E-01 
    8.0015403019080877E-01 
    8.1391310810179396E-01 
    8.1232515899890567E-01 
    8.1046851284688126E-01 
    8.0815409085277523E-01 
    8.0522726603734940E-01 
    8.0134917435916320E-01 
    7.9708535664833802E-01 
    7.9450956644531801E-01 
    7.9117905565187763E-01 
    7.8771803756950320E-01 
    7.8505705924487423E-01 
    7.8340795868719870E-01 
    7.8177757444537044E-01 
    7.8081196612097947E-01 
    7.8045508216129733E-01 
    7.8042622912890602E-01 
    7.7987257826965894E-01 
    7.7967984481240094E-01 
    7.7932785904000768E-01 
    7.7846494791412513E-01 
    7.7678471022476714E-01 
    7.7389600641594769E-01 
    7.7039580647646955E-01 
    7.6808429902631581E-01 
    7.6495061841061229E-01 
    7.6167470748957311E-01 
    7.5935155139288102E-01 
    7.5811663994033285E-01 
    7.5686177938014410E-01 
    7.5639205903756779E-01 
    7.5659872846902343E-01 
    7.5690524657708014E-01 
    7.4841976543893463E-01 
    7.5044085341225053E-01 
    7.5023524914178541E-01 
    7.4941893517250435E-01 
    7.4784442241478088E-01 
    7.4505061260466543E-01 
    7.4179951211715545E-01 
    7.4028527974556380E-01 
    7.3777808643225284E-01 
    7.3486055930352634E-01 
    7.3289197119446903E-01 
    7.3245847265117636E-01 
    7.3135290127916119E-01 
    7.3084071184159838E-01 
    7.3072460155254548E-01 
    7.3030560641003472E-01 
    7.2157261390818095E-01 
    7.2005697016918258E-01 
    7.1771039231242506E-01 
    7.1440551570580979E-01 
    7.1095890663784223E-01 
    7.0861595648569087E-01 
    7.0754106126632632E-01 
    7.0698154391105139E-01 
    7.0632007853799506E-01 
    7.0624801645641866E-01 
    7.0609328069054311E-01 
    7.0510623713099585E-01 
    7.0325192278315696E-01 
    7.0145560389926997E-01 
    6.9999022887285478E-01 
    6.9912367895252558E-01 
    6.7457037956763455E-01 
    6.7423335517342919E-01 
    6.7337136989694746E-01 
    6.7213111713291707E-01 
    6.7108610278569114E-01 
    6.7104720645343341E-01 
    6.7111418600894501E-01 
    6.6884385692548620E-01 
    6.6798731694598490E-01 
    6.6812361738015313E-01 
    6.6800351153878046E-01 
    6.6649034183522637E-01 
    6.6554337651819295E-01 
    6.6470371713439780E-01 
    6.6428046445895161E-01 
    6.6411234548777809E-01 
    6.3109620575878211E-01 
    6.3202167618824689E-01 
    6.3264957041203929E-01 
    6.3296811010558607E-01 
    6.3294827135815690E-01 
    6.3262374649661068E-01 
    6.3170262800958765E-01 
    6.3027115249210097E-01 
    6.2886328496942534E-01 
    6.2781732953872371E-01 
    6.2694233025976676E-01 
    6.2616932789023272E-01 
    6.2543540842069623E-01 
    6.2516298053220976E-01 
    6.2559556681039619E-01 
    6.2590221865605455E-01 
    5.9305593687911673E-01 
    5.9484289936780532E-01 
    5.9481911664582465E-01 
    5.9455121852486104E-01 
    5.9371101533108472E-01 
    5.9218230750053968E-01 
    5.9024144764715780E-01 
    5.8913685099315605E-01 
    5.8744121263886451E-01 
    5.8627600466459984E-01 
    5.8573515192446313E-01 
    5.8576852143939617E-01 
    5.8511376486817157E-01 
    5.8498861138297975E-01 
    5.8527283078336212E-01 
    5.8473235978523064E-01 
    5.5641511328935145E-01 
    5.5566205601912300E-01 
    5.5402521524902748E-01 
    5.5171030025381451E-01 
    5.4933545198836742E-01 
    5.4739610169308972E-01 
    5.4577588059791082E-01 
    5.4467472815344931E-01 
    5.4415569587425872E-01 
    5.4472397034236020E-01 
    5.4548731496971359E-01 
    5.4454425187100652E-01 
    5.4260952834063580E-01 
    5.4053712978543889E-01 
    5.3857008523200589E-01 
    5.3740742913411943E-01 
    5.1362193349525642E-01 
    5.1284041076136022E-01 
    5.1144519147198608E-01 
    5.0972649031311057E-01 
    5.0818736141684218E-01 
    5.0672709922522907E-01 
    5.0417396122980873E-01 
    5.0119237218566870E-01 
    4.9953781941007075E-01 
    4.9795096309250658E-01 
    4.9526707537801401E-01 
    4.9164082409560977E-01 
    4.8850327531489035E-01 
    4.8612599663259459E-01 
    4.8514568698349814E-01 
    4.8490438345447123E-01 
    4.7409957594746310E-01 
    4.7351198737887118E-01 
    4.7239329271049840E-01 
    4.7064175042868556E-01 
    4.6820935847533507E-01 
    4.6512394160958859E-01 
    4.6179193569555160E-01 
    4.5787524361665055E-01 
    4.5271653142740348E-01 
    4.4658998464438671E-01 
    4.4059610696139617E-01 
    4.3449323981094740E-01 
    4.2877563487520559E-01 
    4.2566074868314907E-01 
    4.2520449866961507E-01 
    4.2594124133501454E-01 
    4.3228756291743847E-01 
    4.3158463421111232E-01 
    4.3009448732810512E-01 
    4.2748397890150186E-01 
    4.2373597322352929E-01 
    4.1927822979542279E-01 
    4.1457415170157480E-01 
    4.0824841113670068E-01 
    3.9979466586468521E-01 
    3.9044558172293364E-01 
    3.8128821047689143E-01 
    3.7194999436114962E-01 
    3.6427232007128596E-01 
    3.6042777864556197E-01 
    3.5995886765308532E-01 
    3.6111230395718502E-01 
    3.8124691255018556E-01 
    3.8033240617968672E-01 
    3.7826775989581801E-01 
    3.7468434801697020E-01 
    3.6974555267086928E-01 
    3.6405640458345628E-01 
    3.5785735521915313E-01 
    3.4943823567121424E-01 
    3.3890434067208580E-01 
    3.2771756935864449E-01 
    3.1666933410383530E-01 
    3.0592867899317927E-01 
    2.9686771484449287E-01 
    2.9120564597294246E-01 
    2.8869590568739589E-01 
    2.8809226567073354E-01 
    3.2944798119901031E-01 
    3.2841437119022571E-01 
    3.2604851106183352E-01 
    3.2188533752314530E-01 
    3.1613780265153885E-01 
    3.0959402917987461E-01 
    3.0276196697556229E-01 
    2.9380606463791969E-01 
    2.8270206604755704E-01 
    2.7051127106049605E-01 
    2.5765218344660273E-01 
    2.4398686773184855E-01 
    2.2947121927113029E-01 
    2.1512829991202692E-01 
    2.0175453994046572E-01 
    1.9186399432117723E-01 
    2.9890904199293966E-01 
    2.9774746127813334E-01 
    2.9516869050043448E-01 
    2.9069910675706068E-01 
    2.8452236000797826E-01 
    2.7763411725541021E-01 
    2.7111903570179702E-01 
    2.6295863702642774E-01 
    2.5151492459993968E-01 
    2.3616892847196835E-01 
    2.1807341556293638E-01 
    1.9567573341307029E-01 
    1.6471646643458274E-01 
    1.2258202938059287E-01 
    6.8153807656750470E-02 
    0.0000000000000000E+00 

SCALARS Saturarion double 1 
LOOKUP_TABLE default 

    1.0000000002095406E+00 
    9.7821239111679326E-01 
    9.4036455526821461E-01 
    8.9982879685100392E-01 
    8.5752004118476588E-01 
    8.1277498804692139E-01 
    7.6708259202543438E-01 
    7.2002796852075179E-01 
    6.6998463718021628E-01 
    6.2332458605076402E-01 
    5.7809488582132995E-01 
    5.3672979068658122E-01 
    4.9825999591847087E-01 
    4.5208613443435897E-01 
    2.0961749067543481E-01 
    1.4799545370368899E-06 
    9.4527782754333478E-01 
    9.3149973670447583E-01 
    9.0179006289849140E-01 
    8.6731298756009023E-01 
    8.3006667326132222E-01 
    7.9004797136979787E-01 
    7.5112141913368169E-01 
    7.1010119210398981E-01 
    6.6520769839040828E-01 
    6.2055633421049261E-01 
    5.7561546005448461E-01 
    5.3082034096831865E-01 
    4.8658459700627210E-01 
    4.1936587472981007E-01 
    8.6314374589329709E-02 
    4.2704497328848056E-05 
    8.5689999309332454E-01 
    8.5022770716679419E-01 
    8.3311506011223257E-01 
    8.0898550396512003E-01 
    7.8214804082955713E-01 
    7.5244035269615694E-01 
    7.2092119052751669E-01 
    6.8833019472597756E-01 
    6.5304878688701995E-01 
    6.1260869420714426E-01 
    5.6999673713345944E-01 
    5.2618821926398451E-01 
    4.7904060164948320E-01 
    3.6656140549513999E-01 
    1.3675102086408496E-02 
    3.7051722376107790E-06 
    7.7951031824202766E-01 
    7.7560965573710461E-01 
    7.6564684537453853E-01 
    7.5057726794477220E-01 
    7.3331139435667780E-01 
    7.1219022268503995E-01 
    6.8809820901124941E-01 
    6.6342507297841413E-01 
    6.3564461371243386E-01 
    6.0014143673111031E-01 
    5.6005268507041883E-01 
    5.1581238370351801E-01 
    4.6716303398149256E-01 
    2.7353946075480107E-01 
    1.1468092157590070E-03 
    1.0130861129216613E-06 
    7.1930457193724151E-01 
    7.1582474286289821E-01 
    7.0852416974675547E-01 
    6.9838400963574032E-01 
    6.8440675719945954E-01 
    6.7089663523989929E-01 
    6.5371874074297498E-01 
    6.3429503522654695E-01 
    6.1331202528377660E-01 
    5.8432340424342810E-01 
    5.4831756531731535E-01 
    5.0496627249555992E-01 
    4.5257031908606382E-01 
    1.9494794869460824E-01 
    4.6337446196273506E-05 
    1.0006657173432089E-06 
    6.7179499494753558E-01 
    6.6969322722171887E-01 
    6.6459562082784707E-01 
    6.5796403856070695E-01 
    6.4624037416233948E-01 
    6.3305666839853536E-01 
    6.1891123481358312E-01 
    6.0050440097885194E-01 
    5.8365151344047239E-01 
    5.6297745891665496E-01 
    5.3368571588431146E-01 
    4.9736235908257709E-01 
    4.4618729933811119E-01 
    1.5720439182606680E-01 
    2.0574883844405287E-05 
    1.0001007659388946E-06 
    6.2911596615529009E-01 
    6.2716690337391612E-01 
    6.2288586437754323E-01 
    6.1732872546074458E-01 
    6.1462062321695632E-01 
    6.0188203111836325E-01 
    5.8804142388611369E-01 
    5.7072534837559818E-01 
    5.5164641755897914E-01 
    5.3587226456107950E-01 
    5.1142684229231694E-01 
    4.8211960236181212E-01 
    4.3230382037442944E-01 
    8.7457947629700702E-02 
    4.1857717519318140E-05 
    1.0000724907593436E-06 
    5.8859165307377437E-01 
    5.8643184930210090E-01 
    5.8241116039133778E-01 
    5.7719957085156304E-01 
    5.8210005378839402E-01 
    5.7352985688801594E-01 
    5.6090751086903834E-01 
    5.4631165049982189E-01 
    5.2582602804434075E-01 
    5.1007439017145062E-01 
    4.8851173078577181E-01 
    4.6226055854369019E-01 
    3.7550284067536593E-01 
    1.7989391916018803E-02 
    4.3532168697726594E-06 
    1.0000004701527698E-06 
    5.5337816145026453E-01 
    5.5156805045016777E-01 
    5.4816891930422995E-01 
    5.4375884678094677E-01 
    5.4891079227141282E-01 
    5.4513535005523384E-01 
    5.3517038194387734E-01 
    5.2332440944068015E-01 
    5.0766299739394249E-01 
    4.8853730438200332E-01 
    4.7225426276240468E-01 
    4.4531379621951178E-01 
    2.6624138845872747E-01 
    2.7015893507716113E-03 
    1.1510459663929525E-06 
    1.0000000322461449E-06 
    5.2479649659171268E-01 
    5.2338362819978379E-01 
    5.2040479172217458E-01 
    5.1693758797476985E-01 
    5.1581093433147951E-01 
    5.1634705295936567E-01 
    5.0904114219339425E-01 
    4.9957770555128955E-01 
    4.8932789688407691E-01 
    4.7095954447341398E-01 
    4.5777120240115665E-01 
    4.2804594811625368E-01 
    1.5371494609816430E-01 
    1.2432751610443171E-04 
    1.0035401542577760E-06 
    1.0000000000001641E-06 
    4.9644910654100827E-01 
    4.9532200453379588E-01 
    4.9269560459431838E-01 
    4.9004944926492411E-01 
    4.8732877440753558E-01 
    4.8696516558249492E-01 
    4.8368804108095426E-01 
    4.7788176883522038E-01 
    4.6920688164492330E-01 
    4.5612889461272149E-01 
    4.3965864076277383E-01 
    3.9011063941041452E-01 
    7.0257169403622088E-02 
    9.4407758204762855E-05 
    1.0006531105292278E-06 
    9.9999999999999974E-07 
    4.6600137840497463E-01 
    4.6495305083608873E-01 
    4.6293645619998530E-01 
    4.6127267126674448E-01 
    4.5931912749387033E-01 
    4.5748237877935022E-01 
    4.5837534918540951E-01 
    4.5659170661333637E-01 
    4.4927432950729024E-01 
    4.3975073702006684E-01 
    4.1842898617789864E-01 
    2.9703397508585633E-01 
    1.2661932535998394E-02 
    4.3459946755757146E-06 
    1.0000007641404268E-06 
    1.0000000000000002E-06 
    4.2946792309945403E-01 
    4.2647946402068104E-01 
    4.2428181094186895E-01 
    4.2291227591143010E-01 
    4.2059932705407688E-01 
    4.1807762528984654E-01 
    4.2003848962588386E-01 
    4.2029768039566012E-01 
    4.2240947969001158E-01 
    4.0945853671474669E-01 
    3.4376218280944226E-01 
    9.7938850103636538E-02 
    5.4066006394215896E-04 
    1.0415391484415217E-06 
    1.0000000000050354E-06 
    9.9999999999999995E-07 
    1.3618402907678903E-01 
    1.3250544577056994E-01 
    1.2690300964240478E-01 
    1.2083940156110938E-01 
    1.1009419012811551E-01 
    1.0335309339347325E-01 
    1.0102501935239579E-01 
    1.0470412415181568E-01 
    1.4894220857131127E-01 
    1.5172573786378399E-01 
    5.1632841802637802E-02 
    1.0410013308996750E-03 
    1.2241320599627830E-06 
    1.0000000242001798E-06 
    1.0000000000000027E-06 
    9.9999999999999995E-07 
    1.0000001035359597E-06 
    1.7825904142823331E-06 
    4.7193641963689788E-06 
    1.0711370971884328E-05 
    2.2478441954992927E-06 
    2.3704940177240791E-06 
    1.1140716311499146E-06 
    1.1040784732843641E-06 
    1.6846278900466596E-05 
    1.6529937784210544E-04 
    1.1741505987573706E-04 
    1.0973955204698097E-06 
    1.0000001028904833E-06 
    1.0000000000000249E-06 
    9.9999999999999995E-07 
    9.9999999999999995E-07 
    1.0000000000000703E-06 
    1.0000002070764756E-06 
    1.0000038072219549E-06 
    1.0000085458434129E-06 
    1.0000014490342860E-06 
    1.0000013042844727E-06 
    1.0000000511395421E-06 
    1.0000000193754432E-06 
    1.0001505115687709E-06 
    1.0097808780506343E-06 
    1.0013159333516366E-06 
    1.0000000104103074E-06 
    1.0000000000000196E-06 
    9.9999999999999995E-07 
    9.9999999999999995E-07 
    1.0000001068682538E-06 
