# vtk DataFile Version 2.0
Pressure Field Data 
ASCII 
DATASET UNSTRUCTURED_GRID 

POINTS 289 double 

    0.0000000000000000E+00     0.0000000000000000E+00     0.0000000000000000E+00 
    1.0000000000000000E+00     0.0000000000000000E+00     0.0000000000000000E+00 
    1.0000000000000000E+00     1.0000000000000000E+00     0.0000000000000000E+00 
    0.0000000000000000E+00     1.0000000000000000E+00     0.0000000000000000E+00 
    6.2499999999872928E-02     0.0000000000000000E+00     0.0000000000000000E+00 
    1.2499999999977310E-01     0.0000000000000000E+00     0.0000000000000000E+00 
    1.8749999999959341E-01     0.0000000000000000E+00     0.0000000000000000E+00 
    2.4999999999941089E-01     0.0000000000000000E+00     0.0000000000000000E+00 
    3.1249999999922851E-01     0.0000000000000000E+00     0.0000000000000000E+00 
    3.7499999999904610E-01     0.0000000000000000E+00     0.0000000000000000E+00 
    4.3749999999886358E-01     0.0000000000000000E+00     0.0000000000000000E+00 
    4.9999999999869210E-01     0.0000000000000000E+00     0.0000000000000000E+00 
    5.6249999999884603E-01     0.0000000000000000E+00     0.0000000000000000E+00 
    6.2499999999901090E-01     0.0000000000000000E+00     0.0000000000000000E+00 
    6.8749999999917577E-01     0.0000000000000000E+00     0.0000000000000000E+00 
    7.4999999999934064E-01     0.0000000000000000E+00     0.0000000000000000E+00 
    8.1249999999950551E-01     0.0000000000000000E+00     0.0000000000000000E+00 
    8.7499999999967026E-01     0.0000000000000000E+00     0.0000000000000000E+00 
    9.3749999999983513E-01     0.0000000000000000E+00     0.0000000000000000E+00 
    1.0000000000000000E+00     6.2499999999872928E-02     0.0000000000000000E+00 
    1.0000000000000000E+00     1.2499999999977310E-01     0.0000000000000000E+00 
    1.0000000000000000E+00     1.8749999999959341E-01     0.0000000000000000E+00 
    1.0000000000000000E+00     2.4999999999941089E-01     0.0000000000000000E+00 
    1.0000000000000000E+00     3.1249999999922851E-01     0.0000000000000000E+00 
    1.0000000000000000E+00     3.7499999999904610E-01     0.0000000000000000E+00 
    1.0000000000000000E+00     4.3749999999886358E-01     0.0000000000000000E+00 
    1.0000000000000000E+00     4.9999999999869210E-01     0.0000000000000000E+00 
    1.0000000000000000E+00     5.6249999999884603E-01     0.0000000000000000E+00 
    1.0000000000000000E+00     6.2499999999901090E-01     0.0000000000000000E+00 
    1.0000000000000000E+00     6.8749999999917577E-01     0.0000000000000000E+00 
    1.0000000000000000E+00     7.4999999999934064E-01     0.0000000000000000E+00 
    1.0000000000000000E+00     8.1249999999950551E-01     0.0000000000000000E+00 
    1.0000000000000000E+00     8.7499999999967026E-01     0.0000000000000000E+00 
    1.0000000000000000E+00     9.3749999999983513E-01     0.0000000000000000E+00 
    9.3749999999973976E-01     1.0000000000000000E+00     0.0000000000000000E+00 
    8.7499999999950118E-01     1.0000000000000000E+00     0.0000000000000000E+00 
    8.1249999999991318E-01     1.0000000000000000E+00     0.0000000000000000E+00 
    7.5000000000034706E-01     1.0000000000000000E+00     0.0000000000000000E+00 
    6.8750000000078049E-01     1.0000000000000000E+00     0.0000000000000000E+00 
    6.2500000000121403E-01     1.0000000000000000E+00     0.0000000000000000E+00 
    5.6250000000164757E-01     1.0000000000000000E+00     0.0000000000000000E+00 
    5.0000000000205946E-01     1.0000000000000000E+00     0.0000000000000000E+00 
    4.3750000000182099E-01     1.0000000000000000E+00     0.0000000000000000E+00 
    3.7500000000156092E-01     1.0000000000000000E+00     0.0000000000000000E+00 
    3.1250000000130068E-01     1.0000000000000000E+00     0.0000000000000000E+00 
    2.5000000000104050E-01     1.0000000000000000E+00     0.0000000000000000E+00 
    1.8750000000078040E-01     1.0000000000000000E+00     0.0000000000000000E+00 
    1.2500000000052031E-01     1.0000000000000000E+00     0.0000000000000000E+00 
    6.2500000000260125E-02     1.0000000000000000E+00     0.0000000000000000E+00 
    0.0000000000000000E+00     9.3749999999973976E-01     0.0000000000000000E+00 
    0.0000000000000000E+00     8.7499999999950118E-01     0.0000000000000000E+00 
    0.0000000000000000E+00     8.1249999999991318E-01     0.0000000000000000E+00 
    0.0000000000000000E+00     7.5000000000034706E-01     0.0000000000000000E+00 
    0.0000000000000000E+00     6.8750000000078049E-01     0.0000000000000000E+00 
    0.0000000000000000E+00     6.2500000000121403E-01     0.0000000000000000E+00 
    0.0000000000000000E+00     5.6250000000164757E-01     0.0000000000000000E+00 
    0.0000000000000000E+00     5.0000000000205946E-01     0.0000000000000000E+00 
    0.0000000000000000E+00     4.3750000000182099E-01     0.0000000000000000E+00 
    0.0000000000000000E+00     3.7500000000156092E-01     0.0000000000000000E+00 
    0.0000000000000000E+00     3.1250000000130068E-01     0.0000000000000000E+00 
    0.0000000000000000E+00     2.5000000000104050E-01     0.0000000000000000E+00 
    0.0000000000000000E+00     1.8750000000078040E-01     0.0000000000000000E+00 
    0.0000000000000000E+00     1.2500000000052031E-01     0.0000000000000000E+00 
    0.0000000000000000E+00     6.2500000000260125E-02     0.0000000000000000E+00 
    6.2499999999897131E-02     6.2500000000235922E-02     0.0000000000000000E+00 
    6.2499999999921327E-02     1.2500000000047351E-01     0.0000000000000000E+00 
    6.2499999999945530E-02     1.8750000000070621E-01     0.0000000000000000E+00 
    6.2499999999969733E-02     2.5000000000093858E-01     0.0000000000000000E+00 
    6.2499999999993928E-02     3.1250000000117117E-01     0.0000000000000000E+00 
    6.2500000000018124E-02     3.7500000000140382E-01     0.0000000000000000E+00 
    6.2500000000042327E-02     4.3750000000163619E-01     0.0000000000000000E+00 
    6.2500000000066530E-02     5.0000000000184897E-01     0.0000000000000000E+00 
    6.2500000000090733E-02     5.6250000000147260E-01     0.0000000000000000E+00 
    6.2500000000114922E-02     6.2500000000107636E-01     0.0000000000000000E+00 
    6.2500000000139125E-02     6.8750000000068034E-01     0.0000000000000000E+00 
    6.2500000000163328E-02     7.5000000000028411E-01     0.0000000000000000E+00 
    6.2500000000187531E-02     8.1249999999988787E-01     0.0000000000000000E+00 
    6.2500000000211720E-02     8.7499999999951172E-01     0.0000000000000000E+00 
    6.2500000000235922E-02     9.3749999999974565E-01     0.0000000000000000E+00 
    1.2499999999981980E-01     6.2500000000211733E-02     0.0000000000000000E+00 
    1.2499999999986650E-01     1.2500000000042691E-01     0.0000000000000000E+00 
    1.2499999999991319E-01     1.8750000000063199E-01     0.0000000000000000E+00 
    1.2499999999995989E-01     2.5000000000083678E-01     0.0000000000000000E+00 
    1.2500000000000661E-01     3.1250000000104172E-01     0.0000000000000000E+00 
    1.2500000000005329E-01     3.7500000000124661E-01     0.0000000000000000E+00 
    1.2500000000010000E-01     4.3750000000145117E-01     0.0000000000000000E+00 
    1.2500000000014669E-01     5.0000000000163858E-01     0.0000000000000000E+00 
    1.2500000000019340E-01     5.6250000000129741E-01     0.0000000000000000E+00 
    1.2500000000024011E-01     6.2500000000093847E-01     0.0000000000000000E+00 
    1.2500000000028680E-01     6.8750000000057998E-01     0.0000000000000000E+00 
    1.2500000000033351E-01     7.5000000000022127E-01     0.0000000000000000E+00 
    1.2500000000038020E-01     8.1249999999986211E-01     0.0000000000000000E+00 
    1.2500000000042691E-01     8.7499999999952238E-01     0.0000000000000000E+00 
    1.2500000000047359E-01     9.3749999999975164E-01     0.0000000000000000E+00 
    1.8749999999966760E-01     6.2500000000187531E-02     0.0000000000000000E+00 
    1.8749999999974179E-01     1.2500000000038020E-01     0.0000000000000000E+00 
    1.8749999999981601E-01     1.8750000000055780E-01     0.0000000000000000E+00 
    1.8749999999989009E-01     2.5000000000073502E-01     0.0000000000000000E+00 
    1.8749999999996431E-01     3.1250000000091221E-01     0.0000000000000000E+00 
    1.8750000000003850E-01     3.7500000000108941E-01     0.0000000000000000E+00 
    1.8750000000011269E-01     4.3750000000126649E-01     0.0000000000000000E+00 
    1.8750000000018691E-01     5.0000000000142808E-01     0.0000000000000000E+00 
    1.8750000000026110E-01     5.6250000000112244E-01     0.0000000000000000E+00 
    1.8750000000033529E-01     6.2500000000080080E-01     0.0000000000000000E+00 
    1.8750000000040951E-01     6.8750000000047962E-01     0.0000000000000000E+00 
    1.8750000000048361E-01     7.5000000000015843E-01     0.0000000000000000E+00 
    1.8750000000055780E-01     8.1249999999983680E-01     0.0000000000000000E+00 
    1.8750000000063199E-01     8.7499999999953304E-01     0.0000000000000000E+00 
    1.8750000000070621E-01     9.3749999999975764E-01     0.0000000000000000E+00 
    2.4999999999951281E-01     6.2500000000163314E-02     0.0000000000000000E+00 
    2.4999999999961461E-01     1.2500000000033351E-01     0.0000000000000000E+00 
    2.4999999999971650E-01     1.8750000000048361E-01     0.0000000000000000E+00 
    2.4999999999981831E-01     2.5000000000063310E-01     0.0000000000000000E+00 
    2.4999999999992020E-01     3.1250000000078260E-01     0.0000000000000000E+00 
    2.5000000000002198E-01     3.7500000000093209E-01     0.0000000000000000E+00 
    2.5000000000012390E-01     4.3750000000108180E-01     0.0000000000000000E+00 
    2.5000000000022571E-01     5.0000000000121769E-01     0.0000000000000000E+00 
    2.5000000000032763E-01     5.6250000000094724E-01     0.0000000000000000E+00 
    2.5000000000042938E-01     6.2500000000066314E-01     0.0000000000000000E+00 
    2.5000000000053119E-01     6.8750000000037925E-01     0.0000000000000000E+00 
[...]
CELL_DATA 256 
SCALARS Pressure double 1 
LOOKUP_TABLE default 

    1.0125647351593510E+00 
    1.0002997778202436E+00 
    9.8765866311557604E-01 
    9.7595725060377070E-01 
    9.6736666765820134E-01 
    9.6267835969923077E-01 
    9.5517417713042085E-01 
    9.4917430014678239E-01 
    9.4487355471976764E-01 
    9.4149829795314666E-01 
    9.3744255283115918E-01 
    9.3350345099219012E-01 
    9.2945818679535619E-01 
    9.2552819048649615E-01 
    9.2217191612479688E-01 
    9.1983575687455610E-01 
    9.6488763321963200E-01 
    9.6126306596405675E-01 
    9.5682461337689484E-01 
    9.5185743170938408E-01 
    9.4667208828659610E-01 
    9.4073429935900765E-01 
    9.3468757610099695E-01 
    9.3070504538418430E-01 
    9.2623942576206575E-01 
    9.2177968625418272E-01 
    9.1812713707878768E-01 
    9.1502961384925319E-01 
    9.1165482543594789E-01 
    9.0890795738772234E-01 
    9.0718151185061935E-01 
    9.0608485243933590E-01 
    9.2745320742170800E-01 
    9.2557576135837605E-01 
    9.2328762195567560E-01 
    9.2030441574184874E-01 
    9.1641191884703777E-01 
    9.1139992680681892E-01 
    9.0634757898551299E-01 
    9.0287720119810300E-01 
    8.9835275272712800E-01 
    8.9389833441551025E-01 
    8.9068724084212669E-01 
    8.8804089617354087E-01 
    8.8504394665444874E-01 
    8.8319456004263885E-01 
    8.8271294933096245E-01 
    8.8274237864379779E-01 
    8.8764327808779808E-01 
    8.8724101053561033E-01 
    8.8651286631278736E-01 
    8.8498311373886218E-01 
    8.8230162646179378E-01 
    8.7831175442452247E-01 
    8.7413941291924668E-01 
    8.7096236397688531E-01 
    8.6670457673725254E-01 
    8.6260915030588237E-01 
    8.5991684278743996E-01 
    8.5750911060230761E-01 
    8.5472784706128813E-01 
    8.5351308541649551E-01 
    8.5375515061997265E-01 
    8.5418731090593258E-01 
    8.5017761544826853E-01 
    8.5164535567459732E-01 
    8.5063992322451265E-01 
    8.4888402332799739E-01 
    8.4617573627357479E-01 
    8.4245007341665679E-01 
    8.3884378882161836E-01 
    8.3651330939491819E-01 
    8.3301027297386376E-01 
    8.2959840051148315E-01 
    8.2745164572738117E-01 
    8.2554970197120559E-01 
    8.2299941193296988E-01 
    8.2195294678571551E-01 
    8.2176941694978711E-01 
    8.2109579395019627E-01 
    8.1273733075944055E-01 
    8.1092025658415279E-01 
    8.0806665287157420E-01 
    8.0423299809802795E-01 
    8.0053375574318242E-01 
    7.9816933988949601E-01 
    7.9693622491273419E-01 
    7.9571558006911491E-01 
    7.9439850935215950E-01 
    7.9348374872330818E-01 
    7.9191652339018814E-01 
    7.8920706574252897E-01 
    7.8645909088045307E-01 
    7.8407638637007993E-01 
    7.8194408275404659E-01 
    7.8046505114828757E-01 
    7.5626993080567628E-01 
    7.5592971507579898E-01 
    7.5494351590932574E-01 
    7.5358821286745947E-01 
    7.5249158007049244E-01 
    7.5203656484856163E-01 
    7.5073019416800135E-01 
    7.4763260251879349E-01 
    7.4592666190911605E-01 
    7.4432612779966234E-01 
    7.4135515142891295E-01 
    7.3780119549361678E-01 
    7.3545890815823123E-01 
    7.3395971946017158E-01 
    7.3329422908965014E-01 
    7.3305198571813190E-01 
    7.0333476482993462E-01 
    7.0429858022787328E-01 
    7.0475746271743067E-01 
    7.0467599766546829E-01 
    7.0390868142677643E-01 
    7.0240744662499321E-01 
    6.9975838436972293E-01 
    6.9603025241715843E-01 
    6.9203246709127797E-01 
    6.8836600194089503E-01 
    6.8498545057763527E-01 
    6.8204972960744958E-01 
    6.7998780117404689E-01 
    6.7936255559981451E-01 
    6.8008992465937590E-01 
    6.8096614448918480E-01 
    6.5074336155452994E-01 
    6.5143733755213473E-01 
    6.5043797229832057E-01 
    6.4901579714213065E-01 
    6.4684336941601162E-01 
    6.4407126014694815E-01 
    6.4061004652728792E-01 
    6.3696570783832518E-01 
    6.3325096059925923E-01 
    6.3082123557970315E-01 
    6.2898094956901518E-01 
    6.2719934871233518E-01 
    6.2566133458434736E-01 
    6.2564838857759897E-01 
    6.2665816963003185E-01 
    6.2690312076863886E-01 
    5.8917881452729592E-01 
    5.8820587035677419E-01 
    5.8624459451558963E-01 
    5.8389846143911639E-01 
    5.8174075175003981E-01 
    5.7982446211452965E-01 
    5.7787246066015707E-01 
    5.7641404079639602E-01 
    5.7569567344126216E-01 
    5.7560455231703600E-01 
    5.7561718846632037E-01 
    5.7450122157276817E-01 
    5.7295409837275224E-01 
    5.7122770104511600E-01 
    5.6953569287528616E-01 
    5.6851845568928983E-01 
    5.2866369903818555E-01 
    5.2808924559945114E-01 
    5.2704260487958277E-01 
    5.2590490274677282E-01 
    5.2476279543235316E-01 
    5.2306509857231509E-01 
    5.2036412314764291E-01 
    5.1824073410472760E-01 
    5.1694798058893410E-01 
    5.1519390592084835E-01 
    5.1270986236677840E-01 
    5.1026023454977354E-01 
    5.0858595407394758E-01 
    5.0722138132651007E-01 
    5.0648536168161273E-01 
    5.0611155200536451E-01 
    4.7602458269650899E-01 
    4.7555877488936860E-01 
    4.7453560693856828E-01 
    4.7294994521551226E-01 
    4.7079724446898352E-01 
    4.6815386989753993E-01 
    4.6522424674005491E-01 
    4.6158155234126130E-01 
    4.5714396874990243E-01 
    4.5231054341741245E-01 
    4.4786112355132907E-01 
    4.4380305648759971E-01 
    4.4046229790755492E-01 
    4.3864168527304837E-01 
    4.3845046407259736E-01 
    4.3897635819113667E-01 
    4.2525756050996560E-01 
    4.2463113549797771E-01 
    4.2319812009389846E-01 
    4.2077551037271721E-01 
    4.1747286031869391E-01 
    4.1365447084710905E-01 
    4.0944832982016627E-01 
    4.0372087688356856E-01 
    3.9664604230291256E-01 
    3.8930955446511817E-01 
    3.8248781132215676E-01 
    3.7603725258806248E-01 
    3.7067769545228851E-01 
    3.6784355666202351E-01 
    3.6756495282416701E-01 
    3.6853222357941967E-01 
    3.7543878361635108E-01 
    3.7461301525402030E-01 
    3.7273262700874671E-01 
    3.6945410112222954E-01 
    3.6493057713685562E-01 
    3.5972648429304172E-01 
    3.5410406845655445E-01 
    3.4653845429264446E-01 
    3.3720568435216380E-01 
    3.2748901598470997E-01 
    3.1807288636767617E-01 
    3.0886071176070634E-01 
    3.0070534032508461E-01 
    2.9536670015957067E-01 
    2.9288212996679419E-01 
    2.9219188198948504E-01 
    3.2999757308413419E-01 
    3.2902888853260626E-01 
    3.2679831737439829E-01 
    3.2280329983389139E-01 
    3.1719462665331088E-01 
    3.1074706393001200E-01 
    3.0405070259996081E-01 
    2.9530961288789292E-01 
    2.8435841749202478E-01 
    2.7225944147210007E-01 
    2.5943511574896549E-01 
    2.4567185936989075E-01 
    2.3101966405339575E-01 
    2.1665213982752163E-01 
    2.0338813597263888E-01 
    1.9366206460760013E-01 
    3.0110593843911831E-01 
    2.9998349536387459E-01 
    2.9741923422604771E-01 
    2.9291509095988733E-01 
    2.8663197655159334E-01 
    2.7956316664311592E-01 
    2.7281604462380660E-01 
    2.6434261514389251E-01 
    2.5245406026480999E-01 
    2.3660026672368231E-01 
    2.1808748993140323E-01 
    1.9535446786025826E-01 
    1.6419230756650463E-01 
    1.2208810645467603E-01 
    6.7879581228457775E-02 
    0.0000000000000000E+00 

SCALARS Saturarion double 1 
LOOKUP_TABLE default 

    1.0000000005702534E+00 
    9.6297455930294384E-01 
    9.0407614695632577E-01 
    8.4744157013677957E-01 
    7.9029142626307092E-01 
    7.3736758510969047E-01 
    6.8433263470345418E-01 
    6.3369500996703820E-01 
    5.7879871093362356E-01 
    5.2612649304642201E-01 
    4.7889779986496300E-01 
    4.2125431764713206E-01 
    6.7486580341043212E-02 
    1.0000050442966223E-06 
    1.0000000000040708E-06 
    9.9999999999999995E-07 
    9.1726691037797936E-01 
    8.9774704586686038E-01 
    8.5488557729956272E-01 
    8.0817955574479783E-01 
    7.6110965213750115E-01 
    7.1400312583965853E-01 
    6.6895774273581921E-01 
    6.2586952853175448E-01 
    5.7842415693522042E-01 
    5.3228850463993505E-01 
    4.8827350041787204E-01 
    4.2928908282396172E-01 
    7.6690363977222648E-02 
    7.5255008074974043E-06 
    1.0000064407966006E-06 
    9.9999999999999995E-07 
    7.9920538353914394E-01 
    7.9159508580117877E-01 
    7.7009240049695649E-01 
    7.4150290271237418E-01 
    7.0998508463985477E-01 
    6.7468007710808531E-01 
    6.4018361897073417E-01 
    6.0467832528456200E-01 
    5.6691710748667423E-01 
    5.2680404096540345E-01 
    4.8501787087143539E-01 
    4.1790871853763173E-01 
    6.0005123750913852E-02 
    1.3977042759089852E-05 
    1.0000152397601332E-06 
    9.9999999999999847E-07 
    7.0608013422565430E-01 
    7.0108278143046265E-01 
    6.8901448590522851E-01 
    6.7169846064781058E-01 
    6.5392873708797383E-01 
    6.3151412171324361E-01 
    6.0440569018968016E-01 
    5.7713037308407023E-01 
    5.4804873732159509E-01 
    5.1262389105674155E-01 
    4.7555631637191753E-01 
    3.7797287002358465E-01 
    2.4365501697596534E-02 
    1.0140095424844350E-05 
    1.0000053577990898E-06 
    1.0000000000000004E-06 
    6.3498895734458227E-01 
    6.3202858809964013E-01 
    6.2441585316214876E-01 
    6.1119313470050773E-01 
    5.9789263073936294E-01 
    5.8390290952664070E-01 
    5.6385804293129982E-01 
    5.4146529852124792E-01 
    5.1980129657248553E-01 
    4.9145077858573771E-01 
    4.5738071597042335E-01 
    2.7744915866252745E-01 
    2.7533439134708850E-03 
    1.1484053693174684E-06 
    1.0000000172220494E-06 
    9.9999999999999995E-07 
    5.7889585843269442E-01 
    5.7624446395788975E-01 
    5.7073665085484115E-01 
    5.6490045480614126E-01 
    5.5423086589357051E-01 
    5.3990995088955673E-01 
    5.2335518399257142E-01 
    5.0364307781834150E-01 
    4.8503442047496453E-01 
    4.6525109434816453E-01 
    4.1122072981926228E-01 
    1.1261079533455126E-01 
    3.0807246386451657E-04 
    1.0111855679225199E-06 
    1.0000000000000105E-06 
    9.9999999999999995E-07 
    5.2415543936951936E-01 
    5.2171920846238218E-01 
    5.1689734328970127E-01 
    5.1234733345334738E-01 
    5.1006925222389465E-01 
    4.9955522757407045E-01 
    4.8625867836316256E-01 
    4.6952760731817855E-01 
    4.4359216837837306E-01 
    3.9044531928188297E-01 
    1.8347329358273248E-01 
    3.9552850872457881E-03 
    1.3313312762764923E-06 
    1.0000000205757895E-06 
    1.0000000000000012E-06 
    9.9999999999999995E-07 
    4.7275149963029522E-01 
    4.7038387292513562E-01 
    4.6648887014091306E-01 
    4.6212502314971338E-01 
    4.6192612769539454E-01 
    4.5884066329618639E-01 
    4.4798999965408215E-01 
    4.2062116796276944E-01 
    2.9999296880198345E-01 
    8.0623055765932358E-02 
    1.6690385582440249E-03 
    1.5136606670578728E-06 
    1.0000002174380329E-06 
    1.0000000000000254E-06 
    9.9999999999999995E-07 
    9.9999999999999995E-07 
    4.0929739402470239E-01 
    4.0316868074920609E-01 
    3.8858475620679589E-01 
    3.6019450866195390E-01 
    3.4002453925194515E-01 
    3.2090926774414152E-01 
    2.5391384009746532E-01 
    1.3205883160700541E-01 
    1.8232788294943229E-02 
    2.6586283255586454E-04 
    1.2833341476275508E-06 
    1.0000002385509369E-06 
    1.0000000000000607E-06 
    9.9999999999999995E-07 
    9.9999999999999995E-07 
    9.9999999999999995E-07 
    5.2734287406352130E-02 
    3.8347783157276771E-02 
    2.0134261787691832E-02 
    6.5198769416854995E-03 
    2.9899740958731426E-03 
    2.6051311222399795E-03 
    1.0118313908478711E-03 
    2.3795905698210021E-04 
    1.8197072119066933E-05 
    1.0125353242118508E-06 
    1.0000000463785989E-06 
    1.0000000000000544E-06 
    9.9999999999999995E-07 
    9.9999999999999995E-07 
    9.9999999999999995E-07 
    9.9999999999999995E-07 
    1.0000005996377833E-06 
    3.1800051306209919E-06 
    2.4441247790860482E-06 
    1.4506487303924730E-06 
    1.0245114940330346E-06 
    1.0265619316000649E-06 
    1.0457667259277509E-06 
    1.0192380285948717E-06 
    1.0000275103365025E-06 
    1.0000000000019037E-06 
    1.0000000000000156E-06 
    9.9999999999999995E-07 
    9.9999999999999995E-07 
    9.9999999999999995E-07 
    9.9999999999999995E-07 
    9.9999999999999995E-07 
    1.0000000000004038E-06 
    1.0000013056952702E-06 
    1.0000005148411667E-06 
    1.0000000907149361E-06 
    1.0000000048478397E-06 
    1.0000000049412888E-06 
    1.0000000041042361E-06 
    1.0000000000000014E-06 
    1.0000000000000021E-06 
    9.9999999999999995E-07 
    9.9999999999999995E-07 
    9.9999999999999995E-07 
    9.9999999999999995E-07 
    9.9999999999999995E-07 
    9.9999999999999995E-07 
    9.9999999999999995E-07 
    9.9999999999999995E-07 
    1.0000000000000036E-06 
    9.9999999999999974E-07 
    9.9999999999999974E-07 
    9.9999999999999995E-07 
    1.0000000000000002E-06 
    1.0000000000000004E-06 
    9.9999999999999995E-07 
    9.9999999999999995E-07 
    9.9999999999999995E-07 
    9.9999999999999995E-07 
    9.9999999999999995E-07 
    9.9999999999999995E-07 
    9.9999999999999995E-07 
    9.9999999999999995E-07 
    9.9999999999999995E-07 
    9.9999999999999995E-07 
    9.9999999999999995E-07 
    9.9999999999999995E-07 
    9.9999999999999995E-07 
    9.9999999999999995E-07 
    9.9999999999999995E-07 
    9.9999999999999995E-07 
    9.9999999999999995E-07 
    9.9999999999999995E-07 
    9.9999999999999995E-07 
    9.9999999999999995E-07 
    9.9999999999999995E-07 
    9.9999999999999995E-07 
    9.9999999999999995E-07 
    9.9999999999999995E-07 
    9.9999999999999995E-07 
    9.9999999999999995E-07 
    9.9999999999999995E-07 
    9.9999999999999995E-07 
    9.9999999999999995E-07 
    9.9999999999999995E-07 
    9.9999999999999995E-07 
    9.9999999999999995E-07 
    9.9999999999999995E-07 
    9.9999999999999995E-07 
    9.9999999999999995E-07 
    9.9999999999999995E-07 
    9.9999999999999995E-07 
    9.9999999999999995E-07 
    9.9999999999999995E-07 
    9.9999999999999995E-07 
    9.9999999999999995E-07 
    9.9999999999999995E-07 
    9.9999999999999995E-07 
    9.9999999999999995E-07 
    9.9999999999999995E-07 
    9.9999999999999995E-07 
    9.9999999999999995E-07 
    9.9999999999999995E-07 
    9.9999999999999995E-07 
    9.9999999999999995E-07 
    9.9999999999999995E-07 
    9.9999999999999995E-07 
    9.9999999999999995E-07 
    9.9999999999999995E-07 
    9.9999999999999995E-07 
    9.9999999999999995E-07 
    1.0000000604428097E-06 
