# vtk DataFile Version 2.0
Pressure Field Data 
ASCII 
DATASET UNSTRUCTURED_GRID 

POINTS 289 double 

    0.0000000000000000E+00     0.0000000000000000E+00     0.0000000000000000E+00 
    1.0000000000000000E+00     0.0000000000000000E+00     0.0000000000000000E+00 
    1.0000000000000000E+00     1.0000000000000000E+00     0.0000000000000000E+00 
    0.0000000000000000E+00     1.0000000000000000E+00     0.0000000000000000E+00 
    6.2499999999872928E-02     0.0000000000000000E+00     0.0000000000000000E+00 
    1.2499999999977310E-01     0.0000000000000000E+00     0.0000000000000000E+00 
    1.8749999999959341E-01     0.0000000000000000E+00     0.0000000000000000E+00 
    2.4999999999941089E-01     0.0000000000000000E+00     0.0000000000000000E+00 
    3.1249999999922851E-01     0.0000000000000000E+00     0.0000000000000000E+00 
    3.7499999999904610E-01     0.0000000000000000E+00     0.0000000000000000E+00 
    4.3749999999886358E-01     0.0000000000000000E+00     0.0000000000000000E+00 
    4.9999999999869210E-01     0.0000000000000000E+00     0.0000000000000000E+00 
    5.6249999999884603E-01     0.0000000000000000E+00     0.0000000000000000E+00 
    6.2499999999901090E-01     0.0000000000000000E+00     0.0000000000000000E+00 
    6.8749999999917577E-01     0.0000000000000000E+00     0.0000000000000000E+00 
    7.4999999999934064E-01     0.0000000000000000E+00     0.0000000000000000E+00 
    8.1249999999950551E-01     0.0000000000000000E+00     0.0000000000000000E+00 
    8.7499999999967026E-01     0.0000000000000000E+00     0.0000000000000000E+00 
    9.3749999999983513E-01     0.0000000000000000E+00     0.0000000000000000E+00 
    1.0000000000000000E+00     6.2499999999872928E-02     0.0000000000000000E+00 
    1.0000000000000000E+00     1.2499999999977310E-01     0.0000000000000000E+00 
    1.0000000000000000E+00     1.8749999999959341E-01     0.0000000000000000E+00 
    1.0000000000000000E+00     2.4999999999941089E-01     0.0000000000000000E+00 
    1.0000000000000000E+00     3.1249999999922851E-01     0.0000000000000000E+00 
    1.0000000000000000E+00     3.7499999999904610E-01     0.0000000000000000E+00 
    1.0000000000000000E+00     4.3749999999886358E-01     0.0000000000000000E+00 
    1.0000000000000000E+00     4.9999999999869210E-01     0.0000000000000000E+00 
    1.0000000000000000E+00     5.6249999999884603E-01     0.0000000000000000E+00 
    1.0000000000000000E+00     6.2499999999901090E-01     0.0000000000000000E+00 
    1.0000000000000000E+00     6.8749999999917577E-01     0.0000000000000000E+00 
    1.0000000000000000E+00     7.4999999999934064E-01     0.0000000000000000E+00 
    1.0000000000000000E+00     8.1249999999950551E-01     0.0000000000000000E+00 
    1.0000000000000000E+00     8.7499999999967026E-01     0.0000000000000000E+00 
    1.0000000000000000E+00     9.3749999999983513E-01     0.0000000000000000E+00 
    9.3749999999973976E-01     1.0000000000000000E+00     0.0000000000000000E+00 
    8.7499999999950118E-01     1.0000000000000000E+00     0.0000000000000000E+00 
    8.1249999999991318E-01     1.0000000000000000E+00     0.0000000000000000E+00 
    7.5000000000034706E-01     1.0000000000000000E+00     0.0000000000000000E+00 
    6.8750000000078049E-01     1.0000000000000000E+00     0.0000000000000000E+00 
    6.2500000000121403E-01     1.0000000000000000E+00     0.0000000000000000E+00 
    5.6250000000164757E-01     1.0000000000000000E+00     0.0000000000000000E+00 
    5.0000000000205946E-01     1.0000000000000000E+00     0.0000000000000000E+00 
    4.3750000000182099E-01     1.0000000000000000E+00     0.0000000000000000E+00 
    3.7500000000156092E-01     1.0000000000000000E+00     0.0000000000000000E+00 
    3.1250000000130068E-01     1.0000000000000000E+00     0.0000000000000000E+00 
    2.5000000000104050E-01     1.0000000000000000E+00     0.0000000000000000E+00 
    1.8750000000078040E-01     1.0000000000000000E+00     0.0000000000000000E+00 
    1.2500000000052031E-01     1.0000000000000000E+00     0.0000000000000000E+00 
    6.2500000000260125E-02     1.0000000000000000E+00     0.0000000000000000E+00 
    0.0000000000000000E+00     9.3749999999973976E-01     0.0000000000000000E+00 
    0.0000000000000000E+00     8.7499999999950118E-01     0.0000000000000000E+00 
    0.0000000000000000E+00     8.1249999999991318E-01     0.0000000000000000E+00 
    0.0000000000000000E+00     7.5000000000034706E-01     0.0000000000000000E+00 
    0.0000000000000000E+00     6.8750000000078049E-01     0.0000000000000000E+00 
    0.0000000000000000E+00     6.2500000000121403E-01     0.0000000000000000E+00 
    0.0000000000000000E+00     5.6250000000164757E-01     0.0000000000000000E+00 
    0.0000000000000000E+00     5.0000000000205946E-01     0.0000000000000000E+00 
    0.0000000000000000E+00     4.3750000000182099E-01     0.0000000000000000E+00 
    0.0000000000000000E+00     3.7500000000156092E-01     0.0000000000000000E+00 
    0.0000000000000000E+00     3.1250000000130068E-01     0.0000000000000000E+00 
    0.0000000000000000E+00     2.5000000000104050E-01     0.0000000000000000E+00 
    0.0000000000000000E+00     1.8750000000078040E-01     0.0000000000000000E+00 
    0.0000000000000000E+00     1.2500000000052031E-01     0.0000000000000000E+00 
    0.0000000000000000E+00     6.2500000000260125E-02     0.0000000000000000E+00 
    6.2499999999897131E-02     6.2500000000235922E-02     0.0000000000000000E+00 
    6.2499999999921327E-02     1.2500000000047351E-01     0.0000000000000000E+00 
    6.2499999999945530E-02     1.8750000000070621E-01     0.0000000000000000E+00 
    6.2499999999969733E-02     2.5000000000093858E-01     0.0000000000000000E+00 
    6.2499999999993928E-02     3.1250000000117117E-01     0.0000000000000000E+00 
    6.2500000000018124E-02     3.7500000000140382E-01     0.0000000000000000E+00 
    6.2500000000042327E-02     4.3750000000163619E-01     0.0000000000000000E+00 
    6.2500000000066530E-02     5.0000000000184897E-01     0.0000000000000000E+00 
    6.2500000000090733E-02     5.6250000000147260E-01     0.0000000000000000E+00 
    6.2500000000114922E-02     6.2500000000107636E-01     0.0000000000000000E+00 
    6.2500000000139125E-02     6.8750000000068034E-01     0.0000000000000000E+00 
    6.2500000000163328E-02     7.5000000000028411E-01     0.0000000000000000E+00 
    6.2500000000187531E-02     8.1249999999988787E-01     0.0000000000000000E+00 
    6.2500000000211720E-02     8.7499999999951172E-01     0.0000000000000000E+00 
    6.2500000000235922E-02     9.3749999999974565E-01     0.0000000000000000E+00 
    1.2499999999981980E-01     6.2500000000211733E-02     0.0000000000000000E+00 
    1.2499999999986650E-01     1.2500000000042691E-01     0.0000000000000000E+00 
    1.2499999999991319E-01     1.8750000000063199E-01     0.0000000000000000E+00 
    1.2499999999995989E-01     2.5000000000083678E-01     0.0000000000000000E+00 
    1.2500000000000661E-01     3.1250000000104172E-01     0.0000000000000000E+00 
    1.2500000000005329E-01     3.7500000000124661E-01     0.0000000000000000E+00 
    1.2500000000010000E-01     4.3750000000145117E-01     0.0000000000000000E+00 
    1.2500000000014669E-01     5.0000000000163858E-01     0.0000000000000000E+00 
    1.2500000000019340E-01     5.6250000000129741E-01     0.0000000000000000E+00 
    1.2500000000024011E-01     6.2500000000093847E-01     0.0000000000000000E+00 
    1.2500000000028680E-01     6.8750000000057998E-01     0.0000000000000000E+00 
    1.2500000000033351E-01     7.5000000000022127E-01     0.0000000000000000E+00 
    1.2500000000038020E-01     8.1249999999986211E-01     0.0000000000000000E+00 
    1.2500000000042691E-01     8.7499999999952238E-01     0.0000000000000000E+00 
    1.2500000000047359E-01     9.3749999999975164E-01     0.0000000000000000E+00 
    1.8749999999966760E-01     6.2500000000187531E-02     0.0000000000000000E+00 
    1.8749999999974179E-01     1.2500000000038020E-01     0.0000000000000000E+00 
    1.8749999999981601E-01     1.8750000000055780E-01     0.0000000000000000E+00 
    1.8749999999989009E-01     2.5000000000073502E-01     0.0000000000000000E+00 
    1.8749999999996431E-01     3.1250000000091221E-01     0.0000000000000000E+00 
    1.8750000000003850E-01     3.7500000000108941E-01     0.0000000000000000E+00 
    1.8750000000011269E-01     4.3750000000126649E-01     0.0000000000000000E+00 
    1.8750000000018691E-01     5.0000000000142808E-01     0.0000000000000000E+00 
    1.8750000000026110E-01     5.6250000000112244E-01     0.0000000000000000E+00 
    1.8750000000033529E-01     6.2500000000080080E-01     0.0000000000000000E+00 
    1.8750000000040951E-01     6.8750000000047962E-01     0.0000000000000000E+00 
    1.8750000000048361E-01     7.5000000000015843E-01     0.0000000000000000E+00 
    1.8750000000055780E-01     8.1249999999983680E-01     0.0000000000000000E+00 
    1.8750000000063199E-01     8.7499999999953304E-01     0.0000000000000000E+00 
    1.8750000000070621E-01     9.3749999999975764E-01     0.0000000000000000E+00 
    2.4999999999951281E-01     6.2500000000163314E-02     0.0000000000000000E+00 
    2.4999999999961461E-01     1.2500000000033351E-01     0.0000000000000000E+00 
    2.4999999999971650E-01     1.8750000000048361E-01     0.0000000000000000E+00 
    2.4999999999981831E-01     2.5000000000063310E-01     0.0000000000000000E+00 
    2.4999999999992020E-01     3.1250000000078260E-01     0.0000000000000000E+00 
    2.5000000000002198E-01     3.7500000000093209E-01     0.0000000000000000E+00 
    2.5000000000012390E-01     4.3750000000108180E-01     0.0000000000000000E+00 
    2.5000000000022571E-01     5.0000000000121769E-01     0.0000000000000000E+00 
    2.5000000000032763E-01     5.6250000000094724E-01     0.0000000000000000E+00 
    2.5000000000042938E-01     6.2500000000066314E-01     0.0000000000000000E+00 
    2.5000000000053119E-01     6.8750000000037925E-01     0.0000000000000000E+00 
[...]
CELL_DATA 256 
SCALARS Pressure double 1 
LOOKUP_TABLE default 

    8.6768225207119265E-01 
    8.5541714994618556E-01 
    8.4320374754143135E-01 
    8.3216727062597895E-01 
    8.2421615230982348E-01 
    8.2085189479467147E-01 
    8.1483420822103059E-01 
    8.0990008247471135E-01 
    8.0646387958031640E-01 
    8.0447181253113442E-01 
    8.0184255474631938E-01 
    7.9926721194900918E-01 
    7.9651055450920871E-01 
    7.9353021188044792E-01 
    7.9082789125728359E-01 
    7.8910095394779833E-01 
    8.2301553295094343E-01 
    8.1963447109181853E-01 
    8.1563251621091781E-01 
    8.1131614686569509E-01 
    8.0705252080389178E-01 
    8.0233938947617167E-01 
    7.9728893759723685E-01 
    7.9431172275322093E-01 
    7.9110350637643501E-01 
    7.8786075478122564E-01 
    7.8505705002658310E-01 
    7.8301725046434356E-01 
    7.8094493682748867E-01 
    7.7927354095224610E-01 
    7.7806283244393604E-01 
    7.7724917670130678E-01 
    7.9037892088896178E-01 
    7.8881919732265482E-01 
    7.8700471083162560E-01 
    7.8475544537934583E-01 
    7.8192490776377777E-01 
    7.7816602425040626E-01 
    7.7398470077323966E-01 
    7.7149585975778368E-01 
    7.6827857766934027E-01 
    7.6489657315087645E-01 
    7.6224666248384365E-01 
    7.6062245594697098E-01 
    7.5896054564388604E-01 
    7.5803292290126123E-01 
    7.5774698427966802E-01 
    7.5772528914782389E-01 
    7.5711112884861598E-01 
    7.5693476843206264E-01 
    7.5661457420881706E-01 
    7.5581273447754349E-01 
    7.5423300196387433E-01 
    7.5147108784037830E-01 
    7.4805778763439390E-01 
    7.4583796240941902E-01 
    7.4282032580362223E-01 
    7.3961699197257968E-01 
    7.3728928576398911E-01 
    7.3606137348628653E-01 
    7.3474807859655511E-01 
    7.3428762559490690E-01 
    7.3454247810465134E-01 
    7.3485043553194362E-01 
    7.2642233578623483E-01 
    7.2848417064635274E-01 
    7.2835942668757792E-01 
    7.2763794868681997E-01 
    7.2618990440609099E-01 
    7.2352550118476633E-01 
    7.2033487973367272E-01 
    7.1890680005651497E-01 
    7.1651838505258292E-01 
    7.1366642426694760E-01 
    7.1168623786340235E-01 
    7.1130706845538627E-01 
    7.1024132470358659E-01 
    7.0980978387546134E-01 
    7.0977780429795811E-01 
    7.0941059310689925E-01 
    7.0083368086322595E-01 
    6.9935873201260268E-01 
    6.9708139511691392E-01 
    6.9385850592009668E-01 
    6.9046989480239851E-01 
    6.8815396645402527E-01 
    6.8710324631782249E-01 
    6.8660436491240429E-01 
    6.8600366866403883E-01 
    6.8600146719659016E-01 
    6.8596731823641943E-01 
    6.8515618501627717E-01 
    6.8346828354384270E-01 
    6.8181338851285744E-01 
    6.8042781823475385E-01 
    6.7961934608700036E-01 
    6.5525034435101648E-01 
    6.5491639221465525E-01 
    6.5407819052486071E-01 
    6.5287480174676027E-01 
    6.5186246772475709E-01 
    6.5186150177630375E-01 
    6.5204977502838612E-01 
    6.4988872507227935E-01 
    6.4910833548722513E-01 
    6.4933257632115204E-01 
    6.4935940388081748E-01 
    6.4796339947890147E-01 
    6.4717664875281711E-01 
    6.4653715333837847E-01 
    6.4619729602969012E-01 
    6.4602453382039293E-01 
    6.1316324145414780E-01 
    6.1406903767740839E-01 
    6.1470491724487553E-01 
    6.1506793833335172E-01 
    6.1514204775706094E-01 
    6.1493806552444374E-01 
    6.1415821415040273E-01 
    6.1291128941930528E-01 
    6.1169067281538592E-01 
    6.1077716168210916E-01 
    6.0997554359278217E-01 
    6.0925368709150063E-01 
    6.0864970625602210E-01 
    6.0856173673895264E-01 
    6.0906006419445335E-01 
    6.0931626485874379E-01 
    5.7656424480437329E-01 
    5.7838405573788876E-01 
    5.7841241880276972E-01 
    5.7822527448812755E-01 
    5.7753458987161588E-01 
    5.7617951020807334E-01 
    5.7443424673000976E-01 
    5.7358010121264591E-01 
    5.7210600629791397E-01 
    5.7103688926592500E-01 
    5.7055351971372037E-01 
    5.7072960835542197E-01 
    5.7026442090816964E-01 
    5.7026156677034523E-01 
    5.7055263129393963E-01 
    5.6997073449548408E-01 
    5.4195777008943691E-01 
    5.4119848041398499E-01 
    5.3958642101377507E-01 
    5.3731046231290336E-01 
    5.3501383995909524E-01 
    5.3323660966782305E-01 
    5.3181461428008725E-01 
    5.3086101122676477E-01 
    5.3044591840819044E-01 
    5.3112946361608426E-01 
    5.3212683670346528E-01 
    5.3156289397973033E-01 
    5.2994592202387880E-01 
    5.2799415454931387E-01 
    5.2608249760056369E-01 
    5.2495400399254655E-01 
    5.0124035938670852E-01 
    5.0047206747785167E-01 
    4.9911073664979955E-01 
    4.9741914645857965E-01 
    4.9590289645030416E-01 
    4.9451110707899859E-01 
    4.9202501363541196E-01 
    4.8901552667343773E-01 
    4.8739797698324322E-01 
    4.8603690041604014E-01 
    4.8370822266820940E-01 
    4.8059044784207189E-01 
    4.7812799090532193E-01 
    4.7604165851730246E-01 
    4.7514753574038043E-01 
    4.7497899931030907E-01 
    4.6396884720799797E-01 
    4.6340496811164650E-01 
    4.6235328196709807E-01 
    4.6070400848852927E-01 
    4.5836026954113618E-01 
    4.5528118780664212E-01 
    4.5189717739501750E-01 
    4.4810303648658217E-01 
    4.4316490132338060E-01 
    4.3723945640959033E-01 
    4.3154108448190842E-01 
    4.2662253220041341E-01 
    4.2181564050269549E-01 
    4.1874489597601178E-01 
    4.1837762790906707E-01 
    4.1923122022492887E-01 
    4.2494086434817591E-01 
    4.2431201274879526E-01 
    4.2302319366918828E-01 
    4.2070503621715488E-01 
    4.1723156111950632E-01 
    4.1294063317322766E-01 
    4.0842963369787944E-01 
    4.0253231726940969E-01 
    3.9442555106441946E-01 
    3.8529613327081380E-01 
    3.7692029511140218E-01 
    3.6949652994908694E-01 
    3.6214325088438465E-01 
    3.5760116425015598E-01 
    3.5699318837829125E-01 
    3.5817571046310320E-01 
    3.7941936589043801E-01 
    3.7861282867838669E-01 
    3.7683308954616318E-01 
    3.7362359631236303E-01 
    3.6904368588011760E-01 
    3.6367954069704606E-01 
    3.5792844356410064E-01 
    3.5017579780653590E-01 
    3.4014301057462032E-01 
    3.2937183432517164E-01 
    3.1902148021205495E-01 
    3.0877631010959722E-01 
    2.9845973480027788E-01 
    2.9147196247317181E-01 
    2.8861556142213401E-01 
    2.8788922252812615E-01 
    3.3150596668016080E-01 
    3.3051835879166241E-01 
    3.2825354619967473E-01 
    3.2419669530458922E-01 
    3.1850480840735224E-01 
    3.1194413211545158E-01 
    3.0511287767994272E-01 
    2.9639581341499677E-01 
    2.8550377332777854E-01 
    2.7339083652171592E-01 
    2.6030194229824766E-01 
    2.4582302366785974E-01 
    2.3024697375781564E-01 
    2.1539198771355869E-01 
    2.0196352616086308E-01 
    1.9198876557335631E-01 
    3.0113768069529351E-01 
    2.9999867227907484E-01 
    2.9737596290781410E-01 
    2.9274427624897398E-01 
    2.8625901420462185E-01 
    2.7897609989400601E-01 
    2.7215831718745176E-01 
    2.6404211986932691E-01 
    2.5267816564235590E-01 
    2.3727426278673944E-01 
    2.1873298778516467E-01 
    1.9566087673382368E-01 
    1.6442952640426842E-01 
    1.2241225007670445E-01 
    6.8000435511259283E-02 
    0.0000000000000000E+00 

SCALARS Saturarion double 1 
LOOKUP_TABLE default 

    1.0000000000902034E+00 
    9.7987621418316484E-01 
    9.4442465606337089E-01 
    9.0626615025773349E-01 
    8.6567694910015680E-01 
    8.2288934435119998E-01 
    7.7800985861228455E-01 
    7.3212110198794678E-01 
    6.8265769095197226E-01 
    6.3701269304507779E-01 
    5.9270095114452503E-01 
    5.5112205118120283E-01 
    5.1250741401374000E-01 
    4.7026385599876541E-01 
    3.3426622309472592E-01 
    8.1983847666423741E-03 
    9.4861735211042386E-01 
    9.3554746628208918E-01 
    9.0745104472082361E-01 
    8.7456699010144101E-01 
    8.3898421599801298E-01 
    8.0029500570208179E-01 
    7.6201436613926610E-01 
    7.2205058779566844E-01 
    6.7726309874824353E-01 
    6.3319864719084751E-01 
    5.8885404782826589E-01 
    5.4416810583627273E-01 
    5.0044438821082571E-01 
    4.4914897851543550E-01 
    1.8586076818710726E-01 
    1.0829243147272833E-04 
    8.6408281842303114E-01 
    8.5775117449547100E-01 
    8.4118978065191430E-01 
    8.1784955628308798E-01 
    7.9178324959133406E-01 
    7.6269494939203353E-01 
    7.3215493443178714E-01 
    7.0019208364926000E-01 
    6.6480834168631708E-01 
    6.2506138254731447E-01 
    5.8281228168593024E-01 
    5.3911794494019682E-01 
    4.9251470431598138E-01 
    4.2534566476836122E-01 
    7.0501227414016543E-02 
    3.8734165567696325E-05 
    7.8894258573503973E-01 
    7.8491766611051439E-01 
    7.7519680879628006E-01 
    7.6053781262552556E-01 
    7.4365427940963713E-01 
    7.2312671620954949E-01 
    6.9950798392035707E-01 
    6.7485509126052712E-01 
    6.4754933244217638E-01 
    6.1273898289396467E-01 
    5.7262503161662581E-01 
    5.2837737079542335E-01 
    4.8098119068639816E-01 
    3.7639854603478723E-01 
    1.4910915203030731E-02 
    3.3724198931545913E-06 
    7.3065683358248157E-01 
    7.2727718267569286E-01 
    7.2007072402797101E-01 
    7.0989643355062537E-01 
    6.9590565218390499E-01 
    6.8234902580839785E-01 
    6.6518386341018876E-01 
    6.4623201513970774E-01 
    6.2574311510083691E-01 
    5.9686719414060119E-01 
    5.6067423535660121E-01 
    5.1759690252114232E-01 
    4.6822006203522409E-01 
    3.0574016914366187E-01 
    2.1371012561803952E-03 
    1.0354402922321939E-06 
    6.8413135708146533E-01 
    6.8201802992657268E-01 
    6.7671525680650424E-01 
    6.7038256112438355E-01 
    6.5884952472710778E-01 
    6.4520063540428807E-01 
    6.3110430055631983E-01 
    6.1324328523906368E-01 
    5.9679618732650286E-01 
    5.7593526163643471E-01 
    5.4664913475358146E-01 
    5.0992994920455981E-01 
    4.6301405062763601E-01 
    2.6180525651274866E-01 
    1.8934578483792365E-04 
    1.0004646399322675E-06 
    6.4190657845418930E-01 
    6.4003310797545487E-01 
    6.3589453964897913E-01 
    6.3040718978911325E-01 
    6.2754741319981100E-01 
    6.1446291110249784E-01 
    6.0084378272865557E-01 
    5.8375057217360671E-01 
    5.6534145160083638E-01 
    5.4968548989613109E-01 
    5.2605967759836358E-01 
    4.9612873539170116E-01 
    4.5443867271539956E-01 
    1.9899594330127446E-01 
    7.7265794557072290E-05 
    1.0005750699589854E-06 
    6.0296294519172233E-01 
    6.0086238590570407E-01 
    5.9691887478418093E-01 
    5.9169895672320294E-01 
    5.9561666199347052E-01 
    5.8662949710613244E-01 
    5.7439861249183966E-01 
    5.5968264974177984E-01 
    5.3959279430694029E-01 
    5.2439336302768891E-01 
    5.0279264777970523E-01 
    4.7619076279276773E-01 
    4.2955762537889441E-01 
    8.0962931777980293E-02 
    3.6540735933111406E-05 
    1.0000385492366143E-06 
    5.6877469123618196E-01 
    5.6694602881567480E-01 
    5.6351688447336212E-01 
    5.5907113152368271E-01 
    5.6373690056933556E-01 
    5.5986726567449929E-01 
    5.4953688297577208E-01 
    5.3746543767647270E-01 
    5.2124184110228322E-01 
    5.0295877194601191E-01 
    4.8474183355047001E-01 
    4.5869368857548243E-01 
    3.8230956620569656E-01 
    3.6073675611385983E-02 
    2.0198651044841117E-05 
    1.0000598379668799E-06 
    5.4097904459240675E-01 
    5.3959490342635330E-01 
    5.3649552617497753E-01 
    5.3291243432080682E-01 
    5.3187381789624844E-01 
    5.3313228725648487E-01 
    5.2472886810163955E-01 
    5.1470532750443743E-01 
    5.0355442421977714E-01 
    4.8492243928215806E-01 
    4.7137426067308957E-01 
    4.4915783664222408E-01 
    3.0642677576494304E-01 
    5.3823226160496611E-03 
    1.6032746959933708E-06 
    1.0000000504762918E-06 
    5.1364563729125567E-01 
    5.1254400276406376E-01 
    5.1001917367614336E-01 
    5.0727208214461361E-01 
    5.0465582243866447E-01 
    5.0548696076111399E-01 
    5.0105984076554178E-01 
    4.9397822951382808E-01 
    4.8460233259076235E-01 
    4.7070272668029861E-01 
    4.5787512903035643E-01 
    4.3808556543181160E-01 
    2.5716488053896935E-01 
    3.0094826988045874E-04 
    1.0163386484132677E-06 
    1.0000000009500003E-06 
    4.8524955997575869E-01 
    4.8456074874052535E-01 
    4.8236883722283991E-01 
    4.8054410976920603E-01 
    4.7923893515551608E-01 
    4.7743259917979330E-01 
    4.7769953948761618E-01 
    4.7543192417416880E-01 
    4.6875778869294643E-01 
    4.6003764016833826E-01 
    4.4667495741925012E-01 
    4.2626276532348994E-01 
    2.5204766303575238E-01 
    1.5165478022877746E-04 
    1.0084023178013834E-06 
    1.0000000000457554E-06 
    4.5238690664298181E-01 
    4.5285973972950527E-01 
    4.5210664554971525E-01 
    4.5114814462769415E-01 
    4.4935219580099883E-01 
    4.4810074138313977E-01 
    4.4874188896551109E-01 
    4.4961459446008856E-01 
    4.5077241327838335E-01 
    4.4636250316255782E-01 
    4.3811314945500623E-01 
    4.1658243080547031E-01 
    2.5208415805806178E-01 
    1.3348944196041193E-03 
    1.0158237240691809E-06 
    1.0000000026441190E-06 
    3.6029582386330899E-01 
    3.5691192183917264E-01 
    3.5084632769971824E-01 
    3.4903273078861036E-01 
    3.4139783247503086E-01 
    3.3514051341789214E-01 
    3.3340521949875668E-01 
    3.3298924155780762E-01 
    3.6248469116654208E-01 
    3.9756720839345094E-01 
    4.0967789598637594E-01 
    3.8523966025227729E-01 
    1.5447416408537470E-01 
    5.4275594329453722E-04 
    1.0799827586405919E-06 
    1.0000000001482494E-06 
    2.8890724326760043E-03 
    2.5537939689284847E-03 
    6.4871050354324434E-03 
    5.9853415101635121E-03 
    1.4432746267218969E-03 
    5.8819706698698632E-04 
    5.6942308270110974E-04 
    9.1974403264828437E-03 
    7.6000557945968772E-02 
    1.3778220494537152E-01 
    1.7849039325154023E-01 
    1.3063600272686118E-01 
    9.3267079739445691E-03 
    3.3382999545497408E-06 
    1.0000009041044708E-06 
    1.0000000000002007E-06 
    9.9999999883124568E-07 
    1.0005980524458277E-06 
    1.0007338149759419E-06 
    1.0102732702916283E-06 
    1.0159971349858787E-06 
    1.0000423121178349E-06 
    1.0000136782651004E-06 
    1.2372638813699028E-06 
    1.9377328190321161E-04 
    6.5925430661367316E-05 
    6.1802255346325575E-05 
    3.5767780730028059E-04 
    2.7724412826656455E-06 
    1.0000039031838111E-06 
    1.0000000000026829E-06 
    1.0000001159382180E-06 
