# vtk DataFile Version 2.0
Pressure Field Data 
ASCII 
DATASET UNSTRUCTURED_GRID 

POINTS 289 double 

    0.0000000000000000E+00     0.0000000000000000E+00     0.0000000000000000E+00 
    1.0000000000000000E+00     0.0000000000000000E+00     0.0000000000000000E+00 
    1.0000000000000000E+00     1.0000000000000000E+00     0.0000000000000000E+00 
    0.0000000000000000E+00     1.0000000000000000E+00     0.0000000000000000E+00 
    6.2499999999872928E-02     0.0000000000000000E+00     0.0000000000000000E+00 
    1.2499999999977310E-01     0.0000000000000000E+00     0.0000000000000000E+00 
    1.8749999999959341E-01     0.0000000000000000E+00     0.0000000000000000E+00 
    2.4999999999941089E-01     0.0000000000000000E+00     0.0000000000000000E+00 
    3.1249999999922851E-01     0.0000000000000000E+00     0.0000000000000000E+00 
    3.7499999999904610E-01     0.0000000000000000E+00     0.0000000000000000E+00 
    4.3749999999886358E-01     0.0000000000000000E+00     0.0000000000000000E+00 
    4.9999999999869210E-01     0.0000000000000000E+00     0.0000000000000000E+00 
    5.6249999999884603E-01     0.0000000000000000E+00     0.0000000000000000E+00 
    6.2499999999901090E-01     0.0000000000000000E+00     0.0000000000000000E+00 
    6.8749999999917577E-01     0.0000000000000000E+00     0.0000000000000000E+00 
    7.4999999999934064E-01     0.0000000000000000E+00     0.0000000000000000E+00 
    8.1249999999950551E-01     0.0000000000000000E+00     0.0000000000000000E+00 
    8.7499999999967026E-01     0.0000000000000000E+00     0.0000000000000000E+00 
    9.3749999999983513E-01     0.0000000000000000E+00     0.0000000000000000E+00 
    1.0000000000000000E+00     6.2499999999872928E-02     0.0000000000000000E+00 
    1.0000000000000000E+00     1.2499999999977310E-01     0.0000000000000000E+00 
    1.0000000000000000E+00     1.8749999999959341E-01     0.0000000000000000E+00 
    1.0000000000000000E+00     2.4999999999941089E-01     0.0000000000000000E+00 
    1.0000000000000000E+00     3.1249999999922851E-01     0.0000000000000000E+00 
    1.0000000000000000E+00     3.7499999999904610E-01     0.0000000000000000E+00 
    1.0000000000000000E+00     4.3749999999886358E-01     0.0000000000000000E+00 
    1.0000000000000000E+00     4.9999999999869210E-01     0.0000000000000000E+00 
    1.0000000000000000E+00     5.6249999999884603E-01     0.0000000000000000E+00 
    1.0000000000000000E+00     6.2499999999901090E-01     0.0000000000000000E+00 
    1.0000000000000000E+00     6.8749999999917577E-01     0.0000000000000000E+00 
    1.0000000000000000E+00     7.4999999999934064E-01     0.0000000000000000E+00 
    1.0000000000000000E+00     8.1249999999950551E-01     0.0000000000000000E+00 
    1.0000000000000000E+00     8.7499999999967026E-01     0.0000000000000000E+00 
    1.0000000000000000E+00     9.3749999999983513E-01     0.0000000000000000E+00 
    9.3749999999973976E-01     1.0000000000000000E+00     0.0000000000000000E+00 
    8.7499999999950118E-01     1.0000000000000000E+00     0.0000000000000000E+00 
    8.1249999999991318E-01     1.0000000000000000E+00     0.0000000000000000E+00 
    7.5000000000034706E-01     1.0000000000000000E+00     0.0000000000000000E+00 
    6.8750000000078049E-01     1.0000000000000000E+00     0.0000000000000000E+00 
    6.2500000000121403E-01     1.0000000000000000E+00     0.0000000000000000E+00 
    5.6250000000164757E-01     1.0000000000000000E+00     0.0000000000000000E+00 
    5.0000000000205946E-01     1.0000000000000000E+00     0.0000000000000000E+00 
    4.3750000000182099E-01     1.0000000000000000E+00     0.0000000000000000E+00 
    3.7500000000156092E-01     1.0000000000000000E+00     0.0000000000000000E+00 
    3.1250000000130068E-01     1.0000000000000000E+00     0.0000000000000000E+00 
    2.5000000000104050E-01     1.0000000000000000E+00     0.0000000000000000E+00 
    1.8750000000078040E-01     1.0000000000000000E+00     0.0000000000000000E+00 
    1.2500000000052031E-01     1.0000000000000000E+00     0.0000000000000000E+00 
    6.2500000000260125E-02     1.0000000000000000E+00     0.0000000000000000E+00 
    0.0000000000000000E+00     9.3749999999973976E-01     0.0000000000000000E+00 
    0.0000000000000000E+00     8.7499999999950118E-01     0.0000000000000000E+00 
    0.0000000000000000E+00     8.1249999999991318E-01     0.0000000000000000E+00 
    0.0000000000000000E+00     7.5000000000034706E-01     0.0000000000000000E+00 
    0.0000000000000000E+00     6.8750000000078049E-01     0.0000000000000000E+00 
    0.0000000000000000E+00     6.2500000000121403E-01     0.0000000000000000E+00 
    0.0000000000000000E+00     5.6250000000164757E-01     0.0000000000000000E+00 
    0.0000000000000000E+00     5.0000000000205946E-01     0.0000000000000000E+00 
    0.0000000000000000E+00     4.3750000000182099E-01     0.0000000000000000E+00 
    0.0000000000000000E+00     3.7500000000156092E-01     0.0000000000000000E+00 
    0.0000000000000000E+00     3.1250000000130068E-01     0.0000000000000000E+00 
    0.0000000000000000E+00     2.5000000000104050E-01     0.0000000000000000E+00 
    0.0000000000000000E+00     1.8750000000078040E-01     0.0000000000000000E+00 
    0.0000000000000000E+00     1.2500000000052031E-01     0.0000000000000000E+00 
    0.0000000000000000E+00     6.2500000000260125E-02     0.0000000000000000E+00 
    6.2499999999897131E-02     6.2500000000235922E-02     0.0000000000000000E+00 
    6.2499999999921327E-02     1.2500000000047351E-01     0.0000000000000000E+00 
    6.2499999999945530E-02     1.8750000000070621E-01     0.0000000000000000E+00 
    6.2499999999969733E-02     2.5000000000093858E-01     0.0000000000000000E+00 
    6.2499999999993928E-02     3.1250000000117117E-01     0.0000000000000000E+00 
    6.2500000000018124E-02     3.7500000000140382E-01     0.0000000000000000E+00 
    6.2500000000042327E-02     4.3750000000163619E-01     0.0000000000000000E+00 
    6.2500000000066530E-02     5.0000000000184897E-01     0.0000000000000000E+00 
    6.2500000000090733E-02     5.6250000000147260E-01     0.0000000000000000E+00 
    6.2500000000114922E-02     6.2500000000107636E-01     0.0000000000000000E+00 
    6.2500000000139125E-02     6.8750000000068034E-01     0.0000000000000000E+00 
    6.2500000000163328E-02     7.5000000000028411E-01     0.0000000000000000E+00 
    6.2500000000187531E-02     8.1249999999988787E-01     0.0000000000000000E+00 
    6.2500000000211720E-02     8.7499999999951172E-01     0.0000000000000000E+00 
    6.2500000000235922E-02     9.3749999999974565E-01     0.0000000000000000E+00 
    1.2499999999981980E-01     6.2500000000211733E-02     0.0000000000000000E+00 
    1.2499999999986650E-01     1.2500000000042691E-01     0.0000000000000000E+00 
    1.2499999999991319E-01     1.8750000000063199E-01     0.0000000000000000E+00 
    1.2499999999995989E-01     2.5000000000083678E-01     0.0000000000000000E+00 
    1.2500000000000661E-01     3.1250000000104172E-01     0.0000000000000000E+00 
    1.2500000000005329E-01     3.7500000000124661E-01     0.0000000000000000E+00 
    1.2500000000010000E-01     4.3750000000145117E-01     0.0000000000000000E+00 
    1.2500000000014669E-01     5.0000000000163858E-01     0.0000000000000000E+00 
    1.2500000000019340E-01     5.6250000000129741E-01     0.0000000000000000E+00 
    1.2500000000024011E-01     6.2500000000093847E-01     0.0000000000000000E+00 
    1.2500000000028680E-01     6.8750000000057998E-01     0.0000000000000000E+00 
    1.2500000000033351E-01     7.5000000000022127E-01     0.0000000000000000E+00 
    1.2500000000038020E-01     8.1249999999986211E-01     0.0000000000000000E+00 
    1.2500000000042691E-01     8.7499999999952238E-01     0.0000000000000000E+00 
    1.2500000000047359E-01     9.3749999999975164E-01     0.0000000000000000E+00 
    1.8749999999966760E-01     6.2500000000187531E-02     0.0000000000000000E+00 
    1.8749999999974179E-01     1.2500000000038020E-01     0.0000000000000000E+00 
    1.8749999999981601E-01     1.8750000000055780E-01     0.0000000000000000E+00 
    1.8749999999989009E-01     2.5000000000073502E-01     0.0000000000000000E+00 
    1.8749999999996431E-01     3.1250000000091221E-01     0.0000000000000000E+00 
    1.8750000000003850E-01     3.7500000000108941E-01     0.0000000000000000E+00 
    1.8750000000011269E-01     4.3750000000126649E-01     0.0000000000000000E+00 
    1.8750000000018691E-01     5.0000000000142808E-01     0.0000000000000000E+00 
    1.8750000000026110E-01     5.6250000000112244E-01     0.0000000000000000E+00 
    1.8750000000033529E-01     6.2500000000080080E-01     0.0000000000000000E+00 
    1.8750000000040951E-01     6.8750000000047962E-01     0.0000000000000000E+00 
    1.8750000000048361E-01     7.5000000000015843E-01     0.0000000000000000E+00 
    1.8750000000055780E-01     8.1249999999983680E-01     0.0000000000000000E+00 
    1.8750000000063199E-01     8.7499999999953304E-01     0.0000000000000000E+00 
    1.8750000000070621E-01     9.3749999999975764E-01     0.0000000000000000E+00 
    2.4999999999951281E-01     6.2500000000163314E-02     0.0000000000000000E+00 
    2.4999999999961461E-01     1.2500000000033351E-01     0.0000000000000000E+00 
    2.4999999999971650E-01     1.8750000000048361E-01     0.0000000000000000E+00 
    2.4999999999981831E-01     2.5000000000063310E-01     0.0000000000000000E+00 
    2.4999999999992020E-01     3.1250000000078260E-01     0.0000000000000000E+00 
    2.5000000000002198E-01     3.7500000000093209E-01     0.0000000000000000E+00 
    2.5000000000012390E-01     4.3750000000108180E-01     0.0000000000000000E+00 
    2.5000000000022571E-01     5.0000000000121769E-01     0.0000000000000000E+00 
    2.5000000000032763E-01     5.6250000000094724E-01     0.0000000000000000E+00 
    2.5000000000042938E-01     6.2500000000066314E-01     0.0000000000000000E+00 
    2.5000000000053119E-01     6.8750000000037925E-01     0.0000000000000000E+00 
[...]
CELL_DATA 256 
SCALARS Pressure double 1 
LOOKUP_TABLE default 

    9.9076131445363291E-01 
    9.7849975591936666E-01 
    9.6597435448856062E-01 
    9.5445078550277362E-01 
    9.4605900928093734E-01 
    9.4180855559278143E-01 
    9.3484703525023227E-01 
    9.2921818253100830E-01 
    9.2515451947626248E-01 
    9.2201203834626988E-01 
    9.1814671700664752E-01 
    9.1437462220385035E-01 
    9.1046471953612484E-01 
    9.0664370970113684E-01 
    9.0346887255975927E-01 
    9.0130591770843860E-01 
    9.4382659586392559E-01 
    9.4026010870067311E-01 
    9.3592961061665891E-01 
    9.3112807245072526E-01 
    9.2618507295370345E-01 
    9.2057747415259705E-01 
    9.1482835656223349E-01 
    9.1113858051532470E-01 
    9.0701197304237346E-01 
    9.0285919447190188E-01 
    8.9942245923540776E-01 
    8.9666626492053891E-01 
    8.9358909565355882E-01 
    8.9093580669401917E-01 
    8.8929096809168251E-01 
    8.8825813855181002E-01 
    9.0756412379836915E-01 
    9.0575249973949568E-01 
    9.0357123026887898E-01 
    9.0076124781069145E-01 
    8.9711475280601782E-01 
    8.9236426413461079E-01 
    8.8748055676218474E-01 
    8.8425246988565265E-01 
    8.8006005567796586E-01 
    8.7591305777067852E-01 
    8.7295922233372703E-01 
    8.7085659271353688E-01 
    8.6833071908806703E-01 
    8.6657878480260564E-01 
    8.6610816865976503E-01 
    8.6610421215608935E-01 
    8.6935546676127418E-01 
    8.6898602227358590E-01 
    8.6833990708589925E-01 
    8.6696894437028871E-01 
    8.6451002172253411E-01 
    8.6071030743815580E-01 
    8.5661733040586474E-01 
    8.5364413768132386E-01 
    8.4967692703126285E-01 
    8.4585190133500832E-01 
    8.4341147606360090E-01 
    8.4172110351049856E-01 
    8.3955696773757715E-01 
    8.3845689891650077E-01 
    8.3868674101535368E-01 
    8.3904387919787338E-01 
    8.3358802150009770E-01 
    8.3517613773774269E-01 
    8.3435047884805491E-01 
    8.3279927397446185E-01 
    8.3029808930616111E-01 
    8.2666070058294938E-01 
    8.2306169422556741E-01 
    8.2092463949203531E-01 
    8.1770766099358316E-01 
    8.1454687661618952E-01 
    8.1271052504819186E-01 
    8.1167720100427232E-01 
    8.0968994576263853E-01 
    8.0873212607589429E-01 
    8.0855956504399729E-01 
    8.0787366572590391E-01 
    7.9909156361444855E-01 
    7.9729853955136032E-01 
    7.9451224806110798E-01 
    7.9072017433342223E-01 
    7.8695594454470119E-01 
    7.8448196596077813E-01 
    7.8330501544217412E-01 
    7.8227778221779187E-01 
    7.8119574066594699E-01 
    7.8073048153478941E-01 
    7.7995835500053856E-01 
    7.7807017282407953E-01 
    7.7560997777931051E-01 
    7.7331103671834545E-01 
    7.7127269129254539E-01 
    7.6988111500585255E-01 
    7.4510836835225380E-01 
    7.4471242090076573E-01 
    7.4370811603976361E-01 
    7.4235193629156093E-01 
    7.4131448836040381E-01 
    7.4112521405769460E-01 
    7.4030751432291619E-01 
    7.3747269060126497E-01 
    7.3611631480350626E-01 
    7.3544043335999343E-01 
    7.3371780485409277E-01 
    7.3055303575712927E-01 
    7.2811271032824099E-01 
    7.2655277179758826E-01 
    7.2588840604118021E-01 
    7.2567909247676010E-01 
    6.9484317986423794E-01 
    6.9579157301906214E-01 
    6.9631505967555185E-01 
    6.9644732696745593E-01 
    6.9609901715408251E-01 
    6.9520722905227450E-01 
    6.9337155234524017E-01 
    6.9070143328243816E-01 
    6.8787136778454605E-01 
    6.8521698185406321E-01 
    6.8209169049892870E-01 
    6.7863576306641482E-01 
    6.7616066929757723E-01 
    6.7535093471587782E-01 
    6.7596706451174349E-01 
    6.7676461102666008E-01 
    6.4886372570897166E-01 
    6.5011401186857043E-01 
    6.4970977769396898E-01 
    6.4901257196156659E-01 
    6.4750506622363302E-01 
    6.4520142212126230E-01 
    6.4222103023960775E-01 
    6.3910110745378568E-01 
    6.3524203174926752E-01 
    6.3201233825154990E-01 
    6.2912132656032138E-01 
    6.2658043715481038E-01 
    6.2460966922942840E-01 
    6.2427595104411593E-01 
    6.2504058781583027E-01 
    6.2512018948784087E-01 
    5.9446363663821022E-01 
    5.9355128117826128E-01 
    5.9174437915257727E-01 
    5.8951996678236673E-01 
    5.8733415381296727E-01 
    5.8521137399558110E-01 
    5.8281892454930184E-01 
    5.8044611327305184E-01 
    5.7845970716705042E-01 
    5.7724405737852669E-01 
    5.7650761880743051E-01 
    5.7487719681806837E-01 
    5.7295523835802675E-01 
    5.7097989480268041E-01 
    5.6914565107288895E-01 
    5.6805433265857441E-01 
    5.3267448755432911E-01 
    5.3179422181134339E-01 
    5.3029776985302479E-01 
    5.2862213531332436E-01 
    5.2689864394634911E-01 
    5.2464529878855615E-01 
    5.2153501971767768E-01 
    5.1916446462366295E-01 
    5.1770521452754514E-01 
    5.1582465378917131E-01 
    5.1317396335634335E-01 
    5.1054165830645193E-01 
    5.0872798813837727E-01 
    5.0726619945134821E-01 
    5.0648363996955637E-01 
    5.0610143481789660E-01 
    4.7810233754768305E-01 
    4.7753622416792380E-01 
    4.7636672789217555E-01 
    4.7457723744676922E-01 
    4.7218165618082308E-01 
    4.6929593774245754E-01 
    4.6616073562480792E-01 
    4.6236161824522132E-01 
    4.5776350727968396E-01 
    4.5278569380345912E-01 
    4.4821137717886650E-01 
    4.4405624188804066E-01 
    4.4063456481338581E-01 
    4.3876604553997961E-01 
    4.3856461695927346E-01 
    4.3910943509122463E-01 
    4.2661669510524902E-01 
    4.2593416776098875E-01 
    4.2441730327175559E-01 
    4.2187960288831639E-01 
    4.1844660663828775E-01 
    4.1450035951338143E-01 
    4.1018202201487597E-01 
    4.0435888345878107E-01 
    3.9717237309830539E-01 
    3.8973207373834173E-01 
    3.8282141641210987E-01 
    3.7630330978877174E-01 
    3.7088729444333646E-01 
    3.6802081555106475E-01 
    3.6773783529004689E-01 
    3.6872469561627169E-01 
    3.7633333634660671E-01 
    3.7548557539131000E-01 
    3.7357025987283871E-01 
    3.7024066590019855E-01 
    3.6565665875744557E-01 
    3.6039027936130519E-01 
    3.5470976124388381E-01 
    3.4708817516470408E-01 
    3.3768799123264132E-01 
    3.2790470400500304E-01 
    3.1842517030394801E-01 
    3.0916367970827924E-01 
    3.0096504504930066E-01 
    2.9559786948269123E-01 
    2.9310294185313457E-01 
    2.9242125815257880E-01 
    3.3058490240856714E-01 
    3.2962779431013950E-01 
    3.2740379200030389E-01 
    3.2340458604230343E-01 
    3.1777823720039439E-01 
    3.1130410259425134E-01 
    3.0458210652701395E-01 
    2.9581229701165784E-01 
    2.8482857106494075E-01 
    2.7269203580681500E-01 
    2.5982203663129766E-01 
    2.4601939801940836E-01 
    2.3132825676442578E-01 
    2.1692508489157006E-01 
    2.0362971781270892E-01 
    1.9388224977103269E-01 
    3.0156431032668546E-01 
    3.0048118772003196E-01 
    2.9794518221973465E-01 
    2.9345370575277718E-01 
    2.8715808050999686E-01 
    2.8006189006339627E-01 
    2.7331263781830711E-01 
    2.6483525933218838E-01 
    2.5293532490014187E-01 
    2.3705428249422980E-01 
    2.1849997008333849E-01 
    1.9572642532128240E-01 
    1.6451546176683504E-01 
    1.2234275054476985E-01 
    6.8030306745563610E-02 
    0.0000000000000000E+00 

SCALARS Saturarion double 1 
LOOKUP_TABLE default 

    1.0000000000683738E+00 
    9.6730163522054058E-01 
    9.1429694306516041E-01 
    8.6136991570798227E-01 
    8.0806358652111065E-01 
    7.5635336467988046E-01 
    7.0538451500162669E-01 
    6.5471121590721515E-01 
    6.0154857299948761E-01 
    5.4844999152008156E-01 
    5.0251246609894729E-01 
    4.5648945055778850E-01 
    3.0252003228274027E-01 
    1.1320113528236879E-04 
    1.0000000289354253E-06 
    1.0000000000000046E-06 
    9.2488429134721029E-01 
    9.0697819814651459E-01 
    8.6762238296150429E-01 
    8.2399367052450467E-01 
    7.7843160436448200E-01 
    7.3369054743977713E-01 
    6.8921976739659030E-01 
    6.4665891447616952E-01 
    6.0016521372592802E-01 
    5.5318483329798485E-01 
    5.0860562247550001E-01 
    4.6108684452752197E-01 
    2.6896140338309577E-01 
    7.6241066386058520E-05 
    1.0000850920141803E-06 
    1.0000000000022893E-06 
    8.1438549189615916E-01 
    8.0673938363918396E-01 
    7.8647932927583553E-01 
    7.5886523092841462E-01 
    7.2860774202995648E-01 
    6.9411594843246638E-01 
    6.5985980030588975E-01 
    6.2599462252036497E-01 
    5.8819945032555743E-01 
    5.4740572404699905E-01 
    5.0604123494316089E-01 
    4.5953741980309487E-01 
    2.2780062567861728E-01 
    5.6910074044432853E-05 
    1.0006987793406446E-06 
    1.0000000000045132E-06 
    7.2545474354588912E-01 
    7.2076553984632730E-01 
    7.0926853945753676E-01 
    6.9260998893536696E-01 
    6.7419178944233926E-01 
    6.5202059190529960E-01 
    6.2636501897743702E-01 
    5.9927842118031138E-01 
    5.6966198225635079E-01 
    5.3479873710540271E-01 
    4.9564318800505908E-01 
    4.4792798487977820E-01 
    1.5809055090740748E-01 
    8.4910208359743859E-05 
    1.0017647965220055E-06 
    1.0000000000043613E-06 
    6.5561802454723783E-01 
    6.5270273338874563E-01 
    6.4537857102220209E-01 
    6.3296990421481936E-01 
    6.1952150978199105E-01 
    6.0677453476844967E-01 
    5.8718134364194174E-01 
    5.6513709716047755E-01 
    5.4372534550976481E-01 
    5.1532985438981960E-01 
    4.8073136030860408E-01 
    4.2150442906863644E-01 
    7.7349622131099804E-02 
    6.3794420904427651E-05 
    1.0004059409198512E-06 
    9.9999999999999995E-07 
    6.0401265127262205E-01 
    6.0156845735017184E-01 
    5.9609537228755927E-01 
    5.8915505219586317E-01 
    5.7811288942711703E-01 
    5.6455752244815083E-01 
    5.4820068916447284E-01 
    5.2849125841318723E-01 
    5.1013378786816688E-01 
    4.8924818068490517E-01 
    4.6016097996306343E-01 
    3.4816892942050676E-01 
    2.1234587976289507E-02 
    9.3441962685057022E-06 
    1.0000033774944119E-06 
    1.0000000000000004E-06 
    5.5192466032920584E-01 
    5.4948311677596084E-01 
    5.4469634301126235E-01 
    5.3958916808930790E-01 
    5.4014213703883796E-01 
    5.2748853369348536E-01 
    5.1266815262273879E-01 
    4.9552744177249802E-01 
    4.7570194521678988E-01 
    4.6018644036690781E-01 
    4.1530194387351560E-01 
    1.6114057021600670E-01 
    4.4765269904527852E-04 
    1.0295358998517900E-06 
    1.0000000002364746E-06 
    9.9999999999999995E-07 
    5.0472633149239132E-01 
    5.0259158314383501E-01 
    4.9858736670571402E-01 
    4.9427043248234098E-01 
    4.9623181080556056E-01 
    4.9006148036313490E-01 
    4.8089004001113966E-01 
    4.6772392395913481E-01 
    4.4473034382351501E-01 
    3.9188522306286860E-01 
    2.0220977757120656E-01 
    6.6228273186569320E-03 
    2.0944439560674302E-06 
    1.0000001719257569E-06 
    1.0000000000000033E-06 
    9.9999999999999995E-07 
    4.5974528581986907E-01 
    4.5834238000343835E-01 
    4.5564270103454541E-01 
    4.5173137861448548E-01 
    4.5166476656167054E-01 
    4.5101213459079498E-01 
    4.4367147170970694E-01 
    4.2425032758936959E-01 
    3.5186245838425612E-01 
    1.2433209539296176E-01 
    2.5240197620556063E-03 
    3.1784302890113032E-06 
    1.0000009625752701E-06 
    1.0000000000001528E-06 
    9.9999999999999995E-07 
    9.9999999999999995E-07 
    3.9958878163147482E-01 
    3.7822803746136002E-01 
    3.6409750619662390E-01 
    3.3356165221793560E-01 
    3.1009775950245544E-01 
    2.9357471544201769E-01 
    2.3745981065918476E-01 
    1.3691016334959380E-01 
    3.7955555830763849E-02 
    4.8934924012158660E-04 
    1.6613482798622116E-06 
    1.0000012520075278E-06 
    1.0000000000003091E-06 
    9.9999999999999995E-07 
    9.9999999999999995E-07 
    9.9999999999999995E-07 
    3.3358113989746460E-02 
    3.2468274497115396E-02 
    1.3468152100759436E-02 
    5.9180161231192499E-03 
    4.6060979715796856E-03 
    2.7825036434748949E-03 
    2.8454017516823827E-04 
    2.4346998135425541E-04 
    5.7103937653068835E-05 
    1.0737405286327330E-06 
    1.0000001743424888E-06 
    1.0000000000001721E-06 
    9.9999999999999995E-07 
    9.9999999999999995E-07 
    9.9999999999999995E-07 
    9.9999999999999995E-07 
    1.0000003340218106E-06 
    1.4507400010421146E-06 
    1.7414707260001424E-06 
    1.2402261465470621E-06 
    1.0208990421056929E-06 
    1.0078037595518317E-06 
    1.0136369410543155E-06 
    1.0224775783419600E-06 
    1.0003515550449119E-06 
    1.0000000011304700E-06 
    1.0000000000000745E-06 
    9.9999999999999995E-07 
    9.9999999999999995E-07 
    9.9999999999999995E-07 
    9.9999999999999995E-07 
    9.9999999999999995E-07 
    1.0000000000001435E-06 
    1.0000000927602861E-06 
    1.0000002225355242E-06 
    1.0000000500811010E-06 
    1.0000000031933317E-06 
    1.0000000011789893E-06 
    1.0000000008438620E-06 
    1.0000000000000008E-06 
    1.0000000000000038E-06 
    1.0000000000000002E-06 
    9.9999999999999995E-07 
    9.9999999999999995E-07 
    9.9999999999999995E-07 
    9.9999999999999995E-07 
    9.9999999999999995E-07 
    9.9999999999999995E-07 
    9.9999999999999995E-07 
    1.0000000000000156E-06 
    1.0000000000000040E-06 
    9.9999999999999953E-07 
    9.9999999999999974E-07 
    9.9999999999999995E-07 
    1.0000000000000002E-06 
    9.9999999999999995E-07 
    9.9999999999999995E-07 
    9.9999999999999995E-07 
    9.9999999999999995E-07 
    9.9999999999999995E-07 
    9.9999999999999995E-07 
    9.9999999999999995E-07 
    9.9999999999999995E-07 
    9.9999999999999995E-07 
    9.9999999999999995E-07 
    9.9999999999999995E-07 
    9.9999999999999995E-07 
    9.9999999999999995E-07 
    9.9999999999999995E-07 
    9.9999999999999995E-07 
    9.9999999999999995E-07 
    9.9999999999999995E-07 
    9.9999999999999995E-07 
    9.9999999999999995E-07 
    9.9999999999999995E-07 
    9.9999999999999995E-07 
    9.9999999999999995E-07 
    9.9999999999999995E-07 
    9.9999999999999995E-07 
    9.9999999999999995E-07 
    9.9999999999999995E-07 
    9.9999999999999995E-07 
    9.9999999999999995E-07 
    9.9999999999999995E-07 
    9.9999999999999995E-07 
    9.9999999999999995E-07 
    9.9999999999999995E-07 
    9.9999999999999995E-07 
    9.9999999999999995E-07 
    9.9999999999999995E-07 
    9.9999999999999995E-07 
    9.9999999999999995E-07 
    9.9999999999999995E-07 
    9.9999999999999995E-07 
    9.9999999999999995E-07 
    1.0000000694298990E-06 
