# vtk DataFile Version 2.0
Pressure Field Data 
ASCII 
DATASET UNSTRUCTURED_GRID 

POINTS 289 double 

    0.0000000000000000E+00     0.0000000000000000E+00     0.0000000000000000E+00 
    1.0000000000000000E+00     0.0000000000000000E+00     0.0000000000000000E+00 
    1.0000000000000000E+00     1.0000000000000000E+00     0.0000000000000000E+00 
    0.0000000000000000E+00     1.0000000000000000E+00     0.0000000000000000E+00 
    6.2499999999872928E-02     0.0000000000000000E+00     0.0000000000000000E+00 
    1.2499999999977310E-01     0.0000000000000000E+00     0.0000000000000000E+00 
    1.8749999999959341E-01     0.0000000000000000E+00     0.0000000000000000E+00 
    2.4999999999941089E-01     0.0000000000000000E+00     0.0000000000000000E+00 
    3.1249999999922851E-01     0.0000000000000000E+00     0.0000000000000000E+00 
    3.7499999999904610E-01     0.0000000000000000E+00     0.0000000000000000E+00 
    4.3749999999886358E-01     0.0000000000000000E+00     0.0000000000000000E+00 
    4.9999999999869210E-01     0.0000000000000000E+00     0.0000000000000000E+00 
    5.6249999999884603E-01     0.0000000000000000E+00     0.0000000000000000E+00 
    6.2499999999901090E-01     0.0000000000000000E+00     0.0000000000000000E+00 
    6.8749999999917577E-01     0.0000000000000000E+00     0.0000000000000000E+00 
    7.4999999999934064E-01     0.0000000000000000E+00     0.0000000000000000E+00 
    8.1249999999950551E-01     0.0000000000000000E+00     0.0000000000000000E+00 
    8.7499999999967026E-01     0.0000000000000000E+00     0.0000000000000000E+00 
    9.3749999999983513E-01     0.0000000000000000E+00     0.0000000000000000E+00 
    1.0000000000000000E+00     6.2499999999872928E-02     0.0000000000000000E+00 
    1.0000000000000000E+00     1.2499999999977310E-01     0.0000000000000000E+00 
    1.0000000000000000E+00     1.8749999999959341E-01     0.0000000000000000E+00 
    1.0000000000000000E+00     2.4999999999941089E-01     0.0000000000000000E+00 
    1.0000000000000000E+00     3.1249999999922851E-01     0.0000000000000000E+00 
    1.0000000000000000E+00     3.7499999999904610E-01     0.0000000000000000E+00 
    1.0000000000000000E+00     4.3749999999886358E-01     0.0000000000000000E+00 
    1.0000000000000000E+00     4.9999999999869210E-01     0.0000000000000000E+00 
    1.0000000000000000E+00     5.6249999999884603E-01     0.0000000000000000E+00 
    1.0000000000000000E+00     6.2499999999901090E-01     0.0000000000000000E+00 
    1.0000000000000000E+00     6.8749999999917577E-01     0.0000000000000000E+00 
    1.0000000000000000E+00     7.4999999999934064E-01     0.0000000000000000E+00 
    1.0000000000000000E+00     8.1249999999950551E-01     0.0000000000000000E+00 
    1.0000000000000000E+00     8.7499999999967026E-01     0.0000000000000000E+00 
    1.0000000000000000E+00     9.3749999999983513E-01     0.0000000000000000E+00 
    9.3749999999973976E-01     1.0000000000000000E+00     0.0000000000000000E+00 
    8.7499999999950118E-01     1.0000000000000000E+00     0.0000000000000000E+00 
    8.1249999999991318E-01     1.0000000000000000E+00     0.0000000000000000E+00 
    7.5000000000034706E-01     1.0000000000000000E+00     0.0000000000000000E+00 
    6.8750000000078049E-01     1.0000000000000000E+00     0.0000000000000000E+00 
    6.2500000000121403E-01     1.0000000000000000E+00     0.0000000000000000E+00 
    5.6250000000164757E-01     1.0000000000000000E+00     0.0000000000000000E+00 
    5.0000000000205946E-01     1.0000000000000000E+00     0.0000000000000000E+00 
    4.3750000000182099E-01     1.0000000000000000E+00     0.0000000000000000E+00 
    3.7500000000156092E-01     1.0000000000000000E+00     0.0000000000000000E+00 
    3.1250000000130068E-01     1.0000000000000000E+00     0.0000000000000000E+00 
    2.5000000000104050E-01     1.0000000000000000E+00     0.0000000000000000E+00 
    1.8750000000078040E-01     1.0000000000000000E+00     0.0000000000000000E+00 
    1.2500000000052031E-01     1.0000000000000000E+00     0.0000000000000000E+00 
    6.2500000000260125E-02     1.0000000000000000E+00     0.0000000000000000E+00 
    0.0000000000000000E+00     9.3749999999973976E-01     0.0000000000000000E+00 
    0.0000000000000000E+00     8.7499999999950118E-01     0.0000000000000000E+00 
    0.0000000000000000E+00     8.1249999999991318E-01     0.0000000000000000E+00 
    0.0000000000000000E+00     7.5000000000034706E-01     0.0000000000000000E+00 
    0.0000000000000000E+00     6.8750000000078049E-01     0.0000000000000000E+00 
    0.0000000000000000E+00     6.2500000000121403E-01     0.0000000000000000E+00 
    0.0000000000000000E+00     5.6250000000164757E-01     0.0000000000000000E+00 
    0.0000000000000000E+00     5.0000000000205946E-01     0.0000000000000000E+00 
    0.0000000000000000E+00     4.3750000000182099E-01     0.0000000000000000E+00 
    0.0000000000000000E+00     3.7500000000156092E-01     0.0000000000000000E+00 
    0.0000000000000000E+00     3.1250000000130068E-01     0.0000000000000000E+00 
    0.0000000000000000E+00     2.5000000000104050E-01     0.0000000000000000E+00 
    0.0000000000000000E+00     1.8750000000078040E-01     0.0000000000000000E+00 
    0.0000000000000000E+00     1.2500000000052031E-01     0.0000000000000000E+00 
    0.0000000000000000E+00     6.2500000000260125E-02     0.0000000000000000E+00 
    6.2499999999897131E-02     6.2500000000235922E-02     0.0000000000000000E+00 
    6.2499999999921327E-02     1.2500000000047351E-01     0.0000000000000000E+00 
    6.2499999999945530E-02     1.8750000000070621E-01     0.0000000000000000E+00 
    6.2499999999969733E-02     2.5000000000093858E-01     0.0000000000000000E+00 
    6.2499999999993928E-02     3.1250000000117117E-01     0.0000000000000000E+00 
    6.2500000000018124E-02     3.7500000000140382E-01     0.0000000000000000E+00 
    6.2500000000042327E-02     4.3750000000163619E-01     0.0000000000000000E+00 
    6.2500000000066530E-02     5.0000000000184897E-01     0.0000000000000000E+00 
    6.2500000000090733E-02     5.6250000000147260E-01     0.0000000000000000E+00 
    6.2500000000114922E-02     6.2500000000107636E-01     0.0000000000000000E+00 
    6.2500000000139125E-02     6.8750000000068034E-01     0.0000000000000000E+00 
    6.2500000000163328E-02     7.5000000000028411E-01     0.0000000000000000E+00 
    6.2500000000187531E-02     8.1249999999988787E-01     0.0000000000000000E+00 
    6.2500000000211720E-02     8.7499999999951172E-01     0.0000000000000000E+00 
    6.2500000000235922E-02     9.3749999999974565E-01     0.0000000000000000E+00 
    1.2499999999981980E-01     6.2500000000211733E-02     0.0000000000000000E+00 
    1.2499999999986650E-01     1.2500000000042691E-01     0.0000000000000000E+00 
    1.2499999999991319E-01     1.8750000000063199E-01     0.0000000000000000E+00 
    1.2499999999995989E-01     2.5000000000083678E-01     0.0000000000000000E+00 
    1.2500000000000661E-01     3.1250000000104172E-01     0.0000000000000000E+00 
    1.2500000000005329E-01     3.7500000000124661E-01     0.0000000000000000E+00 
    1.2500000000010000E-01     4.3750000000145117E-01     0.0000000000000000E+00 
    1.2500000000014669E-01     5.0000000000163858E-01     0.0000000000000000E+00 
    1.2500000000019340E-01     5.6250000000129741E-01     0.0000000000000000E+00 
    1.2500000000024011E-01     6.2500000000093847E-01     0.0000000000000000E+00 
    1.2500000000028680E-01     6.8750000000057998E-01     0.0000000000000000E+00 
    1.2500000000033351E-01     7.5000000000022127E-01     0.0000000000000000E+00 
    1.2500000000038020E-01     8.1249999999986211E-01     0.0000000000000000E+00 
    1.2500000000042691E-01     8.7499999999952238E-01     0.0000000000000000E+00 
    1.2500000000047359E-01     9.3749999999975164E-01     0.0000000000000000E+00 
    1.8749999999966760E-01     6.2500000000187531E-02     0.0000000000000000E+00 
    1.8749999999974179E-01     1.2500000000038020E-01     0.0000000000000000E+00 
    1.8749999999981601E-01     1.8750000000055780E-01     0.0000000000000000E+00 
    1.8749999999989009E-01     2.5000000000073502E-01     0.0000000000000000E+00 
    1.8749999999996431E-01     3.1250000000091221E-01     0.0000000000000000E+00 
    1.8750000000003850E-01     3.7500000000108941E-01     0.0000000000000000E+00 
    1.8750000000011269E-01     4.3750000000126649E-01     0.0000000000000000E+00 
    1.8750000000018691E-01     5.0000000000142808E-01     0.0000000000000000E+00 
    1.8750000000026110E-01     5.6250000000112244E-01     0.0000000000000000E+00 
    1.8750000000033529E-01     6.2500000000080080E-01     0.0000000000000000E+00 
    1.8750000000040951E-01     6.8750000000047962E-01     0.0000000000000000E+00 
    1.8750000000048361E-01     7.5000000000015843E-01     0.0000000000000000E+00 
    1.8750000000055780E-01     8.1249999999983680E-01     0.0000000000000000E+00 
    1.8750000000063199E-01     8.7499999999953304E-01     0.0000000000000000E+00 
    1.8750000000070621E-01     9.3749999999975764E-01     0.0000000000000000E+00 
    2.4999999999951281E-01     6.2500000000163314E-02     0.0000000000000000E+00 
    2.4999999999961461E-01     1.2500000000033351E-01     0.0000000000000000E+00 
    2.4999999999971650E-01     1.8750000000048361E-01     0.0000000000000000E+00 
    2.4999999999981831E-01     2.5000000000063310E-01     0.0000000000000000E+00 
    2.4999999999992020E-01     3.1250000000078260E-01     0.0000000000000000E+00 
    2.5000000000002198E-01     3.7500000000093209E-01     0.0000000000000000E+00 
    2.5000000000012390E-01     4.3750000000108180E-01     0.0000000000000000E+00 
    2.5000000000022571E-01     5.0000000000121769E-01     0.0000000000000000E+00 
    2.5000000000032763E-01     5.6250000000094724E-01     0.0000000000000000E+00 
    2.5000000000042938E-01     6.2500000000066314E-01     0.0000000000000000E+00 
    2.5000000000053119E-01     6.8750000000037925E-01     0.0000000000000000E+00 
[...]
CELL_DATA 256 
SCALARS Pressure double 1 
LOOKUP_TABLE default 

    9.3766408466221629E-01 
    9.2537648194017286E-01 
    9.1299870090097468E-01 
    9.0171330030456653E-01 
    8.9355012648701149E-01 
    8.8981453984227921E-01 
    8.8338740199430221E-01 
    8.7814587441690328E-01 
    8.7444144595559259E-01 
    8.7196049192049963E-01 
    8.6879046598674681E-01 
    8.6564013844230747E-01 
    8.6232074617731902E-01 
    8.5889954993941275E-01 
    8.5591925165453420E-01 
    8.5399462399684767E-01 
    8.9178449786773983E-01 
    8.8832028459269274E-01 
    8.8417058225724077E-01 
    8.7963892033104829E-01 
    8.7507950617285291E-01 
    8.6997456307579557E-01 
    8.6461150356194127E-01 
    8.6131839721660874E-01 
    8.5770673013554177E-01 
    8.5406795754209153E-01 
    8.5098694387205753E-01 
    8.4862834647749485E-01 
    8.4628906017978234E-01 
    8.4420254858982502E-01 
    8.4264347144405194E-01 
    8.4171160894380159E-01 
    8.5730177250758177E-01 
    8.5564146532804475E-01 
    8.5367859076300767E-01 
    8.5120064208889201E-01 
    8.4803046393981918E-01 
    8.4384152463882367E-01 
    8.3933398761675271E-01 
    8.3650920194466660E-01 
    8.3285656975676070E-01 
    8.2913311659548805E-01 
    8.2636084287415579E-01 
    8.2456525192523944E-01 
    8.2277623858496296E-01 
    8.2154485231639796E-01 
    8.2106791271425794E-01 
    8.2104682337477897E-01 
    8.2158905893672451E-01 
    8.2135594239668741E-01 
    8.2092616548962039E-01 
    8.1991454546362275E-01 
    8.1798455958077798E-01 
    8.1476976096804032E-01 
    8.1102084026866661E-01 
    8.0844814672063281E-01 
    8.0499558746078748E-01 
    8.0150920366042855E-01 
    7.9917003021870847E-01 
    7.9784262006052475E-01 
    7.9637336244853107E-01 
    7.9565664081933651E-01 
    7.9582591292137150E-01 
    7.9613600209113633E-01 
    7.8846041082868057E-01 
    7.9037866169408877E-01 
    7.8999016081013329E-01 
    7.8895643325609954E-01 
    7.8707639769647320E-01 
    7.8394643180828005E-01 
    7.8049675918405836E-01 
    7.7872662192490016E-01 
    7.7593489840274643E-01 
    7.7294118627094965E-01 
    7.7112216436991510E-01 
    7.7064755905077087E-01 
    7.6934626835691833E-01 
    7.6865157426772235E-01 
    7.6848770044754278E-01 
    7.6792899155200833E-01 
    7.5877308921351128E-01 
    7.5717886562433179E-01 
    7.5469069789549781E-01 
    7.5121892070217544E-01 
    7.4764323794672438E-01 
    7.4519925112756868E-01 
    7.4401663348713365E-01 
    7.4327273225300927E-01 
    7.4247052751984066E-01 
    7.4232219464517168E-01 
    7.4206681053142542E-01 
    7.4090420868884876E-01 
    7.3904376995222198E-01 
    7.3714404819339352E-01 
    7.3537871431149648E-01 
    7.3423492577546778E-01 
    7.0881552957125382E-01 
    7.0844639193287429E-01 
    7.0751485925549906E-01 
    7.0620529610772331E-01 
    7.0514781705882212E-01 
    7.0508968392062676E-01 
    7.0490086423625242E-01 
    7.0244118592006610E-01 
    7.0140942748264001E-01 
    7.0127359358852281E-01 
    7.0071729253911286E-01 
    6.9885794136299229E-01 
    6.9746337620797716E-01 
    6.9627172302632745E-01 
    6.9575177795667165E-01 
    6.9558242907386791E-01 
    6.6228084725066783E-01 
    6.6318769692368196E-01 
    6.6375770353181651E-01 
    6.6401424996133884E-01 
    6.6395434863642799E-01 
    6.6359338518112809E-01 
    6.6252275508138792E-01 
    6.6077429329846638E-01 
    6.5889704408087812E-01 
    6.5733660082894063E-01 
    6.5595481564686042E-01 
    6.5438335457233909E-01 
    6.5264169748084522E-01 
    6.5190458720356903E-01 
    6.5244174453177328E-01 
    6.5302343871358526E-01 
    6.2086472674744064E-01 
    6.2245353005960113E-01 
    6.2227079164681764E-01 
    6.2190381384767102E-01 
    6.2102176456679881E-01 
    6.1954166671439226E-01 
    6.1758127741730307E-01 
    6.1617016300445859E-01 
    6.1401131604914305E-01 
    6.1238642030524060E-01 
    6.1122129547936499E-01 
    6.0988153579781024E-01 
    6.0793817045776355E-01 
    6.0736197751498699E-01 
    6.0779147149411505E-01 
    6.0755422652199342E-01 
    5.7937427261470420E-01 
    5.7859378475183931E-01 
    5.7692480246390032E-01 
    5.7467215314072251E-01 
    5.7248315619733636E-01 
    5.7073639489936956E-01 
    5.6917986169590484E-01 
    5.6802151206645579E-01 
    5.6731120708424854E-01 
    5.6712870346590694E-01 
    5.6641492805664151E-01 
    5.6409211583622221E-01 
    5.6149821246474618E-01 
    5.5909144278253831E-01 
    5.5699748396905790E-01 
    5.5579637888583810E-01 
    5.3214943360372569E-01 
    5.3149973440714793E-01 
    5.3028415428808218E-01 
    5.2877441991759089E-01 
    5.2723151228297238E-01 
    5.2528740815864239E-01 
    5.2216050455816365E-01 
    5.1895196857064374E-01 
    5.1646606920310223E-01 
    5.1316091469135883E-01 
    5.0863512425937363E-01 
    5.0437634775918594E-01 
    5.0143562127213737E-01 
    4.9935746936270475E-01 
    4.9831342130716189E-01 
    4.9790088220698564E-01 
    4.8418730069113214E-01 
    4.8356162544382009E-01 
    4.8221075008712400E-01 
    4.8000398582588927E-01 
    4.7690454655457959E-01 
    4.7307715085391727E-01 
    4.6887085900793374E-01 
    4.6364725307989113E-01 
    4.5728599004780762E-01 
    4.5061946140348591E-01 
    4.4473540453527838E-01 
    4.3957566001036030E-01 
    4.3544846289914457E-01 
    4.3319602676949337E-01 
    4.3288748222432211E-01 
    4.3349066084970150E-01 
    4.3065466998554985E-01 
    4.2975615431116526E-01 
    4.2776926933076298E-01 
    4.2447130214769674E-01 
    4.2005152095270315E-01 
    4.1505725228181400E-01 
    4.0976616607251359E-01 
    4.0293049739297093E-01 
    3.9491290213364189E-01 
    3.8700128306929149E-01 
    3.7977705638531634E-01 
    3.7285881815086958E-01 
    3.6710388377020031E-01 
    3.6407798508518407E-01 
    3.6379234832237123E-01 
    3.6486157537868141E-01 
    3.7759952591894552E-01 
    3.7667450073212111E-01 
    3.7456004168491758E-01 
    3.7088416748333347E-01 
    3.6585328817931595E-01 
    3.6014170495545267E-01 
    3.5409291763307060E-01 
    3.4605748017001181E-01 
    3.3626779743896112E-01 
    3.2620157494489865E-01 
    3.1650641115820011E-01 
    3.0700263478139639E-01 
    2.9862660841722766E-01 
    2.9318687123930742E-01 
    2.9069398866300972E-01 
    2.9004003592212046E-01 
    3.3004836562962742E-01 
    3.2906654407987895E-01 
    3.2678515616933212E-01 
    3.2270594422376858E-01 
    3.1701998042986085E-01 
    3.1054089676779978E-01 
    3.0384412812488631E-01 
    2.9501837210535836E-01 
    2.8396016347567005E-01 
    2.7177470170959006E-01 
    2.5887197364625891E-01 
    2.4501044908947175E-01 
    2.3028865112125671E-01 
    2.1587198115020248E-01 
    2.0255701205002372E-01 
    1.9276434636882278E-01 
    3.0005505744659416E-01 
    2.9899855436450162E-01 
    2.9653160020840141E-01 
    2.9218596477040998E-01 
    2.8611963283798075E-01 
    2.7927933200530952E-01 
    2.7271543441200524E-01 
    2.6430570692832772E-01 
    2.5244232297839969E-01 
    2.3663229379528086E-01 
    2.1818509684254520E-01 
    1.9547988170176189E-01 
    1.6432653253541699E-01 
    1.2220279388325364E-01 
    6.7942743826013077E-02 
    0.0000000000000000E+00 

SCALARS Saturarion double 1 
LOOKUP_TABLE default 

    1.0000000008181831E+00 
    9.7424521179320889E-01 
    9.3086732304209818E-01 
    8.8518888568118403E-01 
    8.3904957514969158E-01 
    7.9042463144135910E-01 
    7.4330319226241626E-01 
    6.9367518607317058E-01 
    6.4325277099905165E-01 
    5.9332835557709962E-01 
    5.4712513934339857E-01 
    5.0638965112114431E-01 
    4.6496616504986660E-01 
    3.4689443354958160E-01 
    7.0127326334071451E-03 
    1.0000220995266939E-06 
    9.3758863784895985E-01 
    9.2229376755447123E-01 
    8.8894899053581422E-01 
    8.5095750432167516E-01 
    8.0998619420174212E-01 
    7.6795459789675502E-01 
    7.2710191902238508E-01 
    6.8436695046660889E-01 
    6.3973739755867387E-01 
    5.9342135982565181E-01 
    5.4812115612802081E-01 
    5.0340050614098009E-01 
    4.5483380958391073E-01 
    2.3609527964955956E-01 
    2.6534154664605161E-04 
    1.0021327027464839E-06 
    8.4073800421063194E-01 
    8.3338592332452788E-01 
    8.1508656263452384E-01 
    7.8944422149660620E-01 
    7.6125189033156648E-01 
    7.2984850988259298E-01 
    6.9631730208878262E-01 
    6.6345523717520583E-01 
    6.2766899068825088E-01 
    5.8616738473958196E-01 
    5.4376749303200633E-01 
    5.0046307751585517E-01 
    4.4546220578639156E-01 
    1.4612878363656717E-01 
    4.4208186958993955E-05 
    1.0002516216339351E-06 
    7.5877058776078166E-01 
    7.5483688250550862E-01 
    7.4423170238852143E-01 
    7.2842911440757963E-01 
    7.1041115872267080E-01 
    6.8833958937606021E-01 
    6.6388546985472185E-01 
    6.3874253616747256E-01 
    6.0946650566015459E-01 
    5.7352265413814818E-01 
    5.3399020455011315E-01 
    4.8973870760546906E-01 
    4.1688411510684076E-01 
    6.8074672482412613E-02 
    2.4690404417467958E-05 
    1.0000313106687302E-06 
    6.9389779307024801E-01 
    6.9043459731589973E-01 
    6.8339850667285185E-01 
    6.7279158772806891E-01 
    6.5895453049562303E-01 
    6.4600332662830229E-01 
    6.2831328071060288E-01 
    6.0751290749348907E-01 
    5.8601087879445590E-01 
    5.5753416778322085E-01 
    5.2160771770872272E-01 
    4.7959702500154161E-01 
    3.8169442182974433E-01 
    2.3656834896765688E-02 
    9.2547591445834040E-06 
    1.0000048793877202E-06 
    6.4545412795851331E-01 
    6.4335899030802701E-01 
    6.3822108678940837E-01 
    6.3102634965868565E-01 
    6.1898921895246783E-01 
    6.0673191072161126E-01 
    5.9172985546008605E-01 
    5.7252875874438647E-01 
    5.5489168776271813E-01 
    5.3418880986905193E-01 
    5.0369805800775647E-01 
    4.6888657573542297E-01 
    3.3266481256605573E-01 
    4.1693911002334914E-03 
    1.2377122258737532E-06 
    1.0000000184192422E-06 
    5.9990003532032887E-01 
    5.9770620319051515E-01 
    5.9312815074923575E-01 
    5.8758858957058158E-01 
    5.8653455185281800E-01 
    5.7419251267310212E-01 
    5.5930649620532769E-01 
    5.4188499794654310E-01 
    5.2167440120050479E-01 
    5.0525525296930285E-01 
    4.8043719682465919E-01 
    4.4988096604536160E-01 
    2.4133249031547682E-01 
    6.2745182780173971E-04 
    1.0114309983191870E-06 
    1.0000000004112245E-06 
    5.5620217586998189E-01 
    5.5396854159752129E-01 
    5.4986161419685264E-01 
    5.4472432898412682E-01 
    5.5145717292854268E-01 
    5.4286107367704917E-01 
    5.3039870911341336E-01 
    5.1606783240004861E-01 
    4.9556704033861759E-01 
    4.7915584551777013E-01 
    4.6138676259502870E-01 
    4.1808164725809316E-01 
    1.1096642078450387E-01 
    1.3649327417007386E-04 
    1.0014628146546163E-06 
    9.9999999999999995E-07 
    5.1892359611916961E-01 
    5.1720350144644822E-01 
    5.1402956349018880E-01 
    5.1018306965336901E-01 
    5.1375043545953214E-01 
    5.1026803184358716E-01 
    5.0220975594075856E-01 
    4.9137042136533171E-01 
    4.7735645717383884E-01 
    4.5813690415449215E-01 
    4.3721589651814891E-01 
    3.0873870613043408E-01 
    1.3709583199420864E-02 
    5.2227092151677219E-06 
    1.0000011864350810E-06 
    1.0000000000000008E-06 
    4.8766850902995806E-01 
    4.8611493099779562E-01 
    4.8303394430113733E-01 
    4.8015411713748163E-01 
    4.7704507414126940E-01 
    4.7700803682963538E-01 
    4.7285764967762089E-01 
    4.6519840843969967E-01 
    4.5654208694559190E-01 
    4.3487046366501142E-01 
    3.6541598995012570E-01 
    8.1808049929201432E-02 
    2.4284289794063049E-04 
    1.0041721385434358E-06 
    1.0000000000009438E-06 
    9.9999999999999995E-07 
    4.5304278841910234E-01 
    4.5193778789117994E-01 
    4.4973903489550487E-01 
    4.4690248515351216E-01 
    4.4331016479556951E-01 
    4.4287893863612221E-01 
    4.4054505336416699E-01 
    4.3235346639968369E-01 
    4.0761261450376512E-01 
    3.2158497782813505E-01 
    1.0122490694326010E-01 
    1.2155507120951050E-03 
    1.1238413307505095E-06 
    1.0000000041988238E-06 
    1.0000000000000002E-06 
    9.9999999999999995E-07 
    3.9359767479894830E-01 
    3.8767605831400903E-01 
    3.7268280281330191E-01 
    3.5587955030013513E-01 
    3.2869302078850560E-01 
    3.1197551474295282E-01 
    2.9901485882698081E-01 
    2.5576103780057713E-01 
    1.2826634059037817E-01 
    2.1305092372550946E-02 
    5.4215831898265078E-04 
    1.2666899317741524E-06 
    1.0000000907885371E-06 
    1.0000000000000061E-06 
    9.9999999999999995E-07 
    9.9999999999999995E-07 
    2.8315823193750284E-02 
    1.9503061037506205E-02 
    1.3500559561894396E-02 
    7.8288196896826243E-03 
    7.6185277946665356E-03 
    6.7471283834060029E-03 
    4.5397272488679708E-03 
    1.3374971031823804E-03 
    3.0286505432241249E-04 
    1.6801926744536381E-05 
    1.0698015680999167E-06 
    1.0000000388497467E-06 
    1.0000000000000205E-06 
    9.9999999999999995E-07 
    9.9999999999999995E-07 
    9.9999999999999995E-07 
    1.0000000920473700E-06 
    1.1910209216903000E-06 
    1.4575244432866403E-06 
    1.2529121955888143E-06 
    1.1213283686823204E-06 
    1.0167540357799017E-06 
    1.0418155036612199E-06 
    1.0305875405531769E-06 
    1.0300924638517155E-06 
    1.0000274639855355E-06 
    1.0000000000146900E-06 
    1.0000000000000076E-06 
    9.9999999999999995E-07 
    9.9999999999999995E-07 
    9.9999999999999995E-07 
    9.9999999999999995E-07 
    1.0000000000000279E-06 
    1.0000000155940768E-06 
    1.0000000670587473E-06 
    1.0000000386275257E-06 
    1.0000000184556053E-06 
    1.0000000026278947E-06 
    1.0000000029785125E-06 
    1.0000000033886751E-06 
    1.0000000000000061E-06 
    1.0000000000000095E-06 
    9.9999999999999995E-07 
    9.9999999999999995E-07 
    9.9999999999999995E-07 
    9.9999999999999995E-07 
    9.9999999999999995E-07 
    9.9999999999999995E-07 
    9.9999999999999995E-07 
    1.0000000000000010E-06 
    1.0000000000000016E-06 
    1.0000000000000002E-06 
    9.9999999999999995E-07 
    9.9999999999999995E-07 
    9.9999999999999995E-07 
    1.0000000000000002E-06 
    9.9999999999999995E-07 
    9.9999999999999995E-07 
    9.9999999999999995E-07 
    9.9999999999999995E-07 
    9.9999999999999995E-07 
    9.9999999999999995E-07 
    9.9999999999999995E-07 
    1.0000000898375112E-06 
