# vtk DataFile Version 2.0
Pressure Field Data 
ASCII 
DATASET UNSTRUCTURED_GRID 

POINTS 289 double 

    0.0000000000000000E+00     0.0000000000000000E+00     0.0000000000000000E+00 
    1.0000000000000000E+00     0.0000000000000000E+00     0.0000000000000000E+00 
    1.0000000000000000E+00     1.0000000000000000E+00     0.0000000000000000E+00 
    0.0000000000000000E+00     1.0000000000000000E+00     0.0000000000000000E+00 
    6.2499999999872928E-02     0.0000000000000000E+00     0.0000000000000000E+00 
    1.2499999999977310E-01     0.0000000000000000E+00     0.0000000000000000E+00 
    1.8749999999959341E-01     0.0000000000000000E+00     0.0000000000000000E+00 
    2.4999999999941089E-01     0.0000000000000000E+00     0.0000000000000000E+00 
    3.1249999999922851E-01     0.0000000000000000E+00     0.0000000000000000E+00 
    3.7499999999904610E-01     0.0000000000000000E+00     0.0000000000000000E+00 
    4.3749999999886358E-01     0.0000000000000000E+00     0.0000000000000000E+00 
    4.9999999999869210E-01     0.0000000000000000E+00     0.0000000000000000E+00 
    5.6249999999884603E-01     0.0000000000000000E+00     0.0000000000000000E+00 
    6.2499999999901090E-01     0.0000000000000000E+00     0.0000000000000000E+00 
    6.8749999999917577E-01     0.0000000000000000E+00     0.0000000000000000E+00 
    7.4999999999934064E-01     0.0000000000000000E+00     0.0000000000000000E+00 
    8.1249999999950551E-01     0.0000000000000000E+00     0.0000000000000000E+00 
    8.7499999999967026E-01     0.0000000000000000E+00     0.0000000000000000E+00 
    9.3749999999983513E-01     0.0000000000000000E+00     0.0000000000000000E+00 
    1.0000000000000000E+00     6.2499999999872928E-02     0.0000000000000000E+00 
    1.0000000000000000E+00     1.2499999999977310E-01     0.0000000000000000E+00 
    1.0000000000000000E+00     1.8749999999959341E-01     0.0000000000000000E+00 
    1.0000000000000000E+00     2.4999999999941089E-01     0.0000000000000000E+00 
    1.0000000000000000E+00     3.1249999999922851E-01     0.0000000000000000E+00 
    1.0000000000000000E+00     3.7499999999904610E-01     0.0000000000000000E+00 
    1.0000000000000000E+00     4.3749999999886358E-01     0.0000000000000000E+00 
    1.0000000000000000E+00     4.9999999999869210E-01     0.0000000000000000E+00 
    1.0000000000000000E+00     5.6249999999884603E-01     0.0000000000000000E+00 
    1.0000000000000000E+00     6.2499999999901090E-01     0.0000000000000000E+00 
    1.0000000000000000E+00     6.8749999999917577E-01     0.0000000000000000E+00 
    1.0000000000000000E+00     7.4999999999934064E-01     0.0000000000000000E+00 
    1.0000000000000000E+00     8.1249999999950551E-01     0.0000000000000000E+00 
    1.0000000000000000E+00     8.7499999999967026E-01     0.0000000000000000E+00 
    1.0000000000000000E+00     9.3749999999983513E-01     0.0000000000000000E+00 
    9.3749999999973976E-01     1.0000000000000000E+00     0.0000000000000000E+00 
    8.7499999999950118E-01     1.0000000000000000E+00     0.0000000000000000E+00 
    8.1249999999991318E-01     1.0000000000000000E+00     0.0000000000000000E+00 
    7.5000000000034706E-01     1.0000000000000000E+00     0.0000000000000000E+00 
    6.8750000000078049E-01     1.0000000000000000E+00     0.0000000000000000E+00 
    6.2500000000121403E-01     1.0000000000000000E+00     0.0000000000000000E+00 
    5.6250000000164757E-01     1.0000000000000000E+00     0.0000000000000000E+00 
    5.0000000000205946E-01     1.0000000000000000E+00     0.0000000000000000E+00 
    4.3750000000182099E-01     1.0000000000000000E+00     0.0000000000000000E+00 
    3.7500000000156092E-01     1.0000000000000000E+00     0.0000000000000000E+00 
    3.1250000000130068E-01     1.0000000000000000E+00     0.0000000000000000E+00 
    2.5000000000104050E-01     1.0000000000000000E+00     0.0000000000000000E+00 
    1.8750000000078040E-01     1.0000000000000000E+00     0.0000000000000000E+00 
    1.2500000000052031E-01     1.0000000000000000E+00     0.0000000000000000E+00 
    6.2500000000260125E-02     1.0000000000000000E+00     0.0000000000000000E+00 
    0.0000000000000000E+00     9.3749999999973976E-01     0.0000000000000000E+00 
    0.0000000000000000E+00     8.7499999999950118E-01     0.0000000000000000E+00 
    0.0000000000000000E+00     8.1249999999991318E-01     0.0000000000000000E+00 
    0.0000000000000000E+00     7.5000000000034706E-01     0.0000000000000000E+00 
    0.0000000000000000E+00     6.8750000000078049E-01     0.0000000000000000E+00 
    0.0000000000000000E+00     6.2500000000121403E-01     0.0000000000000000E+00 
    0.0000000000000000E+00     5.6250000000164757E-01     0.0000000000000000E+00 
    0.0000000000000000E+00     5.0000000000205946E-01     0.0000000000000000E+00 
    0.0000000000000000E+00     4.3750000000182099E-01     0.0000000000000000E+00 
    0.0000000000000000E+00     3.7500000000156092E-01     0.0000000000000000E+00 
    0.0000000000000000E+00     3.1250000000130068E-01     0.0000000000000000E+00 
    0.0000000000000000E+00     2.5000000000104050E-01     0.0000000000000000E+00 
    0.0000000000000000E+00     1.8750000000078040E-01     0.0000000000000000E+00 
    0.0000000000000000E+00     1.2500000000052031E-01     0.0000000000000000E+00 
    0.0000000000000000E+00     6.2500000000260125E-02     0.0000000000000000E+00 
    6.2499999999897131E-02     6.2500000000235922E-02     0.0000000000000000E+00 
    6.2499999999921327E-02     1.2500000000047351E-01     0.0000000000000000E+00 
    6.2499999999945530E-02     1.8750000000070621E-01     0.0000000000000000E+00 
    6.2499999999969733E-02     2.5000000000093858E-01     0.0000000000000000E+00 
    6.2499999999993928E-02     3.1250000000117117E-01     0.0000000000000000E+00 
    6.2500000000018124E-02     3.7500000000140382E-01     0.0000000000000000E+00 
    6.2500000000042327E-02     4.3750000000163619E-01     0.0000000000000000E+00 
    6.2500000000066530E-02     5.0000000000184897E-01     0.0000000000000000E+00 
    6.2500000000090733E-02     5.6250000000147260E-01     0.0000000000000000E+00 
    6.2500000000114922E-02     6.2500000000107636E-01     0.0000000000000000E+00 
    6.2500000000139125E-02     6.8750000000068034E-01     0.0000000000000000E+00 
    6.2500000000163328E-02     7.5000000000028411E-01     0.0000000000000000E+00 
    6.2500000000187531E-02     8.1249999999988787E-01     0.0000000000000000E+00 
    6.2500000000211720E-02     8.7499999999951172E-01     0.0000000000000000E+00 
    6.2500000000235922E-02     9.3749999999974565E-01     0.0000000000000000E+00 
    1.2499999999981980E-01     6.2500000000211733E-02     0.0000000000000000E+00 
    1.2499999999986650E-01     1.2500000000042691E-01     0.0000000000000000E+00 
    1.2499999999991319E-01     1.8750000000063199E-01     0.0000000000000000E+00 
    1.2499999999995989E-01     2.5000000000083678E-01     0.0000000000000000E+00 
    1.2500000000000661E-01     3.1250000000104172E-01     0.0000000000000000E+00 
    1.2500000000005329E-01     3.7500000000124661E-01     0.0000000000000000E+00 
    1.2500000000010000E-01     4.3750000000145117E-01     0.0000000000000000E+00 
    1.2500000000014669E-01     5.0000000000163858E-01     0.0000000000000000E+00 
    1.2500000000019340E-01     5.6250000000129741E-01     0.0000000000000000E+00 
    1.2500000000024011E-01     6.2500000000093847E-01     0.0000000000000000E+00 
    1.2500000000028680E-01     6.8750000000057998E-01     0.0000000000000000E+00 
    1.2500000000033351E-01     7.5000000000022127E-01     0.0000000000000000E+00 
    1.2500000000038020E-01     8.1249999999986211E-01     0.0000000000000000E+00 
    1.2500000000042691E-01     8.7499999999952238E-01     0.0000000000000000E+00 
    1.2500000000047359E-01     9.3749999999975164E-01     0.0000000000000000E+00 
    1.8749999999966760E-01     6.2500000000187531E-02     0.0000000000000000E+00 
    1.8749999999974179E-01     1.2500000000038020E-01     0.0000000000000000E+00 
    1.8749999999981601E-01     1.8750000000055780E-01     0.0000000000000000E+00 
    1.8749999999989009E-01     2.5000000000073502E-01     0.0000000000000000E+00 
    1.8749999999996431E-01     3.1250000000091221E-01     0.0000000000000000E+00 
    1.8750000000003850E-01     3.7500000000108941E-01     0.0000000000000000E+00 
    1.8750000000011269E-01     4.3750000000126649E-01     0.0000000000000000E+00 
    1.8750000000018691E-01     5.0000000000142808E-01     0.0000000000000000E+00 
    1.8750000000026110E-01     5.6250000000112244E-01     0.0000000000000000E+00 
    1.8750000000033529E-01     6.2500000000080080E-01     0.0000000000000000E+00 
    1.8750000000040951E-01     6.8750000000047962E-01     0.0000000000000000E+00 
    1.8750000000048361E-01     7.5000000000015843E-01     0.0000000000000000E+00 
    1.8750000000055780E-01     8.1249999999983680E-01     0.0000000000000000E+00 
    1.8750000000063199E-01     8.7499999999953304E-01     0.0000000000000000E+00 
    1.8750000000070621E-01     9.3749999999975764E-01     0.0000000000000000E+00 
    2.4999999999951281E-01     6.2500000000163314E-02     0.0000000000000000E+00 
    2.4999999999961461E-01     1.2500000000033351E-01     0.0000000000000000E+00 
    2.4999999999971650E-01     1.8750000000048361E-01     0.0000000000000000E+00 
    2.4999999999981831E-01     2.5000000000063310E-01     0.0000000000000000E+00 
    2.4999999999992020E-01     3.1250000000078260E-01     0.0000000000000000E+00 
    2.5000000000002198E-01     3.7500000000093209E-01     0.0000000000000000E+00 
    2.5000000000012390E-01     4.3750000000108180E-01     0.0000000000000000E+00 
    2.5000000000022571E-01     5.0000000000121769E-01     0.0000000000000000E+00 
    2.5000000000032763E-01     5.6250000000094724E-01     0.0000000000000000E+00 
    2.5000000000042938E-01     6.2500000000066314E-01     0.0000000000000000E+00 
    2.5000000000053119E-01     6.8750000000037925E-01     0.0000000000000000E+00 
[...]
CELL_DATA 256 
SCALARS Pressure double 1 
LOOKUP_TABLE default 

    8.3288217400122166E-01 
    8.2062459606267291E-01 
    8.0848482784212983E-01 
    7.9756308439207224E-01 
    7.8971081116075714E-01 
    7.8652182330109444E-01 
    7.8071407801914727E-01 
    7.7593122192597808E-01 
    7.7258311378929201E-01 
    7.7070251094038622E-01 
    7.6814734781827643E-01 
    7.6570335796900202E-01 
    7.6316677233607311E-01 
    7.6046244451229894E-01 
    7.5793977933779966E-01 
    7.5631892885953433E-01 
    7.8886572184936132E-01 
    7.8551719312745338E-01 
    7.8157787409370583E-01 
    7.7735439525932393E-01 
    7.7321917518059868E-01 
    7.6867928948591013E-01 
    7.6376574200069913E-01 
    7.6092226701457888E-01 
    7.5787920780177409E-01 
    7.5478725238350941E-01 
    7.5206582795853227E-01 
    7.5015624706703821E-01 
    7.4821954041627503E-01 
    7.4667956745397634E-01 
    7.4565982886872018E-01 
    7.4497190248120193E-01 
    7.5718340417709684E-01 
    7.5566480357131904E-01 
    7.5391214041855914E-01 
    7.5175889881074720E-01 
    7.4907188500454824E-01 
    7.4549467120423452E-01 
    7.4144299995183038E-01 
    7.3909208038962959E-01 
    7.3607110106580043E-01 
    7.3286940141182322E-01 
    7.3031846393345179E-01 
    7.2883237702231352E-01 
    7.2727402230147276E-01 
    7.2647246594784198E-01 
    7.2634699877277598E-01 
    7.2636517620159513E-01 
    7.2516816619245827E-01 
    7.2500888233933858E-01 
    7.2472796017517915E-01 
    7.2400864394567443E-01 
    7.2257181289002315E-01 
    7.1999961309410720E-01 
    7.1672447097291925E-01 
    7.1465403522574222E-01 
    7.1183724854375330E-01 
    7.0879129715845868E-01 
    7.0650528101922649E-01 
    7.0534823028964444E-01 
    7.0402283362027096E-01 
    7.0361717999459672E-01 
    7.0395069774865737E-01 
    7.0422238438921414E-01 
    6.9569294497592138E-01 
    6.9780026315673138E-01 
    6.9778786851942953E-01 
    6.9719826686403019E-01 
    6.9593476884770844E-01 
    6.9347937806896875E-01 
    6.9040560091945757E-01 
    6.8912279155731171E-01 
    6.8693402746016385E-01 
    6.8419228589916614E-01 
    6.8216164977952698E-01 
    6.8182906848465652E-01 
    6.8072958502305769E-01 
    6.8031323715743397E-01 
    6.8034353107597445E-01 
    6.8000737940473177E-01 
    6.7206372907318412E-01 
    6.7064543172475444E-01 
    6.6847041077925928E-01 
    6.6537132265026178E-01 
    6.6207330274638221E-01 
    6.5980894992977179E-01 
    6.5880740573472274E-01 
    6.5840732933280721E-01 
    6.5790321498224313E-01 
    6.5799868852263776E-01 
    6.5813048946798869E-01 
    6.5760163956741524E-01 
    6.5613701180589634E-01 
    6.5447112879707803E-01 
    6.5304198189880891E-01 
    6.5232820508308220E-01 
    6.2863113933423476E-01 
    6.2831475700469475E-01 
    6.2752335292622829E-01 
    6.2638306072571825E-01 
    6.2542169668358083E-01 
    6.2548010514278929E-01 
    6.2586642382188906E-01 
    6.2385888850989013E-01 
    6.2317250618470255E-01 
    6.2349637809299618E-01 
    6.2374623524784401E-01 
    6.2253546437440987E-01 
    6.2193307986078683E-01 
    6.2149539284448874E-01 
    6.2123224546549161E-01 
    6.2105692584260419E-01 
    5.8862546430936957E-01 
    5.8952963809094372E-01 
    5.9020237501931960E-01 
    5.9065043714170762E-01 
    5.9087407837939032E-01 
    5.9085857412442566E-01 
    5.9027581481670921E-01 
    5.8926307227344499E-01 
    5.8829323888145413E-01 
    5.8755006524449160E-01 
    5.8686673962748992E-01 
    5.8628596895734408E-01 
    5.8589592086460873E-01 
    5.8606030966067335E-01 
    5.8660750013788110E-01 
    5.8679619771724811E-01 
    5.5416973494981547E-01 
    5.5610247096787968E-01 
    5.5626339358357546E-01 
    5.5623375255947782E-01 
    5.5577871734912587E-01 
    5.5466790730089433E-01 
    5.5313363236830437E-01 
    5.5258239954533128E-01 
    5.5137859210013196E-01 
    5.5036320960011365E-01 
    5.4983750812145238E-01 
    5.5007591730198846E-01 
    5.4974606156299377E-01 
    5.4994532231439686E-01 
    5.5030262498126004E-01 
    5.4971714639580727E-01 
    5.2287836304022006E-01 
    5.2214273729402250E-01 
    5.2059189160614561E-01 
    5.1837562615360622E-01 
    5.1614377122137445E-01 
    5.1450418790373165E-01 
    5.1327453255695099E-01 
    5.1249624796756910E-01 
    5.1218803061137486E-01 
    5.1294587992737661E-01 
    5.1403126774597818E-01 
    5.1361034177292564E-01 
    5.1194557648528272E-01 
    5.1008896283316130E-01 
    5.0847703723409088E-01 
    5.0749550397746379E-01 
    4.8554610916489432E-01 
    4.8473475166550423E-01 
    4.8334184605430736E-01 
    4.8157508436505458E-01 
    4.7994853136638482E-01 
    4.7853676782218557E-01 
    4.7615984382058868E-01 
    4.7311874199245485E-01 
    4.7149791521867340E-01 
    4.7035518203672178E-01 
    4.6837461249409673E-01 
    4.6544575666761262E-01 
    4.6349752382290210E-01 
    4.6191788673876349E-01 
    4.6116125945121184E-01 
    4.6104713522222368E-01 
    4.5188803091211116E-01 
    4.5124559608812564E-01 
    4.5013355694362350E-01 
    4.4840439952163191E-01 
    4.4591651986752973E-01 
    4.4258416667625761E-01 
    4.3894463386235100E-01 
    4.3519196596176651E-01 
    4.3045644388050430E-01 
    4.2484619693630227E-01 
    4.1945861646302451E-01 
    4.1498381131263168E-01 
    4.1127892175362885E-01 
    4.0916751265574480E-01 
    4.0897449003979108E-01 
    4.0979028657125288E-01 
    4.1703097178517934E-01 
    4.1628466413537263E-01 
    4.1493098891131125E-01 
    4.1252370690562162E-01 
    4.0877601538988734E-01 
    4.0393531088960655E-01 
    3.9901875823112998E-01 
    3.9338997642785811E-01 
    3.8566389243356547E-01 
    3.7681954379170896E-01 
    3.6872252282692924E-01 
    3.6197552368818264E-01 
    3.5629223521211334E-01 
    3.5336443378086357E-01 
    3.5322601964512984E-01 
    3.5430735977090233E-01 
    3.7924386482095312E-01 
    3.7836935050809573E-01 
    3.7661302965682358E-01 
    3.7337987927756439E-01 
    3.6851508142252182E-01 
    3.6259386696955509E-01 
    3.5650488447429807E-01 
    3.4879504462524891E-01 
    3.3837312543279913E-01 
    3.2690843608531683E-01 
    3.1637702270731421E-01 
    3.0725683665633763E-01 
    2.9915486858816692E-01 
    2.9421035655969069E-01 
    2.9188874515967800E-01 
    2.9095903308729726E-01 
    3.3586099964877508E-01 
    3.3486079943308023E-01 
    3.3266803452270144E-01 
    3.2877924998509250E-01 
    3.2332946100721233E-01 
    3.1702354098487573E-01 
    3.1030847742717660E-01 
    3.0150154753594466E-01 
    2.9026747667765324E-01 
    2.7804644389612526E-01 
    2.6585386294463126E-01 
    2.5346840375527901E-01 
    2.4004654277155729E-01 
    2.2641326780799081E-01 
    2.1215718684980558E-01 
    2.0106303785199539E-01 
    3.0438041093594331E-01 
    3.0319940347937041E-01 
    3.0070602405279384E-01 
    2.9649228745978068E-01 
    2.9076045734421341E-01 
    2.8437260250704482E-01 
    2.7798387377201478E-01 
    2.7007775961274544E-01 
    2.5911634383286525E-01 
    2.4440538232909417E-01 
    2.2666947661899078E-01 
    2.0442507640938570E-01 
    1.7355963292852600E-01 
    1.3107136278192302E-01 
    7.4357279938025614E-02 
    0.0000000000000000E+00 

SCALARS Saturarion double 1 
LOOKUP_TABLE default 

    1.0000000000148526E+00 
    9.8242349609444191E-01 
    9.5077626337929344E-01 
    9.1647907261269501E-01 
    8.7892263452383301E-01 
    8.3917633400852587E-01 
    7.9638395888517111E-01 
    7.5210239739796592E-01 
    7.0443763459743602E-01 
    6.5958516499879105E-01 
    6.1714850328569404E-01 
    5.7555612116424559E-01 
    5.3605270823497009E-01 
    4.9563054338324086E-01 
    4.4428662117022727E-01 
    1.3385368140080542E-01 
    9.5385497125033680E-01 
    9.4226635078789323E-01 
    9.1652719707921304E-01 
    8.8630847728189577E-01 
    8.5330670438068257E-01 
    8.1728389969088933E-01 
    7.8016389432523858E-01 
    7.4180535484070387E-01 
    6.9804713378498207E-01 
    6.5433267955403496E-01 
    6.1147348934215795E-01 
    5.6732656128982062E-01 
    5.2348738405290529E-01 
    4.7949160640094124E-01 
    3.5503565734204601E-01 
    1.4252247929540196E-02 
    8.7568183617660078E-01 
    8.6964061750049770E-01 
    8.5422106613988780E-01 
    8.3236205505920824E-01 
    8.0780708003360846E-01 
    7.7977974009305207E-01 
    7.5057920137758627E-01 
    7.2013299133414532E-01 
    6.8494807280726844E-01 
    6.4589262070193454E-01 
    6.0483209614142630E-01 
    5.6166893958234665E-01 
    5.1565043239689823E-01 
    4.6393046713019365E-01 
    2.3288486142878248E-01 
    2.2459401959953629E-04 
    8.0457979813920100E-01 
    8.0031635419418223E-01 
    7.9086351721028847E-01 
    7.7691111850795069E-01 
    7.6067966720424629E-01 
    7.4115481503220804E-01 
    7.1863793275610777E-01 
    6.9441377845168051E-01 
    6.6740069167190974E-01 
    6.3396649272102845E-01 
    5.9461570728793967E-01 
    5.5086105539484265E-01 
    5.0433037295116401E-01 
    4.4966920074360039E-01 
    1.3841986850471888E-01 
    4.0110164186744943E-05 
    7.4896785161531398E-01 
    7.4569732126246313E-01 
    7.3899782051382545E-01 
    7.2863854329483801E-01 
    7.1471422615347968E-01 
    7.0140284028518884E-01 
    6.8435877048030014E-01 
    6.6575138010683121E-01 
    6.4606453779748929E-01 
    6.1808300806755423E-01 
    5.8225695354338536E-01 
    5.3998890261111743E-01 
    4.9233867420151323E-01 
    4.3239644957068518E-01 
    9.1149298120985850E-02 
    2.3552934913429098E-05 
    7.0469293975745328E-01 
    7.0261590619452285E-01 
    6.9698675066592686E-01 
    6.9091993836545484E-01 
    6.7969059620089700E-01 
    6.6547564884235511E-01 
    6.5105768271881748E-01 
    6.3408628222887631E-01 
    6.1836231144051446E-01 
    5.9726390268961127E-01 
    5.6754885747563766E-01 
    5.3099948892244697E-01 
    4.8451808066091850E-01 
    4.1048809273878095E-01 
    3.6538922316352890E-02 
    6.1086644857690698E-06 
    6.6284300527274220E-01 
    6.6101569863552045E-01 
    6.5696153227326459E-01 
    6.5169006686303077E-01 
    6.4919687558742500E-01 
    6.3566516764216463E-01 
    6.2172536630800090E-01 
    6.0527523110970249E-01 
    5.8795744006750261E-01 
    5.7214963175893674E-01 
    5.4877826323353995E-01 
    5.1813550935202857E-01 
    4.7782474249118301E-01 
    3.7819134888183853E-01 
    8.2543323750434872E-03 
    1.2142337068055313E-06 
    6.2592815110079447E-01 
    6.2392411782273227E-01 
    6.2010394118172429E-01 
    6.1485137457875216E-01 
    6.1785301837287787E-01 
    6.0802197381270218E-01 
    5.9621968819919935E-01 
    5.8154835869885557E-01 
    5.6245159507415776E-01 
    5.4793457044680660E-01 
    5.2720724094253157E-01 
    4.9959221567615597E-01 
    4.6263585470785579E-01 
    2.8356040105743374E-01 
    1.4065835248463178E-03 
    1.0233192519084205E-06 
    5.9378550545013009E-01 
    5.9191133992441025E-01 
    5.8850195535316552E-01 
    5.8403321811798703E-01 
    5.8756536046773267E-01 
    5.8252568572656238E-01 
    5.7249044990542930E-01 
    5.6010761272383924E-01 
    5.4353723932957509E-01 
    5.2692025756590621E-01 
    5.0816623223307844E-01 
    4.8188290564881225E-01 
    4.4459751479068782E-01 
    1.9811411674051735E-01 
    6.1322466318247803E-05 
    1.0024797027098975E-06 
    5.6716751709846203E-01 
    5.6580181537646834E-01 
    5.6266778962788921E-01 
    5.5910010361297735E-01 
    5.5733004917841011E-01 
    5.5867553908504120E-01 
    5.4919845404330481E-01 
    5.3870286126578226E-01 
    5.2647591909093028E-01 
    5.0883882326263463E-01 
    4.9439416678062215E-01 
    4.7078465794672941E-01 
    4.2826853411693666E-01 
    1.6250652115615552E-01 
    3.7820189989905644E-05 
    1.0003647725510245E-06 
    5.4100689090287202E-01 
    5.3999913298507463E-01 
    5.3738953391005539E-01 
    5.3464981225390640E-01 
    5.3110641636078371E-01 
    5.3343738137045782E-01 
    5.2780306154884382E-01 
    5.1955644414916424E-01 
    5.0934887505713033E-01 
    4.9447879689753782E-01 
    4.8210492935223276E-01 
    4.6553679048504382E-01 
    4.1959698720647171E-01 
    1.2873473175552591E-01 
    1.5096844519557838E-05 
    1.0000355565957083E-06 
    5.1425845852070928E-01 
    5.1362123094763756E-01 
    5.1177710310382074E-01 
    5.0992044988145668E-01 
    5.0795992386404276E-01 
    5.0730328816510628E-01 
    5.0779822428448074E-01 
    5.0343012325192937E-01 
    4.9574392420123753E-01 
    4.8602722938649018E-01 
    4.7244550519719175E-01 
    4.6062915920824865E-01 
    4.3091822431602045E-01 
    1.5832106372879159E-01 
    7.2606754651757130E-05 
    1.0013738511606412E-06 
    4.8537393095218639E-01 
    4.8516724203178574E-01 
    4.8397179228466047E-01 
    4.8270654713874728E-01 
    4.8186291601241016E-01 
    4.8167792759252570E-01 
    4.8140893893333719E-01 
    4.8195047025377730E-01 
    4.8214369250395306E-01 
    4.7812166032885789E-01 
    4.6958302262049140E-01 
    4.5679162389656558E-01 
    4.3790157282313530E-01 
    2.6630912056283679E-01 
    8.9597777138162842E-03 
    3.3389705747474616E-06 
    4.4873979802647584E-01 
    4.4930684877521743E-01 
    4.4973477697504394E-01 
    4.4939440877753878E-01 
    4.4900301468082887E-01 
    4.4861387065428943E-01 
    4.4888759738572914E-01 
    4.4923553786534137E-01 
    4.5501779122918623E-01 
    4.6238268200682575E-01 
    4.6326733235323664E-01 
    4.5678930424978176E-01 
    4.4243230481014162E-01 
    3.6851699995017873E-01 
    9.9869991582851272E-02 
    1.8266823824640856E-04 
    2.2504840636010770E-01 
    2.2651147894990742E-01 
    2.2820106941876681E-01 
    2.3136189056784662E-01 
    2.3223268099766486E-01 
    2.2586113697630125E-01 
    2.2077517623897050E-01 
    2.2245517158118250E-01 
    3.0020243078645487E-01 
    3.8632972380923930E-01 
    4.2754971225100408E-01 
    4.3904735622789992E-01 
    4.3920037859534933E-01 
    4.1202770789559762E-01 
    2.7581520029014805E-01 
    7.0524559012713289E-02 
    1.3110359463717532E-06 
    2.8529951917297854E-06 
    3.4143135698854811E-06 
    5.4084588736271112E-06 
    8.1943934758928286E-06 
    2.2403258628830373E-06 
    1.2186107551489961E-06 
    4.2461595475759799E-06 
    3.7029991479289398E-02 
    1.3950732440403937E-01 
    2.0364067979374512E-01 
    2.4892448111951404E-01 
    2.8071179705872340E-01 
    3.0245463014514634E-01 
    3.0392294837242140E-01 
    2.5613462277835786E-01 
