# vtk DataFile Version 2.0
Pressure Field Data 
ASCII 
DATASET UNSTRUCTURED_GRID 

POINTS 289 double 

    0.0000000000000000E+00     0.0000000000000000E+00     0.0000000000000000E+00 
    1.0000000000000000E+00     0.0000000000000000E+00     0.0000000000000000E+00 
    1.0000000000000000E+00     1.0000000000000000E+00     0.0000000000000000E+00 
    0.0000000000000000E+00     1.0000000000000000E+00     0.0000000000000000E+00 
    6.2499999999872928E-02     0.0000000000000000E+00     0.0000000000000000E+00 
    1.2499999999977310E-01     0.0000000000000000E+00     0.0000000000000000E+00 
    1.8749999999959341E-01     0.0000000000000000E+00     0.0000000000000000E+00 
    2.4999999999941089E-01     0.0000000000000000E+00     0.0000000000000000E+00 
    3.1249999999922851E-01     0.0000000000000000E+00     0.0000000000000000E+00 
    3.7499999999904610E-01     0.0000000000000000E+00     0.0000000000000000E+00 
    4.3749999999886358E-01     0.0000000000000000E+00     0.0000000000000000E+00 
    4.9999999999869210E-01     0.0000000000000000E+00     0.0000000000000000E+00 
    5.6249999999884603E-01     0.0000000000000000E+00     0.0000000000000000E+00 
    6.2499999999901090E-01     0.0000000000000000E+00     0.0000000000000000E+00 
    6.8749999999917577E-01     0.0000000000000000E+00     0.0000000000000000E+00 
    7.4999999999934064E-01     0.0000000000000000E+00     0.0000000000000000E+00 
    8.1249999999950551E-01     0.0000000000000000E+00     0.0000000000000000E+00 
    8.7499999999967026E-01     0.0000000000000000E+00     0.0000000000000000E+00 
    9.3749999999983513E-01     0.0000000000000000E+00     0.0000000000000000E+00 
    1.0000000000000000E+00     6.2499999999872928E-02     0.0000000000000000E+00 
    1.0000000000000000E+00     1.2499999999977310E-01     0.0000000000000000E+00 
    1.0000000000000000E+00     1.8749999999959341E-01     0.0000000000000000E+00 
    1.0000000000000000E+00     2.4999999999941089E-01     0.0000000000000000E+00 
    1.0000000000000000E+00     3.1249999999922851E-01     0.0000000000000000E+00 
    1.0000000000000000E+00     3.7499999999904610E-01     0.0000000000000000E+00 
    1.0000000000000000E+00     4.3749999999886358E-01     0.0000000000000000E+00 
    1.0000000000000000E+00     4.9999999999869210E-01     0.0000000000000000E+00 
    1.0000000000000000E+00     5.6249999999884603E-01     0.0000000000000000E+00 
    1.0000000000000000E+00     6.2499999999901090E-01     0.0000000000000000E+00 
    1.0000000000000000E+00     6.8749999999917577E-01     0.0000000000000000E+00 
    1.0000000000000000E+00     7.4999999999934064E-01     0.0000000000000000E+00 
    1.0000000000000000E+00     8.1249999999950551E-01     0.0000000000000000E+00 
    1.0000000000000000E+00     8.7499999999967026E-01     0.0000000000000000E+00 
    1.0000000000000000E+00     9.3749999999983513E-01     0.0000000000000000E+00 
    9.3749999999973976E-01     1.0000000000000000E+00     0.0000000000000000E+00 
    8.7499999999950118E-01     1.0000000000000000E+00     0.0000000000000000E+00 
    8.1249999999991318E-01     1.0000000000000000E+00     0.0000000000000000E+00 
    7.5000000000034706E-01     1.0000000000000000E+00     0.0000000000000000E+00 
    6.8750000000078049E-01     1.0000000000000000E+00     0.0000000000000000E+00 
    6.2500000000121403E-01     1.0000000000000000E+00     0.0000000000000000E+00 
    5.6250000000164757E-01     1.0000000000000000E+00     0.0000000000000000E+00 
    5.0000000000205946E-01     1.0000000000000000E+00     0.0000000000000000E+00 
    4.3750000000182099E-01     1.0000000000000000E+00     0.0000000000000000E+00 
    3.7500000000156092E-01     1.0000000000000000E+00     0.0000000000000000E+00 
    3.1250000000130068E-01     1.0000000000000000E+00     0.0000000000000000E+00 
    2.5000000000104050E-01     1.0000000000000000E+00     0.0000000000000000E+00 
    1.8750000000078040E-01     1.0000000000000000E+00     0.0000000000000000E+00 
    1.2500000000052031E-01     1.0000000000000000E+00     0.0000000000000000E+00 
    6.2500000000260125E-02     1.0000000000000000E+00     0.0000000000000000E+00 
    0.0000000000000000E+00     9.3749999999973976E-01     0.0000000000000000E+00 
    0.0000000000000000E+00     8.7499999999950118E-01     0.0000000000000000E+00 
    0.0000000000000000E+00     8.1249999999991318E-01     0.0000000000000000E+00 
    0.0000000000000000E+00     7.5000000000034706E-01     0.0000000000000000E+00 
    0.0000000000000000E+00     6.8750000000078049E-01     0.0000000000000000E+00 
    0.0000000000000000E+00     6.2500000000121403E-01     0.0000000000000000E+00 
    0.0000000000000000E+00     5.6250000000164757E-01     0.0000000000000000E+00 
    0.0000000000000000E+00     5.0000000000205946E-01     0.0000000000000000E+00 
    0.0000000000000000E+00     4.3750000000182099E-01     0.0000000000000000E+00 
    0.0000000000000000E+00     3.7500000000156092E-01     0.0000000000000000E+00 
    0.0000000000000000E+00     3.1250000000130068E-01     0.0000000000000000E+00 
    0.0000000000000000E+00     2.5000000000104050E-01     0.0000000000000000E+00 
    0.0000000000000000E+00     1.8750000000078040E-01     0.0000000000000000E+00 
    0.0000000000000000E+00     1.2500000000052031E-01     0.0000000000000000E+00 
    0.0000000000000000E+00     6.2500000000260125E-02     0.0000000000000000E+00 
    6.2499999999897131E-02     6.2500000000235922E-02     0.0000000000000000E+00 
    6.2499999999921327E-02     1.2500000000047351E-01     0.0000000000000000E+00 
    6.2499999999945530E-02     1.8750000000070621E-01     0.0000000000000000E+00 
    6.2499999999969733E-02     2.5000000000093858E-01     0.0000000000000000E+00 
    6.2499999999993928E-02     3.1250000000117117E-01     0.0000000000000000E+00 
    6.2500000000018124E-02     3.7500000000140382E-01     0.0000000000000000E+00 
    6.2500000000042327E-02     4.3750000000163619E-01     0.0000000000000000E+00 
    6.2500000000066530E-02     5.0000000000184897E-01     0.0000000000000000E+00 
    6.2500000000090733E-02     5.6250000000147260E-01     0.0000000000000000E+00 
    6.2500000000114922E-02     6.2500000000107636E-01     0.0000000000000000E+00 
    6.2500000000139125E-02     6.8750000000068034E-01     0.0000000000000000E+00 
    6.2500000000163328E-02     7.5000000000028411E-01     0.0000000000000000E+00 
    6.2500000000187531E-02     8.1249999999988787E-01     0.0000000000000000E+00 
    6.2500000000211720E-02     8.7499999999951172E-01     0.0000000000000000E+00 
    6.2500000000235922E-02     9.3749999999974565E-01     0.0000000000000000E+00 
    1.2499999999981980E-01     6.2500000000211733E-02     0.0000000000000000E+00 
    1.2499999999986650E-01     1.2500000000042691E-01     0.0000000000000000E+00 
    1.2499999999991319E-01     1.8750000000063199E-01     0.0000000000000000E+00 
    1.2499999999995989E-01     2.5000000000083678E-01     0.0000000000000000E+00 
    1.2500000000000661E-01     3.1250000000104172E-01     0.0000000000000000E+00 
    1.2500000000005329E-01     3.7500000000124661E-01     0.0000000000000000E+00 
    1.2500000000010000E-01     4.3750000000145117E-01     0.0000000000000000E+00 
    1.2500000000014669E-01     5.0000000000163858E-01     0.0000000000000000E+00 
    1.2500000000019340E-01     5.6250000000129741E-01     0.0000000000000000E+00 
    1.2500000000024011E-01     6.2500000000093847E-01     0.0000000000000000E+00 
    1.2500000000028680E-01     6.8750000000057998E-01     0.0000000000000000E+00 
    1.2500000000033351E-01     7.5000000000022127E-01     0.0000000000000000E+00 
    1.2500000000038020E-01     8.1249999999986211E-01     0.0000000000000000E+00 
    1.2500000000042691E-01     8.7499999999952238E-01     0.0000000000000000E+00 
    1.2500000000047359E-01     9.3749999999975164E-01     0.0000000000000000E+00 
    1.8749999999966760E-01     6.2500000000187531E-02     0.0000000000000000E+00 
    1.8749999999974179E-01     1.2500000000038020E-01     0.0000000000000000E+00 
    1.8749999999981601E-01     1.8750000000055780E-01     0.0000000000000000E+00 
    1.8749999999989009E-01     2.5000000000073502E-01     0.0000000000000000E+00 
    1.8749999999996431E-01     3.1250000000091221E-01     0.0000000000000000E+00 
    1.8750000000003850E-01     3.7500000000108941E-01     0.0000000000000000E+00 
    1.8750000000011269E-01     4.3750000000126649E-01     0.0000000000000000E+00 
    1.8750000000018691E-01     5.0000000000142808E-01     0.0000000000000000E+00 
    1.8750000000026110E-01     5.6250000000112244E-01     0.0000000000000000E+00 
    1.8750000000033529E-01     6.2500000000080080E-01     0.0000000000000000E+00 
    1.8750000000040951E-01     6.8750000000047962E-01     0.0000000000000000E+00 
    1.8750000000048361E-01     7.5000000000015843E-01     0.0000000000000000E+00 
    1.8750000000055780E-01     8.1249999999983680E-01     0.0000000000000000E+00 
    1.8750000000063199E-01     8.7499999999953304E-01     0.0000000000000000E+00 
    1.8750000000070621E-01     9.3749999999975764E-01     0.0000000000000000E+00 
    2.4999999999951281E-01     6.2500000000163314E-02     0.0000000000000000E+00 
    2.4999999999961461E-01     1.2500000000033351E-01     0.0000000000000000E+00 
    2.4999999999971650E-01     1.8750000000048361E-01     0.0000000000000000E+00 
    2.4999999999981831E-01     2.5000000000063310E-01     0.0000000000000000E+00 
    2.4999999999992020E-01     3.1250000000078260E-01     0.0000000000000000E+00 
    2.5000000000002198E-01     3.7500000000093209E-01     0.0000000000000000E+00 
    2.5000000000012390E-01     4.3750000000108180E-01     0.0000000000000000E+00 
    2.5000000000022571E-01     5.0000000000121769E-01     0.0000000000000000E+00 
    2.5000000000032763E-01     5.6250000000094724E-01     0.0000000000000000E+00 
    2.5000000000042938E-01     6.2500000000066314E-01     0.0000000000000000E+00 
    2.5000000000053119E-01     6.8750000000037925E-01     0.0000000000000000E+00 
[...]
CELL_DATA 256 
SCALARS Pressure double 1 
LOOKUP_TABLE default 

    1.1115995941092742E+00 
    1.0986993051852809E+00 
    1.0845181853508685E+00 
    1.0708837749974514E+00 
    1.0606657288759740E+00 
    1.0538161774247405E+00 
    1.0445268798561806E+00 
    1.0371060607684528E+00 
    1.0308005886140796E+00 
    1.0235008984201013E+00 
    1.0162141565752540E+00 
    1.0102851138042781E+00 
    1.0047805738226909E+00 
    9.9967028138103420E-01 
    9.9523317818292667E-01 
    9.9191496980240368E-01 
    1.0588734443043661E+00 
    1.0545755034471183E+00 
    1.0490585167274951E+00 
    1.0425799114647665E+00 
    1.0354279461309901E+00 
    1.0272416121816668E+00 
    1.0194816336245305E+00 
    1.0133152474151683E+00 
    1.0060410621915574E+00 
    9.9805349887331518E-01 
    9.9091928671376450E-01 
    9.8514770708227661E-01 
    9.8020828139033422E-01 
    9.7661025914163380E-01 
    9.7427637747513995E-01 
    9.7272565496523111E-01 
    1.0132990617510107E+00 
    1.0109573446371010E+00 
    1.0078691470138448E+00 
    1.0035265269698992E+00 
    9.9759226123131572E-01 
    9.9018539639152736E-01 
    9.8301971982458580E-01 
    9.7667958786254583E-01 
    9.6856126133383924E-01 
    9.6016757885073178E-01 
    9.5338396696811278E-01 
    9.4789028457472102E-01 
    9.4345507000907369E-01 
    9.4100880545603427E-01 
    9.4028375612618675E-01 
    9.4035124122749758E-01 
    9.6308445974495005E-01 
    9.6249080914430107E-01 
    9.6106471445605979E-01 
    9.5808956753359087E-01 
    9.5312778545421373E-01 
    9.4649828829577054E-01 
    9.3965311482216418E-01 
    9.3251188318904898E-01 
    9.2368604722671155E-01 
    9.1574153147251103E-01 
    9.1006374067441798E-01 
    9.0525716779351184E-01 
    9.0149980190101653E-01 
    9.0000556663503850E-01 
    9.0039308391680606E-01 
    9.0125782102574259E-01 
    9.1356098004520281E-01 
    9.1378910473024477E-01 
    9.1116837674050155E-01 
    9.0726084175372934E-01 
    9.0166002674726964E-01 
    8.9495875626595056E-01 
    8.8813223345602887E-01 
    8.8117974658494280E-01 
    8.7393118034293626E-01 
    8.6849095460900472E-01 
    8.6474244946079415E-01 
    8.6140520960526978E-01 
    8.5860917710350393E-01 
    8.5772101269941214E-01 
    8.5800828699751341E-01 
    8.5779062605191991E-01 
    8.4617277503795174E-01 
    8.4430651175629989E-01 
    8.4123159811359993E-01 
    8.3738522050298858E-01 
    8.3353588937642242E-01 
    8.2996554222288421E-01 
    8.2636207887114432E-01 
    8.2288628371874750E-01 
    8.2033049708985351E-01 
    8.1870163312429145E-01 
    8.1710912352773757E-01 
    8.1501347138947555E-01 
    8.1287847704681782E-01 
    8.1087935732784344E-01 
    8.0896846931857924E-01 
    8.0750507205825239E-01 
    7.6515003812531812E-01 
    7.6474302863932220E-01 
    7.6395598032333112E-01 
    7.6325462097721186E-01 
    7.6279261206012328E-01 
    7.6208975185657890E-01 
    7.6033920835488045E-01 
    7.5834794628532043E-01 
    7.5759882420178970E-01 
    7.5697684746792759E-01 
    7.5551285177723138E-01 
    7.5376182989163354E-01 
    7.5270268810971963E-01 
    7.5193821854537501E-01 
    7.5160624563261969E-01 
    7.5137211512222501E-01 
    6.9982321596628916E-01 
    7.0034527585307216E-01 
    7.0053571577747509E-01 
    7.0055387893909482E-01 
    7.0025300799692991E-01 
    6.9945991916377515E-01 
    6.9801859783981113E-01 
    6.9628652810393066E-01 
    6.9477893301619553E-01 
    6.9363135049597302E-01 
    6.9235692574847829E-01 
    6.9103809299814889E-01 
    6.9011536667669204E-01 
    6.9021375127221118E-01 
    6.9133627465564118E-01 
    6.9234737007839653E-01 
    6.4162602777986255E-01 
    6.4207664859103353E-01 
    6.4156077396498512E-01 
    6.4098893082068464E-01 
    6.3999045508526275E-01 
    6.3864465956730521E-01 
    6.3701359791459078E-01 
    6.3559093601232919E-01 
    6.3404728355865914E-01 
    6.3326279553267317E-01 
    6.3263041598134218E-01 
    6.3183808566837862E-01 
    6.3107393844341875E-01 
    6.3164732109600863E-01 
    6.3309693766916164E-01 
    6.3357807076338657E-01 
    5.8315416985339175E-01 
    5.8263564484724328E-01 
    5.8147861225417607E-01 
    5.8014373749335779E-01 
    5.7899418163481498E-01 
    5.7801994333138296E-01 
    5.7702023549430470E-01 
    5.7651280364591373E-01 
    5.7659482619382163E-01 
    5.7721635470486343E-01 
    5.7790476653884015E-01 
    5.7736949426576956E-01 
    5.7628135255463453E-01 
    5.7488090638827538E-01 
    5.7337473085429524E-01 
    5.7245858698636098E-01 
    5.2610090841623292E-01 
    5.2569065234160517E-01 
    5.2492619146230257E-01 
    5.2417165814802569E-01 
    5.2344125313752110E-01 
    5.2215684485397895E-01 
    5.1990403463718671E-01 
    5.1829515693519801E-01 
    5.1748671019110248E-01 
    5.1620275019729223E-01 
    5.1417083131100172E-01 
    5.1212602235698224E-01 
    5.1076164216588316E-01 
    5.0958255902759420E-01 
    5.0891997475247863E-01 
    5.0857462937174613E-01 
    4.7454855970547116E-01 
    4.7418919411605620E-01 
    4.7335233263074805E-01 
    4.7202645335209154E-01 
    4.7015943362001378E-01 
    4.6778238977726633E-01 
    4.6508594367063805E-01 
    4.6173578236777230E-01 
    4.5762857072297330E-01 
    4.5310105250464777E-01 
    4.4892009382557935E-01 
    4.4512899426221647E-01 
    4.4198644946973642E-01 
    4.4026150836506173E-01 
    4.4008367662878528E-01 
    4.4060056218937960E-01 
    4.2452536943481056E-01 
    4.2396123181047340E-01 
    4.2264578011364551E-01 
    4.2039140676624831E-01 
    4.1726948254696516E-01 
    4.1360506291699634E-01 
    4.0952456498031964E-01 
    4.0397851248561645E-01 
    3.9710694566577664E-01 
    3.8994799750658105E-01 
    3.8328074104456145E-01 
    3.7699073934794552E-01 
    3.7174301159769985E-01 
    3.6895178563519632E-01 
    3.6866683859056587E-01 
    3.6962046137723187E-01 
    3.7534542648018254E-01 
    3.7453844916389917E-01 
    3.7270579748518973E-01 
    3.6950148425215368E-01 
    3.6505739620697419E-01 
    3.5991671977162609E-01 
    3.5434553762207699E-01 
    3.4687007061303310E-01 
    3.3763045209077658E-01 
    3.2798761298305446E-01 
    3.1863688443139165E-01 
    3.0949610568830882E-01 
    3.0138463353269013E-01 
    2.9605798688648438E-01 
    2.9356998754903352E-01 
    2.9288071185932307E-01 
    3.3040042738014996E-01 
    3.2940489015398366E-01 
    3.2715698898145973E-01 
    3.2315647247625295E-01 
    3.1755077523987185E-01 
    3.1110412210888377E-01 
    3.0440462384677208E-01 
    2.9567729790772157E-01 
    2.8472765681990481E-01 
    2.7261874176289408E-01 
    2.5978924872485704E-01 
    2.4602552063136049E-01 
    2.3136583903087277E-01 
    2.1699111519146386E-01 
    2.0373016394459623E-01 
    1.9401801927545415E-01 
    3.0169191883699698E-01 
    3.0051320810788762E-01 
    2.9790594272267995E-01 
    2.9337287841995913E-01 
    2.8708009262570222E-01 
    2.8000131678458134E-01 
    2.7321571489514551E-01 
    2.6470574570006439E-01 
    2.5276958297524560E-01 
    2.3686231058152804E-01 
    2.1830785309221157E-01 
    1.9553521036721361E-01 
    1.6432910557486988E-01 
    1.2217892882131191E-01 
    6.7923890448146909E-02 
    0.0000000000000000E+00 

SCALARS Saturarion double 1 
LOOKUP_TABLE default 

    1.0000000240475133E+00 
    9.2907749131581296E-01 
    8.3456494729650466E-01 
    7.5505468394969610E-01 
    6.8402972026246911E-01 
    6.2504242217955563E-01 
    5.6712310150665213E-01 
    5.1607712161355268E-01 
    4.6264776396263557E-01 
    2.0365005246261594E-01 
    1.1892120101454094E-06 
    1.0000000039155175E-06 
    9.9999999999999530E-07 
    9.9999999999999995E-07 
    9.9999999999999995E-07 
    9.9999999999999995E-07 
    8.6362501978698447E-01 
    8.3463525429790475E-01 
    7.7248955341229486E-01 
    7.1351440904882790E-01 
    6.5657791238692809E-01 
    6.0257865652111475E-01 
    5.5344760503240775E-01 
    5.0959884995006888E-01 
    4.5930299312735107E-01 
    2.2402184191476851E-01 
    4.4392725707985077E-05 
    1.0001320339407406E-06 
    1.0000000000094120E-06 
    9.9999999999999995E-07 
    9.9999999999999995E-07 
    9.9999999999999995E-07 
    7.0539545947183269E-01 
    6.9472568723833261E-01 
    6.6420226321573705E-01 
    6.3509792225959294E-01 
    5.9913159619637923E-01 
    5.5671636520337153E-01 
    5.1838203426999696E-01 
    4.8114743784308472E-01 
    4.1681878298135039E-01 
    1.0996999742835215E-01 
    1.4147170089746233E-04 
    1.0038500804018367E-06 
    1.0000000000000021E-06 
    9.9999999999999995E-07 
    9.9999999999999995E-07 
    9.9999999999999995E-07 
    5.9129380278311316E-01 
    5.8603898507580932E-01 
    5.7226143804166218E-01 
    5.5219012964270675E-01 
    5.3120081146459019E-01 
    5.0310808624663994E-01 
    4.7102970890511942E-01 
    4.2149663632356754E-01 
    2.2414156612339425E-01 
    4.4386121089837124E-03 
    1.6693523205731621E-06 
    1.0000001107750677E-06 
    1.0000000000000023E-06 
    9.9999999999999995E-07 
    9.9999999999999995E-07 
    9.9999999999999995E-07 
    4.8986664153532322E-01 
    4.8723747947088530E-01 
    4.8381986001970045E-01 
    4.7510057378080167E-01 
    4.6137256808461985E-01 
    4.2446653985786109E-01 
    3.1249353386310608E-01 
    1.2046852087450720E-01 
    6.9469767181816995E-03 
    3.1751115626657451E-06 
    1.0000006270461673E-06 
    1.0000000000000345E-06 
    9.9999999999999995E-07 
    9.9999999999999995E-07 
    9.9999999999999995E-07 
    9.9999999999999995E-07 
    2.8809798264528946E-01 
    2.6531428278611863E-01 
    2.2944847706310695E-01 
    1.8208342073152708E-01 
    1.5180437368287159E-01 
    7.2941375175550022E-02 
    8.2397781573043741E-03 
    3.0773428113800859E-04 
    2.2492942014164224E-06 
    1.0000006755785940E-06 
    1.0000000000001202E-06 
    9.9999999999999995E-07 
    9.9999999999999995E-07 
    9.9999999999999995E-07 
    9.9999999999999995E-07 
    9.9999999999999995E-07 
    5.3653874361464392E-05 
    6.6736707324535822E-05 
    4.3750673015660088E-05 
    5.1947870170566038E-05 
    8.3213423796858315E-05 
    1.0976381493702179E-04 
    3.2725868248507809E-06 
    1.0221467000120595E-06 
    1.0000002696785964E-06 
    1.0000000000000548E-06 
    9.9999999999999995E-07 
    9.9999999999999995E-07 
    9.9999999999999995E-07 
    9.9999999999999995E-07 
    9.9999999999999995E-07 
    9.9999999999999995E-07 
    1.0000000008822792E-06 
    1.0001374350415297E-06 
    1.0006916737042679E-06 
    1.0012414689827680E-06 
    1.0023805635279938E-06 
    1.0019563490949444E-06 
    1.0000007331633839E-06 
    1.0000000000000474E-06 
    1.0000000000000042E-06 
    9.9999999999999995E-07 
    9.9999999999999995E-07 
    9.9999999999999995E-07 
    9.9999999999999995E-07 
    9.9999999999999995E-07 
    9.9999999999999995E-07 
    9.9999999999999995E-07 
    9.9999999999999995E-07 
    1.0000000000202390E-06 
    1.0000000000639327E-06 
    1.0000000001569721E-06 
    1.0000000000761531E-06 
    1.0000000000000048E-06 
    9.9999999999999995E-07 
    9.9999999999999995E-07 
    9.9999999999999995E-07 
    9.9999999999999995E-07 
    9.9999999999999995E-07 
    9.9999999999999995E-07 
    9.9999999999999995E-07 
    9.9999999999999995E-07 
    9.9999999999999995E-07 
    9.9999999999999995E-07 
    9.9999999999999995E-07 
    9.9999999999999995E-07 
    9.9999999999999974E-07 
    9.9999999999999995E-07 
    9.9999999999999974E-07 
    9.9999999999999995E-07 
    9.9999999999999995E-07 
    9.9999999999999995E-07 
    9.9999999999999995E-07 
    9.9999999999999995E-07 
    9.9999999999999995E-07 
    9.9999999999999995E-07 
    9.9999999999999995E-07 
    9.9999999999999995E-07 
    9.9999999999999995E-07 
    9.9999999999999995E-07 
    9.9999999999999995E-07 
    9.9999999999999995E-07 
    9.9999999999999995E-07 
    9.9999999999999995E-07 
    9.9999999999999995E-07 
    9.9999999999999995E-07 
    9.9999999999999995E-07 
    9.9999999999999995E-07 
    9.9999999999999995E-07 
    9.9999999999999995E-07 
    9.9999999999999995E-07 
    9.9999999999999995E-07 
    9.9999999999999995E-07 
    9.9999999999999995E-07 
    9.9999999999999995E-07 
    9.9999999999999995E-07 
    9.9999999999999995E-07 
    9.9999999999999995E-07 
    9.9999999999999995E-07 
    9.9999999999999995E-07 
    9.9999999999999995E-07 
    9.9999999999999995E-07 
    9.9999999999999995E-07 
    9.9999999999999995E-07 
    9.9999999999999995E-07 
    9.9999999999999995E-07 
    9.9999999999999995E-07 
    9.9999999999999995E-07 
    9.9999999999999995E-07 
    9.9999999999999995E-07 
    9.9999999999999995E-07 
    9.9999999999999995E-07 
    9.9999999999999995E-07 
    9.9999999999999995E-07 
    9.9999999999999995E-07 
    9.9999999999999995E-07 
    9.9999999999999995E-07 
    9.9999999999999995E-07 
    9.9999999999999995E-07 
    9.9999999999999995E-07 
    9.9999999999999995E-07 
    9.9999999999999995E-07 
    9.9999999999999995E-07 
    9.9999999999999995E-07 
    9.9999999999999995E-07 
    9.9999999999999995E-07 
    9.9999999999999995E-07 
    9.9999999999999995E-07 
    9.9999999999999995E-07 
    9.9999999999999995E-07 
    9.9999999999999995E-07 
    9.9999999999999995E-07 
    9.9999999999999995E-07 
    9.9999999999999995E-07 
    9.9999999999999995E-07 
    9.9999999999999995E-07 
    9.9999999999999995E-07 
    9.9999999999999995E-07 
    9.9999999999999995E-07 
    9.9999999999999995E-07 
    9.9999999999999995E-07 
    9.9999999999999995E-07 
    9.9999999999999995E-07 
    9.9999999999999995E-07 
    9.9999999999999995E-07 
    9.9999999999999995E-07 
    9.9999999999999995E-07 
    9.9999999999999995E-07 
    9.9999999999999995E-07 
    9.9999999999999995E-07 
    9.9999999999999995E-07 
    9.9999999999999995E-07 
    9.9999999999999995E-07 
    9.9999999999999995E-07 
    9.9999999999999995E-07 
    9.9999999999999995E-07 
    9.9999999999999995E-07 
    9.9999999999999995E-07 
    9.9999999999999995E-07 
    9.9999999999999995E-07 
    9.9999999999999995E-07 
    9.9999999999999995E-07 
    9.9999999999999995E-07 
    9.9999999999999995E-07 
    9.9999999999999995E-07 
    9.9999999999999995E-07 
    9.9999999999999995E-07 
    9.9999999999999995E-07 
    9.9999999999999995E-07 
    9.9999999999999995E-07 
    9.9999999999999995E-07 
    9.9999999999999995E-07 
    9.9999999999999995E-07 
    9.9999999999999995E-07 
    9.9999999999999995E-07 
    1.0000000284703187E-06 
