# vtk DataFile Version 2.0
Pressure Field Data 
ASCII 
DATASET UNSTRUCTURED_GRID 

POINTS 289 double 

    0.0000000000000000E+00     0.0000000000000000E+00     0.0000000000000000E+00 
    1.0000000000000000E+00     0.0000000000000000E+00     0.0000000000000000E+00 
    1.0000000000000000E+00     1.0000000000000000E+00     0.0000000000000000E+00 
    0.0000000000000000E+00     1.0000000000000000E+00     0.0000000000000000E+00 
    6.2499999999872928E-02     0.0000000000000000E+00     0.0000000000000000E+00 
    1.2499999999977310E-01     0.0000000000000000E+00     0.0000000000000000E+00 
    1.8749999999959341E-01     0.0000000000000000E+00     0.0000000000000000E+00 
    2.4999999999941089E-01     0.0000000000000000E+00     0.0000000000000000E+00 
    3.1249999999922851E-01     0.0000000000000000E+00     0.0000000000000000E+00 
    3.7499999999904610E-01     0.0000000000000000E+00     0.0000000000000000E+00 
    4.3749999999886358E-01     0.0000000000000000E+00     0.0000000000000000E+00 
    4.9999999999869210E-01     0.0000000000000000E+00     0.0000000000000000E+00 
    5.6249999999884603E-01     0.0000000000000000E+00     0.0000000000000000E+00 
    6.2499999999901090E-01     0.0000000000000000E+00     0.0000000000000000E+00 
    6.8749999999917577E-01     0.0000000000000000E+00     0.0000000000000000E+00 
    7.4999999999934064E-01     0.0000000000000000E+00     0.0000000000000000E+00 
    8.1249999999950551E-01     0.0000000000000000E+00     0.0000000000000000E+00 
    8.7499999999967026E-01     0.0000000000000000E+00     0.0000000000000000E+00 
    9.3749999999983513E-01     0.0000000000000000E+00     0.0000000000000000E+00 
    1.0000000000000000E+00     6.2499999999872928E-02     0.0000000000000000E+00 
    1.0000000000000000E+00     1.2499999999977310E-01     0.0000000000000000E+00 
    1.0000000000000000E+00     1.8749999999959341E-01     0.0000000000000000E+00 
    1.0000000000000000E+00     2.4999999999941089E-01     0.0000000000000000E+00 
    1.0000000000000000E+00     3.1249999999922851E-01     0.0000000000000000E+00 
    1.0000000000000000E+00     3.7499999999904610E-01     0.0000000000000000E+00 
    1.0000000000000000E+00     4.3749999999886358E-01     0.0000000000000000E+00 
    1.0000000000000000E+00     4.9999999999869210E-01     0.0000000000000000E+00 
    1.0000000000000000E+00     5.6249999999884603E-01     0.0000000000000000E+00 
    1.0000000000000000E+00     6.2499999999901090E-01     0.0000000000000000E+00 
    1.0000000000000000E+00     6.8749999999917577E-01     0.0000000000000000E+00 
    1.0000000000000000E+00     7.4999999999934064E-01     0.0000000000000000E+00 
    1.0000000000000000E+00     8.1249999999950551E-01     0.0000000000000000E+00 
    1.0000000000000000E+00     8.7499999999967026E-01     0.0000000000000000E+00 
    1.0000000000000000E+00     9.3749999999983513E-01     0.0000000000000000E+00 
    9.3749999999973976E-01     1.0000000000000000E+00     0.0000000000000000E+00 
    8.7499999999950118E-01     1.0000000000000000E+00     0.0000000000000000E+00 
    8.1249999999991318E-01     1.0000000000000000E+00     0.0000000000000000E+00 
    7.5000000000034706E-01     1.0000000000000000E+00     0.0000000000000000E+00 
    6.8750000000078049E-01     1.0000000000000000E+00     0.0000000000000000E+00 
    6.2500000000121403E-01     1.0000000000000000E+00     0.0000000000000000E+00 
    5.6250000000164757E-01     1.0000000000000000E+00     0.0000000000000000E+00 
    5.0000000000205946E-01     1.0000000000000000E+00     0.0000000000000000E+00 
    4.3750000000182099E-01     1.0000000000000000E+00     0.0000000000000000E+00 
    3.7500000000156092E-01     1.0000000000000000E+00     0.0000000000000000E+00 
    3.1250000000130068E-01     1.0000000000000000E+00     0.0000000000000000E+00 
    2.5000000000104050E-01     1.0000000000000000E+00     0.0000000000000000E+00 
    1.8750000000078040E-01     1.0000000000000000E+00     0.0000000000000000E+00 
    1.2500000000052031E-01     1.0000000000000000E+00     0.0000000000000000E+00 
    6.2500000000260125E-02     1.0000000000000000E+00     0.0000000000000000E+00 
    0.0000000000000000E+00     9.3749999999973976E-01     0.0000000000000000E+00 
    0.0000000000000000E+00     8.7499999999950118E-01     0.0000000000000000E+00 
    0.0000000000000000E+00     8.1249999999991318E-01     0.0000000000000000E+00 
    0.0000000000000000E+00     7.5000000000034706E-01     0.0000000000000000E+00 
    0.0000000000000000E+00     6.8750000000078049E-01     0.0000000000000000E+00 
    0.0000000000000000E+00     6.2500000000121403E-01     0.0000000000000000E+00 
    0.0000000000000000E+00     5.6250000000164757E-01     0.0000000000000000E+00 
    0.0000000000000000E+00     5.0000000000205946E-01     0.0000000000000000E+00 
    0.0000000000000000E+00     4.3750000000182099E-01     0.0000000000000000E+00 
    0.0000000000000000E+00     3.7500000000156092E-01     0.0000000000000000E+00 
    0.0000000000000000E+00     3.1250000000130068E-01     0.0000000000000000E+00 
    0.0000000000000000E+00     2.5000000000104050E-01     0.0000000000000000E+00 
    0.0000000000000000E+00     1.8750000000078040E-01     0.0000000000000000E+00 
    0.0000000000000000E+00     1.2500000000052031E-01     0.0000000000000000E+00 
    0.0000000000000000E+00     6.2500000000260125E-02     0.0000000000000000E+00 
    6.2499999999897131E-02     6.2500000000235922E-02     0.0000000000000000E+00 
    6.2499999999921327E-02     1.2500000000047351E-01     0.0000000000000000E+00 
    6.2499999999945530E-02     1.8750000000070621E-01     0.0000000000000000E+00 
    6.2499999999969733E-02     2.5000000000093858E-01     0.0000000000000000E+00 
    6.2499999999993928E-02     3.1250000000117117E-01     0.0000000000000000E+00 
    6.2500000000018124E-02     3.7500000000140382E-01     0.0000000000000000E+00 
    6.2500000000042327E-02     4.3750000000163619E-01     0.0000000000000000E+00 
    6.2500000000066530E-02     5.0000000000184897E-01     0.0000000000000000E+00 
    6.2500000000090733E-02     5.6250000000147260E-01     0.0000000000000000E+00 
    6.2500000000114922E-02     6.2500000000107636E-01     0.0000000000000000E+00 
    6.2500000000139125E-02     6.8750000000068034E-01     0.0000000000000000E+00 
    6.2500000000163328E-02     7.5000000000028411E-01     0.0000000000000000E+00 
    6.2500000000187531E-02     8.1249999999988787E-01     0.0000000000000000E+00 
    6.2500000000211720E-02     8.7499999999951172E-01     0.0000000000000000E+00 
    6.2500000000235922E-02     9.3749999999974565E-01     0.0000000000000000E+00 
    1.2499999999981980E-01     6.2500000000211733E-02     0.0000000000000000E+00 
    1.2499999999986650E-01     1.2500000000042691E-01     0.0000000000000000E+00 
    1.2499999999991319E-01     1.8750000000063199E-01     0.0000000000000000E+00 
    1.2499999999995989E-01     2.5000000000083678E-01     0.0000000000000000E+00 
    1.2500000000000661E-01     3.1250000000104172E-01     0.0000000000000000E+00 
    1.2500000000005329E-01     3.7500000000124661E-01     0.0000000000000000E+00 
    1.2500000000010000E-01     4.3750000000145117E-01     0.0000000000000000E+00 
    1.2500000000014669E-01     5.0000000000163858E-01     0.0000000000000000E+00 
    1.2500000000019340E-01     5.6250000000129741E-01     0.0000000000000000E+00 
    1.2500000000024011E-01     6.2500000000093847E-01     0.0000000000000000E+00 
    1.2500000000028680E-01     6.8750000000057998E-01     0.0000000000000000E+00 
    1.2500000000033351E-01     7.5000000000022127E-01     0.0000000000000000E+00 
    1.2500000000038020E-01     8.1249999999986211E-01     0.0000000000000000E+00 
    1.2500000000042691E-01     8.7499999999952238E-01     0.0000000000000000E+00 
    1.2500000000047359E-01     9.3749999999975164E-01     0.0000000000000000E+00 
    1.8749999999966760E-01     6.2500000000187531E-02     0.0000000000000000E+00 
    1.8749999999974179E-01     1.2500000000038020E-01     0.0000000000000000E+00 
    1.8749999999981601E-01     1.8750000000055780E-01     0.0000000000000000E+00 
    1.8749999999989009E-01     2.5000000000073502E-01     0.0000000000000000E+00 
    1.8749999999996431E-01     3.1250000000091221E-01     0.0000000000000000E+00 
    1.8750000000003850E-01     3.7500000000108941E-01     0.0000000000000000E+00 
    1.8750000000011269E-01     4.3750000000126649E-01     0.0000000000000000E+00 
    1.8750000000018691E-01     5.0000000000142808E-01     0.0000000000000000E+00 
    1.8750000000026110E-01     5.6250000000112244E-01     0.0000000000000000E+00 
    1.8750000000033529E-01     6.2500000000080080E-01     0.0000000000000000E+00 
    1.8750000000040951E-01     6.8750000000047962E-01     0.0000000000000000E+00 
    1.8750000000048361E-01     7.5000000000015843E-01     0.0000000000000000E+00 
    1.8750000000055780E-01     8.1249999999983680E-01     0.0000000000000000E+00 
    1.8750000000063199E-01     8.7499999999953304E-01     0.0000000000000000E+00 
    1.8750000000070621E-01     9.3749999999975764E-01     0.0000000000000000E+00 
    2.4999999999951281E-01     6.2500000000163314E-02     0.0000000000000000E+00 
    2.4999999999961461E-01     1.2500000000033351E-01     0.0000000000000000E+00 
    2.4999999999971650E-01     1.8750000000048361E-01     0.0000000000000000E+00 
    2.4999999999981831E-01     2.5000000000063310E-01     0.0000000000000000E+00 
    2.4999999999992020E-01     3.1250000000078260E-01     0.0000000000000000E+00 
    2.5000000000002198E-01     3.7500000000093209E-01     0.0000000000000000E+00 
    2.5000000000012390E-01     4.3750000000108180E-01     0.0000000000000000E+00 
    2.5000000000022571E-01     5.0000000000121769E-01     0.0000000000000000E+00 
    2.5000000000032763E-01     5.6250000000094724E-01     0.0000000000000000E+00 
    2.5000000000042938E-01     6.2500000000066314E-01     0.0000000000000000E+00 
    2.5000000000053119E-01     6.8750000000037925E-01     0.0000000000000000E+00 
[...]
CELL_DATA 256 
SCALARS Pressure double 1 
LOOKUP_TABLE default 

    1.2369084215113886E+00 
    1.2214336837408235E+00 
    1.2000983334722382E+00 
    1.1774438636634721E+00 
    1.1532432427042794E+00 
    1.1271440437812608E+00 
    1.1046608626237506E+00 
    1.0883333687041492E+00 
    1.0750308041930186E+00 
    1.0636113737190198E+00 
    1.0536290816142044E+00 
    1.0454073282159282E+00 
    1.0381275663218559E+00 
    1.0317230651763329E+00 
    1.0264590912290661E+00 
    1.0226747779040617E+00 
    1.1601122737475504E+00 
    1.1524711258198768E+00 
    1.1405126847387925E+00 
    1.1240047313375241E+00 
    1.1035658471772165E+00 
    1.0833208688748586E+00 
    1.0669529868313861E+00 
    1.0532096429233968E+00 
    1.0401686384037685E+00 
    1.0293132815955948E+00 
    1.0209215831005014E+00 
    1.0139109781957032E+00 
    1.0079009007624500E+00 
    1.0035885885151905E+00 
    1.0008674498531784E+00 
    9.9911094254145116E-01 
    1.0699839181781086E+00 
    1.0651921930492743E+00 
    1.0567621482087566E+00 
    1.0449183432297939E+00 
    1.0317359604463421E+00 
    1.0194135445331274E+00 
    1.0086773004670895E+00 
    9.9847402944353136E-01 
    9.8814581021431713E-01 
    9.7959734174601987E-01 
    9.7306794538358454E-01 
    9.6751165587088306E-01 
    9.6298869832231637E-01 
    9.6049962202510086E-01 
    9.5981534884607222E-01 
    9.5990673155045014E-01 
    9.7569828701707706E-01 
    9.7420570394993489E-01 
    9.7078808629764490E-01 
    9.6556137110269780E-01 
    9.5911563813730438E-01 
    9.5226466328097159E-01 
    9.4555173419066874E-01 
    9.3851356912526429E-01 
    9.3110331071086594E-01 
    9.2492277732024464E-01 
    9.2028391713780044E-01 
    9.1622659828596154E-01 
    9.1305676678360337E-01 
    9.1199099610708401E-01 
    9.1272956080151502E-01 
    9.1379048595699908E-01 
    9.0284311106166426E-01 
    9.0242617925728674E-01 
    8.9986088807664433E-01 
    8.9648702615349052E-01 
    8.9231552336465303E-01 
    8.8793135518899757E-01 
    8.8363654864878094E-01 
    8.7942589422050710E-01 
    8.7474869110336195E-01 
    8.7107007745428178E-01 
    8.6849733690522468E-01 
    8.6624923852417990E-01 
    8.6423555592271017E-01 
    8.6396362424804651E-01 
    8.6472188571342756E-01 
    8.6474609071165387E-01 
    8.3177398771308053E-01 
    8.3053981383794684E-01 
    8.2840866374039690E-01 
    8.2594687278874068E-01 
    8.2390203254945382E-01 
    8.2244422102680947E-01 
    8.2106704050619317E-01 
    8.1970212701920708E-01 
    8.1878126827800168E-01 
    8.1849770114091158E-01 
    8.1805931490197370E-01 
    8.1687820839490355E-01 
    8.1543168154992240E-01 
    8.1393420701891561E-01 
    8.1232016960563391E-01 
    8.1099234582741997E-01 
    7.6011626030907831E-01 
    7.6000785313384744E-01 
    7.5962151821768076E-01 
    7.5939082270830371E-01 
    7.5940094334065489E-01 
    7.5912932005914657E-01 
    7.5779665148029396E-01 
    7.5643943888537002E-01 
    7.5635800496209094E-01 
    7.5639124903344690E-01 
    7.5553648548728425E-01 
    7.5437292654647448E-01 
    7.5377234922051650E-01 
    7.5331052356410499E-01 
    7.5312858165484842E-01 
    7.5294703681830999E-01 
    6.9689941710529157E-01 
    6.9752449746105138E-01 
    6.9788147325961636E-01 
    6.9812909287937897E-01 
    6.9808505808398769E-01 
    6.9755673286901265E-01 
    6.9639882708190082E-01 
    6.9499244121663095E-01 
    6.9385648182900705E-01 
    6.9306668115986836E-01 
    6.9213129047736188E-01 
    6.9112431535229313E-01 
    6.9045131772586543E-01 
    6.9070893096343089E-01 
    6.9191041662310715E-01 
    6.9294709690876888E-01 
    6.3995020686944315E-01 
    6.4039022360421716E-01 
    6.3996261978792768E-01 
    6.3951218363745976E-01 
    6.3865211403410016E-01 
    6.3745482788797680E-01 
    6.3600137414753688E-01 
    6.3474707435182465E-01 
    6.3339168461748818E-01 
    6.3278426686462041E-01 
    6.3232463675463757E-01 
    6.3166873877766694E-01 
    6.3102660634619501E-01 
    6.3169568395294384E-01 
    6.3320389325248727E-01 
    6.3369005304536508E-01 
    5.8213797609733375E-01 
    5.8164789402762629E-01 
    5.8055330662834881E-01 
    5.7930990498760671E-01 
    5.7825968158123897E-01 
    5.7737093788377392E-01 
    5.7645122291756012E-01 
    5.7603990374584069E-01 
    5.7620869982705736E-01 
    5.7689081352427929E-01 
    5.7763219578256786E-01 
    5.7714730472614462E-01 
    5.7610119668445969E-01 
    5.7472461612952530E-01 
    5.7323205557906476E-01 
    5.7233862383137524E-01 
    5.2547512422925158E-01 
    5.2507884821038731E-01 
    5.2434708366016836E-01 
    5.2364196697634535E-01 
    5.2296806105334270E-01 
    5.2173573983973920E-01 
    5.1952710891583243E-01 
    5.1797510633140031E-01 
    5.1721100022079425E-01 
    5.1595610606218312E-01 
    5.1394545596163821E-01 
    5.1193103790832295E-01 
    5.1058017503368114E-01 
    5.0940073341824532E-01 
    5.0873645591639016E-01 
    5.0840214177787790E-01 
    4.7411741336757601E-01 
    4.7376541392202925E-01 
    4.7294863596166470E-01 
    4.7165573497013574E-01 
    4.6982802490444930E-01 
    4.6748545952919363E-01 
    4.6481295099277636E-01 
    4.6149800030990584E-01 
    4.5741964757427839E-01 
    4.5290576406938549E-01 
    4.4873224393712202E-01 
    4.4495913441197799E-01 
    4.4182210841582031E-01 
    4.4009208988812271E-01 
    4.3991039894866457E-01 
    4.4043477724110497E-01 
    4.2424260440739570E-01 
    4.2368270930986973E-01 
    4.2237982132567431E-01 
    4.2014625609940826E-01 
    4.1704810115322566E-01 
    4.1340227245473321E-01 
    4.0933314036240670E-01 
    4.0380722091636229E-01 
    3.9695058392973087E-01 
    3.8979589773005208E-01 
    3.8313199442887663E-01 
    3.7685276179384047E-01 
    3.7160717004466320E-01 
    3.6881185264395178E-01 
    3.6852531162656704E-01 
    3.6948509587117234E-01 
    3.7519874904423556E-01 
    3.7439322762230587E-01 
    3.7256608185614315E-01 
    3.6937079753768498E-01 
    3.6493555837685104E-01 
    3.5979907469253991E-01 
    3.5422860701848391E-01 
    3.4675892970775329E-01 
    3.3752165511545851E-01 
    3.2787681227214877E-01 
    3.1852840572720281E-01 
    3.0939313521281170E-01 
    3.0128267750162574E-01 
    2.9595530511295332E-01 
    2.9346962975698743E-01 
    2.9278563715287381E-01 
    3.3037657998857589E-01 
    3.2937906092529140E-01 
    3.2712942257193922E-01 
    3.2312660211224209E-01 
    3.1751601701398890E-01 
    3.1106053209096157E-01 
    3.0435209754054204E-01 
    2.9561826569775695E-01 
    2.8466173127941380E-01 
    2.7254795098860413E-01 
    2.5972217610695536E-01 
    2.4596095061516296E-01 
    2.3130278293074447E-01 
    2.1693043433338030E-01 
    2.0367375206021437E-01 
    1.9396519296980927E-01 
    3.0174814256441912E-01 
    3.0056398726856653E-01 
    2.9795004836544103E-01 
    2.9340751579884611E-01 
    2.8710231522764362E-01 
    2.8000725876538940E-01 
    2.7320643899430735E-01 
    2.6468680411745177E-01 
    2.5274421051099016E-01 
    2.3683319142714629E-01 
    2.1828380923098092E-01 
    1.9551383662567254E-01 
    1.6430740324782730E-01 
    1.2215442195468339E-01 
    6.7900768718013843E-02 
    0.0000000000000000E+00 

SCALARS Saturarion double 1 
LOOKUP_TABLE default 

    9.7913725750546343E-01 
    7.7474222797859227E-01 
    6.1731011211313602E-01 
    5.2173034197080537E-01 
    3.9407714315796477E-01 
    4.0145905440282084E-02 
    1.1156049011535764E-06 
    1.0000000266507117E-06 
    9.9999999999999995E-07 
    9.9999999999999995E-07 
    9.9999999999999995E-07 
    9.9999999999999995E-07 
    9.9999999999999995E-07 
    9.9999999999999995E-07 
    9.9999999999999995E-07 
    9.9999999999999995E-07 
    6.6772014075366093E-01 
    6.0504860359882839E-01 
    5.1826992054693732E-01 
    4.0458574409882969E-01 
    1.1787534059594103E-01 
    7.3470107420504156E-04 
    1.1165721256291282E-06 
    1.0000000000053204E-06 
    9.9999999999999995E-07 
    9.9999999999999995E-07 
    9.9999999999999995E-07 
    9.9999999999999995E-07 
    9.9999999999999995E-07 
    9.9999999999999995E-07 
    9.9999999999999995E-07 
    9.9999999999999995E-07 
    2.9887798755486389E-01 
    2.5359222157872235E-01 
    1.5259947702395543E-01 
    3.7648746253925398E-02 
    6.2673970096491130E-04 
    1.0890742873805906E-06 
    1.0000000259442073E-06 
    1.0000000000000004E-06 
    9.9999999999999995E-07 
    9.9999999999999995E-07 
    9.9999999999999995E-07 
    9.9999999999999995E-07 
    9.9999999999999995E-07 
    9.9999999999999995E-07 
    9.9999999999999995E-07 
    9.9999999999999995E-07 
    4.5446868549052143E-05 
    1.0060079249296168E-04 
    1.2417233473198963E-04 
    3.5143247607646733E-05 
    1.0054782012050899E-06 
    1.0000000037756402E-06 
    1.0000000000000008E-06 
    9.9999999999999995E-07 
    9.9999999999999995E-07 
    9.9999999999999995E-07 
    9.9999999999999995E-07 
    9.9999999999999995E-07 
    9.9999999999999995E-07 
    9.9999999999999995E-07 
    9.9999999999999995E-07 
    9.9999999999999995E-07 
    1.0000000120902509E-06 
    1.0037897633903020E-06 
    1.0035431838827369E-06 
    1.0000714180522616E-06 
    1.0000000004379014E-06 
    1.0000000000000006E-06 
    9.9999999999999995E-07 
    9.9999999999999995E-07 
    9.9999999999999995E-07 
    9.9999999999999995E-07 
    9.9999999999999995E-07 
    9.9999999999999995E-07 
    9.9999999999999995E-07 
    9.9999999999999995E-07 
    9.9999999999999995E-07 
    9.9999999999999995E-07 
    1.0000000000000010E-06 
    1.0000000000053392E-06 
    1.0000000000260511E-06 
    9.9999999999999995E-07 
    1.0000000000000002E-06 
    9.9999999999999995E-07 
    9.9999999999999995E-07 
    9.9999999999999995E-07 
    9.9999999999999995E-07 
    9.9999999999999995E-07 
    9.9999999999999995E-07 
    9.9999999999999995E-07 
    9.9999999999999995E-07 
    9.9999999999999995E-07 
    9.9999999999999995E-07 
    9.9999999999999995E-07 
    9.9999999999999995E-07 
    9.9999999999999995E-07 
    9.9999999999999995E-07 
    9.9999999999999995E-07 
    9.9999999999999995E-07 
    9.9999999999999995E-07 
    9.9999999999999995E-07 
    9.9999999999999995E-07 
    9.9999999999999995E-07 
    9.9999999999999995E-07 
    9.9999999999999995E-07 
    9.9999999999999995E-07 
    9.9999999999999995E-07 
    9.9999999999999995E-07 
    9.9999999999999995E-07 
    9.9999999999999995E-07 
    9.9999999999999995E-07 
    9.9999999999999995E-07 
    9.9999999999999995E-07 
    9.9999999999999995E-07 
    9.9999999999999995E-07 
    9.9999999999999995E-07 
    9.9999999999999995E-07 
    9.9999999999999995E-07 
    9.9999999999999995E-07 
    9.9999999999999995E-07 
    9.9999999999999995E-07 
    9.9999999999999995E-07 
    9.9999999999999995E-07 
    9.9999999999999995E-07 
    9.9999999999999995E-07 
    9.9999999999999995E-07 
    9.9999999999999995E-07 
    9.9999999999999995E-07 
    9.9999999999999995E-07 
    9.9999999999999995E-07 
    9.9999999999999995E-07 
    9.9999999999999995E-07 
    9.9999999999999995E-07 
    9.9999999999999995E-07 
    9.9999999999999995E-07 
    9.9999999999999995E-07 
    9.9999999999999995E-07 
    9.9999999999999995E-07 
    9.9999999999999995E-07 
    9.9999999999999995E-07 
    9.9999999999999995E-07 
    9.9999999999999995E-07 
    9.9999999999999995E-07 
    9.9999999999999995E-07 
    9.9999999999999995E-07 
    9.9999999999999995E-07 
    9.9999999999999995E-07 
    9.9999999999999995E-07 
    9.9999999999999995E-07 
    9.9999999999999995E-07 
    9.9999999999999995E-07 
    9.9999999999999995E-07 
    9.9999999999999995E-07 
    9.9999999999999995E-07 
    9.9999999999999995E-07 
    9.9999999999999995E-07 
    9.9999999999999995E-07 
    9.9999999999999995E-07 
    9.9999999999999995E-07 
    9.9999999999999995E-07 
    9.9999999999999995E-07 
    9.9999999999999995E-07 
    9.9999999999999995E-07 
    9.9999999999999995E-07 
    9.9999999999999995E-07 
    9.9999999999999995E-07 
    9.9999999999999995E-07 
    9.9999999999999995E-07 
    9.9999999999999995E-07 
    9.9999999999999995E-07 
    9.9999999999999995E-07 
    9.9999999999999995E-07 
    9.9999999999999995E-07 
    9.9999999999999995E-07 
    9.9999999999999995E-07 
    9.9999999999999995E-07 
    9.9999999999999995E-07 
    9.9999999999999995E-07 
    9.9999999999999995E-07 
    9.9999999999999995E-07 
    9.9999999999999995E-07 
    9.9999999999999995E-07 
    9.9999999999999995E-07 
    9.9999999999999995E-07 
    9.9999999999999995E-07 
    9.9999999999999995E-07 
    9.9999999999999995E-07 
    9.9999999999999995E-07 
    9.9999999999999995E-07 
    9.9999999999999995E-07 
    9.9999999999999995E-07 
    9.9999999999999995E-07 
    9.9999999999999995E-07 
    9.9999999999999995E-07 
    9.9999999999999995E-07 
    9.9999999999999995E-07 
    9.9999999999999995E-07 
    9.9999999999999995E-07 
    9.9999999999999995E-07 
    9.9999999999999995E-07 
    9.9999999999999995E-07 
    9.9999999999999995E-07 
    9.9999999999999995E-07 
    9.9999999999999995E-07 
    9.9999999999999995E-07 
    9.9999999999999995E-07 
    9.9999999999999995E-07 
    9.9999999999999995E-07 
    9.9999999999999995E-07 
    9.9999999999999995E-07 
    9.9999999999999995E-07 
    9.9999999999999995E-07 
    9.9999999999999995E-07 
    9.9999999999999995E-07 
    9.9999999999999995E-07 
    9.9999999999999995E-07 
    9.9999999999999995E-07 
    9.9999999999999995E-07 
    9.9999999999999995E-07 
    9.9999999999999995E-07 
    9.9999999999999995E-07 
    9.9999999999999995E-07 
    9.9999999999999995E-07 
    9.9999999999999995E-07 
    9.9999999999999995E-07 
    9.9999999999999995E-07 
    9.9999999999999995E-07 
    9.9999999999999995E-07 
    9.9999999999999995E-07 
    9.9999999999999995E-07 
    9.9999999999999995E-07 
    9.9999999999999995E-07 
    9.9999999999999995E-07 
    9.9999999999999995E-07 
    9.9999999999999995E-07 
    9.9999999999999995E-07 
    9.9999999999999995E-07 
    9.9999999999999995E-07 
    9.9999999999999995E-07 
    9.9999999999999995E-07 
    9.9999999999999995E-07 
    9.9999999999999995E-07 
    9.9999999999999995E-07 
    9.9999999999999995E-07 
    9.9999999999999995E-07 
    9.9999999999999995E-07 
    9.9999999999999995E-07 
    9.9999999999999995E-07 
    9.9999999999999995E-07 
    9.9999999999999995E-07 
    9.9999999999999995E-07 
    9.9999999999999995E-07 
    9.9999999999999995E-07 
    1.0000000058729510E-06 
