# vtk DataFile Version 2.0
Pressure Field Data 
ASCII 
DATASET UNSTRUCTURED_GRID 

POINTS 289 double 

    0.0000000000000000E+00     0.0000000000000000E+00     0.0000000000000000E+00 
    1.0000000000000000E+00     0.0000000000000000E+00     0.0000000000000000E+00 
    1.0000000000000000E+00     1.0000000000000000E+00     0.0000000000000000E+00 
    0.0000000000000000E+00     1.0000000000000000E+00     0.0000000000000000E+00 
    6.2499999999872928E-02     0.0000000000000000E+00     0.0000000000000000E+00 
    1.2499999999977310E-01     0.0000000000000000E+00     0.0000000000000000E+00 
    1.8749999999959341E-01     0.0000000000000000E+00     0.0000000000000000E+00 
    2.4999999999941089E-01     0.0000000000000000E+00     0.0000000000000000E+00 
    3.1249999999922851E-01     0.0000000000000000E+00     0.0000000000000000E+00 
    3.7499999999904610E-01     0.0000000000000000E+00     0.0000000000000000E+00 
    4.3749999999886358E-01     0.0000000000000000E+00     0.0000000000000000E+00 
    4.9999999999869210E-01     0.0000000000000000E+00     0.0000000000000000E+00 
    5.6249999999884603E-01     0.0000000000000000E+00     0.0000000000000000E+00 
    6.2499999999901090E-01     0.0000000000000000E+00     0.0000000000000000E+00 
    6.8749999999917577E-01     0.0000000000000000E+00     0.0000000000000000E+00 
    7.4999999999934064E-01     0.0000000000000000E+00     0.0000000000000000E+00 
    8.1249999999950551E-01     0.0000000000000000E+00     0.0000000000000000E+00 
    8.7499999999967026E-01     0.0000000000000000E+00     0.0000000000000000E+00 
    9.3749999999983513E-01     0.0000000000000000E+00     0.0000000000000000E+00 
    1.0000000000000000E+00     6.2499999999872928E-02     0.0000000000000000E+00 
    1.0000000000000000E+00     1.2499999999977310E-01     0.0000000000000000E+00 
    1.0000000000000000E+00     1.8749999999959341E-01     0.0000000000000000E+00 
    1.0000000000000000E+00     2.4999999999941089E-01     0.0000000000000000E+00 
    1.0000000000000000E+00     3.1249999999922851E-01     0.0000000000000000E+00 
    1.0000000000000000E+00     3.7499999999904610E-01     0.0000000000000000E+00 
    1.0000000000000000E+00     4.3749999999886358E-01     0.0000000000000000E+00 
    1.0000000000000000E+00     4.9999999999869210E-01     0.0000000000000000E+00 
    1.0000000000000000E+00     5.6249999999884603E-01     0.0000000000000000E+00 
    1.0000000000000000E+00     6.2499999999901090E-01     0.0000000000000000E+00 
    1.0000000000000000E+00     6.8749999999917577E-01     0.0000000000000000E+00 
    1.0000000000000000E+00     7.4999999999934064E-01     0.0000000000000000E+00 
    1.0000000000000000E+00     8.1249999999950551E-01     0.0000000000000000E+00 
    1.0000000000000000E+00     8.7499999999967026E-01     0.0000000000000000E+00 
    1.0000000000000000E+00     9.3749999999983513E-01     0.0000000000000000E+00 
    9.3749999999973976E-01     1.0000000000000000E+00     0.0000000000000000E+00 
    8.7499999999950118E-01     1.0000000000000000E+00     0.0000000000000000E+00 
    8.1249999999991318E-01     1.0000000000000000E+00     0.0000000000000000E+00 
    7.5000000000034706E-01     1.0000000000000000E+00     0.0000000000000000E+00 
    6.8750000000078049E-01     1.0000000000000000E+00     0.0000000000000000E+00 
    6.2500000000121403E-01     1.0000000000000000E+00     0.0000000000000000E+00 
    5.6250000000164757E-01     1.0000000000000000E+00     0.0000000000000000E+00 
    5.0000000000205946E-01     1.0000000000000000E+00     0.0000000000000000E+00 
    4.3750000000182099E-01     1.0000000000000000E+00     0.0000000000000000E+00 
    3.7500000000156092E-01     1.0000000000000000E+00     0.0000000000000000E+00 
    3.1250000000130068E-01     1.0000000000000000E+00     0.0000000000000000E+00 
    2.5000000000104050E-01     1.0000000000000000E+00     0.0000000000000000E+00 
    1.8750000000078040E-01     1.0000000000000000E+00     0.0000000000000000E+00 
    1.2500000000052031E-01     1.0000000000000000E+00     0.0000000000000000E+00 
    6.2500000000260125E-02     1.0000000000000000E+00     0.0000000000000000E+00 
    0.0000000000000000E+00     9.3749999999973976E-01     0.0000000000000000E+00 
    0.0000000000000000E+00     8.7499999999950118E-01     0.0000000000000000E+00 
    0.0000000000000000E+00     8.1249999999991318E-01     0.0000000000000000E+00 
    0.0000000000000000E+00     7.5000000000034706E-01     0.0000000000000000E+00 
    0.0000000000000000E+00     6.8750000000078049E-01     0.0000000000000000E+00 
    0.0000000000000000E+00     6.2500000000121403E-01     0.0000000000000000E+00 
    0.0000000000000000E+00     5.6250000000164757E-01     0.0000000000000000E+00 
    0.0000000000000000E+00     5.0000000000205946E-01     0.0000000000000000E+00 
    0.0000000000000000E+00     4.3750000000182099E-01     0.0000000000000000E+00 
    0.0000000000000000E+00     3.7500000000156092E-01     0.0000000000000000E+00 
    0.0000000000000000E+00     3.1250000000130068E-01     0.0000000000000000E+00 
    0.0000000000000000E+00     2.5000000000104050E-01     0.0000000000000000E+00 
    0.0000000000000000E+00     1.8750000000078040E-01     0.0000000000000000E+00 
    0.0000000000000000E+00     1.2500000000052031E-01     0.0000000000000000E+00 
    0.0000000000000000E+00     6.2500000000260125E-02     0.0000000000000000E+00 
    6.2499999999897131E-02     6.2500000000235922E-02     0.0000000000000000E+00 
    6.2499999999921327E-02     1.2500000000047351E-01     0.0000000000000000E+00 
    6.2499999999945530E-02     1.8750000000070621E-01     0.0000000000000000E+00 
    6.2499999999969733E-02     2.5000000000093858E-01     0.0000000000000000E+00 
    6.2499999999993928E-02     3.1250000000117117E-01     0.0000000000000000E+00 
    6.2500000000018124E-02     3.7500000000140382E-01     0.0000000000000000E+00 
    6.2500000000042327E-02     4.3750000000163619E-01     0.0000000000000000E+00 
    6.2500000000066530E-02     5.0000000000184897E-01     0.0000000000000000E+00 
    6.2500000000090733E-02     5.6250000000147260E-01     0.0000000000000000E+00 
    6.2500000000114922E-02     6.2500000000107636E-01     0.0000000000000000E+00 
    6.2500000000139125E-02     6.8750000000068034E-01     0.0000000000000000E+00 
    6.2500000000163328E-02     7.5000000000028411E-01     0.0000000000000000E+00 
    6.2500000000187531E-02     8.1249999999988787E-01     0.0000000000000000E+00 
    6.2500000000211720E-02     8.7499999999951172E-01     0.0000000000000000E+00 
    6.2500000000235922E-02     9.3749999999974565E-01     0.0000000000000000E+00 
    1.2499999999981980E-01     6.2500000000211733E-02     0.0000000000000000E+00 
    1.2499999999986650E-01     1.2500000000042691E-01     0.0000000000000000E+00 
    1.2499999999991319E-01     1.8750000000063199E-01     0.0000000000000000E+00 
    1.2499999999995989E-01     2.5000000000083678E-01     0.0000000000000000E+00 
    1.2500000000000661E-01     3.1250000000104172E-01     0.0000000000000000E+00 
    1.2500000000005329E-01     3.7500000000124661E-01     0.0000000000000000E+00 
    1.2500000000010000E-01     4.3750000000145117E-01     0.0000000000000000E+00 
    1.2500000000014669E-01     5.0000000000163858E-01     0.0000000000000000E+00 
    1.2500000000019340E-01     5.6250000000129741E-01     0.0000000000000000E+00 
    1.2500000000024011E-01     6.2500000000093847E-01     0.0000000000000000E+00 
    1.2500000000028680E-01     6.8750000000057998E-01     0.0000000000000000E+00 
    1.2500000000033351E-01     7.5000000000022127E-01     0.0000000000000000E+00 
    1.2500000000038020E-01     8.1249999999986211E-01     0.0000000000000000E+00 
    1.2500000000042691E-01     8.7499999999952238E-01     0.0000000000000000E+00 
    1.2500000000047359E-01     9.3749999999975164E-01     0.0000000000000000E+00 
    1.8749999999966760E-01     6.2500000000187531E-02     0.0000000000000000E+00 
    1.8749999999974179E-01     1.2500000000038020E-01     0.0000000000000000E+00 
    1.8749999999981601E-01     1.8750000000055780E-01     0.0000000000000000E+00 
    1.8749999999989009E-01     2.5000000000073502E-01     0.0000000000000000E+00 
    1.8749999999996431E-01     3.1250000000091221E-01     0.0000000000000000E+00 
    1.8750000000003850E-01     3.7500000000108941E-01     0.0000000000000000E+00 
    1.8750000000011269E-01     4.3750000000126649E-01     0.0000000000000000E+00 
    1.8750000000018691E-01     5.0000000000142808E-01     0.0000000000000000E+00 
    1.8750000000026110E-01     5.6250000000112244E-01     0.0000000000000000E+00 
    1.8750000000033529E-01     6.2500000000080080E-01     0.0000000000000000E+00 
    1.8750000000040951E-01     6.8750000000047962E-01     0.0000000000000000E+00 
    1.8750000000048361E-01     7.5000000000015843E-01     0.0000000000000000E+00 
    1.8750000000055780E-01     8.1249999999983680E-01     0.0000000000000000E+00 
    1.8750000000063199E-01     8.7499999999953304E-01     0.0000000000000000E+00 
    1.8750000000070621E-01     9.3749999999975764E-01     0.0000000000000000E+00 
    2.4999999999951281E-01     6.2500000000163314E-02     0.0000000000000000E+00 
    2.4999999999961461E-01     1.2500000000033351E-01     0.0000000000000000E+00 
    2.4999999999971650E-01     1.8750000000048361E-01     0.0000000000000000E+00 
    2.4999999999981831E-01     2.5000000000063310E-01     0.0000000000000000E+00 
    2.4999999999992020E-01     3.1250000000078260E-01     0.0000000000000000E+00 
    2.5000000000002198E-01     3.7500000000093209E-01     0.0000000000000000E+00 
    2.5000000000012390E-01     4.3750000000108180E-01     0.0000000000000000E+00 
    2.5000000000022571E-01     5.0000000000121769E-01     0.0000000000000000E+00 
    2.5000000000032763E-01     5.6250000000094724E-01     0.0000000000000000E+00 
    2.5000000000042938E-01     6.2500000000066314E-01     0.0000000000000000E+00 
    2.5000000000053119E-01     6.8750000000037925E-01     0.0000000000000000E+00 
[...]
CELL_DATA 256 
SCALARS Pressure double 1 
LOOKUP_TABLE default 

    1.2928986604911672E+00 
    1.2702568761147264E+00 
    1.2396738111564958E+00 
    1.2035573781628053E+00 
    1.1685705228683643E+00 
    1.1400774011943091E+00 
    1.1161115460956113E+00 
    1.0986509542760916E+00 
    1.0845253349824961E+00 
    1.0724303348894393E+00 
    1.0619705710003997E+00 
    1.0534107709387210E+00 
    1.0458914543119191E+00 
    1.0393177563784293E+00 
    1.0339330372486775E+00 
    1.0300619141783165E+00 
    1.1820017586502667E+00 
    1.1722070116867014E+00 
    1.1555719759951242E+00 
    1.1331826216754566E+00 
    1.1107425678758880E+00 
    1.0910543765225647E+00 
    1.0747413355582653E+00 
    1.0608418913395965E+00 
    1.0475887667301378E+00 
    1.0365482878109837E+00 
    1.0280243190499199E+00 
    1.0208703129620300E+00 
    1.0147529063732568E+00 
    1.0103707410754121E+00 
    1.0076122608000107E+00 
    1.0058373605096607E+00 
    1.0711976657395768E+00 
    1.0663542121101619E+00 
    1.0581044433663160E+00 
    1.0472957890230912E+00 
    1.0356202305754310E+00 
    1.0242690839358777E+00 
    1.0139842931403222E+00 
    1.0039978930114353E+00 
    9.9379074795383571E-01 
    9.8530766783077994E-01 
    9.7883345000479927E-01 
    9.7327168737354375E-01 
    9.6873507839444439E-01 
    9.6624581047112978E-01 
    9.6557510028847748E-01 
    9.6568342351588932E-01 
    9.8045436222836557E-01 
    9.7909154160362766E-01 
    9.7578139168367006E-01 
    9.7050484306377682E-01 
    9.6391850772868193E-01 
    9.5697205574097621E-01 
    9.5025552080211961E-01 
    9.4321135519620958E-01 
    9.3579715117139384E-01 
    9.2963104304485422E-01 
    9.2503083878603998E-01 
    9.2097931844961822E-01 
    9.1780692074966119E-01 
    9.1675415971496799E-01 
    9.1752324889148551E-01 
    9.1862375426129483E-01 
    9.0687561435321307E-01 
    9.0648856395794419E-01 
    9.0390872940788947E-01 
    9.0050131293044511E-01 
    8.9626653232921250E-01 
    8.9181761111149083E-01 
    8.8749769661109257E-01 
    8.8328871510808660E-01 
    8.7859505922896319E-01 
    8.7491803665430268E-01 
    8.7237078962365200E-01 
    8.7015268741465657E-01 
    8.6814445215083413E-01 
    8.6789300165403760E-01 
    8.6869547100680711E-01 
    8.6877681565410414E-01 
    8.3476954846471785E-01 
    8.3352195103477922E-01 
    8.3136198377707915E-01 
    8.2887471892486220E-01 
    8.2683436242865682E-01 
    8.2541533333692729E-01 
    8.2406832939195396E-01 
    8.2272496899608638E-01 
    8.2184950773408871E-01 
    8.2164785028420406E-01 
    8.2128837078189199E-01 
    8.2016704742586388E-01 
    8.1876576691046565E-01 
    8.1730303723600251E-01 
    8.1570222482430821E-01 
    8.1435908724777883E-01 
    7.6235994768442561E-01 
    7.6225279083593800E-01 
    7.6186510909570759E-01 
    7.6164171387708790E-01 
    7.6168243540086100E-01 
    7.6146650706847030E-01 
    7.6017367056699947E-01 
    7.5884841496539635E-01 
    7.5882749704792396E-01 
    7.5893240615618884E-01 
    7.5813484606671822E-01 
    7.5701559865862744E-01 
    7.5646061269235076E-01 
    7.5603226323257822E-01 
    7.5586539094979488E-01 
    7.5568217136651195E-01 
    6.9863939488819582E-01 
    6.9927643914221160E-01 
    6.9964434155145938E-01 
    6.9990808392989445E-01 
    6.9989294812585490E-01 
    6.9940938694094290E-01 
    6.9829129486285313E-01 
    6.9692061500882252E-01 
    6.9583286779604425E-01 
    6.9509479668076579E-01 
    6.9419827444209103E-01 
    6.9322289284148297E-01 
    6.9257975199048649E-01 
    6.9285905059373143E-01 
    6.9407512772816893E-01 
    6.9512449853562053E-01 
    6.4133216778811308E-01 
    6.4178919582222227E-01 
    6.4136793793423308E-01 
    6.4093029121109002E-01 
    6.4009116044216030E-01 
    6.3892185907326127E-01 
    6.3748946503970250E-01 
    6.3626967791644151E-01 
    6.3494956600529795E-01 
    6.3437601496133611E-01 
    6.3393882308726024E-01 
    6.3331344538633849E-01 
    6.3269033471270786E-01 
    6.3337497776616225E-01 
    6.3490527806645769E-01 
    6.3542695085856549E-01 
    5.8325897247937830E-01 
    5.8276860208838610E-01 
    5.8167009521837831E-01 
    5.8042333336655516E-01 
    5.7937718389285553E-01 
    5.7850441603037306E-01 
    5.7760342680146592E-01 
    5.7721469014765980E-01 
    5.7741689092568804E-01 
    5.7815064700258878E-01 
    5.7894989390267904E-01 
    5.7851231752927557E-01 
    5.7750298694917424E-01 
    5.7615468797969227E-01 
    5.7467695482269177E-01 
    5.7377967008191999E-01 
    5.2638791630914883E-01 
    5.2599214530415894E-01 
    5.2525973794398684E-01 
    5.2455554438229890E-01 
    5.2388778529194846E-01 
    5.2266930896744679E-01 
    5.2048168894219082E-01 
    5.1894553556255463E-01 
    5.1820930757054540E-01 
    5.1699237608929605E-01 
    5.1502617723674904E-01 
    5.1304175966921195E-01 
    5.1172156591385265E-01 
    5.1056571158083919E-01 
    5.0991222584627416E-01 
    5.0957496376987277E-01 
    4.7488971342351399E-01 
    4.7453883974446120E-01 
    4.7372297670868602E-01 
    4.7243234759848840E-01 
    4.7061033174155570E-01 
    4.6827850436765583E-01 
    4.6562089597174788E-01 
    4.6232025261099818E-01 
    4.5826319377857921E-01 
    4.5377579377247917E-01 
    4.4962716996120500E-01 
    4.4587249266303830E-01 
    4.4275426101490634E-01 
    4.4103708946563625E-01 
    4.4085864867334190E-01 
    4.4137798137385464E-01 
    4.2489535296705494E-01 
    4.2433583957870613E-01 
    4.2303352000843031E-01 
    4.2080155776580846E-01 
    4.1770731934948485E-01 
    4.1406867215450960E-01 
    4.1000891482483726E-01 
    4.0449273297681149E-01 
    3.9764905363527447E-01 
    3.9050838688260492E-01 
    3.8385401066902203E-01 
    3.7758218472710742E-01 
    3.7234360928325250E-01 
    3.6955130386482216E-01 
    3.6926255334039726E-01 
    3.7021803469636888E-01 
    3.7573808542176135E-01 
    3.7493198997452676E-01 
    3.7310478415848003E-01 
    3.6991026298622121E-01 
    3.6547723804398657E-01 
    3.6034448559879317E-01 
    3.5477752275376268E-01 
    3.4731256195483529E-01 
    3.3807983387215923E-01 
    3.2843688249312880E-01 
    3.1908327043529688E-01 
    3.0994450829954917E-01 
    3.0182948525516867E-01 
    2.9649567944511523E-01 
    2.9400297052599150E-01 
    2.9331623658224681E-01 
    3.3080769137182131E-01 
    3.2980907580646401E-01 
    3.2755919540433276E-01 
    3.2355681435102585E-01 
    3.1794742101442336E-01 
    3.1149322704182009E-01 
    3.0478349712341363E-01 
    2.9604967502902774E-01 
    2.8508962104377850E-01 
    2.7296619378924053E-01 
    2.6012090560279594E-01 
    2.4634451113419764E-01 
    2.3166895527215700E-01 
    2.1727818051637401E-01 
    2.0400438298868226E-01 
    1.9428605731936313E-01 
    3.0209702947666284E-01 
    3.0091212626423591E-01 
    2.9829770345595702E-01 
    2.9375496473428642E-01 
    2.8744993752922327E-01 
    2.8035627101590010E-01 
    2.7355222339810253E-01 
    2.6502628068354378E-01 
    2.5307264986567563E-01 
    2.3714504985929702E-01 
    2.1856577866246846E-01 
    1.9576690046115650E-01 
    1.6452671987221776E-01 
    1.2232952955978764E-01 
    6.8009476885738676E-02 
    0.0000000000000000E+00 

SCALARS Saturarion double 1 
LOOKUP_TABLE default 

    8.6923078560612033E-01 
    6.7637970943844727E-01 
    5.1411240085054710E-01 
    2.8981982192364969E-01 
    6.4754017716168739E-04 
    1.0000118010214074E-06 
    1.0000000000033330E-06 
    9.9999999999999995E-07 
    9.9999999999999995E-07 
    9.9999999999999995E-07 
    9.9999999999999995E-07 
    9.9999999999999995E-07 
    9.9999999999999995E-07 
    9.9999999999999995E-07 
    9.9999999999999995E-07 
    9.9999999999999995E-07 
    5.3548997335539927E-01 
    4.4448564791494433E-01 
    2.4760388349997164E-01 
    3.2489078972255468E-02 
    6.1229574840797243E-05 
    1.0002831520261514E-06 
    1.0000000000007206E-06 
    9.9999999999999995E-07 
    9.9999999999999995E-07 
    9.9999999999999995E-07 
    9.9999999999999995E-07 
    9.9999999999999995E-07 
    9.9999999999999995E-07 
    9.9999999999999995E-07 
    9.9999999999999995E-07 
    9.9999999999999995E-07 
    4.0387497881603729E-02 
    1.9001167405754114E-02 
    9.3994076361153653E-04 
    2.6044150541696408E-05 
    1.0001491948366597E-06 
    1.0000000000225662E-06 
    9.9999999999999995E-07 
    9.9999999999999995E-07 
    9.9999999999999995E-07 
    9.9999999999999995E-07 
    9.9999999999999995E-07 
    9.9999999999999995E-07 
    9.9999999999999995E-07 
    9.9999999999999995E-07 
    9.9999999999999995E-07 
    9.9999999999999995E-07 
    1.0012625176679818E-06 
    6.8328865870685478E-06 
    1.0267154647376219E-06 
    1.0000236420771384E-06 
    1.0000000000033176E-06 
    9.9999999999999995E-07 
    9.9999999999999995E-07 
    9.9999999999999995E-07 
    9.9999999999999995E-07 
    9.9999999999999995E-07 
    9.9999999999999995E-07 
    9.9999999999999995E-07 
    9.9999999999999995E-07 
    9.9999999999999995E-07 
    9.9999999999999995E-07 
    9.9999999999999995E-07 
    1.0000000003572941E-06 
    1.0000021015779023E-06 
    1.0000000027564768E-06 
    1.0000000000000004E-06 
    9.9999999999999995E-07 
    9.9999999999999995E-07 
    9.9999999999999995E-07 
    9.9999999999999995E-07 
    9.9999999999999995E-07 
    9.9999999999999995E-07 
    9.9999999999999995E-07 
    9.9999999999999995E-07 
    9.9999999999999995E-07 
    9.9999999999999995E-07 
    9.9999999999999995E-07 
    9.9999999999999995E-07 
    1.0000000000000002E-06 
    1.0000000000000139E-06 
    9.9999999999999995E-07 
    9.9999999999999995E-07 
    9.9999999999999995E-07 
    9.9999999999999995E-07 
    9.9999999999999995E-07 
    9.9999999999999995E-07 
    9.9999999999999995E-07 
    9.9999999999999995E-07 
    9.9999999999999995E-07 
    9.9999999999999995E-07 
    9.9999999999999995E-07 
    9.9999999999999995E-07 
    9.9999999999999995E-07 
    9.9999999999999995E-07 
    9.9999999999999995E-07 
    9.9999999999999995E-07 
    9.9999999999999995E-07 
    9.9999999999999995E-07 
    9.9999999999999995E-07 
    9.9999999999999995E-07 
    9.9999999999999995E-07 
    9.9999999999999995E-07 
    9.9999999999999995E-07 
    9.9999999999999995E-07 
    9.9999999999999995E-07 
    9.9999999999999995E-07 
    9.9999999999999995E-07 
    9.9999999999999995E-07 
    9.9999999999999995E-07 
    9.9999999999999995E-07 
    9.9999999999999995E-07 
    9.9999999999999995E-07 
    9.9999999999999995E-07 
    9.9999999999999995E-07 
    9.9999999999999995E-07 
    9.9999999999999995E-07 
    9.9999999999999995E-07 
    9.9999999999999995E-07 
    9.9999999999999995E-07 
    9.9999999999999995E-07 
    9.9999999999999995E-07 
    9.9999999999999995E-07 
    9.9999999999999995E-07 
    9.9999999999999995E-07 
    9.9999999999999995E-07 
    9.9999999999999995E-07 
    9.9999999999999995E-07 
    9.9999999999999995E-07 
    9.9999999999999995E-07 
    9.9999999999999995E-07 
    9.9999999999999995E-07 
    9.9999999999999995E-07 
    9.9999999999999995E-07 
    9.9999999999999995E-07 
    9.9999999999999995E-07 
    9.9999999999999995E-07 
    9.9999999999999995E-07 
    9.9999999999999995E-07 
    9.9999999999999995E-07 
    9.9999999999999995E-07 
    9.9999999999999995E-07 
    9.9999999999999995E-07 
    9.9999999999999995E-07 
    9.9999999999999995E-07 
    9.9999999999999995E-07 
    9.9999999999999995E-07 
    9.9999999999999995E-07 
    9.9999999999999995E-07 
    9.9999999999999995E-07 
    9.9999999999999995E-07 
    9.9999999999999995E-07 
    9.9999999999999995E-07 
    9.9999999999999995E-07 
    9.9999999999999995E-07 
    9.9999999999999995E-07 
    9.9999999999999995E-07 
    9.9999999999999995E-07 
    9.9999999999999995E-07 
    9.9999999999999995E-07 
    9.9999999999999995E-07 
    9.9999999999999995E-07 
    9.9999999999999995E-07 
    9.9999999999999995E-07 
    9.9999999999999995E-07 
    9.9999999999999995E-07 
    9.9999999999999995E-07 
    9.9999999999999995E-07 
    9.9999999999999995E-07 
    9.9999999999999995E-07 
    9.9999999999999995E-07 
    9.9999999999999995E-07 
    9.9999999999999995E-07 
    9.9999999999999995E-07 
    9.9999999999999995E-07 
    9.9999999999999995E-07 
    9.9999999999999995E-07 
    9.9999999999999995E-07 
    9.9999999999999995E-07 
    9.9999999999999995E-07 
    9.9999999999999995E-07 
    9.9999999999999995E-07 
    9.9999999999999995E-07 
    9.9999999999999995E-07 
    9.9999999999999995E-07 
    9.9999999999999995E-07 
    9.9999999999999995E-07 
    9.9999999999999995E-07 
    9.9999999999999995E-07 
    9.9999999999999995E-07 
    9.9999999999999995E-07 
    9.9999999999999995E-07 
    9.9999999999999995E-07 
    9.9999999999999995E-07 
    9.9999999999999995E-07 
    9.9999999999999995E-07 
    9.9999999999999995E-07 
    9.9999999999999995E-07 
    9.9999999999999995E-07 
    9.9999999999999995E-07 
    9.9999999999999995E-07 
    9.9999999999999995E-07 
    9.9999999999999995E-07 
    9.9999999999999995E-07 
    9.9999999999999995E-07 
    9.9999999999999995E-07 
    9.9999999999999995E-07 
    9.9999999999999995E-07 
    9.9999999999999995E-07 
    9.9999999999999995E-07 
    9.9999999999999995E-07 
    9.9999999999999995E-07 
    9.9999999999999995E-07 
    9.9999999999999995E-07 
    9.9999999999999995E-07 
    9.9999999999999995E-07 
    9.9999999999999995E-07 
    9.9999999999999995E-07 
    9.9999999999999995E-07 
    9.9999999999999995E-07 
    9.9999999999999995E-07 
    9.9999999999999995E-07 
    9.9999999999999995E-07 
    9.9999999999999995E-07 
    9.9999999999999995E-07 
    9.9999999999999995E-07 
    9.9999999999999995E-07 
    9.9999999999999995E-07 
    9.9999999999999995E-07 
    9.9999999999999995E-07 
    9.9999999999999995E-07 
    9.9999999999999995E-07 
    9.9999999999999995E-07 
    9.9999999999999995E-07 
    9.9999999999999995E-07 
    9.9999999999999995E-07 
    9.9999999999999995E-07 
    9.9999999999999995E-07 
    9.9999999999999995E-07 
    9.9999999999999995E-07 
    9.9999999999999995E-07 
    9.9999999999999995E-07 
    9.9999999999999995E-07 
    9.9999999999999995E-07 
    9.9999999999999995E-07 
    9.9999999999999995E-07 
    9.9999999999999995E-07 
    9.9999999999999995E-07 
    9.9999999999999995E-07 
    9.9999999999999995E-07 
    9.9999999999999995E-07 
    9.9999999999999995E-07 
    9.9999999999999995E-07 
    9.9999999999999995E-07 
    1.0000000030805211E-06 
