# vtk DataFile Version 2.0
Pressure Field Data 
ASCII 
DATASET UNSTRUCTURED_GRID 

POINTS 289 double 

    0.0000000000000000E+00     0.0000000000000000E+00     0.0000000000000000E+00 
    1.0000000000000000E+00     0.0000000000000000E+00     0.0000000000000000E+00 
    1.0000000000000000E+00     1.0000000000000000E+00     0.0000000000000000E+00 
    0.0000000000000000E+00     1.0000000000000000E+00     0.0000000000000000E+00 
    6.2499999999872928E-02     0.0000000000000000E+00     0.0000000000000000E+00 
    1.2499999999977310E-01     0.0000000000000000E+00     0.0000000000000000E+00 
    1.8749999999959341E-01     0.0000000000000000E+00     0.0000000000000000E+00 
    2.4999999999941089E-01     0.0000000000000000E+00     0.0000000000000000E+00 
    3.1249999999922851E-01     0.0000000000000000E+00     0.0000000000000000E+00 
    3.7499999999904610E-01     0.0000000000000000E+00     0.0000000000000000E+00 
    4.3749999999886358E-01     0.0000000000000000E+00     0.0000000000000000E+00 
    4.9999999999869210E-01     0.0000000000000000E+00     0.0000000000000000E+00 
    5.6249999999884603E-01     0.0000000000000000E+00     0.0000000000000000E+00 
    6.2499999999901090E-01     0.0000000000000000E+00     0.0000000000000000E+00 
    6.8749999999917577E-01     0.0000000000000000E+00     0.0000000000000000E+00 
    7.4999999999934064E-01     0.0000000000000000E+00     0.0000000000000000E+00 
    8.1249999999950551E-01     0.0000000000000000E+00     0.0000000000000000E+00 
    8.7499999999967026E-01     0.0000000000000000E+00     0.0000000000000000E+00 
    9.3749999999983513E-01     0.0000000000000000E+00     0.0000000000000000E+00 
    1.0000000000000000E+00     6.2499999999872928E-02     0.0000000000000000E+00 
    1.0000000000000000E+00     1.2499999999977310E-01     0.0000000000000000E+00 
    1.0000000000000000E+00     1.8749999999959341E-01     0.0000000000000000E+00 
    1.0000000000000000E+00     2.4999999999941089E-01     0.0000000000000000E+00 
    1.0000000000000000E+00     3.1249999999922851E-01     0.0000000000000000E+00 
    1.0000000000000000E+00     3.7499999999904610E-01     0.0000000000000000E+00 
    1.0000000000000000E+00     4.3749999999886358E-01     0.0000000000000000E+00 
    1.0000000000000000E+00     4.9999999999869210E-01     0.0000000000000000E+00 
    1.0000000000000000E+00     5.6249999999884603E-01     0.0000000000000000E+00 
    1.0000000000000000E+00     6.2499999999901090E-01     0.0000000000000000E+00 
    1.0000000000000000E+00     6.8749999999917577E-01     0.0000000000000000E+00 
    1.0000000000000000E+00     7.4999999999934064E-01     0.0000000000000000E+00 
    1.0000000000000000E+00     8.1249999999950551E-01     0.0000000000000000E+00 
    1.0000000000000000E+00     8.7499999999967026E-01     0.0000000000000000E+00 
    1.0000000000000000E+00     9.3749999999983513E-01     0.0000000000000000E+00 
    9.3749999999973976E-01     1.0000000000000000E+00     0.0000000000000000E+00 
    8.7499999999950118E-01     1.0000000000000000E+00     0.0000000000000000E+00 
    8.1249999999991318E-01     1.0000000000000000E+00     0.0000000000000000E+00 
    7.5000000000034706E-01     1.0000000000000000E+00     0.0000000000000000E+00 
    6.8750000000078049E-01     1.0000000000000000E+00     0.0000000000000000E+00 
    6.2500000000121403E-01     1.0000000000000000E+00     0.0000000000000000E+00 
    5.6250000000164757E-01     1.0000000000000000E+00     0.0000000000000000E+00 
    5.0000000000205946E-01     1.0000000000000000E+00     0.0000000000000000E+00 
    4.3750000000182099E-01     1.0000000000000000E+00     0.0000000000000000E+00 
    3.7500000000156092E-01     1.0000000000000000E+00     0.0000000000000000E+00 
    3.1250000000130068E-01     1.0000000000000000E+00     0.0000000000000000E+00 
    2.5000000000104050E-01     1.0000000000000000E+00     0.0000000000000000E+00 
    1.8750000000078040E-01     1.0000000000000000E+00     0.0000000000000000E+00 
    1.2500000000052031E-01     1.0000000000000000E+00     0.0000000000000000E+00 
    6.2500000000260125E-02     1.0000000000000000E+00     0.0000000000000000E+00 
    0.0000000000000000E+00     9.3749999999973976E-01     0.0000000000000000E+00 
    0.0000000000000000E+00     8.7499999999950118E-01     0.0000000000000000E+00 
    0.0000000000000000E+00     8.1249999999991318E-01     0.0000000000000000E+00 
    0.0000000000000000E+00     7.5000000000034706E-01     0.0000000000000000E+00 
    0.0000000000000000E+00     6.8750000000078049E-01     0.0000000000000000E+00 
    0.0000000000000000E+00     6.2500000000121403E-01     0.0000000000000000E+00 
    0.0000000000000000E+00     5.6250000000164757E-01     0.0000000000000000E+00 
    0.0000000000000000E+00     5.0000000000205946E-01     0.0000000000000000E+00 
    0.0000000000000000E+00     4.3750000000182099E-01     0.0000000000000000E+00 
    0.0000000000000000E+00     3.7500000000156092E-01     0.0000000000000000E+00 
    0.0000000000000000E+00     3.1250000000130068E-01     0.0000000000000000E+00 
    0.0000000000000000E+00     2.5000000000104050E-01     0.0000000000000000E+00 
    0.0000000000000000E+00     1.8750000000078040E-01     0.0000000000000000E+00 
    0.0000000000000000E+00     1.2500000000052031E-01     0.0000000000000000E+00 
    0.0000000000000000E+00     6.2500000000260125E-02     0.0000000000000000E+00 
    6.2499999999897131E-02     6.2500000000235922E-02     0.0000000000000000E+00 
    6.2499999999921327E-02     1.2500000000047351E-01     0.0000000000000000E+00 
    6.2499999999945530E-02     1.8750000000070621E-01     0.0000000000000000E+00 
    6.2499999999969733E-02     2.5000000000093858E-01     0.0000000000000000E+00 
    6.2499999999993928E-02     3.1250000000117117E-01     0.0000000000000000E+00 
    6.2500000000018124E-02     3.7500000000140382E-01     0.0000000000000000E+00 
    6.2500000000042327E-02     4.3750000000163619E-01     0.0000000000000000E+00 
    6.2500000000066530E-02     5.0000000000184897E-01     0.0000000000000000E+00 
    6.2500000000090733E-02     5.6250000000147260E-01     0.0000000000000000E+00 
    6.2500000000114922E-02     6.2500000000107636E-01     0.0000000000000000E+00 
    6.2500000000139125E-02     6.8750000000068034E-01     0.0000000000000000E+00 
    6.2500000000163328E-02     7.5000000000028411E-01     0.0000000000000000E+00 
    6.2500000000187531E-02     8.1249999999988787E-01     0.0000000000000000E+00 
    6.2500000000211720E-02     8.7499999999951172E-01     0.0000000000000000E+00 
    6.2500000000235922E-02     9.3749999999974565E-01     0.0000000000000000E+00 
    1.2499999999981980E-01     6.2500000000211733E-02     0.0000000000000000E+00 
    1.2499999999986650E-01     1.2500000000042691E-01     0.0000000000000000E+00 
    1.2499999999991319E-01     1.8750000000063199E-01     0.0000000000000000E+00 
    1.2499999999995989E-01     2.5000000000083678E-01     0.0000000000000000E+00 
    1.2500000000000661E-01     3.1250000000104172E-01     0.0000000000000000E+00 
    1.2500000000005329E-01     3.7500000000124661E-01     0.0000000000000000E+00 
    1.2500000000010000E-01     4.3750000000145117E-01     0.0000000000000000E+00 
    1.2500000000014669E-01     5.0000000000163858E-01     0.0000000000000000E+00 
    1.2500000000019340E-01     5.6250000000129741E-01     0.0000000000000000E+00 
    1.2500000000024011E-01     6.2500000000093847E-01     0.0000000000000000E+00 
    1.2500000000028680E-01     6.8750000000057998E-01     0.0000000000000000E+00 
    1.2500000000033351E-01     7.5000000000022127E-01     0.0000000000000000E+00 
    1.2500000000038020E-01     8.1249999999986211E-01     0.0000000000000000E+00 
    1.2500000000042691E-01     8.7499999999952238E-01     0.0000000000000000E+00 
    1.2500000000047359E-01     9.3749999999975164E-01     0.0000000000000000E+00 
    1.8749999999966760E-01     6.2500000000187531E-02     0.0000000000000000E+00 
    1.8749999999974179E-01     1.2500000000038020E-01     0.0000000000000000E+00 
    1.8749999999981601E-01     1.8750000000055780E-01     0.0000000000000000E+00 
    1.8749999999989009E-01     2.5000000000073502E-01     0.0000000000000000E+00 
    1.8749999999996431E-01     3.1250000000091221E-01     0.0000000000000000E+00 
    1.8750000000003850E-01     3.7500000000108941E-01     0.0000000000000000E+00 
    1.8750000000011269E-01     4.3750000000126649E-01     0.0000000000000000E+00 
    1.8750000000018691E-01     5.0000000000142808E-01     0.0000000000000000E+00 
    1.8750000000026110E-01     5.6250000000112244E-01     0.0000000000000000E+00 
    1.8750000000033529E-01     6.2500000000080080E-01     0.0000000000000000E+00 
    1.8750000000040951E-01     6.8750000000047962E-01     0.0000000000000000E+00 
    1.8750000000048361E-01     7.5000000000015843E-01     0.0000000000000000E+00 
    1.8750000000055780E-01     8.1249999999983680E-01     0.0000000000000000E+00 
    1.8750000000063199E-01     8.7499999999953304E-01     0.0000000000000000E+00 
    1.8750000000070621E-01     9.3749999999975764E-01     0.0000000000000000E+00 
    2.4999999999951281E-01     6.2500000000163314E-02     0.0000000000000000E+00 
    2.4999999999961461E-01     1.2500000000033351E-01     0.0000000000000000E+00 
    2.4999999999971650E-01     1.8750000000048361E-01     0.0000000000000000E+00 
    2.4999999999981831E-01     2.5000000000063310E-01     0.0000000000000000E+00 
    2.4999999999992020E-01     3.1250000000078260E-01     0.0000000000000000E+00 
    2.5000000000002198E-01     3.7500000000093209E-01     0.0000000000000000E+00 
    2.5000000000012390E-01     4.3750000000108180E-01     0.0000000000000000E+00 
    2.5000000000022571E-01     5.0000000000121769E-01     0.0000000000000000E+00 
    2.5000000000032763E-01     5.6250000000094724E-01     0.0000000000000000E+00 
    2.5000000000042938E-01     6.2500000000066314E-01     0.0000000000000000E+00 
    2.5000000000053119E-01     6.8750000000037925E-01     0.0000000000000000E+00 
[...]
CELL_DATA 256 
SCALARS Pressure double 1 
LOOKUP_TABLE default 

    9.9889877074442601E-01 
    9.8662038620152681E-01 
    9.7404195660034898E-01 
    9.6244589995871843E-01 
    9.5398530574277218E-01 
    9.4961467265258326E-01 
    9.4250166981186867E-01 
    9.3676703582155485E-01 
    9.3262995819854866E-01 
    9.2939793488417421E-01 
    9.2544459152125758E-01 
    9.2159521784721887E-01 
    9.1758970270058093E-01 
    9.1368863266916511E-01 
    9.1046000161223439E-01 
    9.0823487963068705E-01 
    9.5172829573474782E-01 
    9.4813851119276538E-01 
    9.4376933823635545E-01 
    9.3891193663331918E-01 
    9.3389113635806420E-01 
    9.2817834945989708E-01 
    9.2233423508326640E-01 
    9.1855260705879693E-01 
    9.1431501055217201E-01 
    9.1005616168068826E-01 
    9.0654263313963590E-01 
    9.0369152505402495E-01 
    9.0047362765202499E-01 
    8.9772871886092809E-01 
    8.9605413594601879E-01 
    8.9499739213626850E-01 
    9.1509654782755401E-01 
    9.1326654274240571E-01 
    9.1105496586009760E-01 
    9.0819489024119360E-01 
    9.0447363724999463E-01 
    8.9963514546502654E-01 
    8.9468570966480010E-01 
    8.9137028063440871E-01 
    8.8705783284505368E-01 
    8.8279416463809113E-01 
    8.7974314317311331E-01 
    8.7748687605496334E-01 
    8.7478954585807067E-01 
    8.7296735607642884E-01 
    8.7249316577426006E-01 
    8.7250048174135908E-01 
    8.7639037069822867E-01 
    8.7601967610222520E-01 
    8.7535905278286330E-01 
    8.7395089415444072E-01 
    8.7142886050988577E-01 
    8.6755984941177544E-01 
    8.6342029271999332E-01 
    8.6036261838898431E-01 
    8.5628166365541447E-01 
    8.5234718234397522E-01 
    8.4980827210211685E-01 
    8.4790661392830391E-01 
    8.4554206173628577E-01 
    8.4438828219067241E-01 
    8.4462574580433292E-01 
    8.4500636618451086E-01 
    8.4011972480267316E-01 
    8.4168683080347018E-01 
    8.4082161467583483E-01 
    8.3922218820906958E-01 
    8.3665614647403141E-01 
    8.3296165232881481E-01 
    8.2932115987787391E-01 
    8.2709927667684258E-01 
    8.2377855756104057E-01 
    8.2054117107602376E-01 
    8.1863642697157335E-01 
    8.1736290977925707E-01 
    8.1517776883512993E-01 
    8.1416102721668882E-01 
    8.1396698141622825E-01 
    8.1327317813483457E-01 
    8.0474193090782298E-01 
    8.0294889759389443E-01 
    8.0014493709833245E-01 
    7.9633427323244832E-01 
    7.9256089714942524E-01 
    7.9006511163064275E-01 
    7.8882364857608545E-01 
    7.8771738266857838E-01 
    7.8655237271818634E-01 
    7.8596144235664944E-01 
    7.8496736129370304E-01 
    7.8282885397001667E-01 
    7.8026902121728858E-01 
    7.7792384888262955E-01 
    7.7583187459123903E-01 
    7.7440150788369078E-01 
    7.4992035975100546E-01 
    7.4950790453358651E-01 
    7.4847002870548507E-01 
    7.4706959427201203E-01 
    7.4597993853943845E-01 
    7.4569544990081638E-01 
    7.4472201883867062E-01 
    7.4181344720630771E-01 
    7.4039626124906277E-01 
    7.3950259601858848E-01 
    7.3733714076032053E-01 
    7.3392812921965833E-01 
    7.3148128856049421E-01 
    7.2994026329255157E-01 
    7.2927214812512176E-01 
    7.2905674295903167E-01 
    6.9890198680281346E-01 
    6.9978452276644187E-01 
    7.0018445111883887E-01 
    7.0014591520119995E-01 
    6.9960694411181468E-01 
    6.9853498167151296E-01 
    6.9654375509309729E-01 
    6.9368306136816826E-01 
    6.9055416295748451E-01 
    6.8747120681511731E-01 
    6.8406367765561393E-01 
    6.8069806933900667E-01 
    6.7830957482008991E-01 
    6.7752387897333255E-01 
    6.7816421188431930E-01 
    6.7899300940416496E-01 
    6.5229774632299353E-01 
    6.5320775440089518E-01 
    6.5243398996785285E-01 
    6.5129136250588915E-01 
    6.4932119900967789E-01 
    6.4659191696844176E-01 
    6.4321451797286466E-01 
    6.3969798881437911E-01 
    6.3558965779981824E-01 
    6.3237057789726936E-01 
    6.2977057704012585E-01 
    6.2747927862178232E-01 
    6.2563315875196635E-01 
    6.2539522174189133E-01 
    6.2624293553723709E-01 
    6.2638795111333245E-01 
    5.9372616947633350E-01 
    5.9283281455668380E-01 
    5.9107901623037740E-01 
    5.8890594925317219E-01 
    5.8671422794542516E-01 
    5.8449791296538944E-01 
    5.8200059662607995E-01 
    5.7966758857284817E-01 
    5.7794222878214008E-01 
    5.7713673159068146E-01 
    5.7671437174965512E-01 
    5.7525682455298477E-01 
    5.7345904496413025E-01 
    5.7156626665394938E-01 
    5.6977995611087984E-01 
    5.6871624693594125E-01 
    5.2952665227857676E-01 
    5.2885209938171240E-01 
    5.2771691349369099E-01 
    5.2650712592818805E-01 
    5.2527331824791357E-01 
    5.2349308627153091E-01 
    5.2084645454744760E-01 
    5.1885467271983943E-01 
    5.1763621429901996E-01 
    5.1587306994059390E-01 
    5.1331127883671657E-01 
    5.1076146891821861E-01 
    5.0901607560908935E-01 
    5.0759893222435792E-01 
    5.0683649266205932E-01 
    5.0645536911584577E-01 
    4.7664800890693965E-01 
    4.7614495856646938E-01 
    4.7509088414190637E-01 
    4.7347313875391878E-01 
    4.7128074698720263E-01 
    4.6859398325466400E-01 
    4.6563304090638369E-01 
    4.6200545005240662E-01 
    4.5756536828748717E-01 
    4.5270640870914497E-01 
    4.4822124105048866E-01 
    4.4413812270202485E-01 
    4.4077354965877358E-01 
    4.3893857629750599E-01 
    4.3874609658353136E-01 
    4.3927913111281941E-01 
    4.2573087804020354E-01 
    4.2508534466289799E-01 
    4.2363694666828916E-01 
    4.2119564984983265E-01 
    4.1786513882118143E-01 
    4.1400941743134850E-01 
    4.0976856743440743E-01 
    4.0403613988115450E-01 
    3.9694480527245102E-01 
    3.8958540507773393E-01 
    3.8274161765248210E-01 
    3.7627825550957295E-01 
    3.7090633246258248E-01 
    3.6806589276357488E-01 
    3.6778803662573095E-01 
    3.6876131525050693E-01 
    3.7573234014033707E-01 
    3.7489679211621879E-01 
    3.7300841869393375E-01 
    3.6971886883501331E-01 
    3.6517781420879952E-01 
    3.5995086971238960E-01 
    3.5430939349895596E-01 
    3.4674186889227726E-01 
    3.3740184503169174E-01 
    3.2767577442261198E-01 
    3.1824877148219560E-01 
    3.0903058508980114E-01 
    3.0086866868160717E-01 
    2.9552534637223143E-01 
    2.9303846921028737E-01 
    2.9235055038719454E-01 
    3.3006047884226930E-01 
    3.2909172858150360E-01 
    3.2686360733120456E-01 
    3.2287206426603843E-01 
    3.1726638995527906E-01 
    3.1082099180097439E-01 
    3.0413116210534913E-01 
    2.9540065716895136E-01 
    2.8445857840483935E-01 
    2.7236666447102720E-01 
    2.5954299723651436E-01 
    2.4578070262471227E-01 
    2.3112759742470237E-01 
    2.1675637643542087E-01 
    2.0348626152108051E-01 
    1.9375652511994429E-01 
    3.0096216458340824E-01 
    2.9985878857767961E-01 
    2.9732028217350803E-01 
    2.9284926883031498E-01 
    2.8659568105864663E-01 
    2.7953989016481101E-01 
    2.7281771623407070E-01 
    2.6436826816658859E-01 
    2.5250120351947192E-01 
    2.3665999662309137E-01 
    2.1815354471494916E-01 
    1.9542537921417005E-01 
    1.6426478067811398E-01 
    1.2215382578288293E-01 
    6.7923677313434683E-02 
    0.0000000000000000E+00 

SCALARS Saturarion double 1 
LOOKUP_TABLE default 

    1.0000000001516538E+00 
    9.6594619113800406E-01 
    9.1106661638904174E-01 
    8.5695004727974300E-01 
    8.0233008555298413E-01 
    7.5028885786459287E-01 
    6.9853525003954176E-01 
    6.4795070276986155E-01 
    5.9415088301693242E-01 
    5.4110145271589805E-01 
    4.9510986983439964E-01 
    4.4830271385442066E-01 
    2.2070061543665662E-01 
    3.9006715900871896E-06 
    1.0000000003088748E-06 
    9.9999999999999995E-07 
    9.2247085758206604E-01 
    9.0405146831156824E-01 
    8.6357220300168269E-01 
    8.1892675369164980E-01 
    7.7283641376720535E-01 
    7.2739766467472333E-01 
    6.8257699862189780E-01 
    6.4000655307488519E-01 
    5.9309935503884059E-01 
    5.4632616002764034E-01 
    5.0192635660967999E-01 
    4.5238473457756856E-01 
    2.0348022249836500E-01 
    1.2525038387414523E-05 
    1.0000672898989133E-06 
    9.9999999999999995E-07 
    8.0950015698002553E-01 
    8.0187383230504794E-01 
    7.8121696186777545E-01 
    7.5327642171397680E-01 
    7.2262931999096780E-01 
    6.8776518149021815E-01 
    6.5353149607285210E-01 
    6.1913776142780552E-01 
    5.8124808374966819E-01 
    5.4075322583792607E-01 
    4.9932212053410829E-01 
    4.4937873623638541E-01 
    1.7025922178358743E-01 
    3.8706960761389213E-05 
    1.0003883808295055E-06 
    1.0000000000000671E-06 
    7.1924416880440956E-01 
    7.1442265293205209E-01 
    7.0275679708745453E-01 
    6.8590417429498840E-01 
    6.6762872397722439E-01 
    6.4546065135102293E-01 
    6.1934423099671632E-01 
    5.9211250122148495E-01 
    5.6267897216832063E-01 
    5.2776099503378504E-01 
    4.8916384324108958E-01 
    4.3428001553117729E-01 
    1.0598184863271491E-01 
    7.3836830139268771E-05 
    1.0007065862601983E-06 
    1.0000000000000004E-06 
    6.4898584489036204E-01 
    6.4608959718040737E-01 
    6.3863188555112282E-01 
    6.2587550722442820E-01 
    6.1249254510012219E-01 
    5.9943783658698691E-01 
    5.7963735937504934E-01 
    5.5748453944720588E-01 
    5.3607242691534729E-01 
    5.0753629616665974E-01 
    4.7361116032034684E-01 
    3.9205588594581975E-01 
    3.9305593510465399E-02 
    2.4583985965224580E-05 
    1.0000389072703608E-06 
    9.9999999999999995E-07 
    5.9611302688397050E-01 
    5.9359374404113929E-01 
    5.8811008044235369E-01 
    5.8144316885201863E-01 
    5.7059051359718294E-01 
    5.5659854944465836E-01 
    5.4017006139400348E-01 
    5.2042458393389823E-01 
    5.0200590965517389E-01 
    4.8175086634630149E-01 
    4.5108567051114701E-01 
    2.7916912631632046E-01 
    4.5132893338713613E-03 
    1.4025929985607711E-06 
    1.0000000426400455E-06 
    1.0000000000000004E-06 
    5.4307521175004458E-01 
    5.4063450038468974E-01 
    5.3584243269790033E-01 
    5.3093784542090983E-01 
    5.3075094004394563E-01 
    5.1855727078363778E-01 
    5.0404151101920069E-01 
    4.8716787370711384E-01 
    4.6769815130541587E-01 
    4.4880444418439303E-01 
    3.7217418818255454E-01 
    7.7311772126264569E-02 
    2.1343615937291662E-04 
    1.0029444401540440E-06 
    1.0000000000000243E-06 
    9.9999999999999995E-07 
    4.9507308264306488E-01 
    4.9281143726721183E-01 
    4.8875594222861551E-01 
    4.8438470467455719E-01 
    4.8524783516525194E-01 
    4.8001573399438685E-01 
    4.7134554106530996E-01 
    4.5805114551569043E-01 
    4.2606694726595740E-01 
    3.1538250949874136E-01 
    8.6374093523322898E-02 
    1.0558546620074653E-03 
    1.0768995904884223E-06 
    1.0000000047362143E-06 
    9.9999999999999995E-07 
    9.9999999999999995E-07 
    4.4797789999681542E-01 
    4.4701865763174758E-01 
    4.4455919648474729E-01 
    4.4063635043652116E-01 
    4.3953495317909613E-01 
    4.3548393981100270E-01 
    4.2155259679914281E-01 
    3.7229891356653882E-01 
    2.2525920533421953E-01 
    2.8610797179231099E-02 
    4.9717905106991874E-04 
    1.1544014156299660E-06 
    1.0000000385975126E-06 
    1.0000000000000025E-06 
    9.9999999999999995E-07 
    9.9999999999999995E-07 
    2.9485403192539611E-01 
    2.7310717898851694E-01 
    2.4284711886495186E-01 
    2.0516698470830719E-01 
    1.8253416305036163E-01 
    1.6747297306128914E-01 
    1.1296003350364893E-01 
    3.9904469572333519E-02 
    1.8732672865595706E-03 
    4.7966457681799965E-05 
    1.0493567438466189E-06 
    1.0000000323467567E-06 
    1.0000000000000067E-06 
    9.9999999999999995E-07 
    9.9999999999999995E-07 
    9.9999999999999995E-07 
    2.4851456480600706E-04 
    6.7842257572684698E-04 
    1.5333186333619256E-04 
    2.6480422705822301E-05 
    5.3639567657664306E-06 
    2.4977575614592413E-05 
    8.7696647703521631E-05 
    4.6513959346351267E-05 
    1.3461122922522517E-06 
    1.0002225423989174E-06 
    1.0000000000450509E-06 
    1.0000000000000016E-06 
    9.9999999999999995E-07 
    9.9999999999999995E-07 
    9.9999999999999995E-07 
    9.9999999999999995E-07 
    1.0000000033155548E-06 
    1.0002150152655521E-06 
    1.0001468647151333E-06 
    1.0004242967405275E-06 
    1.0000209032158230E-06 
    1.0001764404308302E-06 
    1.0026559179855764E-06 
    1.0002786469973862E-06 
    1.0000000587229263E-06 
    1.0000000000000468E-06 
    1.0000000000000002E-06 
    9.9999999999999995E-07 
    9.9999999999999995E-07 
    9.9999999999999995E-07 
    9.9999999999999995E-07 
    9.9999999999999995E-07 
    1.0000000000000006E-06 
    1.0000000000216836E-06 
    1.0000000000473283E-06 
    1.0000000000445829E-06 
    9.9999999999999911E-07 
    9.9999999999999995E-07 
    1.0000000000000067E-06 
    1.0000000000000002E-06 
    1.0000000000000031E-06 
    9.9999999999999995E-07 
    9.9999999999999995E-07 
    9.9999999999999995E-07 
    9.9999999999999995E-07 
    9.9999999999999995E-07 
    9.9999999999999995E-07 
    9.9999999999999995E-07 
    9.9999999999999995E-07 
    1.0000000000000002E-06 
    1.0000000000000002E-06 
    9.9999999999999995E-07 
    9.9999999999999995E-07 
    9.9999999999999995E-07 
    9.9999999999999995E-07 
    9.9999999999999995E-07 
    9.9999999999999995E-07 
    9.9999999999999995E-07 
    9.9999999999999995E-07 
    9.9999999999999995E-07 
    9.9999999999999995E-07 
    9.9999999999999995E-07 
    9.9999999999999995E-07 
    9.9999999999999995E-07 
    9.9999999999999995E-07 
    9.9999999999999995E-07 
    9.9999999999999995E-07 
    9.9999999999999995E-07 
    9.9999999999999995E-07 
    9.9999999999999995E-07 
    9.9999999999999995E-07 
    9.9999999999999995E-07 
    9.9999999999999995E-07 
    9.9999999999999995E-07 
    9.9999999999999995E-07 
    9.9999999999999995E-07 
    9.9999999999999995E-07 
    9.9999999999999995E-07 
    9.9999999999999995E-07 
    9.9999999999999995E-07 
    9.9999999999999995E-07 
    9.9999999999999995E-07 
    9.9999999999999995E-07 
    9.9999999999999995E-07 
    9.9999999999999995E-07 
    9.9999999999999995E-07 
    9.9999999999999995E-07 
    9.9999999999999995E-07 
    9.9999999999999995E-07 
    9.9999999999999995E-07 
    9.9999999999999995E-07 
    9.9999999999999995E-07 
    9.9999999999999995E-07 
    9.9999999999999995E-07 
    9.9999999999999995E-07 
    1.0000000663648704E-06 
