# vtk DataFile Version 2.0
Pressure Field Data 
ASCII 
DATASET UNSTRUCTURED_GRID 

POINTS 289 double 

    0.0000000000000000E+00     0.0000000000000000E+00     0.0000000000000000E+00 
    1.0000000000000000E+00     0.0000000000000000E+00     0.0000000000000000E+00 
    1.0000000000000000E+00     1.0000000000000000E+00     0.0000000000000000E+00 
    0.0000000000000000E+00     1.0000000000000000E+00     0.0000000000000000E+00 
    6.2499999999872928E-02     0.0000000000000000E+00     0.0000000000000000E+00 
    1.2499999999977310E-01     0.0000000000000000E+00     0.0000000000000000E+00 
    1.8749999999959341E-01     0.0000000000000000E+00     0.0000000000000000E+00 
    2.4999999999941089E-01     0.0000000000000000E+00     0.0000000000000000E+00 
    3.1249999999922851E-01     0.0000000000000000E+00     0.0000000000000000E+00 
    3.7499999999904610E-01     0.0000000000000000E+00     0.0000000000000000E+00 
    4.3749999999886358E-01     0.0000000000000000E+00     0.0000000000000000E+00 
    4.9999999999869210E-01     0.0000000000000000E+00     0.0000000000000000E+00 
    5.6249999999884603E-01     0.0000000000000000E+00     0.0000000000000000E+00 
    6.2499999999901090E-01     0.0000000000000000E+00     0.0000000000000000E+00 
    6.8749999999917577E-01     0.0000000000000000E+00     0.0000000000000000E+00 
    7.4999999999934064E-01     0.0000000000000000E+00     0.0000000000000000E+00 
    8.1249999999950551E-01     0.0000000000000000E+00     0.0000000000000000E+00 
    8.7499999999967026E-01     0.0000000000000000E+00     0.0000000000000000E+00 
    9.3749999999983513E-01     0.0000000000000000E+00     0.0000000000000000E+00 
    1.0000000000000000E+00     6.2499999999872928E-02     0.0000000000000000E+00 
    1.0000000000000000E+00     1.2499999999977310E-01     0.0000000000000000E+00 
    1.0000000000000000E+00     1.8749999999959341E-01     0.0000000000000000E+00 
    1.0000000000000000E+00     2.4999999999941089E-01     0.0000000000000000E+00 
    1.0000000000000000E+00     3.1249999999922851E-01     0.0000000000000000E+00 
    1.0000000000000000E+00     3.7499999999904610E-01     0.0000000000000000E+00 
    1.0000000000000000E+00     4.3749999999886358E-01     0.0000000000000000E+00 
    1.0000000000000000E+00     4.9999999999869210E-01     0.0000000000000000E+00 
    1.0000000000000000E+00     5.6249999999884603E-01     0.0000000000000000E+00 
    1.0000000000000000E+00     6.2499999999901090E-01     0.0000000000000000E+00 
    1.0000000000000000E+00     6.8749999999917577E-01     0.0000000000000000E+00 
    1.0000000000000000E+00     7.4999999999934064E-01     0.0000000000000000E+00 
    1.0000000000000000E+00     8.1249999999950551E-01     0.0000000000000000E+00 
    1.0000000000000000E+00     8.7499999999967026E-01     0.0000000000000000E+00 
    1.0000000000000000E+00     9.3749999999983513E-01     0.0000000000000000E+00 
    9.3749999999973976E-01     1.0000000000000000E+00     0.0000000000000000E+00 
    8.7499999999950118E-01     1.0000000000000000E+00     0.0000000000000000E+00 
    8.1249999999991318E-01     1.0000000000000000E+00     0.0000000000000000E+00 
    7.5000000000034706E-01     1.0000000000000000E+00     0.0000000000000000E+00 
    6.8750000000078049E-01     1.0000000000000000E+00     0.0000000000000000E+00 
    6.2500000000121403E-01     1.0000000000000000E+00     0.0000000000000000E+00 
    5.6250000000164757E-01     1.0000000000000000E+00     0.0000000000000000E+00 
    5.0000000000205946E-01     1.0000000000000000E+00     0.0000000000000000E+00 
    4.3750000000182099E-01     1.0000000000000000E+00     0.0000000000000000E+00 
    3.7500000000156092E-01     1.0000000000000000E+00     0.0000000000000000E+00 
    3.1250000000130068E-01     1.0000000000000000E+00     0.0000000000000000E+00 
    2.5000000000104050E-01     1.0000000000000000E+00     0.0000000000000000E+00 
    1.8750000000078040E-01     1.0000000000000000E+00     0.0000000000000000E+00 
    1.2500000000052031E-01     1.0000000000000000E+00     0.0000000000000000E+00 
    6.2500000000260125E-02     1.0000000000000000E+00     0.0000000000000000E+00 
    0.0000000000000000E+00     9.3749999999973976E-01     0.0000000000000000E+00 
    0.0000000000000000E+00     8.7499999999950118E-01     0.0000000000000000E+00 
    0.0000000000000000E+00     8.1249999999991318E-01     0.0000000000000000E+00 
    0.0000000000000000E+00     7.5000000000034706E-01     0.0000000000000000E+00 
    0.0000000000000000E+00     6.8750000000078049E-01     0.0000000000000000E+00 
    0.0000000000000000E+00     6.2500000000121403E-01     0.0000000000000000E+00 
    0.0000000000000000E+00     5.6250000000164757E-01     0.0000000000000000E+00 
    0.0000000000000000E+00     5.0000000000205946E-01     0.0000000000000000E+00 
    0.0000000000000000E+00     4.3750000000182099E-01     0.0000000000000000E+00 
    0.0000000000000000E+00     3.7500000000156092E-01     0.0000000000000000E+00 
    0.0000000000000000E+00     3.1250000000130068E-01     0.0000000000000000E+00 
    0.0000000000000000E+00     2.5000000000104050E-01     0.0000000000000000E+00 
    0.0000000000000000E+00     1.8750000000078040E-01     0.0000000000000000E+00 
    0.0000000000000000E+00     1.2500000000052031E-01     0.0000000000000000E+00 
    0.0000000000000000E+00     6.2500000000260125E-02     0.0000000000000000E+00 
    6.2499999999897131E-02     6.2500000000235922E-02     0.0000000000000000E+00 
    6.2499999999921327E-02     1.2500000000047351E-01     0.0000000000000000E+00 
    6.2499999999945530E-02     1.8750000000070621E-01     0.0000000000000000E+00 
    6.2499999999969733E-02     2.5000000000093858E-01     0.0000000000000000E+00 
    6.2499999999993928E-02     3.1250000000117117E-01     0.0000000000000000E+00 
    6.2500000000018124E-02     3.7500000000140382E-01     0.0000000000000000E+00 
    6.2500000000042327E-02     4.3750000000163619E-01     0.0000000000000000E+00 
    6.2500000000066530E-02     5.0000000000184897E-01     0.0000000000000000E+00 
    6.2500000000090733E-02     5.6250000000147260E-01     0.0000000000000000E+00 
    6.2500000000114922E-02     6.2500000000107636E-01     0.0000000000000000E+00 
    6.2500000000139125E-02     6.8750000000068034E-01     0.0000000000000000E+00 
    6.2500000000163328E-02     7.5000000000028411E-01     0.0000000000000000E+00 
    6.2500000000187531E-02     8.1249999999988787E-01     0.0000000000000000E+00 
    6.2500000000211720E-02     8.7499999999951172E-01     0.0000000000000000E+00 
    6.2500000000235922E-02     9.3749999999974565E-01     0.0000000000000000E+00 
    1.2499999999981980E-01     6.2500000000211733E-02     0.0000000000000000E+00 
    1.2499999999986650E-01     1.2500000000042691E-01     0.0000000000000000E+00 
    1.2499999999991319E-01     1.8750000000063199E-01     0.0000000000000000E+00 
    1.2499999999995989E-01     2.5000000000083678E-01     0.0000000000000000E+00 
    1.2500000000000661E-01     3.1250000000104172E-01     0.0000000000000000E+00 
    1.2500000000005329E-01     3.7500000000124661E-01     0.0000000000000000E+00 
    1.2500000000010000E-01     4.3750000000145117E-01     0.0000000000000000E+00 
    1.2500000000014669E-01     5.0000000000163858E-01     0.0000000000000000E+00 
    1.2500000000019340E-01     5.6250000000129741E-01     0.0000000000000000E+00 
    1.2500000000024011E-01     6.2500000000093847E-01     0.0000000000000000E+00 
    1.2500000000028680E-01     6.8750000000057998E-01     0.0000000000000000E+00 
    1.2500000000033351E-01     7.5000000000022127E-01     0.0000000000000000E+00 
    1.2500000000038020E-01     8.1249999999986211E-01     0.0000000000000000E+00 
    1.2500000000042691E-01     8.7499999999952238E-01     0.0000000000000000E+00 
    1.2500000000047359E-01     9.3749999999975164E-01     0.0000000000000000E+00 
    1.8749999999966760E-01     6.2500000000187531E-02     0.0000000000000000E+00 
    1.8749999999974179E-01     1.2500000000038020E-01     0.0000000000000000E+00 
    1.8749999999981601E-01     1.8750000000055780E-01     0.0000000000000000E+00 
    1.8749999999989009E-01     2.5000000000073502E-01     0.0000000000000000E+00 
    1.8749999999996431E-01     3.1250000000091221E-01     0.0000000000000000E+00 
    1.8750000000003850E-01     3.7500000000108941E-01     0.0000000000000000E+00 
    1.8750000000011269E-01     4.3750000000126649E-01     0.0000000000000000E+00 
    1.8750000000018691E-01     5.0000000000142808E-01     0.0000000000000000E+00 
    1.8750000000026110E-01     5.6250000000112244E-01     0.0000000000000000E+00 
    1.8750000000033529E-01     6.2500000000080080E-01     0.0000000000000000E+00 
    1.8750000000040951E-01     6.8750000000047962E-01     0.0000000000000000E+00 
    1.8750000000048361E-01     7.5000000000015843E-01     0.0000000000000000E+00 
    1.8750000000055780E-01     8.1249999999983680E-01     0.0000000000000000E+00 
    1.8750000000063199E-01     8.7499999999953304E-01     0.0000000000000000E+00 
    1.8750000000070621E-01     9.3749999999975764E-01     0.0000000000000000E+00 
    2.4999999999951281E-01     6.2500000000163314E-02     0.0000000000000000E+00 
    2.4999999999961461E-01     1.2500000000033351E-01     0.0000000000000000E+00 
    2.4999999999971650E-01     1.8750000000048361E-01     0.0000000000000000E+00 
    2.4999999999981831E-01     2.5000000000063310E-01     0.0000000000000000E+00 
    2.4999999999992020E-01     3.1250000000078260E-01     0.0000000000000000E+00 
    2.5000000000002198E-01     3.7500000000093209E-01     0.0000000000000000E+00 
    2.5000000000012390E-01     4.3750000000108180E-01     0.0000000000000000E+00 
    2.5000000000022571E-01     5.0000000000121769E-01     0.0000000000000000E+00 
    2.5000000000032763E-01     5.6250000000094724E-01     0.0000000000000000E+00 
    2.5000000000042938E-01     6.2500000000066314E-01     0.0000000000000000E+00 
    2.5000000000053119E-01     6.8750000000037925E-01     0.0000000000000000E+00 
[...]
CELL_DATA 256 
SCALARS Pressure double 1 
LOOKUP_TABLE default 

    1.0298527479742472E+00 
    1.0175207272316653E+00 
    1.0047123940832476E+00 
    9.9278693475114344E-01 
    9.8399049572987729E-01 
    9.7901507044763258E-01 
    9.7120082782223738E-01 
    9.6498827373055529E-01 
    9.6048741423690309E-01 
    9.5681430988993454E-01 
    9.5252123066607775E-01 
    9.4823752720803323E-01 
    9.4395827290734113E-01 
    9.3997882799800658E-01 
    9.3647685088148647E-01 
    9.3400526600508538E-01 
    9.8147014280611133E-01 
    9.7778508534932418E-01 
    9.7324351957120858E-01 
    9.6812844340625570E-01 
    9.6274527726504433E-01 
    9.5655993275029483E-01 
    9.5030884804077675E-01 
    9.4610553389392915E-01 
    9.4136778518667175E-01 
    9.3667426379407992E-01 
    9.3286857673451096E-01 
    9.2921709438213940E-01 
    9.2539089676513619E-01 
    9.2261144372915338E-01 
    9.2080583394828297E-01 
    9.1965328765818910E-01 
    9.4294924316963002E-01 
    9.4104899930106145E-01 
    9.3870746647678127E-01 
    9.3562250448167383E-01 
    9.3157124664003244E-01 
    9.2637789739058751E-01 
    9.2117901202019858E-01 
    9.1746822785571702E-01 
    9.1265160594798045E-01 
    9.0796624795945824E-01 
    9.0457930174380508E-01 
    9.0125639393981405E-01 
    8.9768681695194308E-01 
    8.9576340376271890E-01 
    8.9523433449828882E-01 
    8.9528086829881337E-01 
    9.0169735034348852E-01 
    9.0134878178497158E-01 
    9.0063992879920485E-01 
    8.9907752785807737E-01 
    8.9630599873676797E-01 
    8.9220588751893770E-01 
    8.8791671997762678E-01 
    8.8447066218913395E-01 
    8.7988519237531027E-01 
    8.7549172666376096E-01 
    8.7243946026648367E-01 
    8.6922268975508543E-01 
    8.6589908239717850E-01 
    8.6461772700695949E-01 
    8.6487034521822614E-01 
    8.6537648314424853E-01 
    8.6278144378039556E-01 
    8.6429313722813594E-01 
    8.6328171742231241E-01 
    8.6151893695279047E-01 
    8.5877138335124725E-01 
    8.5498676372499915E-01 
    8.5123663379347048E-01 
    8.4864603570324926E-01 
    8.4480859318780421E-01 
    8.4109880282051375E-01 
    8.3842430497345410E-01 
    8.3558552354766313E-01 
    8.3264962178629753E-01 
    8.3153114561739472E-01 
    8.3137357994967920E-01 
    8.3073424882732783E-01 
    8.2310332879239667E-01 
    8.2138317599972499E-01 
    8.1859389111513203E-01 
    8.1484951731498689E-01 
    8.1125746245408126E-01 
    8.0889626944811344E-01 
    8.0744420791719862E-01 
    8.0600996163665561E-01 
    8.0437428964661006E-01 
    8.0282493346102979E-01 
    8.0045375213359904E-01 
    7.9729642684021373E-01 
    7.9441784449268982E-01 
    7.9194476934621261E-01 
    7.8976579200427766E-01 
    7.8822921337366914E-01 
    7.6504604292373302E-01 
    7.6467916680537851E-01 
    7.6361682745442527E-01 
    7.6213971300549666E-01 
    7.6084447697398883E-01 
    7.6000469331734755E-01 
    7.5815506238990882E-01 
    7.5463348764631089E-01 
    7.5218514541753667E-01 
    7.4962947820097237E-01 
    7.4622211942191830E-01 
    7.4297460733987142E-01 
    7.4088740037527312E-01 
    7.3947611441826389E-01 
    7.3883390173287988E-01 
    7.3856830699763754E-01 
    7.1026910564648915E-01 
    7.1075069979955274E-01 
    7.1042631475805518E-01 
    7.0936265148415412E-01 
    7.0758945412833252E-01 
    7.0518257428903086E-01 
    7.0179288465404832E-01 
    6.9743640123007489E-01 
    6.9319630062570026E-01 
    6.8988953793290220E-01 
    6.8718435493051022E-01 
    6.8482636769646799E-01 
    6.8306427056245067E-01 
    6.8262649640422479E-01 
    6.8345455211449613E-01 
    6.8438560926197023E-01 
    6.5091706618245693E-01 
    6.5113947575128417E-01 
    6.4983170792890166E-01 
    6.4807543690623637E-01 
    6.4560384861235531E-01 
    6.4260368582530381E-01 
    6.3911782651044147E-01 
    6.3588488362308382E-01 
    6.3298768550500450E-01 
    6.3129411124515733E-01 
    6.2991644432785121E-01 
    6.2847506646006679E-01 
    6.2718970080518754E-01 
    6.2736464460541497E-01 
    6.2852020287079269E-01 
    6.2886328039693151E-01 
    5.8488983632681579E-01 
    5.8428945043493075E-01 
    5.8296393903941013E-01 
    5.8140346805304666E-01 
    5.8001084416376536E-01 
    5.7877615362268120E-01 
    5.7743053587125992E-01 
    5.7644702636724354E-01 
    5.7598290846441380E-01 
    5.7607087380837729E-01 
    5.7626130758729033E-01 
    5.7531510312553491E-01 
    5.7390896670409020E-01 
    5.7228288107516256E-01 
    5.7064934925997801E-01 
    5.6966272616828384E-01 
    5.2688515647866485E-01 
    5.2643423374282439E-01 
    5.2558034389944885E-01 
    5.2470930574806951E-01 
    5.2385599799782256E-01 
    5.2242710307085549E-01 
    5.1997677350312665E-01 
    5.1811100581541913E-01 
    5.1702105968850143E-01 
    5.1543401536243127E-01 
    5.1309838362588689E-01 
    5.1078012485417856E-01 
    5.0920503634374659E-01 
    5.0790442447348838E-01 
    5.0719627049183702E-01 
    5.0682480659698947E-01 
    4.7491131559866695E-01 
    4.7452893371673066E-01 
    4.7362930601571984E-01 
    4.7221004183416521E-01 
    4.7024128303667995E-01 
    4.6777404791314720E-01 
    4.6499332325417381E-01 
    4.6147963590897295E-01 
    4.5718379327462511E-01 
    4.5247423124367692E-01 
    4.4812721350403423E-01 
    4.4415630139623125E-01 
    4.4088552325828612E-01 
    4.3910560777590391E-01 
    4.3892487645624129E-01 
    4.3943966964462450E-01 
    4.2458167406023600E-01 
    4.2400494960565066E-01 
    4.2264808228359263E-01 
    4.2033066337599723E-01 
    4.1714460204844223E-01 
    4.1343289420352686E-01 
    4.0930961540899002E-01 
    4.0365937897140725E-01 
    3.9667533547834816E-01 
    3.8941789165853075E-01 
    3.8266172194239034E-01 
    3.7626801637532326E-01 
    3.7095417176372408E-01 
    3.6814528293117649E-01 
    3.6787079845319848E-01 
    3.6882649430935111E-01 
    3.7512945118194396E-01 
    3.7432106655362607E-01 
    3.7247101960433804E-01 
    3.6923817006644383E-01 
    3.6476695473753351E-01 
    3.5961047527689072E-01 
    3.5402490479070042E-01 
    3.4649971104739075E-01 
    3.3721426479751254E-01 
    3.2753929940530124E-01 
    3.1816025988620183E-01 
    3.0898064707390133E-01 
    3.0085158996533079E-01 
    2.9552815302393198E-01 
    2.9304766145103472E-01 
    2.9235247902742600E-01 
    3.2998242419028745E-01 
    3.2899598017429760E-01 
    3.2675063833838874E-01 
    3.2274791560366145E-01 
    3.1714039280296025E-01 
    3.1069834263147933E-01 
    3.0400569466960503E-01 
    2.9527608906182573E-01 
    2.8433688294235288E-01 
    2.7225005566930466E-01 
    2.5944073793092332E-01 
    2.4569086737588305E-01 
    2.3104988620444916E-01 
    2.1669116503320004E-01 
    2.0343517451350235E-01 
    1.9371648110946005E-01 
    3.0121245383147832E-01 
    3.0004291142811818E-01 
    2.9743834398337921E-01 
    2.9290370832286566E-01 
    2.8661122212546852E-01 
    2.7954636624546852E-01 
    2.7278235406868967E-01 
    2.6429937764562900E-01 
    2.5240472146612314E-01 
    2.3654921528977021E-01 
    2.1803925265462090E-01 
    1.9530802354693280E-01 
    1.6414671858835064E-01 
    1.2204625693947919E-01 
    6.7851514484238457E-02 
    0.0000000000000000E+00 

SCALARS Saturarion double 1 
LOOKUP_TABLE default 

    1.0000000016801467E+00 
    9.5936231560622720E-01 
    8.9579914493126567E-01 
    8.3612061513337732E-01 
    7.7673363599545386E-01 
    7.2224064728890114E-01 
    6.6867581020671163E-01 
    6.1714775751906858E-01 
    5.6162461392740204E-01 
    5.0973131120647475E-01 
    4.5999367988443324E-01 
    3.0234988564722892E-01 
    6.6807161029267513E-04 
    1.0000004098769877E-06 
    1.0000000000000690E-06 
    9.9999999999999995E-07 
    9.1108008632592663E-01 
    8.9025947993753218E-01 
    8.4466763525599065E-01 
    7.9581114011117760E-01 
    7.4767053612849255E-01 
    6.9864628720649191E-01 
    6.5388029460321284E-01 
    6.0950090443276239E-01 
    5.6209837902481097E-01 
    5.1693748470129020E-01 
    4.7138370338216845E-01 
    3.4269422757961804E-01 
    1.7818838217739360E-03 
    1.0124599025807282E-06 
    1.0000000012029701E-06 
    9.9999999999999995E-07 
    7.8736806594798547E-01 
    7.7964712798119873E-01 
    7.5719819341912331E-01 
    7.2790436072159892E-01 
    6.9552538241293815E-01 
    6.6012516126155296E-01 
    6.2467926025474430E-01 
    5.8838092753307025E-01 
    5.5112119871067067E-01 
    5.1075332533902762E-01 
    4.6862437082277814E-01 
    3.1616852158113257E-01 
    4.0126821211596614E-03 
    1.0643431491021937E-06 
    1.0000000034435660E-06 
    9.9999999999999974E-07 
    6.9099265082709893E-01 
    6.8595070151283610E-01 
    6.7326923665992511E-01 
    6.5531626429582235E-01 
    6.3839945485232663E-01 
    6.1519696897220055E-01 
    5.8722279296547286E-01 
    5.6016955504452004E-01 
    5.3101538281275062E-01 
    4.9545729693148771E-01 
    4.5663693831105623E-01 
    2.3722551213533050E-01 
    3.9616417325760641E-04 
    1.0239348335614747E-06 
    1.0000000002122476E-06 
    9.9999999999999995E-07 
    6.1839151308865681E-01 
    6.1529265567598768E-01 
    6.0777292061358823E-01 
    5.9477965983659797E-01 
    5.8116537784395450E-01 
    5.6611632972095793E-01 
    5.4586930949096990E-01 
    5.2320883147586239E-01 
    5.0092315420673672E-01 
    4.7380823611636730E-01 
    4.2124500472440302E-01 
    1.0890604705780146E-01 
    2.0299371885520740E-04 
    1.0048695249392751E-06 
    1.0000000000000002E-06 
    9.9999999999999995E-07 
    5.5818703763714272E-01 
    5.5545481992635859E-01 
    5.4989076122070435E-01 
    5.4522331928607692E-01 
    5.3446338780674274E-01 
    5.2090574564237924E-01 
    5.0433779586457894E-01 
    4.8481490680221978E-01 
    4.6576388910095012E-01 
    4.3556019020755499E-01 
    2.6583770948920521E-01 
    8.8392457903143703E-03 
    2.8462512320769249E-06 
    1.0000002907748401E-06 
    1.0000000000000012E-06 
    9.9999999999999995E-07 
    5.0145796215327221E-01 
    4.9873939587075411E-01 
    4.9378741041390661E-01 
    4.8905170606507964E-01 
    4.8542091051008035E-01 
    4.7768054378721198E-01 
    4.6524391822226818E-01 
    4.4335799113074242E-01 
    3.6666083430099183E-01 
    1.9011274793213034E-01 
    1.6551761033426048E-02 
    1.3943553811581863E-05 
    1.0000064230330729E-06 
    1.0000000000001020E-06 
    9.9999999999999995E-07 
    9.9999999999999995E-07 
    4.4617650910541756E-01 
    4.4471732497569982E-01 
    4.3926244375481660E-01 
    4.3072450057664829E-01 
    4.2412503021846981E-01 
    4.1433301930855987E-01 
    3.6390628705658240E-01 
    2.3219396841729065E-01 
    4.9253209020487729E-02 
    7.6664330311157567E-04 
    1.5003334221905616E-05 
    1.0000218073609213E-06 
    1.0000000000016504E-06 
    9.9999999999999995E-07 
    9.9999999999999995E-07 
    9.9999999999999995E-07 
    1.8836464009502182E-01 
    1.6882629670069685E-01 
    1.4049477992481738E-01 
    1.0289514853614309E-01 
    8.8041943935437475E-02 
    7.2914767147745335E-02 
    2.8912931136790356E-02 
    1.1756646969983641E-03 
    1.2517327502223718E-04 
    1.2188820385590896E-06 
    1.0000194289276194E-06 
    1.0000000000023320E-06 
    9.9999999999999995E-07 
    9.9999999999999995E-07 
    9.9999999999999995E-07 
    9.9999999999999995E-07 
    1.0000025018603428E-06 
    3.8049422820109967E-06 
    1.4008534791184348E-05 
    2.0290950250255301E-05 
    2.0264343213371200E-06 
    1.4293974815855722E-05 
    2.1996529654520886E-05 
    1.1201612929480222E-06 
    1.0019603197147288E-06 
    1.0000000113550162E-06 
    1.0000000000000722E-06 
    9.9999999999999995E-07 
    9.9999999999999995E-07 
    9.9999999999999995E-07 
    9.9999999999999995E-07 
    9.9999999999999995E-07 
    1.0000000000033174E-06 
    1.0000076845047402E-06 
    1.0000721622420009E-06 
    1.0001127335661616E-06 
    1.0000005453800240E-06 
    1.0000441943100579E-06 
    1.0000511274345546E-06 
    1.0000000200734088E-06 
    1.0000000000000031E-06 
    1.0000000000000019E-06 
    9.9999999999999995E-07 
    9.9999999999999995E-07 
    9.9999999999999995E-07 
    9.9999999999999995E-07 
    9.9999999999999995E-07 
    9.9999999999999995E-07 
    9.9999999999999995E-07 
    1.0000000000006255E-06 
    1.0000000000080205E-06 
    9.9999999999999932E-07 
    9.9999999999999953E-07 
    1.0000000000000048E-06 
    1.0000000000000052E-06 
    1.0000000000000014E-06 
    9.9999999999999995E-07 
    9.9999999999999995E-07 
    9.9999999999999995E-07 
    9.9999999999999995E-07 
    9.9999999999999995E-07 
    9.9999999999999995E-07 
    9.9999999999999995E-07 
    9.9999999999999995E-07 
    9.9999999999999995E-07 
    9.9999999999999995E-07 
    1.0000000000000002E-06 
    9.9999999999999995E-07 
    9.9999999999999995E-07 
    9.9999999999999995E-07 
    9.9999999999999995E-07 
    9.9999999999999995E-07 
    9.9999999999999995E-07 
    9.9999999999999995E-07 
    9.9999999999999995E-07 
    9.9999999999999995E-07 
    9.9999999999999995E-07 
    9.9999999999999995E-07 
    9.9999999999999995E-07 
    9.9999999999999995E-07 
    9.9999999999999995E-07 
    9.9999999999999995E-07 
    9.9999999999999995E-07 
    9.9999999999999995E-07 
    9.9999999999999995E-07 
    9.9999999999999995E-07 
    9.9999999999999995E-07 
    9.9999999999999995E-07 
    9.9999999999999995E-07 
    9.9999999999999995E-07 
    9.9999999999999995E-07 
    9.9999999999999995E-07 
    9.9999999999999995E-07 
    9.9999999999999995E-07 
    9.9999999999999995E-07 
    9.9999999999999995E-07 
    9.9999999999999995E-07 
    9.9999999999999995E-07 
    9.9999999999999995E-07 
    9.9999999999999995E-07 
    9.9999999999999995E-07 
    9.9999999999999995E-07 
    9.9999999999999995E-07 
    9.9999999999999995E-07 
    9.9999999999999995E-07 
    9.9999999999999995E-07 
    9.9999999999999995E-07 
    9.9999999999999995E-07 
    9.9999999999999995E-07 
    9.9999999999999995E-07 
    9.9999999999999995E-07 
    9.9999999999999995E-07 
    9.9999999999999995E-07 
    9.9999999999999995E-07 
    9.9999999999999995E-07 
    9.9999999999999995E-07 
    9.9999999999999995E-07 
    9.9999999999999995E-07 
    9.9999999999999995E-07 
    9.9999999999999995E-07 
    9.9999999999999995E-07 
    9.9999999999999995E-07 
    9.9999999999999995E-07 
    9.9999999999999995E-07 
    9.9999999999999995E-07 
    9.9999999999999995E-07 
    9.9999999999999995E-07 
    1.0000000544246620E-06 
