# vtk DataFile Version 2.0
Pressure Field Data 
ASCII 
DATASET UNSTRUCTURED_GRID 

POINTS 289 double 

    0.0000000000000000E+00     0.0000000000000000E+00     0.0000000000000000E+00 
    1.0000000000000000E+00     0.0000000000000000E+00     0.0000000000000000E+00 
    1.0000000000000000E+00     1.0000000000000000E+00     0.0000000000000000E+00 
    0.0000000000000000E+00     1.0000000000000000E+00     0.0000000000000000E+00 
    6.2499999999872928E-02     0.0000000000000000E+00     0.0000000000000000E+00 
    1.2499999999977310E-01     0.0000000000000000E+00     0.0000000000000000E+00 
    1.8749999999959341E-01     0.0000000000000000E+00     0.0000000000000000E+00 
    2.4999999999941089E-01     0.0000000000000000E+00     0.0000000000000000E+00 
    3.1249999999922851E-01     0.0000000000000000E+00     0.0000000000000000E+00 
    3.7499999999904610E-01     0.0000000000000000E+00     0.0000000000000000E+00 
    4.3749999999886358E-01     0.0000000000000000E+00     0.0000000000000000E+00 
    4.9999999999869210E-01     0.0000000000000000E+00     0.0000000000000000E+00 
    5.6249999999884603E-01     0.0000000000000000E+00     0.0000000000000000E+00 
    6.2499999999901090E-01     0.0000000000000000E+00     0.0000000000000000E+00 
    6.8749999999917577E-01     0.0000000000000000E+00     0.0000000000000000E+00 
    7.4999999999934064E-01     0.0000000000000000E+00     0.0000000000000000E+00 
    8.1249999999950551E-01     0.0000000000000000E+00     0.0000000000000000E+00 
    8.7499999999967026E-01     0.0000000000000000E+00     0.0000000000000000E+00 
    9.3749999999983513E-01     0.0000000000000000E+00     0.0000000000000000E+00 
    1.0000000000000000E+00     6.2499999999872928E-02     0.0000000000000000E+00 
    1.0000000000000000E+00     1.2499999999977310E-01     0.0000000000000000E+00 
    1.0000000000000000E+00     1.8749999999959341E-01     0.0000000000000000E+00 
    1.0000000000000000E+00     2.4999999999941089E-01     0.0000000000000000E+00 
    1.0000000000000000E+00     3.1249999999922851E-01     0.0000000000000000E+00 
    1.0000000000000000E+00     3.7499999999904610E-01     0.0000000000000000E+00 
    1.0000000000000000E+00     4.3749999999886358E-01     0.0000000000000000E+00 
    1.0000000000000000E+00     4.9999999999869210E-01     0.0000000000000000E+00 
    1.0000000000000000E+00     5.6249999999884603E-01     0.0000000000000000E+00 
    1.0000000000000000E+00     6.2499999999901090E-01     0.0000000000000000E+00 
    1.0000000000000000E+00     6.8749999999917577E-01     0.0000000000000000E+00 
    1.0000000000000000E+00     7.4999999999934064E-01     0.0000000000000000E+00 
    1.0000000000000000E+00     8.1249999999950551E-01     0.0000000000000000E+00 
    1.0000000000000000E+00     8.7499999999967026E-01     0.0000000000000000E+00 
    1.0000000000000000E+00     9.3749999999983513E-01     0.0000000000000000E+00 
    9.3749999999973976E-01     1.0000000000000000E+00     0.0000000000000000E+00 
    8.7499999999950118E-01     1.0000000000000000E+00     0.0000000000000000E+00 
    8.1249999999991318E-01     1.0000000000000000E+00     0.0000000000000000E+00 
    7.5000000000034706E-01     1.0000000000000000E+00     0.0000000000000000E+00 
    6.8750000000078049E-01     1.0000000000000000E+00     0.0000000000000000E+00 
    6.2500000000121403E-01     1.0000000000000000E+00     0.0000000000000000E+00 
    5.6250000000164757E-01     1.0000000000000000E+00     0.0000000000000000E+00 
    5.0000000000205946E-01     1.0000000000000000E+00     0.0000000000000000E+00 
    4.3750000000182099E-01     1.0000000000000000E+00     0.0000000000000000E+00 
    3.7500000000156092E-01     1.0000000000000000E+00     0.0000000000000000E+00 
    3.1250000000130068E-01     1.0000000000000000E+00     0.0000000000000000E+00 
    2.5000000000104050E-01     1.0000000000000000E+00     0.0000000000000000E+00 
    1.8750000000078040E-01     1.0000000000000000E+00     0.0000000000000000E+00 
    1.2500000000052031E-01     1.0000000000000000E+00     0.0000000000000000E+00 
    6.2500000000260125E-02     1.0000000000000000E+00     0.0000000000000000E+00 
    0.0000000000000000E+00     9.3749999999973976E-01     0.0000000000000000E+00 
    0.0000000000000000E+00     8.7499999999950118E-01     0.0000000000000000E+00 
    0.0000000000000000E+00     8.1249999999991318E-01     0.0000000000000000E+00 
    0.0000000000000000E+00     7.5000000000034706E-01     0.0000000000000000E+00 
    0.0000000000000000E+00     6.8750000000078049E-01     0.0000000000000000E+00 
    0.0000000000000000E+00     6.2500000000121403E-01     0.0000000000000000E+00 
    0.0000000000000000E+00     5.6250000000164757E-01     0.0000000000000000E+00 
    0.0000000000000000E+00     5.0000000000205946E-01     0.0000000000000000E+00 
    0.0000000000000000E+00     4.3750000000182099E-01     0.0000000000000000E+00 
    0.0000000000000000E+00     3.7500000000156092E-01     0.0000000000000000E+00 
    0.0000000000000000E+00     3.1250000000130068E-01     0.0000000000000000E+00 
    0.0000000000000000E+00     2.5000000000104050E-01     0.0000000000000000E+00 
    0.0000000000000000E+00     1.8750000000078040E-01     0.0000000000000000E+00 
    0.0000000000000000E+00     1.2500000000052031E-01     0.0000000000000000E+00 
    0.0000000000000000E+00     6.2500000000260125E-02     0.0000000000000000E+00 
    6.2499999999897131E-02     6.2500000000235922E-02     0.0000000000000000E+00 
    6.2499999999921327E-02     1.2500000000047351E-01     0.0000000000000000E+00 
    6.2499999999945530E-02     1.8750000000070621E-01     0.0000000000000000E+00 
    6.2499999999969733E-02     2.5000000000093858E-01     0.0000000000000000E+00 
    6.2499999999993928E-02     3.1250000000117117E-01     0.0000000000000000E+00 
    6.2500000000018124E-02     3.7500000000140382E-01     0.0000000000000000E+00 
    6.2500000000042327E-02     4.3750000000163619E-01     0.0000000000000000E+00 
    6.2500000000066530E-02     5.0000000000184897E-01     0.0000000000000000E+00 
    6.2500000000090733E-02     5.6250000000147260E-01     0.0000000000000000E+00 
    6.2500000000114922E-02     6.2500000000107636E-01     0.0000000000000000E+00 
    6.2500000000139125E-02     6.8750000000068034E-01     0.0000000000000000E+00 
    6.2500000000163328E-02     7.5000000000028411E-01     0.0000000000000000E+00 
    6.2500000000187531E-02     8.1249999999988787E-01     0.0000000000000000E+00 
    6.2500000000211720E-02     8.7499999999951172E-01     0.0000000000000000E+00 
    6.2500000000235922E-02     9.3749999999974565E-01     0.0000000000000000E+00 
    1.2499999999981980E-01     6.2500000000211733E-02     0.0000000000000000E+00 
    1.2499999999986650E-01     1.2500000000042691E-01     0.0000000000000000E+00 
    1.2499999999991319E-01     1.8750000000063199E-01     0.0000000000000000E+00 
    1.2499999999995989E-01     2.5000000000083678E-01     0.0000000000000000E+00 
    1.2500000000000661E-01     3.1250000000104172E-01     0.0000000000000000E+00 
    1.2500000000005329E-01     3.7500000000124661E-01     0.0000000000000000E+00 
    1.2500000000010000E-01     4.3750000000145117E-01     0.0000000000000000E+00 
    1.2500000000014669E-01     5.0000000000163858E-01     0.0000000000000000E+00 
    1.2500000000019340E-01     5.6250000000129741E-01     0.0000000000000000E+00 
    1.2500000000024011E-01     6.2500000000093847E-01     0.0000000000000000E+00 
    1.2500000000028680E-01     6.8750000000057998E-01     0.0000000000000000E+00 
    1.2500000000033351E-01     7.5000000000022127E-01     0.0000000000000000E+00 
    1.2500000000038020E-01     8.1249999999986211E-01     0.0000000000000000E+00 
    1.2500000000042691E-01     8.7499999999952238E-01     0.0000000000000000E+00 
    1.2500000000047359E-01     9.3749999999975164E-01     0.0000000000000000E+00 
    1.8749999999966760E-01     6.2500000000187531E-02     0.0000000000000000E+00 
    1.8749999999974179E-01     1.2500000000038020E-01     0.0000000000000000E+00 
    1.8749999999981601E-01     1.8750000000055780E-01     0.0000000000000000E+00 
    1.8749999999989009E-01     2.5000000000073502E-01     0.0000000000000000E+00 
    1.8749999999996431E-01     3.1250000000091221E-01     0.0000000000000000E+00 
    1.8750000000003850E-01     3.7500000000108941E-01     0.0000000000000000E+00 
    1.8750000000011269E-01     4.3750000000126649E-01     0.0000000000000000E+00 
    1.8750000000018691E-01     5.0000000000142808E-01     0.0000000000000000E+00 
    1.8750000000026110E-01     5.6250000000112244E-01     0.0000000000000000E+00 
    1.8750000000033529E-01     6.2500000000080080E-01     0.0000000000000000E+00 
    1.8750000000040951E-01     6.8750000000047962E-01     0.0000000000000000E+00 
    1.8750000000048361E-01     7.5000000000015843E-01     0.0000000000000000E+00 
    1.8750000000055780E-01     8.1249999999983680E-01     0.0000000000000000E+00 
    1.8750000000063199E-01     8.7499999999953304E-01     0.0000000000000000E+00 
    1.8750000000070621E-01     9.3749999999975764E-01     0.0000000000000000E+00 
    2.4999999999951281E-01     6.2500000000163314E-02     0.0000000000000000E+00 
    2.4999999999961461E-01     1.2500000000033351E-01     0.0000000000000000E+00 
    2.4999999999971650E-01     1.8750000000048361E-01     0.0000000000000000E+00 
    2.4999999999981831E-01     2.5000000000063310E-01     0.0000000000000000E+00 
    2.4999999999992020E-01     3.1250000000078260E-01     0.0000000000000000E+00 
    2.5000000000002198E-01     3.7500000000093209E-01     0.0000000000000000E+00 
    2.5000000000012390E-01     4.3750000000108180E-01     0.0000000000000000E+00 
    2.5000000000022571E-01     5.0000000000121769E-01     0.0000000000000000E+00 
    2.5000000000032763E-01     5.6250000000094724E-01     0.0000000000000000E+00 
    2.5000000000042938E-01     6.2500000000066314E-01     0.0000000000000000E+00 
    2.5000000000053119E-01     6.8750000000037925E-01     0.0000000000000000E+00 
[...]
CELL_DATA 256 
SCALARS Pressure double 1 
LOOKUP_TABLE default 

    9.6023898241655747E-01 
    9.4795007270667542E-01 
    9.3550288136127513E-01 
    9.2411088172594535E-01 
    9.1584984889819554E-01 
    9.1191512297341104E-01 
    9.0526666333188399E-01 
    8.9985995702442123E-01 
    8.9600862729852371E-01 
    8.9327368565038245E-01 
    8.8984202110149446E-01 
    8.8642154119291439E-01 
    8.8285247567096603E-01 
    8.7923805605045435E-01 
    8.7617180698783148E-01 
    8.7418088227866286E-01 
    9.1392238073141108E-01 
    9.1041404614613164E-01 
    9.0618955742408713E-01 
    9.0154888127027266E-01 
    8.9683713335252846E-01 
    8.9153099519090873E-01 
    8.8600614995754157E-01 
    8.8255108831969031E-01 
    8.7872426240082557E-01 
    8.7485806819173029E-01 
    8.7161966171410798E-01 
    8.6907102907771561E-01 
    8.6648623681805392E-01 
    8.6420641257367281E-01 
    8.6262148206556111E-01 
    8.6166389889962447E-01 
    8.7871795838109634E-01 
    8.7699800290138985E-01 
    8.7495027348203080E-01 
    8.7234447178445118E-01 
    8.6898951021638982E-01 
    8.6457490887036736E-01 
    8.5990482051850425E-01 
    8.5691577036276689E-01 
    8.5304552598379080E-01 
    8.4915430888540955E-01 
    8.4634218038649434E-01 
    8.4446367090623609E-01 
    8.4245646568631405E-01 
    8.4107761170992767E-01 
    8.4063251149076756E-01 
    8.4060966269656978E-01 
    8.4201307658186053E-01 
    8.4172917287367899E-01 
    8.4121926859664176E-01 
    8.4007339088475930E-01 
    8.3793769945833252E-01 
    8.3447604340079617E-01 
    8.3055933314300701E-01 
    8.2781410902676855E-01 
    8.2415895140897633E-01 
    8.2057770762268378E-01 
    8.1830549159163657E-01 
    8.1699460431050241E-01 
    8.1536853745044691E-01 
    8.1452897984240846E-01 
    8.1472531020070649E-01 
    8.1502486372984917E-01 
    8.0785903523218272E-01 
    8.0965432048943764E-01 
    8.0910010811924449E-01 
    8.0787014011667901E-01 
    8.0573704071554908E-01 
    8.0236279949018585E-01 
    7.9880007517784213E-01 
    7.9685407234591377E-01 
    7.9388506935571967E-01 
    7.9087218498192224E-01 
    7.8916016524829491E-01 
    7.8864383491255918E-01 
    7.8719031286527708E-01 
    7.8641605282159077E-01 
    7.8625392237920333E-01 
    7.8561407298737784E-01 
    7.7629583794160151E-01 
    7.7462619202673066E-01 
    7.7202241571757613E-01 
    7.6842200288362383E-01 
    7.6475591848131641E-01 
    7.6226332539468833E-01 
    7.6104668716224211E-01 
    7.6016959204112333E-01 
    7.5925662971045671E-01 
    7.5902259774456970E-01 
    7.5861479882773841E-01 
    7.5716956043987649E-01 
    7.5508451483174854E-01 
    7.5311404334071241E-01 
    7.5130397652859737E-01 
    7.5006331947900784E-01 
    7.2476468143340844E-01 
    7.2437328972590675E-01 
    7.2340619508019277E-01 
    7.2208162487533945E-01 
    7.2105560874428554E-01 
    7.2098468967689000E-01 
    7.2058740646949504E-01 
    7.1801175848504828E-01 
    7.1685959547832601E-01 
    7.1653567207795110E-01 
    7.1566757831086703E-01 
    7.1341322235011284E-01 
    7.1147295680875999E-01 
    7.1003435871532594E-01 
    7.0948732296052597E-01 
    7.0931912690477994E-01 
    6.7667088387082486E-01 
    6.7758140263620348E-01 
    6.7814302453405051E-01 
    6.7840583553954648E-01 
    6.7834500593968416E-01 
    6.7790234027282059E-01 
    6.7664387464054832E-01 
    6.7463747542807639E-01 
    6.7246846948392547E-01 
    6.7065945796350179E-01 
    6.6887693895913924E-01 
    6.6646832586006099E-01 
    6.6411689262169893E-01 
    6.6324030037461190E-01 
    6.6378142141894869E-01 
    6.6444804763556431E-01 
    6.3348464987159758E-01 
    6.3494369000785800E-01 
    6.3470001395964859E-01 
    6.3430415996881184E-01 
    6.3334693719683199E-01 
    6.3172733556150995E-01 
    6.2961576242336981E-01 
    6.2788737908305303E-01 
    6.2539503738656688E-01 
    6.2338223564307205E-01 
    6.2131946890134593E-01 
    6.1880894960943644E-01 
    6.1658636760343855E-01 
    6.1605937151256251E-01 
    6.1659220600260878E-01 
    6.1647550882184299E-01 
    5.8857627791117650E-01 
    5.8783917315589007E-01 
    5.8627032716851890E-01 
    5.8423412899073301E-01 
    5.8226870890276106E-01 
    5.8056660890750267E-01 
    5.7881731235649470E-01 
    5.7721631913442462E-01 
    5.7565986410564007E-01 
    5.7418459144998613E-01 
    5.7252428806098321E-01 
    5.7012133518716768E-01 
    5.6773520436164360E-01 
    5.6546657620324814E-01 
    5.6346761659233346E-01 
    5.6229394596592674E-01 
    5.3651126462408305E-01 
    5.3571802093832754E-01 
    5.3427837345064855E-01 
    5.3250925310758301E-01 
    5.3056803025874000E-01 
    5.2801974034943744E-01 
    5.2437465990988963E-01 
    5.2091963426329257E-01 
    5.1795527471752412E-01 
    5.1457197672544108E-01 
    5.1088123965154975E-01 
    5.0762083918734036E-01 
    5.0532760623712358E-01 
    5.0357902039586533E-01 
    5.0266851746164720E-01 
    5.0226187848315595E-01 
    4.8290462395212203E-01 
    4.8215023670654206E-01 
    4.8054645302678278E-01 
    4.7804616451520249E-01 
    4.7471440840605339E-01 
    4.7079803977700724E-01 
    4.6666590085608650E-01 
    4.6187671969822747E-01 
    4.5649992303439058E-01 
    4.5110574995740799E-01 
    4.4627975440086631E-01 
    4.4182741498683498E-01 
    4.3813498878459373E-01 
    4.3611896229202385E-01 
    4.3587956558911589E-01 
    4.3645950258736210E-01 
    4.2866820982358184E-01 
    4.2796359549698182E-01 
    4.2632689379113825E-01 
    4.2350819520572186E-01 
    4.1963178976472515E-01 
    4.1516704403757504E-01 
    4.1036887998233185E-01 
    4.0406042806473469E-01 
    3.9643112121332225E-01 
    3.8867387244643231E-01 
    3.8154110778819200E-01 
    3.7479122587320984E-01 
    3.6918568310732924E-01 
    3.6622829291480391E-01 
    3.6593631500226953E-01 
    3.6696426247749930E-01 
    3.7722525497217102E-01 
    3.7634131921864256E-01 
    3.7433241885230373E-01 
    3.7083078792992030E-01 
    3.6601413819417145E-01 
    3.6051137898273017E-01 
    3.5464090497975903E-01 
    3.4680812669282385E-01 
    3.3720358117435817E-01 
    3.2726868532486741E-01 
    3.1767441014619457E-01 
    3.0827690390188162E-01 
    2.9997442855303258E-01 
    2.9456112383560623E-01 
    2.9206327155436707E-01 
    2.9139657784840567E-01 
    3.3033904621600602E-01 
    3.2936929903029277E-01 
    3.2712217676914385E-01 
    3.2309752043759216E-01 
    3.1746964604402456E-01 
    3.1103571588225593E-01 
    3.0437563190641231E-01 
    2.9560712755164925E-01 
    2.8459539260464262E-01 
    2.7242875613386192E-01 
    2.5953262567024582E-01 
    2.4568165048331145E-01 
    2.3095829580122620E-01 
    2.1653575589673521E-01 
    2.0322316873673943E-01 
    1.9344748925492616E-01 
    3.0062378006081070E-01 
    2.9955958678335098E-01 
    2.9708268293461160E-01 
    2.9271774618500374E-01 
    2.8662215790852635E-01 
    2.7975398993000583E-01 
    2.7318375230567749E-01 
    2.6477488319311332E-01 
    2.5289114453978623E-01 
    2.3702068572114093E-01 
    2.1850741114642458E-01 
    1.9574644848382794E-01 
    1.6453635644831258E-01 
    1.2235549620896041E-01 
    6.8030013909638240E-02 
    0.0000000000000000E+00 

SCALARS Saturarion double 1 
LOOKUP_TABLE default 

    1.0000000005183654E+00 
    9.7148613950635387E-01 
    9.2439807873487090E-01 
    8.7556383462270770E-01 
    8.2665524481015373E-01 
    7.7631998875494646E-01 
    7.2790190385259768E-01 
    6.7730616476492744E-01 
    6.2621477482348720E-01 
    5.7432412498504148E-01 
    5.2801889373149025E-01 
    4.8680238276668070E-01 
    4.4163009678249343E-01 
    1.5496778484906923E-01 
    1.0001832087241160E-06 
    1.0000000000241319E-06 
    9.3246894570016658E-01 
    9.1619321048862656E-01 
    8.8043517841717300E-01 
    8.4015898718724857E-01 
    7.9700103708580150E-01 
    7.5400268664790848E-01 
    7.1153139906734064E-01 
    6.6857862270528223E-01 
    6.2352264855161377E-01 
    5.7652833455144048E-01 
    5.3140202653917779E-01 
    4.8626597664779120E-01 
    4.2714083781080336E-01 
    7.8204918142544294E-02 
    1.4220210348131453E-05 
    1.0000123181469987E-06 
    8.3016454132758177E-01 
    8.2252639735591548E-01 
    8.0346301488513172E-01 
    7.7696989946637840E-01 
    7.4796971237467036E-01 
    7.1522739384967426E-01 
    6.8100530678563875E-01 
    6.4815054179495557E-01 
    6.1137217240583031E-01 
    5.6983251314815042E-01 
    5.2794478608834539E-01 
    4.8448818512109704E-01 
    4.0328607360820529E-01 
    3.1040570373269849E-02 
    9.0581416725211524E-06 
    1.0000028955667425E-06 
    7.4535546084787829E-01 
    7.4116853689627349E-01 
    7.3017088229234695E-01 
    7.1401669876205165E-01 
    6.9565185540147423E-01 
    6.7337457630084818E-01 
    6.4873522834360509E-01 
    6.2272411972941277E-01 
    5.9291181167452611E-01 
    5.5736869694194435E-01 
    5.1781832994994348E-01 
    4.7465771413854335E-01 
    3.4031979812246083E-01 
    4.4688785818502207E-03 
    1.5707705510590086E-06 
    1.0000000274225226E-06 
    6.7788804108274736E-01 
    6.7465824546794317E-01 
    6.6768181539987237E-01 
    6.5642965908832496E-01 
    6.4272436675147870E-01 
    6.3015168931715704E-01 
    6.1167466369129209E-01 
    5.9019371791134123E-01 
    5.6868824788950156E-01 
    5.4059699003043993E-01 
    5.0457954241937153E-01 
    4.6315649053404362E-01 
    2.5847482774466296E-01 
    7.7300472714732389E-04 
    1.0178904052228978E-06 
    1.0000000016669849E-06 
    6.2887332917713068E-01 
    6.2667687558612872E-01 
    6.2133465476225935E-01 
    6.1402440977075623E-01 
    6.0211829808263251E-01 
    5.8983073377345363E-01 
    5.7405449449662138E-01 
    5.5460951368877176E-01 
    5.3659906017143388E-01 
    5.1548216532552404E-01 
    4.8511399772345282E-01 
    4.4762536171908607E-01 
    1.8316891594756146E-01 
    1.0020997010794463E-04 
    1.0029212217129260E-06 
    1.0000000000002422E-06 
    5.8055819939750475E-01 
    5.7822762256825788E-01 
    5.7352440274376482E-01 
    5.6806197661126201E-01 
    5.6838218849608524E-01 
    5.5568810237080379E-01 
    5.4051660004433333E-01 
    5.2307072214616113E-01 
    5.0257384326436361E-01 
    4.8624847071110650E-01 
    4.6342650193285223E-01 
    4.0655200569766964E-01 
    7.9471579928777694E-02 
    9.4500431978913042E-05 
    1.0005539751002032E-06 
    9.9999999999999953E-07 
    5.3523443952899707E-01 
    5.3305797762793061E-01 
    5.2901841220872869E-01 
    5.2422849740750421E-01 
    5.3014390918379206E-01 
    5.2199542399715249E-01 
    5.1036627605415485E-01 
    4.9640844204815526E-01 
    4.7657874865250610E-01 
    4.6110356133810215E-01 
    4.3372589216163171E-01 
    2.7025843487003998E-01 
    6.4506773723596242E-03 
    1.7427478121281559E-06 
    1.0000000660791548E-06 
    1.0000000000000002E-06 
    4.9651798002089026E-01 
    4.9478700237014911E-01 
    4.9158181631356856E-01 
    4.8809627302050912E-01 
    4.8921691909248788E-01 
    4.8676189474954862E-01 
    4.8062688350369320E-01 
    4.7084997967956049E-01 
    4.5716991375637106E-01 
    4.2771261667322286E-01 
    3.2434794288395019E-01 
    4.5103261189754169E-02 
    8.8807676377288981E-05 
    1.0004089953796631E-06 
    1.0000000000009347E-06 
    9.9999999999999995E-07 
    4.6053266254858893E-01 
    4.5893883651681538E-01 
    4.5622706979045824E-01 
    4.5296092426632373E-01 
    4.5015714451777150E-01 
    4.5066671042397627E-01 
    4.4646038966192769E-01 
    4.3434458981891100E-01 
    4.0627528519852857E-01 
    2.8486517161810965E-01 
    5.1200860984585810E-02 
    3.5932362962325603E-04 
    1.0099033704700080E-06 
    1.0000000001753070E-06 
    9.9999999999999995E-07 
    9.9999999999999995E-07 
    4.1601068498824084E-01 
    4.1044066103979471E-01 
    4.0094980442720768E-01 
    3.8446998953571149E-01 
    3.6634522986040025E-01 
    3.5311535570633723E-01 
    3.1286333259479715E-01 
    2.2864109212253800E-01 
    1.0509003126351658E-01 
    1.1204464620297587E-02 
    2.3165178961991720E-04 
    1.0239522097109203E-06 
    1.0000000039710384E-06 
    9.9999999999999995E-07 
    9.9999999999999995E-07 
    9.9999999999999995E-07 
    7.4346782942008249E-02 
    6.0401059805007755E-02 
    3.9615294361199330E-02 
    2.3532984566042033E-02 
    1.2145908789371130E-02 
    6.3798681174548075E-03 
    6.6508980250189337E-03 
    4.8573392042272379E-04 
    1.5889357806247821E-04 
    6.4265896747876297E-06 
    1.0079709485898049E-06 
    1.0000000019449502E-06 
    1.0000000000000004E-06 
    9.9999999999999995E-07 
    9.9999999999999995E-07 
    9.9999999999999995E-07 
    1.0000003141750241E-06 
    2.0987794389580784E-06 
    3.2041760003761787E-06 
    3.0708892919856265E-06 
    1.4281093505059327E-06 
    1.1326643848484663E-06 
    1.3661350448966606E-06 
    1.0337522167646413E-06 
    1.0062655121557931E-06 
    1.0000038069101498E-06 
    1.0000000000865525E-06 
    9.9999999999999995E-07 
    9.9999999999999995E-07 
    9.9999999999999995E-07 
    9.9999999999999995E-07 
    9.9999999999999995E-07 
    1.0000000000001973E-06 
    1.0000005734000948E-06 
    1.0000011324340864E-06 
    1.0000007609749747E-06 
    1.0000000896517910E-06 
    1.0000000230891205E-06 
    1.0000000489786916E-06 
    1.0000000027689682E-06 
    1.0000000000000099E-06 
    1.0000000000000304E-06 
    9.9999999999999974E-07 
    9.9999999999999995E-07 
    9.9999999999999995E-07 
    9.9999999999999995E-07 
    9.9999999999999995E-07 
    9.9999999999999995E-07 
    9.9999999999999995E-07 
    1.0000000000000084E-06 
    1.0000000000000002E-06 
    9.9999999999999974E-07 
    9.9999999999999974E-07 
    9.9999999999999995E-07 
    1.0000000000000016E-06 
    1.0000000000000006E-06 
    9.9999999999999995E-07 
    9.9999999999999995E-07 
    9.9999999999999995E-07 
    9.9999999999999995E-07 
    9.9999999999999995E-07 
    9.9999999999999995E-07 
    9.9999999999999995E-07 
    9.9999999999999995E-07 
    9.9999999999999995E-07 
    9.9999999999999995E-07 
    9.9999999999999995E-07 
    9.9999999999999995E-07 
    9.9999999999999995E-07 
    9.9999999999999995E-07 
    9.9999999999999995E-07 
    9.9999999999999995E-07 
    9.9999999999999995E-07 
    9.9999999999999995E-07 
    9.9999999999999995E-07 
    9.9999999999999995E-07 
    9.9999999999999995E-07 
    9.9999999999999995E-07 
    9.9999999999999995E-07 
    1.0000000807277002E-06 
