# vtk DataFile Version 2.0
Pressure Field Data 
ASCII 
DATASET UNSTRUCTURED_GRID 

POINTS 289 double 

    0.0000000000000000E+00     0.0000000000000000E+00     0.0000000000000000E+00 
    1.0000000000000000E+00     0.0000000000000000E+00     0.0000000000000000E+00 
    1.0000000000000000E+00     1.0000000000000000E+00     0.0000000000000000E+00 
    0.0000000000000000E+00     1.0000000000000000E+00     0.0000000000000000E+00 
    6.2499999999872928E-02     0.0000000000000000E+00     0.0000000000000000E+00 
    1.2499999999977310E-01     0.0000000000000000E+00     0.0000000000000000E+00 
    1.8749999999959341E-01     0.0000000000000000E+00     0.0000000000000000E+00 
    2.4999999999941089E-01     0.0000000000000000E+00     0.0000000000000000E+00 
    3.1249999999922851E-01     0.0000000000000000E+00     0.0000000000000000E+00 
    3.7499999999904610E-01     0.0000000000000000E+00     0.0000000000000000E+00 
    4.3749999999886358E-01     0.0000000000000000E+00     0.0000000000000000E+00 
    4.9999999999869210E-01     0.0000000000000000E+00     0.0000000000000000E+00 
    5.6249999999884603E-01     0.0000000000000000E+00     0.0000000000000000E+00 
    6.2499999999901090E-01     0.0000000000000000E+00     0.0000000000000000E+00 
    6.8749999999917577E-01     0.0000000000000000E+00     0.0000000000000000E+00 
    7.4999999999934064E-01     0.0000000000000000E+00     0.0000000000000000E+00 
    8.1249999999950551E-01     0.0000000000000000E+00     0.0000000000000000E+00 
    8.7499999999967026E-01     0.0000000000000000E+00     0.0000000000000000E+00 
    9.3749999999983513E-01     0.0000000000000000E+00     0.0000000000000000E+00 
    1.0000000000000000E+00     6.2499999999872928E-02     0.0000000000000000E+00 
    1.0000000000000000E+00     1.2499999999977310E-01     0.0000000000000000E+00 
    1.0000000000000000E+00     1.8749999999959341E-01     0.0000000000000000E+00 
    1.0000000000000000E+00     2.4999999999941089E-01     0.0000000000000000E+00 
    1.0000000000000000E+00     3.1249999999922851E-01     0.0000000000000000E+00 
    1.0000000000000000E+00     3.7499999999904610E-01     0.0000000000000000E+00 
    1.0000000000000000E+00     4.3749999999886358E-01     0.0000000000000000E+00 
    1.0000000000000000E+00     4.9999999999869210E-01     0.0000000000000000E+00 
    1.0000000000000000E+00     5.6249999999884603E-01     0.0000000000000000E+00 
    1.0000000000000000E+00     6.2499999999901090E-01     0.0000000000000000E+00 
    1.0000000000000000E+00     6.8749999999917577E-01     0.0000000000000000E+00 
    1.0000000000000000E+00     7.4999999999934064E-01     0.0000000000000000E+00 
    1.0000000000000000E+00     8.1249999999950551E-01     0.0000000000000000E+00 
    1.0000000000000000E+00     8.7499999999967026E-01     0.0000000000000000E+00 
    1.0000000000000000E+00     9.3749999999983513E-01     0.0000000000000000E+00 
    9.3749999999973976E-01     1.0000000000000000E+00     0.0000000000000000E+00 
    8.7499999999950118E-01     1.0000000000000000E+00     0.0000000000000000E+00 
    8.1249999999991318E-01     1.0000000000000000E+00     0.0000000000000000E+00 
    7.5000000000034706E-01     1.0000000000000000E+00     0.0000000000000000E+00 
    6.8750000000078049E-01     1.0000000000000000E+00     0.0000000000000000E+00 
    6.2500000000121403E-01     1.0000000000000000E+00     0.0000000000000000E+00 
    5.6250000000164757E-01     1.0000000000000000E+00     0.0000000000000000E+00 
    5.0000000000205946E-01     1.0000000000000000E+00     0.0000000000000000E+00 
    4.3750000000182099E-01     1.0000000000000000E+00     0.0000000000000000E+00 
    3.7500000000156092E-01     1.0000000000000000E+00     0.0000000000000000E+00 
    3.1250000000130068E-01     1.0000000000000000E+00     0.0000000000000000E+00 
    2.5000000000104050E-01     1.0000000000000000E+00     0.0000000000000000E+00 
    1.8750000000078040E-01     1.0000000000000000E+00     0.0000000000000000E+00 
    1.2500000000052031E-01     1.0000000000000000E+00     0.0000000000000000E+00 
    6.2500000000260125E-02     1.0000000000000000E+00     0.0000000000000000E+00 
    0.0000000000000000E+00     9.3749999999973976E-01     0.0000000000000000E+00 
    0.0000000000000000E+00     8.7499999999950118E-01     0.0000000000000000E+00 
    0.0000000000000000E+00     8.1249999999991318E-01     0.0000000000000000E+00 
    0.0000000000000000E+00     7.5000000000034706E-01     0.0000000000000000E+00 
    0.0000000000000000E+00     6.8750000000078049E-01     0.0000000000000000E+00 
    0.0000000000000000E+00     6.2500000000121403E-01     0.0000000000000000E+00 
    0.0000000000000000E+00     5.6250000000164757E-01     0.0000000000000000E+00 
    0.0000000000000000E+00     5.0000000000205946E-01     0.0000000000000000E+00 
    0.0000000000000000E+00     4.3750000000182099E-01     0.0000000000000000E+00 
    0.0000000000000000E+00     3.7500000000156092E-01     0.0000000000000000E+00 
    0.0000000000000000E+00     3.1250000000130068E-01     0.0000000000000000E+00 
    0.0000000000000000E+00     2.5000000000104050E-01     0.0000000000000000E+00 
    0.0000000000000000E+00     1.8750000000078040E-01     0.0000000000000000E+00 
    0.0000000000000000E+00     1.2500000000052031E-01     0.0000000000000000E+00 
    0.0000000000000000E+00     6.2500000000260125E-02     0.0000000000000000E+00 
    6.2499999999897131E-02     6.2500000000235922E-02     0.0000000000000000E+00 
    6.2499999999921327E-02     1.2500000000047351E-01     0.0000000000000000E+00 
    6.2499999999945530E-02     1.8750000000070621E-01     0.0000000000000000E+00 
    6.2499999999969733E-02     2.5000000000093858E-01     0.0000000000000000E+00 
    6.2499999999993928E-02     3.1250000000117117E-01     0.0000000000000000E+00 
    6.2500000000018124E-02     3.7500000000140382E-01     0.0000000000000000E+00 
    6.2500000000042327E-02     4.3750000000163619E-01     0.0000000000000000E+00 
    6.2500000000066530E-02     5.0000000000184897E-01     0.0000000000000000E+00 
    6.2500000000090733E-02     5.6250000000147260E-01     0.0000000000000000E+00 
    6.2500000000114922E-02     6.2500000000107636E-01     0.0000000000000000E+00 
    6.2500000000139125E-02     6.8750000000068034E-01     0.0000000000000000E+00 
    6.2500000000163328E-02     7.5000000000028411E-01     0.0000000000000000E+00 
    6.2500000000187531E-02     8.1249999999988787E-01     0.0000000000000000E+00 
    6.2500000000211720E-02     8.7499999999951172E-01     0.0000000000000000E+00 
    6.2500000000235922E-02     9.3749999999974565E-01     0.0000000000000000E+00 
    1.2499999999981980E-01     6.2500000000211733E-02     0.0000000000000000E+00 
    1.2499999999986650E-01     1.2500000000042691E-01     0.0000000000000000E+00 
    1.2499999999991319E-01     1.8750000000063199E-01     0.0000000000000000E+00 
    1.2499999999995989E-01     2.5000000000083678E-01     0.0000000000000000E+00 
    1.2500000000000661E-01     3.1250000000104172E-01     0.0000000000000000E+00 
    1.2500000000005329E-01     3.7500000000124661E-01     0.0000000000000000E+00 
    1.2500000000010000E-01     4.3750000000145117E-01     0.0000000000000000E+00 
    1.2500000000014669E-01     5.0000000000163858E-01     0.0000000000000000E+00 
    1.2500000000019340E-01     5.6250000000129741E-01     0.0000000000000000E+00 
    1.2500000000024011E-01     6.2500000000093847E-01     0.0000000000000000E+00 
    1.2500000000028680E-01     6.8750000000057998E-01     0.0000000000000000E+00 
    1.2500000000033351E-01     7.5000000000022127E-01     0.0000000000000000E+00 
    1.2500000000038020E-01     8.1249999999986211E-01     0.0000000000000000E+00 
    1.2500000000042691E-01     8.7499999999952238E-01     0.0000000000000000E+00 
    1.2500000000047359E-01     9.3749999999975164E-01     0.0000000000000000E+00 
    1.8749999999966760E-01     6.2500000000187531E-02     0.0000000000000000E+00 
    1.8749999999974179E-01     1.2500000000038020E-01     0.0000000000000000E+00 
    1.8749999999981601E-01     1.8750000000055780E-01     0.0000000000000000E+00 
    1.8749999999989009E-01     2.5000000000073502E-01     0.0000000000000000E+00 
    1.8749999999996431E-01     3.1250000000091221E-01     0.0000000000000000E+00 
    1.8750000000003850E-01     3.7500000000108941E-01     0.0000000000000000E+00 
    1.8750000000011269E-01     4.3750000000126649E-01     0.0000000000000000E+00 
    1.8750000000018691E-01     5.0000000000142808E-01     0.0000000000000000E+00 
    1.8750000000026110E-01     5.6250000000112244E-01     0.0000000000000000E+00 
    1.8750000000033529E-01     6.2500000000080080E-01     0.0000000000000000E+00 
    1.8750000000040951E-01     6.8750000000047962E-01     0.0000000000000000E+00 
    1.8750000000048361E-01     7.5000000000015843E-01     0.0000000000000000E+00 
    1.8750000000055780E-01     8.1249999999983680E-01     0.0000000000000000E+00 
    1.8750000000063199E-01     8.7499999999953304E-01     0.0000000000000000E+00 
    1.8750000000070621E-01     9.3749999999975764E-01     0.0000000000000000E+00 
    2.4999999999951281E-01     6.2500000000163314E-02     0.0000000000000000E+00 
    2.4999999999961461E-01     1.2500000000033351E-01     0.0000000000000000E+00 
    2.4999999999971650E-01     1.8750000000048361E-01     0.0000000000000000E+00 
    2.4999999999981831E-01     2.5000000000063310E-01     0.0000000000000000E+00 
    2.4999999999992020E-01     3.1250000000078260E-01     0.0000000000000000E+00 
    2.5000000000002198E-01     3.7500000000093209E-01     0.0000000000000000E+00 
    2.5000000000012390E-01     4.3750000000108180E-01     0.0000000000000000E+00 
    2.5000000000022571E-01     5.0000000000121769E-01     0.0000000000000000E+00 
    2.5000000000032763E-01     5.6250000000094724E-01     0.0000000000000000E+00 
    2.5000000000042938E-01     6.2500000000066314E-01     0.0000000000000000E+00 
    2.5000000000053119E-01     6.8750000000037925E-01     0.0000000000000000E+00 
[...]
CELL_DATA 256 
SCALARS Pressure double 1 
LOOKUP_TABLE default 

    9.2969794732625355E-01 
    9.1741964866829651E-01 
    9.0507060075076973E-01 
    8.9382543068429243E-01 
    8.8569753370963245E-01 
    8.8201726049522888E-01 
    8.7566224511482316E-01 
    8.7047701063004124E-01 
    8.6681902854219917E-01 
    8.6440436293114109E-01 
    8.6130951568949732E-01 
    8.5825198652387014E-01 
    8.5502811541363777E-01 
    8.5168383473332054E-01 
    8.4873853939319599E-01 
    8.4683831423264155E-01 
    8.8397788295599822E-01 
    8.8052747126754183E-01 
    8.7640019785240897E-01 
    8.7190010312751198E-01 
    8.6738350567317479E-01 
    8.6233657268961816E-01 
    8.5702686295690123E-01 
    8.5378497401655873E-01 
    8.5023887736570791E-01 
    8.4667007480096235E-01 
    8.4363967859454958E-01 
    8.4133845764580595E-01 
    8.3905964841151826E-01 
    8.3704856059045651E-01 
    8.3552510767269750E-01 
    8.3460380799524381E-01 
    8.4973708371601731E-01 
    8.4809005916805014E-01 
    8.4614685288554725E-01 
    8.4369938819620183E-01 
    8.4057498499221217E-01 
    8.3644562466245242E-01 
    8.3198750783590869E-01 
    8.2921403141406158E-01 
    8.2563006013702966E-01 
    8.2196875524060031E-01 
    8.1922537421902886E-01 
    8.1746828251707482E-01 
    8.1574086252300504E-01 
    8.1456888633595226E-01 
    8.1409733152305963E-01 
    8.1407572914309767E-01 
    8.1434294144482955E-01 
    8.1411495493383479E-01 
    8.1369716361640654E-01 
    8.1271066711659379E-01 
    8.1082540293938032E-01 
    8.0767142529896441E-01 
    8.0397128638158888E-01 
    8.0145175378374400E-01 
    7.9806301383819789E-01 
    7.9461699165901745E-01 
    7.9227239387829951E-01 
    7.9095368597680538E-01 
    7.8953644511839760E-01 
    7.8886188528468359E-01 
    7.8902246046264513E-01 
    7.8933438129754308E-01 
    7.8152952538702003E-01 
    7.8346237137935881E-01 
    7.8310307878275620E-01 
    7.8210491829597228E-01 
    7.8027902624782197E-01 
    7.7721404322038357E-01 
    7.7380795609146213E-01 
    7.7209049365580096E-01 
    7.6935206080355101E-01 
    7.6636376639777426E-01 
    7.6450233543979862E-01 
    7.6401746757375866E-01 
    7.6274362570860488E-01 
    7.6207451568634288E-01 
    7.6192010630649831E-01 
    7.6139584269018634E-01 
    7.5234973588968546E-01 
    7.5076578591530485E-01 
    7.4829961336979844E-01 
    7.4485434370871118E-01 
    7.4130163360744195E-01 
    7.3888289542509633E-01 
    7.3772880879807989E-01 
    7.3702669615882554E-01 
    7.3625705944527842E-01 
    7.3612983875573101E-01 
    7.3590949947123674E-01 
    7.3480726443003974E-01 
    7.3296268792417163E-01 
    7.3106397171360482E-01 
    7.2933673994876291E-01 
    7.2824398377500954E-01 
    7.0284192646894317E-01 
    7.0248349427023338E-01 
    7.0156943251974346E-01 
    7.0027742503796175E-01 
    6.9922931190160609E-01 
    6.9919141946806651E-01 
    6.9906730421268581E-01 
    6.9665021521379578E-01 
    6.9566901364928968E-01 
    6.9560827796204117E-01 
    6.9516472575377009E-01 
    6.9342292195003974E-01 
    6.9217270395264496E-01 
    6.9104440237236664E-01 
    6.9051248601262838E-01 
    6.9033194596971093E-01 
    6.5679527603150900E-01 
    6.5771880389282278E-01 
    6.5831375282615490E-01 
    6.5859558390934092E-01 
    6.5855565761218071E-01 
    6.5822073488946564E-01 
    6.5718826567563238E-01 
    6.5550312035366964E-01 
    6.5371844948855495E-01 
    6.5225135056402939E-01 
    6.5095981438595307E-01 
    6.4957167515747527E-01 
    6.4806809918255681E-01 
    6.4743120419144151E-01 
    6.4795787044105413E-01 
    6.4849971874713452E-01 
    6.1596102144068199E-01 
    6.1760918506055085E-01 
    6.1747196815434058E-01 
    6.1713789308224754E-01 
    6.1627202311202467E-01 
    6.1479664519896415E-01 
    6.1284845968464796E-01 
    6.1151780921420062E-01 
    6.0946559751230611E-01 
    6.0793842011318588E-01 
    6.0693043348800813E-01 
    6.0593462340713922E-01 
    6.0419353507490803E-01 
    6.0365013352790620E-01 
    6.0406047198053636E-01 
    6.0377877689266823E-01 
    5.7532722624747201E-01 
    5.7455231663999062E-01 
    5.7288102578595179E-01 
    5.7059979779921688E-01 
    5.6835568989283869E-01 
    5.6657635501111947E-01 
    5.6507505230692301E-01 
    5.6398722819155600E-01 
    5.6337137373882162E-01 
    5.6346309217066359E-01 
    5.6317430746310093E-01 
    5.6113270762546830E-01 
    5.5855921604623637E-01 
    5.5612897983951515E-01 
    5.5402154184464780E-01 
    5.5281648374268144E-01 
    5.2875279200809144E-01 
    5.2801868767784266E-01 
    5.2668669796471401E-01 
    5.2507268240399352E-01 
    5.2356052936166209E-01 
    5.2186425079521215E-01 
    5.1905512055875647E-01 
    5.1610712565780281E-01 
    5.1407156782613561E-01 
    5.1128085177615346E-01 
    5.0692281422320695E-01 
    5.0243773334406916E-01 
    4.9933505260409861E-01 
    4.9720135737117976E-01 
    4.9614673287990518E-01 
    4.9575434773450811E-01 
    4.8409901985414505E-01 
    4.8344530779887462E-01 
    4.8207808947405451E-01 
    4.7988453035883144E-01 
    4.7682629813633409E-01 
    4.7302807117711887E-01 
    4.6889065194208290E-01 
    4.6382878608349931E-01 
    4.5746775552309088E-01 
    4.5048919810098953E-01 
    4.4412432210549679E-01 
    4.3854673218250328E-01 
    4.3419042931127055E-01 
    4.3181840938506577E-01 
    4.3147682540259918E-01 
    4.3209623760322602E-01 
    4.3220270990606846E-01 
    4.3137153777164217E-01 
    4.2947840931449394E-01 
    4.2625244182335681E-01 
    4.2180986924917141E-01 
    4.1667035751691689E-01 
    4.1115700243141595E-01 
    4.0397258223769361E-01 
    3.9537664025129521E-01 
    3.8687734191971168E-01 
    3.7931834322934438E-01 
    3.7220213010122094E-01 
    3.6629419523470569E-01 
    3.6319150748298079E-01 
    3.6288868561189963E-01 
    3.6397569345635650E-01 
    3.7700321497687234E-01 
    3.7611743199447095E-01 
    3.7406331841479090E-01 
    3.7045916270701390E-01 
    3.6548844491237403E-01 
    3.5981248760136053E-01 
    3.5377144774788627E-01 
    3.4573279116668354E-01 
    3.3594185028240092E-01 
    3.2585883848514641E-01 
    3.1612297072148521E-01 
    3.0655101389448464E-01 
    2.9811833831083240E-01 
    2.9265179426315979E-01 
    2.9015359908393884E-01 
    2.8950701242848509E-01 
    3.2941563393359730E-01 
    3.2841785919478200E-01 
    3.2613959670921305E-01 
    3.2209041637672753E-01 
    3.1646804644121412E-01 
    3.1007697057045236E-01 
    3.0346627798860720E-01 
    2.9470762591785699E-01 
    2.8369441190109207E-01 
    2.7154003837384760E-01 
    2.5865112202418167E-01 
    2.4478743115530985E-01 
    2.3006482246861518E-01 
    2.1564542652266780E-01 
    2.0232211838128086E-01 
    1.9251580045442779E-01 
    2.9917626288596333E-01 
    2.9809579314186241E-01 
    2.9565779779309176E-01 
    2.9141381976459196E-01 
    2.8552211911099856E-01 
    2.7887325155311044E-01 
    2.7242958994172195E-01 
    2.6407969961614736E-01 
    2.5225422169771666E-01 
    2.3649588419129131E-01 
    2.1810278770428251E-01 
    1.9543051648020721E-01 
    1.6430008959092920E-01 
    1.2219059331818505E-01 
    6.7937849609532391E-02 
    0.0000000000000000E+00 

SCALARS Saturarion double 1 
LOOKUP_TABLE default 

    1.0000000006326912E+00 
    9.7498537804717411E-01 
    9.3261971879174843E-01 
    8.8784609311364460E-01 
    8.4242457722512765E-01 
    7.9440343926527224E-01 
    7.4756441114617589E-01 
    6.9833897201715256E-01 
    6.4798050489149162E-01 
    5.9866935270540322E-01 
    5.5254987319546356E-01 
    5.1170553125130191E-01 
    4.7131255219914947E-01 
    3.8625606144538072E-01 
    2.1936304647798405E-02 
    1.0001833809041150E-06 
    9.3899593983608587E-01 
    9.2396863775888838E-01 
    8.9128505982374118E-01 
    8.5392590154016135E-01 
    8.1360792366975110E-01 
    7.7186525273783335E-01 
    7.3142322017177352E-01 
    6.8888361403161125E-01 
    6.4424839672504708E-01 
    5.9820139154711971E-01 
    5.5289226989371743E-01 
    5.0819673273560206E-01 
    4.6075960488039752E-01 
    2.8223161377044664E-01 
    1.6271774200537412E-03 
    1.0341864285103495E-06 
    8.4365616544887134E-01 
    8.3641446341348158E-01 
    8.1832649733594909E-01 
    7.9293592640199184E-01 
    7.6496602761666843E-01 
    7.3390907819378426E-01 
    7.0067846434483061E-01 
    6.6778699436101530E-01 
    6.3221180235233243E-01 
    5.9081462973312693E-01 
    5.4830781228662362E-01 
    5.0494064400878036E-01 
    4.5317154668998244E-01 
    1.8409335775701263E-01 
    4.7217128123257370E-05 
    1.0004111459186111E-06 
    7.6249147632432890E-01 
    7.5859735187073529E-01 
    7.4810941761389238E-01 
    7.3241889232528434E-01 
    7.1452193595800628E-01 
    6.9256886484052205E-01 
    6.6813780643739440E-01 
    6.4317031332067987E-01 
    6.1414068626931728E-01 
    5.7817386578628815E-01 
    5.3857501213395931E-01 
    4.9418927717874711E-01 
    4.3028517181816744E-01 
    9.7097875639332892E-02 
    4.1462961289592310E-05 
    1.0001103887450351E-06 
    6.9843739734769417E-01 
    6.9493599745329937E-01 
    6.8784300748813865E-01 
    6.7737609835988311E-01 
    6.6350887058408070E-01 
    6.5043128793074423E-01 
    6.3290527961081500E-01 
    6.1234023688294581E-01 
    5.9087287571555458E-01 
    5.6226013724854551E-01 
    5.2639373025543212E-01 
    4.8403647580160952E-01 
    4.0246129912094969E-01 
    4.3463339969874698E-02 
    1.7565757730267419E-05 
    1.0000270999835354E-06 
    6.5008834959038642E-01 
    6.4800432933716834E-01 
    6.4291794100350219E-01 
    6.3579420720622914E-01 
    6.2379160451607496E-01 
    6.1142288660588917E-01 
    5.9663613024037110E-01 
    5.7752797889903740E-01 
    5.6001311883324922E-01 
    5.3936766958159210E-01 
    5.0904405240316408E-01 
    4.7412352997588064E-01 
    3.7072264512889752E-01 
    1.2757713821451605E-02 
    2.8111843729574373E-06 
    1.0000002158985482E-06 
    6.0522997719657412E-01 
    6.0307974490539362E-01 
    5.9854450301212569E-01 
    5.9299025751411261E-01 
    5.9155146759957999E-01 
    5.7921985291722622E-01 
    5.6450293355872261E-01 
    5.4708715663458984E-01 
    5.2701363724788020E-01 
    5.1071632017148560E-01 
    4.8562669422798338E-01 
    4.5640792206021058E-01 
    2.8846156467093009E-01 
    2.8400888144757370E-03 
    1.0842754135004294E-06 
    1.0000000046732694E-06 
    5.6204603621803595E-01 
    5.5981398997032039E-01 
    5.5570272118242625E-01 
    5.5052002911540365E-01 
    5.5712601141518325E-01 
    5.4854270519899495E-01 
    5.3592830934511848E-01 
    5.2155087601561423E-01 
    5.0098219412581657E-01 
    4.8447136933393925E-01 
    4.6631912131885889E-01 
    4.3167835395783044E-01 
    1.5996445552460509E-01 
    1.5183266996576220E-04 
    1.0034251553964242E-06 
    1.0000000000002551E-06 
    5.2513015804696184E-01 
    5.2337792940482464E-01 
    5.2016844000957574E-01 
    5.1617882960823036E-01 
    5.2035128875843939E-01 
    5.1669371768020711E-01 
    5.0821441952705870E-01 
    4.9707656852622412E-01 
    4.8274193085350464E-01 
    4.6385606831426918E-01 
    4.4656103569655919E-01 
    3.6656278710718837E-01 
    3.6815954187055210E-02 
    3.5131884014693993E-05 
    1.0000708350056753E-06 
    1.0000000000000008E-06 
    4.9461212851196340E-01 
    4.9315074164426448E-01 
    4.9014277794712274E-01 
    4.8714158675163083E-01 
    4.8426850975370039E-01 
    4.8407598393469764E-01 
    4.7934490577018618E-01 
    4.7174131164663458E-01 
    4.6289348582572171E-01 
    4.4349591861269183E-01 
    4.0446506098349211E-01 
    1.6917343207805252E-01 
    6.3244263654530430E-04 
    1.0342424400275002E-06 
    1.0000000013573889E-06 
    9.9999999999999995E-07 
    4.6194770187811812E-01 
    4.6054323144976916E-01 
    4.5806027208447170E-01 
    4.5548884215880731E-01 
    4.5163778592369458E-01 
    4.5124731649640415E-01 
    4.4979348796774116E-01 
    4.4303536399550097E-01 
    4.3029074643990411E-01 
    3.9132283137681262E-01 
    2.2234010234068297E-01 
    8.4846860233566430E-03 
    3.0468776131537450E-06 
    1.0000004230328874E-06 
    1.0000000000000059E-06 
    9.9999999999999995E-07 
    4.2284660315266276E-01 
    4.2033065539455883E-01 
    4.1539805516939859E-01 
    4.1031149777249515E-01 
    3.9719745784256349E-01 
    3.8615679941547731E-01 
    3.8088424608648752E-01 
    3.6187527193515839E-01 
    2.6710048211232873E-01 
    1.0017824521304051E-01 
    5.0363569460068029E-03 
    6.3880825950214837E-06 
    1.0000037181934385E-06 
    1.0000000000003051E-06 
    9.9999999999999995E-07 
    9.9999999999999995E-07 
    1.0593237689256738E-01 
    9.5061143246956054E-02 
    8.0905450229421860E-02 
    6.5056604243044741E-02 
    5.3536009959672726E-02 
    4.6523817473557189E-02 
    3.9291152975356965E-02 
    2.3915871765677051E-02 
    5.0852034108781101E-03 
    2.8070295268366950E-04 
    1.9504125043661728E-06 
    1.0000043563194749E-06 
    1.0000000000015507E-06 
    9.9999999999999995E-07 
    9.9999999999999995E-07 
    9.9999999999999995E-07 
    1.0000002756292548E-06 
    2.1167564143203825E-06 
    6.4780429128253873E-06 
    6.3198989948842429E-06 
    7.4835177183471833E-06 
    1.6196837217776644E-06 
    3.2169690982765539E-06 
    6.9257767542688474E-06 
    1.9523168438559756E-06 
    1.0177511654868928E-06 
    1.0000003589743513E-06 
    1.0000000000003837E-06 
    9.9999999999999995E-07 
    9.9999999999999995E-07 
    9.9999999999999995E-07 
    9.9999999999999995E-07 
    1.0000000000001715E-06 
    1.0000006061100970E-06 
    1.0000058440342887E-06 
    1.0000049682387784E-06 
    1.0000049416144557E-06 
    1.0000001653775798E-06 
    1.0000012294558078E-06 
    1.0000037245745500E-06 
    1.0000002832653750E-06 
    1.0000000000002536E-06 
    1.0000000000000260E-06 
    9.9999999999999995E-07 
    9.9999999999999995E-07 
    9.9999999999999995E-07 
    9.9999999999999995E-07 
    9.9999999999999995E-07 
    9.9999999999999995E-07 
    1.0000000000000254E-06 
    1.0000000000000021E-06 
    1.0000000000000002E-06 
    9.9999999999999995E-07 
    9.9999999999999995E-07 
    1.0000000000000163E-06 
    9.9999999999999995E-07 
    1.0000000000000065E-06 
    9.9999999999999995E-07 
    9.9999999999999995E-07 
    9.9999999999999995E-07 
    9.9999999999999995E-07 
    9.9999999999999995E-07 
    9.9999999999999995E-07 
    1.0000000926136397E-06 
