# vtk DataFile Version 2.0
Pressure Field Data 
ASCII 
DATASET UNSTRUCTURED_GRID 

POINTS 289 double 

    0.0000000000000000E+00     0.0000000000000000E+00     0.0000000000000000E+00 
    1.0000000000000000E+00     0.0000000000000000E+00     0.0000000000000000E+00 
    1.0000000000000000E+00     1.0000000000000000E+00     0.0000000000000000E+00 
    0.0000000000000000E+00     1.0000000000000000E+00     0.0000000000000000E+00 
    6.2499999999872928E-02     0.0000000000000000E+00     0.0000000000000000E+00 
    1.2499999999977310E-01     0.0000000000000000E+00     0.0000000000000000E+00 
    1.8749999999959341E-01     0.0000000000000000E+00     0.0000000000000000E+00 
    2.4999999999941089E-01     0.0000000000000000E+00     0.0000000000000000E+00 
    3.1249999999922851E-01     0.0000000000000000E+00     0.0000000000000000E+00 
    3.7499999999904610E-01     0.0000000000000000E+00     0.0000000000000000E+00 
    4.3749999999886358E-01     0.0000000000000000E+00     0.0000000000000000E+00 
    4.9999999999869210E-01     0.0000000000000000E+00     0.0000000000000000E+00 
    5.6249999999884603E-01     0.0000000000000000E+00     0.0000000000000000E+00 
    6.2499999999901090E-01     0.0000000000000000E+00     0.0000000000000000E+00 
    6.8749999999917577E-01     0.0000000000000000E+00     0.0000000000000000E+00 
    7.4999999999934064E-01     0.0000000000000000E+00     0.0000000000000000E+00 
    8.1249999999950551E-01     0.0000000000000000E+00     0.0000000000000000E+00 
    8.7499999999967026E-01     0.0000000000000000E+00     0.0000000000000000E+00 
    9.3749999999983513E-01     0.0000000000000000E+00     0.0000000000000000E+00 
    1.0000000000000000E+00     6.2499999999872928E-02     0.0000000000000000E+00 
    1.0000000000000000E+00     1.2499999999977310E-01     0.0000000000000000E+00 
    1.0000000000000000E+00     1.8749999999959341E-01     0.0000000000000000E+00 
    1.0000000000000000E+00     2.4999999999941089E-01     0.0000000000000000E+00 
    1.0000000000000000E+00     3.1249999999922851E-01     0.0000000000000000E+00 
    1.0000000000000000E+00     3.7499999999904610E-01     0.0000000000000000E+00 
    1.0000000000000000E+00     4.3749999999886358E-01     0.0000000000000000E+00 
    1.0000000000000000E+00     4.9999999999869210E-01     0.0000000000000000E+00 
    1.0000000000000000E+00     5.6249999999884603E-01     0.0000000000000000E+00 
    1.0000000000000000E+00     6.2499999999901090E-01     0.0000000000000000E+00 
    1.0000000000000000E+00     6.8749999999917577E-01     0.0000000000000000E+00 
    1.0000000000000000E+00     7.4999999999934064E-01     0.0000000000000000E+00 
    1.0000000000000000E+00     8.1249999999950551E-01     0.0000000000000000E+00 
    1.0000000000000000E+00     8.7499999999967026E-01     0.0000000000000000E+00 
    1.0000000000000000E+00     9.3749999999983513E-01     0.0000000000000000E+00 
    9.3749999999973976E-01     1.0000000000000000E+00     0.0000000000000000E+00 
    8.7499999999950118E-01     1.0000000000000000E+00     0.0000000000000000E+00 
    8.1249999999991318E-01     1.0000000000000000E+00     0.0000000000000000E+00 
    7.5000000000034706E-01     1.0000000000000000E+00     0.0000000000000000E+00 
    6.8750000000078049E-01     1.0000000000000000E+00     0.0000000000000000E+00 
    6.2500000000121403E-01     1.0000000000000000E+00     0.0000000000000000E+00 
    5.6250000000164757E-01     1.0000000000000000E+00     0.0000000000000000E+00 
    5.0000000000205946E-01     1.0000000000000000E+00     0.0000000000000000E+00 
    4.3750000000182099E-01     1.0000000000000000E+00     0.0000000000000000E+00 
    3.7500000000156092E-01     1.0000000000000000E+00     0.0000000000000000E+00 
    3.1250000000130068E-01     1.0000000000000000E+00     0.0000000000000000E+00 
    2.5000000000104050E-01     1.0000000000000000E+00     0.0000000000000000E+00 
    1.8750000000078040E-01     1.0000000000000000E+00     0.0000000000000000E+00 
    1.2500000000052031E-01     1.0000000000000000E+00     0.0000000000000000E+00 
    6.2500000000260125E-02     1.0000000000000000E+00     0.0000000000000000E+00 
    0.0000000000000000E+00     9.3749999999973976E-01     0.0000000000000000E+00 
    0.0000000000000000E+00     8.7499999999950118E-01     0.0000000000000000E+00 
    0.0000000000000000E+00     8.1249999999991318E-01     0.0000000000000000E+00 
    0.0000000000000000E+00     7.5000000000034706E-01     0.0000000000000000E+00 
    0.0000000000000000E+00     6.8750000000078049E-01     0.0000000000000000E+00 
    0.0000000000000000E+00     6.2500000000121403E-01     0.0000000000000000E+00 
    0.0000000000000000E+00     5.6250000000164757E-01     0.0000000000000000E+00 
    0.0000000000000000E+00     5.0000000000205946E-01     0.0000000000000000E+00 
    0.0000000000000000E+00     4.3750000000182099E-01     0.0000000000000000E+00 
    0.0000000000000000E+00     3.7500000000156092E-01     0.0000000000000000E+00 
    0.0000000000000000E+00     3.1250000000130068E-01     0.0000000000000000E+00 
    0.0000000000000000E+00     2.5000000000104050E-01     0.0000000000000000E+00 
    0.0000000000000000E+00     1.8750000000078040E-01     0.0000000000000000E+00 
    0.0000000000000000E+00     1.2500000000052031E-01     0.0000000000000000E+00 
    0.0000000000000000E+00     6.2500000000260125E-02     0.0000000000000000E+00 
    6.2499999999897131E-02     6.2500000000235922E-02     0.0000000000000000E+00 
    6.2499999999921327E-02     1.2500000000047351E-01     0.0000000000000000E+00 
    6.2499999999945530E-02     1.8750000000070621E-01     0.0000000000000000E+00 
    6.2499999999969733E-02     2.5000000000093858E-01     0.0000000000000000E+00 
    6.2499999999993928E-02     3.1250000000117117E-01     0.0000000000000000E+00 
    6.2500000000018124E-02     3.7500000000140382E-01     0.0000000000000000E+00 
    6.2500000000042327E-02     4.3750000000163619E-01     0.0000000000000000E+00 
    6.2500000000066530E-02     5.0000000000184897E-01     0.0000000000000000E+00 
    6.2500000000090733E-02     5.6250000000147260E-01     0.0000000000000000E+00 
    6.2500000000114922E-02     6.2500000000107636E-01     0.0000000000000000E+00 
    6.2500000000139125E-02     6.8750000000068034E-01     0.0000000000000000E+00 
    6.2500000000163328E-02     7.5000000000028411E-01     0.0000000000000000E+00 
    6.2500000000187531E-02     8.1249999999988787E-01     0.0000000000000000E+00 
    6.2500000000211720E-02     8.7499999999951172E-01     0.0000000000000000E+00 
    6.2500000000235922E-02     9.3749999999974565E-01     0.0000000000000000E+00 
    1.2499999999981980E-01     6.2500000000211733E-02     0.0000000000000000E+00 
    1.2499999999986650E-01     1.2500000000042691E-01     0.0000000000000000E+00 
    1.2499999999991319E-01     1.8750000000063199E-01     0.0000000000000000E+00 
    1.2499999999995989E-01     2.5000000000083678E-01     0.0000000000000000E+00 
    1.2500000000000661E-01     3.1250000000104172E-01     0.0000000000000000E+00 
    1.2500000000005329E-01     3.7500000000124661E-01     0.0000000000000000E+00 
    1.2500000000010000E-01     4.3750000000145117E-01     0.0000000000000000E+00 
    1.2500000000014669E-01     5.0000000000163858E-01     0.0000000000000000E+00 
    1.2500000000019340E-01     5.6250000000129741E-01     0.0000000000000000E+00 
    1.2500000000024011E-01     6.2500000000093847E-01     0.0000000000000000E+00 
    1.2500000000028680E-01     6.8750000000057998E-01     0.0000000000000000E+00 
    1.2500000000033351E-01     7.5000000000022127E-01     0.0000000000000000E+00 
    1.2500000000038020E-01     8.1249999999986211E-01     0.0000000000000000E+00 
    1.2500000000042691E-01     8.7499999999952238E-01     0.0000000000000000E+00 
    1.2500000000047359E-01     9.3749999999975164E-01     0.0000000000000000E+00 
    1.8749999999966760E-01     6.2500000000187531E-02     0.0000000000000000E+00 
    1.8749999999974179E-01     1.2500000000038020E-01     0.0000000000000000E+00 
    1.8749999999981601E-01     1.8750000000055780E-01     0.0000000000000000E+00 
    1.8749999999989009E-01     2.5000000000073502E-01     0.0000000000000000E+00 
    1.8749999999996431E-01     3.1250000000091221E-01     0.0000000000000000E+00 
    1.8750000000003850E-01     3.7500000000108941E-01     0.0000000000000000E+00 
    1.8750000000011269E-01     4.3750000000126649E-01     0.0000000000000000E+00 
    1.8750000000018691E-01     5.0000000000142808E-01     0.0000000000000000E+00 
    1.8750000000026110E-01     5.6250000000112244E-01     0.0000000000000000E+00 
    1.8750000000033529E-01     6.2500000000080080E-01     0.0000000000000000E+00 
    1.8750000000040951E-01     6.8750000000047962E-01     0.0000000000000000E+00 
    1.8750000000048361E-01     7.5000000000015843E-01     0.0000000000000000E+00 
    1.8750000000055780E-01     8.1249999999983680E-01     0.0000000000000000E+00 
    1.8750000000063199E-01     8.7499999999953304E-01     0.0000000000000000E+00 
    1.8750000000070621E-01     9.3749999999975764E-01     0.0000000000000000E+00 
    2.4999999999951281E-01     6.2500000000163314E-02     0.0000000000000000E+00 
    2.4999999999961461E-01     1.2500000000033351E-01     0.0000000000000000E+00 
    2.4999999999971650E-01     1.8750000000048361E-01     0.0000000000000000E+00 
    2.4999999999981831E-01     2.5000000000063310E-01     0.0000000000000000E+00 
    2.4999999999992020E-01     3.1250000000078260E-01     0.0000000000000000E+00 
    2.5000000000002198E-01     3.7500000000093209E-01     0.0000000000000000E+00 
    2.5000000000012390E-01     4.3750000000108180E-01     0.0000000000000000E+00 
    2.5000000000022571E-01     5.0000000000121769E-01     0.0000000000000000E+00 
    2.5000000000032763E-01     5.6250000000094724E-01     0.0000000000000000E+00 
    2.5000000000042938E-01     6.2500000000066314E-01     0.0000000000000000E+00 
    2.5000000000053119E-01     6.8750000000037925E-01     0.0000000000000000E+00 
[...]
CELL_DATA 256 
SCALARS Pressure double 1 
LOOKUP_TABLE default 

    1.1306570866839682E+00 
    1.1174546183614695E+00 
    1.1025532893011096E+00 
    1.0880605352380435E+00 
    1.0770738023736437E+00 
    1.0689672853760164E+00 
    1.0583947176609521E+00 
    1.0500771664926154E+00 
    1.0418440655593904E+00 
    1.0328570743561880E+00 
    1.0252919229988415E+00 
    1.0188092311501165E+00 
    1.0128517946614926E+00 
    1.0073912208245610E+00 
    1.0027137909161676E+00 
    9.9923855383395788E-01 
    1.0757590748791612E+00 
    1.0712304802389148E+00 
    1.0653037702732835E+00 
    1.0582222292495653E+00 
    1.0502076986749247E+00 
    1.0409039669593254E+00 
    1.0320730872114032E+00 
    1.0245954063899887E+00 
    1.0148249431302678E+00 
    1.0051883199724774E+00 
    9.9808403208127616E-01 
    9.9195927152302654E-01 
    9.8669257968632385E-01 
    9.8287818949919514E-01 
    9.8042537914087557E-01 
    9.7881152257268289E-01 
    1.0266536952658238E+00 
    1.0242007433968734E+00 
    1.0208229935088791E+00 
    1.0159132611134507E+00 
    1.0091198007304258E+00 
    1.0007823136508511E+00 
    9.9255443946620514E-01 
    9.8410859216613766E-01 
    9.7346485207936340E-01 
    9.6424856473901688E-01 
    9.5774752232144600E-01 
    9.5215750979961189E-01 
    9.4761973961178692E-01 
    9.4512404175652720E-01 
    9.4439760646917992E-01 
    9.4447953287947362E-01 
    9.7157052790989795E-01 
    9.7098408839828365E-01 
    9.6927338762396975E-01 
    9.6555259337446075E-01 
    9.5941199168899494E-01 
    9.5151648686936308E-01 
    9.4313386010115163E-01 
    9.3388867805446973E-01 
    9.2428071247356181E-01 
    9.1683078329017398E-01 
    9.1153452323501238E-01 
    9.0690789694726925E-01 
    9.0328693086972212E-01 
    9.0190300884827035E-01 
    9.0238958147347093E-01 
    9.0332206330268627E-01 
    9.1221833141829445E-01 
    9.1211062369313411E-01 
    9.0902853696894015E-01 
    9.0447992693908419E-01 
    8.9830865760205758E-01 
    8.9137157887705154E-01 
    8.8453989634666241E-01 
    8.7813838680335443E-01 
    8.7196714184399404E-01 
    8.6734680602628023E-01 
    8.6405946939401690E-01 
    8.6110621254964181E-01 
    8.5859022629419457E-01 
    8.5791176512004641E-01 
    8.5835385608519299E-01 
    8.5822443257854464E-01 
    8.3870433868103211E-01 
    8.3683387999387382E-01 
    8.3365929167894037E-01 
    8.2993119129403137E-01 
    8.2667432279007813E-01 
    8.2418876597673763E-01 
    8.2192093780191700E-01 
    8.1967650404430192E-01 
    8.1790746452173013E-01 
    8.1682979611732032E-01 
    8.1568382970131437E-01 
    8.1394488537630116E-01 
    8.1207291514494218E-01 
    8.1026266847391148E-01 
    8.0846361453336890E-01 
    8.0704868877691927E-01 
    7.6327136435161624E-01 
    7.6295038968347262E-01 
    7.6220253462525678E-01 
    7.6150325644620809E-01 
    7.6105090868373426E-01 
    7.6035801812130688E-01 
    7.5855466352153633E-01 
    7.5661474531837192E-01 
    7.5599250593864187E-01 
    7.5553458440868915E-01 
    7.5425128569594424E-01 
    7.5268393009032453E-01 
    7.5176677042756812E-01 
    7.5109860989152077E-01 
    7.5081306374923051E-01 
    7.5059150110717399E-01 
    6.9858029380822972E-01 
    6.9911334164445071E-01 
    6.9928880341896338E-01 
    6.9928813993561867E-01 
    6.9899090096539374E-01 
    6.9823150056534034E-01 
    6.9681749005462001E-01 
    6.9509742637319327E-01 
    6.9363797585731124E-01 
    6.9256080754434302E-01 
    6.9136333669535999E-01 
    6.9011812277171303E-01 
    6.8925681703800157E-01 
    6.8939222119135490E-01 
    6.9052631685195820E-01 
    6.9153362083495651E-01 
    6.4075473769386793E-01 
    6.4118016752401596E-01 
    6.4065107103557029E-01 
    6.4007283572334850E-01 
    6.3908401801810999E-01 
    6.3776215328199082E-01 
    6.3614434279098997E-01 
    6.3472659666515274E-01 
    6.3320824385787344E-01 
    6.3245175927466957E-01 
    6.3184042026632325E-01 
    6.3106628236200224E-01 
    6.3032205137487329E-01 
    6.3090605186899962E-01 
    6.3235512515257819E-01 
    6.3282820413249286E-01 
    5.8246338689145094E-01 
    5.8195360693692388E-01 
    5.8080609980246534E-01 
    5.7948451584708638E-01 
    5.7834918694882176E-01 
    5.7738354647081824E-01 
    5.7638705886224828E-01 
    5.7588563255792213E-01 
    5.7596690781293802E-01 
    5.7657810347690219E-01 
    5.7725650602568346E-01 
    5.7671797594172824E-01 
    5.7562803545613506E-01 
    5.7422456595963567E-01 
    5.7271761427108081E-01 
    5.7180657194348483E-01 
    5.2556346519411468E-01 
    5.2516106912667304E-01 
    5.2440633172238971E-01 
    5.2366362977660641E-01 
    5.2294325166852440E-01 
    5.2166195016512762E-01 
    5.1940525248862979E-01 
    5.1780111702052511E-01 
    5.1699052129073275E-01 
    5.1569679635159626E-01 
    5.1364960228593182E-01 
    5.1159963255134600E-01 
    5.1022846610370709E-01 
    5.0904431644459658E-01 
    5.0838073694744201E-01 
    5.0803741131085589E-01 
    4.7410593649670396E-01 
    4.7375155445320383E-01 
    4.7292075763989327E-01 
    4.7160219533636061E-01 
    4.6974219613193169E-01 
    4.6737045459211152E-01 
    4.6467690976387227E-01 
    4.6132578770252619E-01 
    4.5721540661666793E-01 
    4.5268187476833976E-01 
    4.4849639374713335E-01 
    4.4470120840099114E-01 
    4.4155457216918609E-01 
    4.3982764954396691E-01 
    4.3965092161052016E-01 
    4.4016950053416753E-01 
    4.2416676584892171E-01 
    4.2360596910099368E-01 
    4.2229442646231974E-01 
    4.2004495027742289E-01 
    4.1692823675806223E-01 
    4.1326830567172035E-01 
    4.0919027238227029E-01 
    4.0364298785278163E-01 
    3.9676985772661277E-01 
    3.8960893159853527E-01 
    3.8294235535621368E-01 
    3.7665163694300396E-01 
    3.7140370348864726E-01 
    3.6861390302273539E-01 
    3.6833195964691612E-01 
    3.6928703316594780E-01 
    3.7507023529772837E-01 
    3.7426518199806630E-01 
    3.7243440762170532E-01 
    3.6923238126255692E-01 
    3.6479074020854474E-01 
    3.5965225310521887E-01 
    3.5408274629165398E-01 
    3.4660631172528145E-01 
    3.3736652241432069E-01 
    3.2772497446128213E-01 
    3.1837952060488889E-01 
    3.0924165740562154E-01 
    3.0113388947647668E-01 
    2.9581186683542460E-01 
    2.9332839800061833E-01 
    2.9264005232857038E-01 
    3.3020828609944380E-01 
    3.2921255118362591E-01 
    3.2696375215654189E-01 
    3.2296218375002944E-01 
    3.1735558077319176E-01 
    3.1090835549326229E-01 
    3.0420917022123678E-01 
    2.9548083732348762E-01 
    2.8453221526868772E-01 
    2.7242767555787112E-01 
    2.5960794238351026E-01 
    2.4585104514398298E-01 
    2.3119920586026182E-01 
    2.1683274983733788E-01 
    2.0357949654232710E-01 
    1.9387174416455061E-01 
    3.0156479394857427E-01 
    3.0038250556410623E-01 
    2.9777146095668028E-01 
    2.9323456110134527E-01 
    2.8693913010359162E-01 
    2.7985846129205677E-01 
    2.7307055227875060E-01 
    2.6456049837123197E-01 
    2.5262733081258576E-01 
    2.3672669761862944E-01 
    2.1818498067349271E-01 
    1.9542385638586249E-01 
    1.6423033266123144E-01 
    1.2209679075226991E-01 
    6.7870201799741001E-02 
    0.0000000000000000E+00 

SCALARS Saturarion double 1 
LOOKUP_TABLE default 

    9.9999983821042004E-01 
    9.1436817800517023E-01 
    8.0773846325195164E-01 
    7.2334035738993563E-01 
    6.5109228085014759E-01 
    5.8774197051272514E-01 
    5.3228512991078092E-01 
    4.8241848482830979E-01 
    3.3777058845148267E-01 
    4.4025195999736425E-03 
    1.0000058363460692E-06 
    1.0000000000007153E-06 
    9.9999999999999995E-07 
    9.9999999999999995E-07 
    9.9999999999999995E-07 
    9.9999999999999995E-07 
    8.4303906864472644E-01 
    8.1129386447032703E-01 
    7.4298065444147543E-01 
    6.8112223462939381E-01 
    6.2298173222881592E-01 
    5.6599071739665341E-01 
    5.1767999351804717E-01 
    4.7233338628511662E-01 
    2.8997292387763268E-01 
    2.8058032989029557E-03 
    1.0361937144706322E-06 
    1.0000000025648233E-06 
    1.0000000000000002E-06 
    9.9999999999999995E-07 
    9.9999999999999995E-07 
    9.9999999999999995E-07 
    6.7273559991992060E-01 
    6.5993969842941647E-01 
    6.2587744786809174E-01 
    5.9824057675215325E-01 
    5.5856842629596859E-01 
    5.1584903334252885E-01 
    4.7361657428828141E-01 
    4.0958158653054594E-01 
    1.1208297507168517E-01 
    4.4373089152772147E-04 
    1.0371465375787250E-06 
    1.0000000000000031E-06 
    9.9999999999999995E-07 
    9.9999999999999995E-07 
    9.9999999999999995E-07 
    9.9999999999999995E-07 
    5.4515741454795108E-01 
    5.3998778993891439E-01 
    5.2985409989540377E-01 
    5.0937745614509333E-01 
    4.8924773697204027E-01 
    4.4905669522525665E-01 
    3.5092658203588972E-01 
    1.2099437480821718E-01 
    1.9800481166874551E-03 
    1.1566906998631506E-06 
    1.0000000258974572E-06 
    1.0000000000000014E-06 
    9.9999999999999995E-07 
    9.9999999999999995E-07 
    9.9999999999999995E-07 
    9.9999999999999995E-07 
    4.1796261268806867E-01 
    4.0720446181835274E-01 
    3.8100260058867880E-01 
    3.3008911722173134E-01 
    2.5424203077623908E-01 
    1.2815609296309294E-01 
    2.2517195903049372E-02 
    3.7430861534113781E-04 
    1.2016744451815848E-06 
    1.0000000617034412E-06 
    1.0000000000000095E-06 
    9.9999999999999995E-07 
    9.9999999999999995E-07 
    9.9999999999999995E-07 
    9.9999999999999995E-07 
    9.9999999999999995E-07 
    2.9334053551583628E-02 
    1.8239246363231855E-02 
    7.1866463299400480E-03 
    1.8247243515934148E-03 
    4.5984283957102199E-04 
    2.1641707249652321E-04 
    1.8297480362169239E-05 
    1.0257264242517671E-06 
    1.0000000309625245E-06 
    1.0000000000000110E-06 
    9.9999999999999995E-07 
    9.9999999999999995E-07 
    9.9999999999999995E-07 
    9.9999999999999995E-07 
    9.9999999999999995E-07 
    9.9999999999999995E-07 
    1.0000004432457852E-06 
    1.9690705076898217E-06 
    1.5828479352153817E-06 
    1.0882760202199451E-06 
    1.0276274743369813E-06 
    1.0119511036556401E-06 
    1.0000243218863255E-06 
    1.0000000000019403E-06 
    1.0000000000000063E-06 
    9.9999999999999995E-07 
    9.9999999999999995E-07 
    9.9999999999999995E-07 
    9.9999999999999995E-07 
    9.9999999999999995E-07 
    9.9999999999999995E-07 
    9.9999999999999995E-07 
    1.0000000000001708E-06 
    1.0000002491905942E-06 
    1.0000001227733675E-06 
    1.0000000190670724E-06 
    1.0000000026251058E-06 
    1.0000000000000002E-06 
    1.0000000000000006E-06 
    9.9999999999999995E-07 
    9.9999999999999995E-07 
    9.9999999999999995E-07 
    9.9999999999999995E-07 
    9.9999999999999995E-07 
    9.9999999999999995E-07 
    9.9999999999999995E-07 
    9.9999999999999995E-07 
    9.9999999999999995E-07 
    9.9999999999999995E-07 
    1.0000000000000021E-06 
    9.9999999999999953E-07 
    9.9999999999999974E-07 
    9.9999999999999995E-07 
    9.9999999999999995E-07 
    9.9999999999999995E-07 
    9.9999999999999995E-07 
    9.9999999999999995E-07 
    9.9999999999999995E-07 
    9.9999999999999995E-07 
    9.9999999999999995E-07 
    9.9999999999999995E-07 
    9.9999999999999995E-07 
    9.9999999999999995E-07 
    9.9999999999999995E-07 
    9.9999999999999995E-07 
    9.9999999999999995E-07 
    9.9999999999999995E-07 
    9.9999999999999995E-07 
    9.9999999999999995E-07 
    9.9999999999999995E-07 
    9.9999999999999995E-07 
    9.9999999999999995E-07 
    9.9999999999999995E-07 
    9.9999999999999995E-07 
    9.9999999999999995E-07 
    9.9999999999999995E-07 
    9.9999999999999995E-07 
    9.9999999999999995E-07 
    9.9999999999999995E-07 
    9.9999999999999995E-07 
    9.9999999999999995E-07 
    9.9999999999999995E-07 
    9.9999999999999995E-07 
    9.9999999999999995E-07 
    9.9999999999999995E-07 
    9.9999999999999995E-07 
    9.9999999999999995E-07 
    9.9999999999999995E-07 
    9.9999999999999995E-07 
    9.9999999999999995E-07 
    9.9999999999999995E-07 
    9.9999999999999995E-07 
    9.9999999999999995E-07 
    9.9999999999999995E-07 
    9.9999999999999995E-07 
    9.9999999999999995E-07 
    9.9999999999999995E-07 
    9.9999999999999995E-07 
    9.9999999999999995E-07 
    9.9999999999999995E-07 
    9.9999999999999995E-07 
    9.9999999999999995E-07 
    9.9999999999999995E-07 
    9.9999999999999995E-07 
    9.9999999999999995E-07 
    9.9999999999999995E-07 
    9.9999999999999995E-07 
    9.9999999999999995E-07 
    9.9999999999999995E-07 
    9.9999999999999995E-07 
    9.9999999999999995E-07 
    9.9999999999999995E-07 
    9.9999999999999995E-07 
    9.9999999999999995E-07 
    9.9999999999999995E-07 
    9.9999999999999995E-07 
    9.9999999999999995E-07 
    9.9999999999999995E-07 
    9.9999999999999995E-07 
    9.9999999999999995E-07 
    9.9999999999999995E-07 
    9.9999999999999995E-07 
    9.9999999999999995E-07 
    9.9999999999999995E-07 
    9.9999999999999995E-07 
    9.9999999999999995E-07 
    9.9999999999999995E-07 
    9.9999999999999995E-07 
    9.9999999999999995E-07 
    9.9999999999999995E-07 
    9.9999999999999995E-07 
    9.9999999999999995E-07 
    9.9999999999999995E-07 
    9.9999999999999995E-07 
    9.9999999999999995E-07 
    9.9999999999999995E-07 
    9.9999999999999995E-07 
    9.9999999999999995E-07 
    9.9999999999999995E-07 
    9.9999999999999995E-07 
    9.9999999999999995E-07 
    9.9999999999999995E-07 
    9.9999999999999995E-07 
    9.9999999999999995E-07 
    9.9999999999999995E-07 
    9.9999999999999995E-07 
    9.9999999999999995E-07 
    9.9999999999999995E-07 
    9.9999999999999995E-07 
    9.9999999999999995E-07 
    9.9999999999999995E-07 
    9.9999999999999995E-07 
    9.9999999999999995E-07 
    9.9999999999999995E-07 
    9.9999999999999995E-07 
    9.9999999999999995E-07 
    9.9999999999999995E-07 
    9.9999999999999995E-07 
    9.9999999999999995E-07 
    9.9999999999999995E-07 
    9.9999999999999995E-07 
    9.9999999999999995E-07 
    9.9999999999999995E-07 
    9.9999999999999995E-07 
    9.9999999999999995E-07 
    9.9999999999999995E-07 
    9.9999999999999995E-07 
    9.9999999999999995E-07 
    9.9999999999999995E-07 
    9.9999999999999995E-07 
    9.9999999999999995E-07 
    9.9999999999999995E-07 
    9.9999999999999995E-07 
    9.9999999999999995E-07 
    9.9999999999999995E-07 
    1.0000000226482310E-06 
