# vtk DataFile Version 2.0
Pressure Field Data 
ASCII 
DATASET UNSTRUCTURED_GRID 

POINTS 289 double 

    0.0000000000000000E+00     0.0000000000000000E+00     0.0000000000000000E+00 
    1.0000000000000000E+00     0.0000000000000000E+00     0.0000000000000000E+00 
    1.0000000000000000E+00     1.0000000000000000E+00     0.0000000000000000E+00 
    0.0000000000000000E+00     1.0000000000000000E+00     0.0000000000000000E+00 
    6.2499999999872928E-02     0.0000000000000000E+00     0.0000000000000000E+00 
    1.2499999999977310E-01     0.0000000000000000E+00     0.0000000000000000E+00 
    1.8749999999959341E-01     0.0000000000000000E+00     0.0000000000000000E+00 
    2.4999999999941089E-01     0.0000000000000000E+00     0.0000000000000000E+00 
    3.1249999999922851E-01     0.0000000000000000E+00     0.0000000000000000E+00 
    3.7499999999904610E-01     0.0000000000000000E+00     0.0000000000000000E+00 
    4.3749999999886358E-01     0.0000000000000000E+00     0.0000000000000000E+00 
    4.9999999999869210E-01     0.0000000000000000E+00     0.0000000000000000E+00 
    5.6249999999884603E-01     0.0000000000000000E+00     0.0000000000000000E+00 
    6.2499999999901090E-01     0.0000000000000000E+00     0.0000000000000000E+00 
    6.8749999999917577E-01     0.0000000000000000E+00     0.0000000000000000E+00 
    7.4999999999934064E-01     0.0000000000000000E+00     0.0000000000000000E+00 
    8.1249999999950551E-01     0.0000000000000000E+00     0.0000000000000000E+00 
    8.7499999999967026E-01     0.0000000000000000E+00     0.0000000000000000E+00 
    9.3749999999983513E-01     0.0000000000000000E+00     0.0000000000000000E+00 
    1.0000000000000000E+00     6.2499999999872928E-02     0.0000000000000000E+00 
    1.0000000000000000E+00     1.2499999999977310E-01     0.0000000000000000E+00 
    1.0000000000000000E+00     1.8749999999959341E-01     0.0000000000000000E+00 
    1.0000000000000000E+00     2.4999999999941089E-01     0.0000000000000000E+00 
    1.0000000000000000E+00     3.1249999999922851E-01     0.0000000000000000E+00 
    1.0000000000000000E+00     3.7499999999904610E-01     0.0000000000000000E+00 
    1.0000000000000000E+00     4.3749999999886358E-01     0.0000000000000000E+00 
    1.0000000000000000E+00     4.9999999999869210E-01     0.0000000000000000E+00 
    1.0000000000000000E+00     5.6249999999884603E-01     0.0000000000000000E+00 
    1.0000000000000000E+00     6.2499999999901090E-01     0.0000000000000000E+00 
    1.0000000000000000E+00     6.8749999999917577E-01     0.0000000000000000E+00 
    1.0000000000000000E+00     7.4999999999934064E-01     0.0000000000000000E+00 
    1.0000000000000000E+00     8.1249999999950551E-01     0.0000000000000000E+00 
    1.0000000000000000E+00     8.7499999999967026E-01     0.0000000000000000E+00 
    1.0000000000000000E+00     9.3749999999983513E-01     0.0000000000000000E+00 
    9.3749999999973976E-01     1.0000000000000000E+00     0.0000000000000000E+00 
    8.7499999999950118E-01     1.0000000000000000E+00     0.0000000000000000E+00 
    8.1249999999991318E-01     1.0000000000000000E+00     0.0000000000000000E+00 
    7.5000000000034706E-01     1.0000000000000000E+00     0.0000000000000000E+00 
    6.8750000000078049E-01     1.0000000000000000E+00     0.0000000000000000E+00 
    6.2500000000121403E-01     1.0000000000000000E+00     0.0000000000000000E+00 
    5.6250000000164757E-01     1.0000000000000000E+00     0.0000000000000000E+00 
    5.0000000000205946E-01     1.0000000000000000E+00     0.0000000000000000E+00 
    4.3750000000182099E-01     1.0000000000000000E+00     0.0000000000000000E+00 
    3.7500000000156092E-01     1.0000000000000000E+00     0.0000000000000000E+00 
    3.1250000000130068E-01     1.0000000000000000E+00     0.0000000000000000E+00 
    2.5000000000104050E-01     1.0000000000000000E+00     0.0000000000000000E+00 
    1.8750000000078040E-01     1.0000000000000000E+00     0.0000000000000000E+00 
    1.2500000000052031E-01     1.0000000000000000E+00     0.0000000000000000E+00 
    6.2500000000260125E-02     1.0000000000000000E+00     0.0000000000000000E+00 
    0.0000000000000000E+00     9.3749999999973976E-01     0.0000000000000000E+00 
    0.0000000000000000E+00     8.7499999999950118E-01     0.0000000000000000E+00 
    0.0000000000000000E+00     8.1249999999991318E-01     0.0000000000000000E+00 
    0.0000000000000000E+00     7.5000000000034706E-01     0.0000000000000000E+00 
    0.0000000000000000E+00     6.8750000000078049E-01     0.0000000000000000E+00 
    0.0000000000000000E+00     6.2500000000121403E-01     0.0000000000000000E+00 
    0.0000000000000000E+00     5.6250000000164757E-01     0.0000000000000000E+00 
    0.0000000000000000E+00     5.0000000000205946E-01     0.0000000000000000E+00 
    0.0000000000000000E+00     4.3750000000182099E-01     0.0000000000000000E+00 
    0.0000000000000000E+00     3.7500000000156092E-01     0.0000000000000000E+00 
    0.0000000000000000E+00     3.1250000000130068E-01     0.0000000000000000E+00 
    0.0000000000000000E+00     2.5000000000104050E-01     0.0000000000000000E+00 
    0.0000000000000000E+00     1.8750000000078040E-01     0.0000000000000000E+00 
    0.0000000000000000E+00     1.2500000000052031E-01     0.0000000000000000E+00 
    0.0000000000000000E+00     6.2500000000260125E-02     0.0000000000000000E+00 
    6.2499999999897131E-02     6.2500000000235922E-02     0.0000000000000000E+00 
    6.2499999999921327E-02     1.2500000000047351E-01     0.0000000000000000E+00 
    6.2499999999945530E-02     1.8750000000070621E-01     0.0000000000000000E+00 
    6.2499999999969733E-02     2.5000000000093858E-01     0.0000000000000000E+00 
    6.2499999999993928E-02     3.1250000000117117E-01     0.0000000000000000E+00 
    6.2500000000018124E-02     3.7500000000140382E-01     0.0000000000000000E+00 
    6.2500000000042327E-02     4.3750000000163619E-01     0.0000000000000000E+00 
    6.2500000000066530E-02     5.0000000000184897E-01     0.0000000000000000E+00 
    6.2500000000090733E-02     5.6250000000147260E-01     0.0000000000000000E+00 
    6.2500000000114922E-02     6.2500000000107636E-01     0.0000000000000000E+00 
    6.2500000000139125E-02     6.8750000000068034E-01     0.0000000000000000E+00 
    6.2500000000163328E-02     7.5000000000028411E-01     0.0000000000000000E+00 
    6.2500000000187531E-02     8.1249999999988787E-01     0.0000000000000000E+00 
    6.2500000000211720E-02     8.7499999999951172E-01     0.0000000000000000E+00 
    6.2500000000235922E-02     9.3749999999974565E-01     0.0000000000000000E+00 
    1.2499999999981980E-01     6.2500000000211733E-02     0.0000000000000000E+00 
    1.2499999999986650E-01     1.2500000000042691E-01     0.0000000000000000E+00 
    1.2499999999991319E-01     1.8750000000063199E-01     0.0000000000000000E+00 
    1.2499999999995989E-01     2.5000000000083678E-01     0.0000000000000000E+00 
    1.2500000000000661E-01     3.1250000000104172E-01     0.0000000000000000E+00 
    1.2500000000005329E-01     3.7500000000124661E-01     0.0000000000000000E+00 
    1.2500000000010000E-01     4.3750000000145117E-01     0.0000000000000000E+00 
    1.2500000000014669E-01     5.0000000000163858E-01     0.0000000000000000E+00 
    1.2500000000019340E-01     5.6250000000129741E-01     0.0000000000000000E+00 
    1.2500000000024011E-01     6.2500000000093847E-01     0.0000000000000000E+00 
    1.2500000000028680E-01     6.8750000000057998E-01     0.0000000000000000E+00 
    1.2500000000033351E-01     7.5000000000022127E-01     0.0000000000000000E+00 
    1.2500000000038020E-01     8.1249999999986211E-01     0.0000000000000000E+00 
    1.2500000000042691E-01     8.7499999999952238E-01     0.0000000000000000E+00 
    1.2500000000047359E-01     9.3749999999975164E-01     0.0000000000000000E+00 
    1.8749999999966760E-01     6.2500000000187531E-02     0.0000000000000000E+00 
    1.8749999999974179E-01     1.2500000000038020E-01     0.0000000000000000E+00 
    1.8749999999981601E-01     1.8750000000055780E-01     0.0000000000000000E+00 
    1.8749999999989009E-01     2.5000000000073502E-01     0.0000000000000000E+00 
    1.8749999999996431E-01     3.1250000000091221E-01     0.0000000000000000E+00 
    1.8750000000003850E-01     3.7500000000108941E-01     0.0000000000000000E+00 
    1.8750000000011269E-01     4.3750000000126649E-01     0.0000000000000000E+00 
    1.8750000000018691E-01     5.0000000000142808E-01     0.0000000000000000E+00 
    1.8750000000026110E-01     5.6250000000112244E-01     0.0000000000000000E+00 
    1.8750000000033529E-01     6.2500000000080080E-01     0.0000000000000000E+00 
    1.8750000000040951E-01     6.8750000000047962E-01     0.0000000000000000E+00 
    1.8750000000048361E-01     7.5000000000015843E-01     0.0000000000000000E+00 
    1.8750000000055780E-01     8.1249999999983680E-01     0.0000000000000000E+00 
    1.8750000000063199E-01     8.7499999999953304E-01     0.0000000000000000E+00 
    1.8750000000070621E-01     9.3749999999975764E-01     0.0000000000000000E+00 
    2.4999999999951281E-01     6.2500000000163314E-02     0.0000000000000000E+00 
    2.4999999999961461E-01     1.2500000000033351E-01     0.0000000000000000E+00 
    2.4999999999971650E-01     1.8750000000048361E-01     0.0000000000000000E+00 
    2.4999999999981831E-01     2.5000000000063310E-01     0.0000000000000000E+00 
    2.4999999999992020E-01     3.1250000000078260E-01     0.0000000000000000E+00 
    2.5000000000002198E-01     3.7500000000093209E-01     0.0000000000000000E+00 
    2.5000000000012390E-01     4.3750000000108180E-01     0.0000000000000000E+00 
    2.5000000000022571E-01     5.0000000000121769E-01     0.0000000000000000E+00 
    2.5000000000032763E-01     5.6250000000094724E-01     0.0000000000000000E+00 
    2.5000000000042938E-01     6.2500000000066314E-01     0.0000000000000000E+00 
    2.5000000000053119E-01     6.8750000000037925E-01     0.0000000000000000E+00 
[...]
CELL_DATA 256 
SCALARS Pressure double 1 
LOOKUP_TABLE default 

    8.4256741838323990E-01 
    8.3030821093156781E-01 
    8.1815703685555941E-01 
    8.0721771903709949E-01 
    7.9935027989337804E-01 
    7.9613494291390108E-01 
    7.9029322595213303E-01 
    7.8548528029526832E-01 
    7.8212285868307729E-01 
    7.8022691538069233E-01 
    7.7766065365902137E-01 
    7.7520055401103738E-01 
    7.7264003403427439E-01 
    7.6990501260178357E-01 
    7.6735959272844767E-01 
    7.6572413676527917E-01 
    7.9845526058668426E-01 
    7.9510204156339337E-01 
    7.9115362446576576E-01 
    7.8691662690954278E-01 
    7.8276267919233089E-01 
    7.7819706956222923E-01 
    7.7326208384451078E-01 
    7.7039827952145734E-01 
    7.6733112012563998E-01 
    7.6421819099563948E-01 
    7.6148534770430731E-01 
    7.5955967606301400E-01 
    7.5760821692178137E-01 
    7.5605848829257460E-01 
    7.5501670862402059E-01 
    7.5430756006352695E-01 
    7.6663312143948792E-01 
    7.6510892535088215E-01 
    7.6334770375986838E-01 
    7.6118103952738436E-01 
    7.5847381030681160E-01 
    7.5487095720471731E-01 
    7.5080143290659107E-01 
    7.4843122035960097E-01 
    7.4538194505698208E-01 
    7.4215202297087357E-01 
    7.3958013233362097E-01 
    7.3806759520096865E-01 
    7.3648667127405776E-01 
    7.3566789883854233E-01 
    7.3551542058453678E-01 
    7.3552101458592334E-01 
    7.3443466235983113E-01 
    7.3427367189433623E-01 
    7.3398797153240525E-01 
    7.3325786374643021E-01 
    7.3180189182973054E-01 
    7.2920449155556200E-01 
    7.2591248179777912E-01 
    7.2382229149366673E-01 
    7.2097645807062072E-01 
    7.1790246465872010E-01 
    7.1559782519112447E-01 
    7.1441539840972268E-01 
    7.1306969847485657E-01 
    7.1264192431437812E-01 
    7.1295421375815704E-01 
    7.1322640476274979E-01 
    7.0478449207706206E-01 
    7.0688617500686191E-01 
    7.0685850118967364E-01 
    7.0625133035255039E-01 
    7.0496313533100652E-01 
    7.0247981652322944E-01 
    6.9939240657489499E-01 
    6.9809142936546820E-01 
    6.9587446849578238E-01 
    6.9311297654386561E-01 
    6.9108258027976688E-01 
    6.9073361943750378E-01 
    6.8962372124761595E-01 
    6.8919463314258500E-01 
    6.8921727843864944E-01 
    6.8888185878062080E-01 
    6.8086748443271450E-01 
    6.7944225332588126E-01 
    6.7725370916652161E-01 
    6.7413828358088290E-01 
    6.7082937972104284E-01 
    6.6856051227540469E-01 
    6.6755573326451534E-01 
    6.6714518203516404E-01 
    6.6663113344407887E-01 
    6.6671628954324480E-01 
    6.6682932938226180E-01 
    6.6627161446839900E-01 
    6.6479859625903426E-01 
    6.6316065142164526E-01 
    6.6174085290977325E-01 
    6.6100451834044982E-01 
    6.3711790889345687E-01 
    6.3679983000202889E-01 
    6.3600273744107794E-01 
    6.3485512254585075E-01 
    6.3388975203071674E-01 
    6.3394500382661079E-01 
    6.3430581694339017E-01 
    6.3228325544139408E-01 
    6.3159719201216569E-01 
    6.3192378864696863E-01 
    6.3215639363020804E-01 
    6.3094236487304700E-01 
    6.3034897929528699E-01 
    6.2991785310042980E-01 
    6.2965076104888207E-01 
    6.2946855412106084E-01 
    5.9680687147459355E-01 
    5.9771175323270276E-01 
    5.9837996317413000E-01 
    5.9881754435484336E-01 
    5.9902344688551012E-01 
    5.9898736728394597E-01 
    5.9838316252016110E-01 
    5.9734582940052727E-01 
    5.9635316314607678E-01 
    5.9559804389379356E-01 
    5.9490669880451119E-01 
    5.9431562171965391E-01 
    5.9391668709537992E-01 
    5.9406796494987857E-01 
    5.9460981861540108E-01 
    5.9480066941577836E-01 
    5.6204974100230742E-01 
    5.6396476824209707E-01 
    5.6410576282244229E-01 
    5.6405478927837205E-01 
    5.6357060519460245E-01 
    5.6243387046323756E-01 
    5.6087936336773736E-01 
    5.6029417153367256E-01 
    5.5905867698409739E-01 
    5.5803688944180463E-01 
    5.5751464217227620E-01 
    5.5773616753668998E-01 
    5.5738537734076687E-01 
    5.5755696412966615E-01 
    5.5790242762596265E-01 
    5.5731222913407430E-01 
    5.3030650948092872E-01 
    5.2956763978700949E-01 
    5.2800792944882835E-01 
    5.2578436791173366E-01 
    5.2354856293099261E-01 
    5.2189965120890436E-01 
    5.2065472833254678E-01 
    5.1985581795294378E-01 
    5.1953322151450576E-01 
    5.2027587868914915E-01 
    5.2133674113802209E-01 
    5.2087707749934886E-01 
    5.1919051364874802E-01 
    5.1730740381872964E-01 
    5.1567283590047763E-01 
    5.1468723132693783E-01 
    4.9261913297898219E-01 
    4.9181126942937864E-01 
    4.9041920055636062E-01 
    4.8865668304154614E-01 
    4.8703550162742071E-01 
    4.8561101515629029E-01 
    4.8319893125721103E-01 
    4.8015282320468555E-01 
    4.7852270977956474E-01 
    4.7734178262140803E-01 
    4.7530428204642422E-01 
    4.7234882259357491E-01 
    4.7035835431844919E-01 
    4.6874538401371280E-01 
    4.6798630790959372E-01 
    4.6787118822327850E-01 
    4.5860014864863796E-01 
    4.5796338924424779E-01 
    4.5685063588408387E-01 
    4.5511466074343454E-01 
    4.5261677642426823E-01 
    4.4928113540466696E-01 
    4.4564309666207524E-01 
    4.4185730675443879E-01 
    4.3706890165237089E-01 
    4.3140544652407303E-01 
    4.2598770536653491E-01 
    4.2147573440473729E-01 
    4.1773069037793925E-01 
    4.1558515752643654E-01 
    4.1536937344262648E-01 
    4.1618334642883859E-01 
    4.2334264885897033E-01 
    4.2260317054232516E-01 
    4.2124410545248664E-01 
    4.1882090491059082E-01 
    4.1506177941890143E-01 
    4.1023440348247708E-01 
    4.0532577502271161E-01 
    3.9963311430416959E-01 
    3.9182516812187379E-01 
    3.8291684110596691E-01 
    3.7478084890562496E-01 
    3.6796680528511716E-01 
    3.6223338055817073E-01 
    3.5919016984869928E-01 
    3.5895535153837943E-01 
    3.6005257690851600E-01 
    3.8508162400275425E-01 
    3.8421218757465375E-01 
    3.8244001098209673E-01 
    3.7918069085919442E-01 
    3.7430730297135761E-01 
    3.6840994035088975E-01 
    3.6231836251378968E-01 
    3.5453478600663590E-01 
    3.4404434896817970E-01 
    3.3254038115507129E-01 
    3.2198053795645104E-01 
    3.1275019836190421E-01 
    3.0456477389630127E-01 
    2.9939546816652746E-01 
    2.9681121829236112E-01 
    2.9576725370881057E-01 
    3.4104396259184433E-01 
    3.4003900926174258E-01 
    3.3781388840368654E-01 
    3.3388149513464255E-01 
    3.2839926155174959E-01 
    3.2207211609664244E-01 
    3.1530894589983782E-01 
    3.0643705267998939E-01 
    2.9519430485924314E-01 
    2.8302321954102327E-01 
    2.7085271448790949E-01 
    2.5833294533555917E-01 
    2.4473163011879406E-01 
    2.3070323496145725E-01 
    2.1594872678163618E-01 
    2.0474373502739879E-01 
    3.0927968823375257E-01 
    3.0809220301471368E-01 
    3.0556580569306618E-01 
    3.0129524636468452E-01 
    2.9549336049286429E-01 
    2.8903387186320761E-01 
    2.8258221965177410E-01 
    2.7461233909770844E-01 
    2.6372197095220862E-01 
    2.4918310680631420E-01 
    2.3132953550213314E-01 
    2.0849263724119527E-01 
    1.7677711512077426E-01 
    1.3326492694790232E-01 
    7.5179958297560870E-02 
    0.0000000000000000E+00 

SCALARS Saturarion double 1 
LOOKUP_TABLE default 

    1.0000000000169182E+00 
    9.8203656869899902E-01 
    9.4980706667043080E-01 
    9.1490898921031238E-01 
    8.7685670235470581E-01 
    8.3665546804742708E-01 
    7.9346868353372058E-01 
    7.4895807538302528E-01 
    7.0095470677360605E-01 
    6.5601240798623317E-01 
    6.1328001498784424E-01 
    5.7163367557506106E-01 
    5.3225560136264705E-01 
    4.9171341199316299E-01 
    4.3584010932401224E-01 
    1.0561446519512506E-01 
    9.5304542518982904E-01 
    9.4123400592354167E-01 
    9.1511577144203082E-01 
    8.8448043709555668E-01 
    8.5108441826370074E-01 
    8.1461795361596712E-01 
    7.7728615875377005E-01 
    7.3869879946926242E-01 
    6.9471279739893588E-01 
    6.5097402919915626E-01 
    6.0785659818678739E-01 
    5.6358572028289056E-01 
    5.1974054602199460E-01 
    4.7519636302281498E-01 
    3.3167480508675928E-01 
    8.6861660519863063E-03 
    8.7388761522240921E-01 
    8.6778825745670840E-01 
    8.5219732730943809E-01 
    8.3009128371670271E-01 
    8.0528113224434339E-01 
    7.7707038349228219E-01 
    7.4768684600966151E-01 
    7.1698343232888850E-01 
    6.8171465208924353E-01 
    6.4260588520916750E-01 
    6.0132933084945073E-01 
    5.5808222409257346E-01 
    5.1201209418022964E-01 
    4.5968962329007723E-01 
    2.0564155173812482E-01 
    1.0625962545908535E-04 
    8.0211126848485925E-01 
    7.9788687458192264E-01 
    7.8839690320759526E-01 
    7.7433414022098057E-01 
    7.5799840390301110E-01 
    7.3832055765333615E-01 
    7.1561651398826065E-01 
    6.9127827162142086E-01 
    6.6424022949104611E-01 
    6.3061817780941620E-01 
    5.9109703527226687E-01 
    5.4722836049473467E-01 
    5.0061888026576773E-01 
    4.4348996491168213E-01 
    1.1203273847526511E-01 
    3.6116282168463295E-05 
    7.4611139787877390E-01 
    7.4283331338007086E-01 
    7.3603882148914757E-01 
    7.2570664109665139E-01 
    7.1176669658311997E-01 
    6.9839319369375319E-01 
    6.8130675069051649E-01 
    6.6266793397500712E-01 
    6.4287935455414780E-01 
    6.1470670767347224E-01 
    5.7875817432976251E-01 
    5.3636444261072502E-01 
    4.8843384512620458E-01 
    4.2223381127947646E-01 
    6.6641878207356522E-02 
    1.8454944947089072E-05 
    7.0145094758182325E-01 
    6.9936451144508893E-01 
    6.9376649783675803E-01 
    6.8768221850527000E-01 
    6.7641428519907676E-01 
    6.6226587517052249E-01 
    6.4791663349837814E-01 
    6.3082032128053378E-01 
    6.1497592394299339E-01 
    5.9387914832588995E-01 
    5.6418608940753645E-01 
    5.2757720682165166E-01 
    4.8113125728462613E-01 
    3.9573308104203181E-01 
    2.0649540540065969E-02 
    3.3466013512381185E-06 
    6.5952443036398711E-01 
    6.5769421354696112E-01 
    6.5364411452980276E-01 
    6.4833815784622373E-01 
    6.4575879369706868E-01 
    6.3228267101439428E-01 
    6.1844068231209659E-01 
    6.0187214036000525E-01 
    5.8438321436791052E-01 
    5.6861847629542894E-01 
    5.4530264542664209E-01 
    5.1472130595310417E-01 
    4.7452032891452756E-01 
    3.5316211617708859E-01 
    4.4720506111431812E-03 
    1.0525874398408851E-06 
    6.2237208105009356E-01 
    6.2035458947404687E-01 
    6.1651555821023629E-01 
    6.1126481119397613E-01 
    6.1434295507719938E-01 
    6.0462836180859902E-01 
    5.9281153948219734E-01 
    5.7810988563106802E-01 
    5.5884157162113179E-01 
    5.4424278658217706E-01 
    5.2339904399892023E-01 
    4.9591320906622882E-01 
    4.5875348822830769E-01 
    2.4988434099454082E-01 
    6.5998103862725322E-04 
    1.0087744666424941E-06 
    5.8986811383511206E-01 
    5.8799760189118577E-01 
    5.8458668706651451E-01 
    5.8012949160002825E-01 
    5.8383732592806092E-01 
    5.7904562740934218E-01 
    5.6892217319292215E-01 
    5.5657849240714075E-01 
    5.4002695629067443E-01 
    5.2313368169019847E-01 
    5.0431750910294038E-01 
    4.7816441981697821E-01 
    4.3918002681713392E-01 
    1.6448495600317933E-01 
    5.2420395642140566E-05 
    1.0018446138102851E-06 
    5.6304703127789890E-01 
    5.6168495193613222E-01 
    5.5854684262565768E-01 
    5.5497233198348050E-01 
    5.5332627351083974E-01 
    5.5480161104307857E-01 
    5.4539887732971937E-01 
    5.3496827617106735E-01 
    5.2291219648294773E-01 
    5.0505684732888290E-01 
    4.9063246006646932E-01 
    4.6725645375402436E-01 
    4.1915131138263684E-01 
    1.2815259889737790E-01 
    3.7482015482044172E-05 
    1.0002322588918165E-06 
    5.3672115654841812E-01 
    5.3569686222127511E-01 
    5.3309148458575373E-01 
    5.3034281223119506E-01 
    5.2695882722073117E-01 
    5.2920401793670802E-01 
    5.2370950681652828E-01 
    5.1558408719470916E-01 
    5.0547830500187163E-01 
    4.9068042118782412E-01 
    4.7816746082762218E-01 
    4.6213824533010156E-01 
    4.0939373010670976E-01 
    9.2300950772428600E-02 
    1.3028345972049027E-05 
    1.0000158879825623E-06 
    5.0980439529161126E-01 
    5.0914915696934659E-01 
    5.0730264532489433E-01 
    5.0542895343321659E-01 
    5.0360047896237303E-01 
    5.0283956948585518E-01 
    5.0317003733411425E-01 
    4.9902582668177287E-01 
    4.9152160117716820E-01 
    4.8200065731448860E-01 
    4.6854841129444197E-01 
    4.5652432063768789E-01 
    4.2077684049463449E-01 
    1.2390136476143175E-01 
    6.9133319343984745E-05 
    1.0006656605158545E-06 
    4.8060316391020574E-01 
    4.8037702794230502E-01 
    4.7907650095140586E-01 
    4.7785350508128066E-01 
    4.7702066302455814E-01 
    4.7682407606805244E-01 
    4.7631498567155922E-01 
    4.7695429229744829E-01 
    4.7753734794922742E-01 
    4.7365893518150792E-01 
    4.6533135788642838E-01 
    4.5254908662403526E-01 
    4.2969842838925176E-01 
    2.3168715695135486E-01 
    2.6691548113426931E-03 
    1.1428732266177748E-06 
    4.4288900758352162E-01 
    4.4361706169110987E-01 
    4.4377568054913885E-01 
    4.4300093556991099E-01 
    4.4297668082097169E-01 
    4.4164161113803513E-01 
    4.4234698727721128E-01 
    4.4298420299336577E-01 
    4.4914140002750980E-01 
    4.5710051368701965E-01 
    4.5775359354063833E-01 
    4.5153542292397519E-01 
    4.3667515246872157E-01 
    3.4487345663056890E-01 
    6.1224502672014416E-02 
    6.2369213872130806E-05 
    1.8902438912010158E-01 
    1.8946603951242719E-01 
    1.9116176502042587E-01 
    1.9371719137424698E-01 
    1.9183452453432895E-01 
    1.8242172573911541E-01 
    1.7900963485247204E-01 
    1.8268557503012692E-01 
    2.6622554961129552E-01 
    3.6603966664696974E-01 
    4.1363162662415864E-01 
    4.2656533696110210E-01 
    4.3023099084861466E-01 
    3.9625507120774428E-01 
    2.4443454471795648E-01 
    2.2500472572684727E-02 
    1.0000000346159201E-06 
    1.6875132385455389E-06 
    1.6521543992167215E-06 
    2.0751250660381884E-06 
    3.7906744681809450E-06 
    1.0898970928495967E-06 
    1.0610071937633440E-06 
    8.1810715036896373E-06 
    1.8667227712393843E-02 
    9.9494097445602947E-02 
    1.7978262538127698E-01 
    2.2679012045816002E-01 
    2.5892723792119549E-01 
    2.7757984594019602E-01 
    2.7610918953269797E-01 
    2.3012641152845542E-01 
