# vtk DataFile Version 2.0
Pressure Field Data 
ASCII 
DATASET UNSTRUCTURED_GRID 

POINTS 289 double 

    0.0000000000000000E+00     0.0000000000000000E+00     0.0000000000000000E+00 
    1.0000000000000000E+00     0.0000000000000000E+00     0.0000000000000000E+00 
    1.0000000000000000E+00     1.0000000000000000E+00     0.0000000000000000E+00 
    0.0000000000000000E+00     1.0000000000000000E+00     0.0000000000000000E+00 
    6.2499999999872928E-02     0.0000000000000000E+00     0.0000000000000000E+00 
    1.2499999999977310E-01     0.0000000000000000E+00     0.0000000000000000E+00 
    1.8749999999959341E-01     0.0000000000000000E+00     0.0000000000000000E+00 
    2.4999999999941089E-01     0.0000000000000000E+00     0.0000000000000000E+00 
    3.1249999999922851E-01     0.0000000000000000E+00     0.0000000000000000E+00 
    3.7499999999904610E-01     0.0000000000000000E+00     0.0000000000000000E+00 
    4.3749999999886358E-01     0.0000000000000000E+00     0.0000000000000000E+00 
    4.9999999999869210E-01     0.0000000000000000E+00     0.0000000000000000E+00 
    5.6249999999884603E-01     0.0000000000000000E+00     0.0000000000000000E+00 
    6.2499999999901090E-01     0.0000000000000000E+00     0.0000000000000000E+00 
    6.8749999999917577E-01     0.0000000000000000E+00     0.0000000000000000E+00 
    7.4999999999934064E-01     0.0000000000000000E+00     0.0000000000000000E+00 
    8.1249999999950551E-01     0.0000000000000000E+00     0.0000000000000000E+00 
    8.7499999999967026E-01     0.0000000000000000E+00     0.0000000000000000E+00 
    9.3749999999983513E-01     0.0000000000000000E+00     0.0000000000000000E+00 
    1.0000000000000000E+00     6.2499999999872928E-02     0.0000000000000000E+00 
    1.0000000000000000E+00     1.2499999999977310E-01     0.0000000000000000E+00 
    1.0000000000000000E+00     1.8749999999959341E-01     0.0000000000000000E+00 
    1.0000000000000000E+00     2.4999999999941089E-01     0.0000000000000000E+00 
    1.0000000000000000E+00     3.1249999999922851E-01     0.0000000000000000E+00 
    1.0000000000000000E+00     3.7499999999904610E-01     0.0000000000000000E+00 
    1.0000000000000000E+00     4.3749999999886358E-01     0.0000000000000000E+00 
    1.0000000000000000E+00     4.9999999999869210E-01     0.0000000000000000E+00 
    1.0000000000000000E+00     5.6249999999884603E-01     0.0000000000000000E+00 
    1.0000000000000000E+00     6.2499999999901090E-01     0.0000000000000000E+00 
    1.0000000000000000E+00     6.8749999999917577E-01     0.0000000000000000E+00 
    1.0000000000000000E+00     7.4999999999934064E-01     0.0000000000000000E+00 
    1.0000000000000000E+00     8.1249999999950551E-01     0.0000000000000000E+00 
    1.0000000000000000E+00     8.7499999999967026E-01     0.0000000000000000E+00 
    1.0000000000000000E+00     9.3749999999983513E-01     0.0000000000000000E+00 
    9.3749999999973976E-01     1.0000000000000000E+00     0.0000000000000000E+00 
    8.7499999999950118E-01     1.0000000000000000E+00     0.0000000000000000E+00 
    8.1249999999991318E-01     1.0000000000000000E+00     0.0000000000000000E+00 
    7.5000000000034706E-01     1.0000000000000000E+00     0.0000000000000000E+00 
    6.8750000000078049E-01     1.0000000000000000E+00     0.0000000000000000E+00 
    6.2500000000121403E-01     1.0000000000000000E+00     0.0000000000000000E+00 
    5.6250000000164757E-01     1.0000000000000000E+00     0.0000000000000000E+00 
    5.0000000000205946E-01     1.0000000000000000E+00     0.0000000000000000E+00 
    4.3750000000182099E-01     1.0000000000000000E+00     0.0000000000000000E+00 
    3.7500000000156092E-01     1.0000000000000000E+00     0.0000000000000000E+00 
    3.1250000000130068E-01     1.0000000000000000E+00     0.0000000000000000E+00 
    2.5000000000104050E-01     1.0000000000000000E+00     0.0000000000000000E+00 
    1.8750000000078040E-01     1.0000000000000000E+00     0.0000000000000000E+00 
    1.2500000000052031E-01     1.0000000000000000E+00     0.0000000000000000E+00 
    6.2500000000260125E-02     1.0000000000000000E+00     0.0000000000000000E+00 
    0.0000000000000000E+00     9.3749999999973976E-01     0.0000000000000000E+00 
    0.0000000000000000E+00     8.7499999999950118E-01     0.0000000000000000E+00 
    0.0000000000000000E+00     8.1249999999991318E-01     0.0000000000000000E+00 
    0.0000000000000000E+00     7.5000000000034706E-01     0.0000000000000000E+00 
    0.0000000000000000E+00     6.8750000000078049E-01     0.0000000000000000E+00 
    0.0000000000000000E+00     6.2500000000121403E-01     0.0000000000000000E+00 
    0.0000000000000000E+00     5.6250000000164757E-01     0.0000000000000000E+00 
    0.0000000000000000E+00     5.0000000000205946E-01     0.0000000000000000E+00 
    0.0000000000000000E+00     4.3750000000182099E-01     0.0000000000000000E+00 
    0.0000000000000000E+00     3.7500000000156092E-01     0.0000000000000000E+00 
    0.0000000000000000E+00     3.1250000000130068E-01     0.0000000000000000E+00 
    0.0000000000000000E+00     2.5000000000104050E-01     0.0000000000000000E+00 
    0.0000000000000000E+00     1.8750000000078040E-01     0.0000000000000000E+00 
    0.0000000000000000E+00     1.2500000000052031E-01     0.0000000000000000E+00 
    0.0000000000000000E+00     6.2500000000260125E-02     0.0000000000000000E+00 
    6.2499999999897131E-02     6.2500000000235922E-02     0.0000000000000000E+00 
    6.2499999999921327E-02     1.2500000000047351E-01     0.0000000000000000E+00 
    6.2499999999945530E-02     1.8750000000070621E-01     0.0000000000000000E+00 
    6.2499999999969733E-02     2.5000000000093858E-01     0.0000000000000000E+00 
    6.2499999999993928E-02     3.1250000000117117E-01     0.0000000000000000E+00 
    6.2500000000018124E-02     3.7500000000140382E-01     0.0000000000000000E+00 
    6.2500000000042327E-02     4.3750000000163619E-01     0.0000000000000000E+00 
    6.2500000000066530E-02     5.0000000000184897E-01     0.0000000000000000E+00 
    6.2500000000090733E-02     5.6250000000147260E-01     0.0000000000000000E+00 
    6.2500000000114922E-02     6.2500000000107636E-01     0.0000000000000000E+00 
    6.2500000000139125E-02     6.8750000000068034E-01     0.0000000000000000E+00 
    6.2500000000163328E-02     7.5000000000028411E-01     0.0000000000000000E+00 
    6.2500000000187531E-02     8.1249999999988787E-01     0.0000000000000000E+00 
    6.2500000000211720E-02     8.7499999999951172E-01     0.0000000000000000E+00 
    6.2500000000235922E-02     9.3749999999974565E-01     0.0000000000000000E+00 
    1.2499999999981980E-01     6.2500000000211733E-02     0.0000000000000000E+00 
    1.2499999999986650E-01     1.2500000000042691E-01     0.0000000000000000E+00 
    1.2499999999991319E-01     1.8750000000063199E-01     0.0000000000000000E+00 
    1.2499999999995989E-01     2.5000000000083678E-01     0.0000000000000000E+00 
    1.2500000000000661E-01     3.1250000000104172E-01     0.0000000000000000E+00 
    1.2500000000005329E-01     3.7500000000124661E-01     0.0000000000000000E+00 
    1.2500000000010000E-01     4.3750000000145117E-01     0.0000000000000000E+00 
    1.2500000000014669E-01     5.0000000000163858E-01     0.0000000000000000E+00 
    1.2500000000019340E-01     5.6250000000129741E-01     0.0000000000000000E+00 
    1.2500000000024011E-01     6.2500000000093847E-01     0.0000000000000000E+00 
    1.2500000000028680E-01     6.8750000000057998E-01     0.0000000000000000E+00 
    1.2500000000033351E-01     7.5000000000022127E-01     0.0000000000000000E+00 
    1.2500000000038020E-01     8.1249999999986211E-01     0.0000000000000000E+00 
    1.2500000000042691E-01     8.7499999999952238E-01     0.0000000000000000E+00 
    1.2500000000047359E-01     9.3749999999975164E-01     0.0000000000000000E+00 
    1.8749999999966760E-01     6.2500000000187531E-02     0.0000000000000000E+00 
    1.8749999999974179E-01     1.2500000000038020E-01     0.0000000000000000E+00 
    1.8749999999981601E-01     1.8750000000055780E-01     0.0000000000000000E+00 
    1.8749999999989009E-01     2.5000000000073502E-01     0.0000000000000000E+00 
    1.8749999999996431E-01     3.1250000000091221E-01     0.0000000000000000E+00 
    1.8750000000003850E-01     3.7500000000108941E-01     0.0000000000000000E+00 
    1.8750000000011269E-01     4.3750000000126649E-01     0.0000000000000000E+00 
    1.8750000000018691E-01     5.0000000000142808E-01     0.0000000000000000E+00 
    1.8750000000026110E-01     5.6250000000112244E-01     0.0000000000000000E+00 
    1.8750000000033529E-01     6.2500000000080080E-01     0.0000000000000000E+00 
    1.8750000000040951E-01     6.8750000000047962E-01     0.0000000000000000E+00 
    1.8750000000048361E-01     7.5000000000015843E-01     0.0000000000000000E+00 
    1.8750000000055780E-01     8.1249999999983680E-01     0.0000000000000000E+00 
    1.8750000000063199E-01     8.7499999999953304E-01     0.0000000000000000E+00 
    1.8750000000070621E-01     9.3749999999975764E-01     0.0000000000000000E+00 
    2.4999999999951281E-01     6.2500000000163314E-02     0.0000000000000000E+00 
    2.4999999999961461E-01     1.2500000000033351E-01     0.0000000000000000E+00 
    2.4999999999971650E-01     1.8750000000048361E-01     0.0000000000000000E+00 
    2.4999999999981831E-01     2.5000000000063310E-01     0.0000000000000000E+00 
    2.4999999999992020E-01     3.1250000000078260E-01     0.0000000000000000E+00 
    2.5000000000002198E-01     3.7500000000093209E-01     0.0000000000000000E+00 
    2.5000000000012390E-01     4.3750000000108180E-01     0.0000000000000000E+00 
    2.5000000000022571E-01     5.0000000000121769E-01     0.0000000000000000E+00 
    2.5000000000032763E-01     5.6250000000094724E-01     0.0000000000000000E+00 
    2.5000000000042938E-01     6.2500000000066314E-01     0.0000000000000000E+00 
    2.5000000000053119E-01     6.8750000000037925E-01     0.0000000000000000E+00 
[...]
CELL_DATA 256 
SCALARS Pressure double 1 
LOOKUP_TABLE default 

    1.0557802493182773E+00 
    1.0433422075350542E+00 
    1.0302630681353884E+00 
    1.0179673465989925E+00 
    1.0088025554497055E+00 
    1.0032510047943914E+00 
    9.9478883714334709E-01 
    9.8815856385165668E-01 
    9.8335748347343110E-01 
    9.7936517899920672E-01 
    9.7477505333494952E-01 
    9.7023500520849482E-01 
    9.6577318735746198E-01 
    9.6155947085162141E-01 
    9.5780230210078776E-01 
    9.5510687049319798E-01 
    1.0061554259795542E+00 
    1.0023650638118615E+00 
    9.9764493366101359E-01 
    9.9227118736874853E-01 
    9.8653624554764374E-01 
    9.7991860026347322E-01 
    9.7331497849444149E-01 
    9.6872795618807883E-01 
    9.6354164857759605E-01 
    9.5846586962503366E-01 
    9.5426351258477982E-01 
    9.5004527444313169E-01 
    9.4586696189536534E-01 
    9.4288771342318456E-01 
    9.4094446076079685E-01 
    9.3969711432826042E-01 
    9.6582173792367099E-01 
    9.6386783012634059E-01 
    9.6142020734192613E-01 
    9.5814550912392826E-01 
    9.5381611247998443E-01 
    9.4833533042249596E-01 
    9.4292648070337892E-01 
    9.3882129060683384E-01 
    9.3350866402662824E-01 
    9.2839375042955041E-01 
    9.2434327643001557E-01 
    9.2007178414733126E-01 
    9.1610500362970015E-01 
    9.1402957034732069E-01 
    9.1346261688238406E-01 
    9.1353392264285016E-01 
    9.2230830583362189E-01 
    9.2200848587986173E-01 
    9.2128413068543180E-01 
    9.1961560366719552E-01 
    9.1665046875438116E-01 
    9.1234443556687839E-01 
    9.0786301327732855E-01 
    9.0397635764420969E-01 
    8.9888459644492236E-01 
    8.9406395340867484E-01 
    8.9006602670097112E-01 
    8.8568055994532624E-01 
    8.8207605748740503E-01 
    8.8063597872969857E-01 
    8.8089788490321341E-01 
    8.8148658773407074E-01 
    8.8105696908304876E-01 
    8.8256719225548963E-01 
    8.8148084660604598E-01 
    8.7962403352937779E-01 
    8.7671423974598828E-01 
    8.7273975908514989E-01 
    8.6871141328079260E-01 
    8.6565776591140109E-01 
    8.6126753989327198E-01 
    8.5694898529084207E-01 
    8.5314154658221764E-01 
    8.4938709625814579E-01 
    8.4633360842243321E-01 
    8.4511783309661337E-01 
    8.4500285361882677E-01 
    8.4441155983223837E-01 
    8.3788918581423766E-01 
    8.3624687526908525E-01 
    8.3346712063326056E-01 
    8.2976379060673922E-01 
    8.2625564675040897E-01 
    8.2387644975748997E-01 
    8.2206367072409192E-01 
    8.1986489353664149E-01 
    8.1711551608986466E-01 
    8.1432202762020967E-01 
    8.1127146997349942E-01 
    8.0814449374657960E-01 
    8.0535686861205802E-01 
    8.0289801780394632E-01 
    8.0072162351108123E-01 
    7.9915484155833405E-01 
    7.7845040627935391E-01 
    7.7786734760815612E-01 
    7.7639013500732879E-01 
    7.7432216994956016E-01 
    7.7221241135662688E-01 
    7.7009523898760013E-01 
    7.6670284053385784E-01 
    7.6218478784294630E-01 
    7.5886728153467808E-01 
    7.5614084059708198E-01 
    7.5326409880190781E-01 
    7.5054614280938059E-01 
    7.4874967130217718E-01 
    7.4751890694210199E-01 
    7.4695506906058118E-01 
    7.4668659749121657E-01 
    7.1376534397913094E-01 
    7.1391652679955797E-01 
    7.1316257206641942E-01 
    7.1165981617929108E-01 
    7.0949140815682199E-01 
    7.0669093302082298E-01 
    7.0310389034660847E-01 
    6.9918071850536734E-01 
    6.9596660720716530E-01 
    6.9375100833481373E-01 
    6.9174961238277033E-01 
    6.8981869496507875E-01 
    6.8837965055834649E-01 
    6.8815562525379759E-01 
    6.8911166681472524E-01 
    6.9009919428956890E-01 
    6.4690879180304994E-01 
    6.4713409323458759E-01 
    6.4613490629672321E-01 
    6.4492095669863725E-01 
    6.4327436073772248E-01 
    6.4138485755788321E-01 
    6.3920043706645824E-01 
    6.3717762268111133E-01 
    6.3509882286803487E-01 
    6.3389118591335558E-01 
    6.3288867650975333E-01 
    6.3176141724860368E-01 
    6.3072501303774986E-01 
    6.3110053715358927E-01 
    6.3241675837509737E-01 
    6.3284357771715072E-01 
    5.8593625662932236E-01 
    5.8535926225578827E-01 
    5.8403839173514105E-01 
    5.8249547583031069E-01 
    5.8115744506843625E-01 
    5.8000829938994314E-01 
    5.7877782282195989E-01 
    5.7799947364367277E-01 
    5.7779641677435878E-01 
    5.7814479717648015E-01 
    5.7856537451006307E-01 
    5.7781149275471000E-01 
    5.7655933537410275E-01 
    5.7504308098693546E-01 
    5.7346868831891507E-01 
    5.7250954812353738E-01 
    5.2767924657717591E-01 
    5.2727459326657944E-01 
    5.2648481844995565E-01 
    5.2569210948485323E-01 
    5.2491842098038488E-01 
    5.2357128828980615E-01 
    5.2121406954456850E-01 
    5.1948334000683549E-01 
    5.1854341061810472E-01 
    5.1711167011528558E-01 
    5.1491673464530585E-01 
    5.1272696028208986E-01 
    5.1125396964560943E-01 
    5.1001175999763704E-01 
    5.0932297612511535E-01 
    5.0895931949629614E-01 
    4.7559282961384641E-01 
    4.7524517223205809E-01 
    4.7440290797323231E-01 
    4.7306129868164981E-01 
    4.7117651564088187E-01 
    4.6878727435983797E-01 
    4.6607850535568718E-01 
    4.6265812787789645E-01 
    4.5847113613180068E-01 
    4.5386077300378369E-01 
    4.4959521111307882E-01 
    4.4570708814339621E-01 
    4.4249673666361244E-01 
    4.4074133638124058E-01 
    4.4055891014205179E-01 
    4.4107223521447236E-01 
    4.2527565563046255E-01 
    4.2471958807223442E-01 
    4.2340140369093821E-01 
    4.2113856094893420E-01 
    4.1801074063764132E-01 
    4.1434918072349169E-01 
    4.1026909318420690E-01 
    4.0468014282291714E-01 
    3.9776215270628767E-01 
    3.9055722531561810E-01 
    3.8383882792056112E-01 
    3.7748844446572005E-01 
    3.7220050565011181E-01 
    3.6939402432139340E-01 
    3.6910948624965090E-01 
    3.7006373882553206E-01 
    3.7589258876184373E-01 
    3.7508904621350569E-01 
    3.7325358105499828E-01 
    3.7004350119982415E-01 
    3.6559608944710870E-01 
    3.6045728594269710E-01 
    3.5488412955544624E-01 
    3.4738498782214317E-01 
    3.3812182095076332E-01 
    3.2845590591054391E-01 
    3.1907489838126979E-01 
    3.0990175844635004E-01 
    3.0176803911449657E-01 
    2.9643037335353895E-01 
    2.9393707490588833E-01 
    2.9324448565398659E-01 
    3.3080650254876043E-01 
    3.2980788081756696E-01 
    3.2755361417543444E-01 
    3.2354505830955871E-01 
    3.1793302292156794E-01 
    3.1148299297764093E-01 
    3.0477541627905985E-01 
    2.9603821884866355E-01 
    2.8508171848937930E-01 
    2.7296655421674237E-01 
    2.6012112443061436E-01 
    2.4634384286499331E-01 
    2.3166932281546407E-01 
    2.1727648940057462E-01 
    2.0399333776193207E-01 
    1.9426326296744445E-01 
    3.0204329844990124E-01 
    3.0084838777112327E-01 
    2.9822246280772829E-01 
    2.9366923764336933E-01 
    2.8736229606399688E-01 
    2.8028416964051062E-01 
    2.7348415060561487E-01 
    2.6496551181869593E-01 
    2.5302924471195093E-01 
    2.3713051395724821E-01 
    2.1856535400185742E-01 
    1.9577835812525671E-01 
    1.6454819007029980E-01 
    1.2235584285858402E-01 
    6.8031691398619934E-02 
    0.0000000000000000E+00 

SCALARS Saturarion double 1 
LOOKUP_TABLE default 

    1.0000000057272740E+00 
    9.5328945661697284E-01 
    8.8253269802633638E-01 
    8.1751021182190975E-01 
    7.5588231604603318E-01 
    6.9803186590101396E-01 
    6.4517077815764601E-01 
    5.9125556913882893E-01 
    5.3689023915607570E-01 
    4.8540131854433949E-01 
    4.2395666874083238E-01 
    6.8183494310465984E-02 
    1.0000061571201655E-06 
    1.0000000000061346E-06 
    9.9999999999999995E-07 
    9.9999999999999995E-07 
    9.0103075956069634E-01 
    8.7808280741044020E-01 
    8.2838546042365013E-01 
    7.7676575542325743E-01 
    7.2624683438250803E-01 
    6.7543047066808060E-01 
    6.3044628489310062E-01 
    5.8422085342331465E-01 
    5.3817926944575478E-01 
    4.9429882185238461E-01 
    4.3912353212632027E-01 
    1.1730578195328287E-01 
    1.0781350086166608E-05 
    1.0000217761339838E-06 
    9.9999999999999720E-07 
    9.9999999999999995E-07 
    7.6890852806715648E-01 
    7.6071289330280478E-01 
    7.3688468400089202E-01 
    7.0658577288747859E-01 
    6.7338007519059628E-01 
    6.3744700612936445E-01 
    6.0003677302849356E-01 
    5.6379329875827011E-01 
    5.2680935231686365E-01 
    4.8696225435173912E-01 
    4.2584574076484349E-01 
    8.9888863090020102E-02 
    4.1499172373636568E-05 
    1.0002424113724903E-06 
    1.0000000000000016E-06 
    9.9999999999999995E-07 
    6.6805257086489112E-01 
    6.6319898051642345E-01 
    6.4926104790130623E-01 
    6.3039323393624724E-01 
    6.1434655170438024E-01 
    5.8930086085838762E-01 
    5.6052738854463480E-01 
    5.3353481231656252E-01 
    5.0326287378564050E-01 
    4.6937872875688963E-01 
    3.6563787704518064E-01 
    2.8782655324845984E-02 
    1.8389638658312880E-05 
    1.0000194536272888E-06 
    1.0000000000000021E-06 
    9.9999999999999995E-07 
    5.9055853225573185E-01 
    5.8742628950264930E-01 
    5.8052591439139178E-01 
    5.6966791723726162E-01 
    5.5493060228951185E-01 
    5.3907291690197323E-01 
    5.1810601402256251E-01 
    4.9497697058934653E-01 
    4.7291531773497181E-01 
    4.3392903342501499E-01 
    1.9770469454409578E-01 
    7.4524451333218790E-04 
    1.0604132375843313E-06 
    1.0000000008337703E-06 
    1.0000000000000006E-06 
    9.9999999999999995E-07 
    5.2450881428500640E-01 
    5.2172132340360577E-01 
    5.1614133008337848E-01 
    5.1198465705566587E-01 
    5.0228560425346336E-01 
    4.9121477341155328E-01 
    4.7521646607526014E-01 
    4.5100588336664132E-01 
    3.9516300791874931E-01 
    2.2342423524590885E-01 
    1.4337882679888583E-02 
    7.1134267726049946E-06 
    1.0000021178032643E-06 
    1.0000000000000057E-06 
    9.9999999999999995E-07 
    9.9999999999999995E-07 
    4.6240260987349258E-01 
    4.6023327820926413E-01 
    4.5545194479408641E-01 
    4.5001812893836846E-01 
    4.4687704514997745E-01 
    4.3357638291107298E-01 
    3.8031813352639193E-01 
    2.3402274932284842E-01 
    6.5775954897057134E-02 
    2.2674377015028113E-03 
    1.0204042443874735E-05 
    1.0000070429080851E-06 
    1.0000000000005393E-06 
    9.9999999999999995E-07 
    9.9999999999999995E-07 
    9.9999999999999995E-07 
    2.6044497714032344E-01 
    2.3816653469419638E-01 
    2.0346928685861862E-01 
    1.5861203119631817E-01 
    1.4661011383900965E-01 
    1.2016181368627406E-01 
    4.1406726790846400E-02 
    1.3276114018260885E-03 
    1.4225178438620573E-04 
    1.3240008251228309E-06 
    1.0000079123001394E-06 
    1.0000000000008747E-06 
    9.9999999999999995E-07 
    9.9999999999999995E-07 
    9.9999999999999995E-07 
    9.9999999999999995E-07 
    4.0791219428032395E-05 
    3.7838926957146016E-05 
    1.4643206371419996E-05 
    3.0269441407531845E-05 
    1.3926542009809877E-06 
    7.5123178779328153E-05 
    5.8060769948689451E-05 
    1.1615570721795220E-06 
    1.0031600707766959E-06 
    1.0000000605945614E-06 
    1.0000000000000419E-06 
    9.9999999999999995E-07 
    9.9999999999999995E-07 
    9.9999999999999995E-07 
    9.9999999999999995E-07 
    9.9999999999999995E-07 
    1.0000000006772676E-06 
    1.0000148213861681E-06 
    1.0001449776095958E-06 
    1.0003857733266334E-06 
    1.0000005497888591E-06 
    1.0014671642805574E-06 
    1.0003885950330116E-06 
    1.0000000237791356E-06 
    1.0000000000000093E-06 
    1.0000000000000057E-06 
    9.9999999999999995E-07 
    9.9999999999999995E-07 
    9.9999999999999995E-07 
    9.9999999999999995E-07 
    9.9999999999999995E-07 
    9.9999999999999995E-07 
    1.0000000000000002E-06 
    1.0000000000022270E-06 
    1.0000000000087636E-06 
    1.0000000000456629E-06 
    9.9999999999999953E-07 
    1.0000000000000220E-06 
    1.0000000000000173E-06 
    1.0000000000000010E-06 
    9.9999999999999995E-07 
    9.9999999999999995E-07 
    9.9999999999999995E-07 
    9.9999999999999995E-07 
    9.9999999999999995E-07 
    9.9999999999999995E-07 
    9.9999999999999995E-07 
    9.9999999999999995E-07 
    9.9999999999999995E-07 
    9.9999999999999995E-07 
    9.9999999999999974E-07 
    1.0000000000000002E-06 
    9.9999999999999995E-07 
    9.9999999999999995E-07 
    9.9999999999999995E-07 
    9.9999999999999995E-07 
    9.9999999999999995E-07 
    9.9999999999999995E-07 
    9.9999999999999995E-07 
    9.9999999999999995E-07 
    9.9999999999999995E-07 
    9.9999999999999995E-07 
    9.9999999999999995E-07 
    9.9999999999999995E-07 
    9.9999999999999995E-07 
    9.9999999999999995E-07 
    9.9999999999999995E-07 
    9.9999999999999995E-07 
    9.9999999999999995E-07 
    9.9999999999999995E-07 
    9.9999999999999995E-07 
    9.9999999999999995E-07 
    9.9999999999999995E-07 
    9.9999999999999995E-07 
    9.9999999999999995E-07 
    9.9999999999999995E-07 
    9.9999999999999995E-07 
    9.9999999999999995E-07 
    9.9999999999999995E-07 
    9.9999999999999995E-07 
    9.9999999999999995E-07 
    9.9999999999999995E-07 
    9.9999999999999995E-07 
    9.9999999999999995E-07 
    9.9999999999999995E-07 
    9.9999999999999995E-07 
    9.9999999999999995E-07 
    9.9999999999999995E-07 
    9.9999999999999995E-07 
    9.9999999999999995E-07 
    9.9999999999999995E-07 
    9.9999999999999995E-07 
    9.9999999999999995E-07 
    9.9999999999999995E-07 
    9.9999999999999995E-07 
    9.9999999999999995E-07 
    9.9999999999999995E-07 
    9.9999999999999995E-07 
    9.9999999999999995E-07 
    9.9999999999999995E-07 
    9.9999999999999995E-07 
    9.9999999999999995E-07 
    9.9999999999999995E-07 
    9.9999999999999995E-07 
    9.9999999999999995E-07 
    9.9999999999999995E-07 
    9.9999999999999995E-07 
    9.9999999999999995E-07 
    9.9999999999999995E-07 
    9.9999999999999995E-07 
    9.9999999999999995E-07 
    9.9999999999999995E-07 
    9.9999999999999995E-07 
    9.9999999999999995E-07 
    9.9999999999999995E-07 
    9.9999999999999995E-07 
    9.9999999999999995E-07 
    9.9999999999999995E-07 
    9.9999999999999995E-07 
    9.9999999999999995E-07 
    9.9999999999999995E-07 
    9.9999999999999995E-07 
    9.9999999999999995E-07 
    9.9999999999999995E-07 
    9.9999999999999995E-07 
    9.9999999999999995E-07 
    9.9999999999999995E-07 
    1.0000000464382160E-06 
