# vtk DataFile Version 2.0
Pressure Field Data 
ASCII 
DATASET UNSTRUCTURED_GRID 

POINTS 289 double 

    0.0000000000000000E+00     0.0000000000000000E+00     0.0000000000000000E+00 
    1.0000000000000000E+00     0.0000000000000000E+00     0.0000000000000000E+00 
    1.0000000000000000E+00     1.0000000000000000E+00     0.0000000000000000E+00 
    0.0000000000000000E+00     1.0000000000000000E+00     0.0000000000000000E+00 
    6.2499999999872928E-02     0.0000000000000000E+00     0.0000000000000000E+00 
    1.2499999999977310E-01     0.0000000000000000E+00     0.0000000000000000E+00 
    1.8749999999959341E-01     0.0000000000000000E+00     0.0000000000000000E+00 
    2.4999999999941089E-01     0.0000000000000000E+00     0.0000000000000000E+00 
    3.1249999999922851E-01     0.0000000000000000E+00     0.0000000000000000E+00 
    3.7499999999904610E-01     0.0000000000000000E+00     0.0000000000000000E+00 
    4.3749999999886358E-01     0.0000000000000000E+00     0.0000000000000000E+00 
    4.9999999999869210E-01     0.0000000000000000E+00     0.0000000000000000E+00 
    5.6249999999884603E-01     0.0000000000000000E+00     0.0000000000000000E+00 
    6.2499999999901090E-01     0.0000000000000000E+00     0.0000000000000000E+00 
    6.8749999999917577E-01     0.0000000000000000E+00     0.0000000000000000E+00 
    7.4999999999934064E-01     0.0000000000000000E+00     0.0000000000000000E+00 
    8.1249999999950551E-01     0.0000000000000000E+00     0.0000000000000000E+00 
    8.7499999999967026E-01     0.0000000000000000E+00     0.0000000000000000E+00 
    9.3749999999983513E-01     0.0000000000000000E+00     0.0000000000000000E+00 
    1.0000000000000000E+00     6.2499999999872928E-02     0.0000000000000000E+00 
    1.0000000000000000E+00     1.2499999999977310E-01     0.0000000000000000E+00 
    1.0000000000000000E+00     1.8749999999959341E-01     0.0000000000000000E+00 
    1.0000000000000000E+00     2.4999999999941089E-01     0.0000000000000000E+00 
    1.0000000000000000E+00     3.1249999999922851E-01     0.0000000000000000E+00 
    1.0000000000000000E+00     3.7499999999904610E-01     0.0000000000000000E+00 
    1.0000000000000000E+00     4.3749999999886358E-01     0.0000000000000000E+00 
    1.0000000000000000E+00     4.9999999999869210E-01     0.0000000000000000E+00 
    1.0000000000000000E+00     5.6249999999884603E-01     0.0000000000000000E+00 
    1.0000000000000000E+00     6.2499999999901090E-01     0.0000000000000000E+00 
    1.0000000000000000E+00     6.8749999999917577E-01     0.0000000000000000E+00 
    1.0000000000000000E+00     7.4999999999934064E-01     0.0000000000000000E+00 
    1.0000000000000000E+00     8.1249999999950551E-01     0.0000000000000000E+00 
    1.0000000000000000E+00     8.7499999999967026E-01     0.0000000000000000E+00 
    1.0000000000000000E+00     9.3749999999983513E-01     0.0000000000000000E+00 
    9.3749999999973976E-01     1.0000000000000000E+00     0.0000000000000000E+00 
    8.7499999999950118E-01     1.0000000000000000E+00     0.0000000000000000E+00 
    8.1249999999991318E-01     1.0000000000000000E+00     0.0000000000000000E+00 
    7.5000000000034706E-01     1.0000000000000000E+00     0.0000000000000000E+00 
    6.8750000000078049E-01     1.0000000000000000E+00     0.0000000000000000E+00 
    6.2500000000121403E-01     1.0000000000000000E+00     0.0000000000000000E+00 
    5.6250000000164757E-01     1.0000000000000000E+00     0.0000000000000000E+00 
    5.0000000000205946E-01     1.0000000000000000E+00     0.0000000000000000E+00 
    4.3750000000182099E-01     1.0000000000000000E+00     0.0000000000000000E+00 
    3.7500000000156092E-01     1.0000000000000000E+00     0.0000000000000000E+00 
    3.1250000000130068E-01     1.0000000000000000E+00     0.0000000000000000E+00 
    2.5000000000104050E-01     1.0000000000000000E+00     0.0000000000000000E+00 
    1.8750000000078040E-01     1.0000000000000000E+00     0.0000000000000000E+00 
    1.2500000000052031E-01     1.0000000000000000E+00     0.0000000000000000E+00 
    6.2500000000260125E-02     1.0000000000000000E+00     0.0000000000000000E+00 
    0.0000000000000000E+00     9.3749999999973976E-01     0.0000000000000000E+00 
    0.0000000000000000E+00     8.7499999999950118E-01     0.0000000000000000E+00 
    0.0000000000000000E+00     8.1249999999991318E-01     0.0000000000000000E+00 
    0.0000000000000000E+00     7.5000000000034706E-01     0.0000000000000000E+00 
    0.0000000000000000E+00     6.8750000000078049E-01     0.0000000000000000E+00 
    0.0000000000000000E+00     6.2500000000121403E-01     0.0000000000000000E+00 
    0.0000000000000000E+00     5.6250000000164757E-01     0.0000000000000000E+00 
    0.0000000000000000E+00     5.0000000000205946E-01     0.0000000000000000E+00 
    0.0000000000000000E+00     4.3750000000182099E-01     0.0000000000000000E+00 
    0.0000000000000000E+00     3.7500000000156092E-01     0.0000000000000000E+00 
    0.0000000000000000E+00     3.1250000000130068E-01     0.0000000000000000E+00 
    0.0000000000000000E+00     2.5000000000104050E-01     0.0000000000000000E+00 
    0.0000000000000000E+00     1.8750000000078040E-01     0.0000000000000000E+00 
    0.0000000000000000E+00     1.2500000000052031E-01     0.0000000000000000E+00 
    0.0000000000000000E+00     6.2500000000260125E-02     0.0000000000000000E+00 
    6.2499999999897131E-02     6.2500000000235922E-02     0.0000000000000000E+00 
    6.2499999999921327E-02     1.2500000000047351E-01     0.0000000000000000E+00 
    6.2499999999945530E-02     1.8750000000070621E-01     0.0000000000000000E+00 
    6.2499999999969733E-02     2.5000000000093858E-01     0.0000000000000000E+00 
    6.2499999999993928E-02     3.1250000000117117E-01     0.0000000000000000E+00 
    6.2500000000018124E-02     3.7500000000140382E-01     0.0000000000000000E+00 
    6.2500000000042327E-02     4.3750000000163619E-01     0.0000000000000000E+00 
    6.2500000000066530E-02     5.0000000000184897E-01     0.0000000000000000E+00 
    6.2500000000090733E-02     5.6250000000147260E-01     0.0000000000000000E+00 
    6.2500000000114922E-02     6.2500000000107636E-01     0.0000000000000000E+00 
    6.2500000000139125E-02     6.8750000000068034E-01     0.0000000000000000E+00 
    6.2500000000163328E-02     7.5000000000028411E-01     0.0000000000000000E+00 
    6.2500000000187531E-02     8.1249999999988787E-01     0.0000000000000000E+00 
    6.2500000000211720E-02     8.7499999999951172E-01     0.0000000000000000E+00 
    6.2500000000235922E-02     9.3749999999974565E-01     0.0000000000000000E+00 
    1.2499999999981980E-01     6.2500000000211733E-02     0.0000000000000000E+00 
    1.2499999999986650E-01     1.2500000000042691E-01     0.0000000000000000E+00 
    1.2499999999991319E-01     1.8750000000063199E-01     0.0000000000000000E+00 
    1.2499999999995989E-01     2.5000000000083678E-01     0.0000000000000000E+00 
    1.2500000000000661E-01     3.1250000000104172E-01     0.0000000000000000E+00 
    1.2500000000005329E-01     3.7500000000124661E-01     0.0000000000000000E+00 
    1.2500000000010000E-01     4.3750000000145117E-01     0.0000000000000000E+00 
    1.2500000000014669E-01     5.0000000000163858E-01     0.0000000000000000E+00 
    1.2500000000019340E-01     5.6250000000129741E-01     0.0000000000000000E+00 
    1.2500000000024011E-01     6.2500000000093847E-01     0.0000000000000000E+00 
    1.2500000000028680E-01     6.8750000000057998E-01     0.0000000000000000E+00 
    1.2500000000033351E-01     7.5000000000022127E-01     0.0000000000000000E+00 
    1.2500000000038020E-01     8.1249999999986211E-01     0.0000000000000000E+00 
    1.2500000000042691E-01     8.7499999999952238E-01     0.0000000000000000E+00 
    1.2500000000047359E-01     9.3749999999975164E-01     0.0000000000000000E+00 
    1.8749999999966760E-01     6.2500000000187531E-02     0.0000000000000000E+00 
    1.8749999999974179E-01     1.2500000000038020E-01     0.0000000000000000E+00 
    1.8749999999981601E-01     1.8750000000055780E-01     0.0000000000000000E+00 
    1.8749999999989009E-01     2.5000000000073502E-01     0.0000000000000000E+00 
    1.8749999999996431E-01     3.1250000000091221E-01     0.0000000000000000E+00 
    1.8750000000003850E-01     3.7500000000108941E-01     0.0000000000000000E+00 
    1.8750000000011269E-01     4.3750000000126649E-01     0.0000000000000000E+00 
    1.8750000000018691E-01     5.0000000000142808E-01     0.0000000000000000E+00 
    1.8750000000026110E-01     5.6250000000112244E-01     0.0000000000000000E+00 
    1.8750000000033529E-01     6.2500000000080080E-01     0.0000000000000000E+00 
    1.8750000000040951E-01     6.8750000000047962E-01     0.0000000000000000E+00 
    1.8750000000048361E-01     7.5000000000015843E-01     0.0000000000000000E+00 
    1.8750000000055780E-01     8.1249999999983680E-01     0.0000000000000000E+00 
    1.8750000000063199E-01     8.7499999999953304E-01     0.0000000000000000E+00 
    1.8750000000070621E-01     9.3749999999975764E-01     0.0000000000000000E+00 
    2.4999999999951281E-01     6.2500000000163314E-02     0.0000000000000000E+00 
    2.4999999999961461E-01     1.2500000000033351E-01     0.0000000000000000E+00 
    2.4999999999971650E-01     1.8750000000048361E-01     0.0000000000000000E+00 
    2.4999999999981831E-01     2.5000000000063310E-01     0.0000000000000000E+00 
    2.4999999999992020E-01     3.1250000000078260E-01     0.0000000000000000E+00 
    2.5000000000002198E-01     3.7500000000093209E-01     0.0000000000000000E+00 
    2.5000000000012390E-01     4.3750000000108180E-01     0.0000000000000000E+00 
    2.5000000000022571E-01     5.0000000000121769E-01     0.0000000000000000E+00 
    2.5000000000032763E-01     5.6250000000094724E-01     0.0000000000000000E+00 
    2.5000000000042938E-01     6.2500000000066314E-01     0.0000000000000000E+00 
    2.5000000000053119E-01     6.8750000000037925E-01     0.0000000000000000E+00 
[...]
CELL_DATA 256 
SCALARS Pressure double 1 
LOOKUP_TABLE default 

    1.0909706964996335E+00 
    1.0783465094417950E+00 
    1.0647429326410447E+00 
    1.0517724234648580E+00 
    1.0420315354043055E+00 
    1.0356802501625793E+00 
    1.0266906403953340E+00 
    1.0196366068939937E+00 
    1.0141113339030137E+00 
    1.0087465458792688E+00 
    1.0027819226482386E+00 
    9.9732402023138889E-01 
    9.9236271040295077E-01 
    9.8764922611757378E-01 
    9.8348846872065843E-01 
    9.8040949212447837E-01 
    1.0397463404036165E+00 
    1.0356818691003382E+00 
    1.0305292333964788E+00 
    1.0245474783052355E+00 
    1.0180267446077746E+00 
    1.0105652710557482E+00 
    1.0034053256979305E+00 
    9.9803285544080023E-01 
    9.9183499240570261E-01 
    9.8564225594570276E-01 
    9.7982109054137700E-01 
    9.7430838020841903E-01 
    9.6976297045646276E-01 
    9.6642078066686710E-01 
    9.6424390493876933E-01 
    9.6280658831283561E-01 
    9.9667504644767979E-01 
    9.9448193756704961E-01 
    9.9165984210835156E-01 
    9.8778375486307513E-01 
    9.8258695127356355E-01 
    9.7611377435220559E-01 
    9.6985406034125443E-01 
    9.6463607854169298E-01 
    9.5813217032619913E-01 
    9.5163652469896387E-01 
    9.4561683206949099E-01 
    9.4015071728976507E-01 
    9.3592342327011879E-01 
    9.3358814436989812E-01 
    9.3291067000385175E-01 
    9.3297160755170461E-01 
    9.4966340893856183E-01 
    9.4918096437599841E-01 
    9.4807278702925524E-01 
    9.4570964930691614E-01 
    9.4167563080190486E-01 
    9.3609266556156223E-01 
    9.3041355668472447E-01 
    9.2509736878683912E-01 
    9.1839207620062102E-01 
    9.1157763146885684E-01 
    9.0575668698423595E-01 
    9.0085005841956611E-01 
    8.9709068215341203E-01 
    8.9555835186600674E-01 
    8.9587456854081948E-01 
    8.9662844970355737E-01 
    9.0382992139031770E-01 
    9.0471966643151058E-01 
    9.0292320573368012E-01 
    9.0014872472775942E-01 
    8.9600083486939364E-01 
    8.9072928321889999E-01 
    8.8534748098144112E-01 
    8.8010651243521698E-01 
    8.7351999850467688E-01 
    8.6763910799112220E-01 
    8.6336365828875972E-01 
    8.5977844364761491E-01 
    8.5679372586763691E-01 
    8.5573210984149439E-01 
    8.5584787606035662E-01 
    8.5547647707973562E-01 
    8.4997663020679304E-01 
    8.4803625166014451E-01 
    8.4476586974354095E-01 
    8.4062679004210183E-01 
    8.3670447543483228E-01 
    8.3342037595483121E-01 
    8.2985855716782420E-01 
    8.2574547687742073E-01 
    8.2212262118798740E-01 
    8.1963350975652416E-01 
    8.1749125459753669E-01 
    8.1497863774053991E-01 
    8.1254057455936035E-01 
    8.1032910550741599E-01 
    8.0829316231543291E-01 
    8.0677919534514531E-01 
    7.7543290217968353E-01 
    7.7469686711839636E-01 
    7.7317787892831613E-01 
    7.7135216942177665E-01 
    7.6952940035247896E-01 
    7.6734689223711505E-01 
    7.6412510360128649E-01 
    7.6103197988197113E-01 
    7.5955709276776517E-01 
    7.5844671028138400E-01 
    7.5658847904608861E-01 
    7.5450456156237733E-01 
    7.5319355683621347E-01 
    7.5226690924905837E-01 
    7.5185723143515582E-01 
    7.5161491316820650E-01 
    7.0392971812910854E-01 
    7.0441343920353905E-01 
    7.0447769122091231E-01 
    7.0424925766828106E-01 
    7.0360068726224256E-01 
    7.0242763276845877E-01 
    7.0059372916122797E-01 
    6.9843983538738130E-01 
    6.9654695377347686E-01 
    6.9510780852546450E-01 
    6.9361081225397780E-01 
    6.9209889997443275E-01 
    6.9101694848015172E-01 
    6.9101865283240360E-01 
    6.9210088872430853E-01 
    6.9311887237115211E-01 
    6.4445281413500255E-01 
    6.4487079686735105E-01 
    6.4424868838266236E-01 
    6.4351984797840356E-01 
    6.4233435555280138E-01 
    6.4079841456310394E-01 
    6.3896816266186762E-01 
    6.3733438766784323E-01 
    6.3560348835486813E-01 
    6.3467613440702675E-01 
    6.3393447670364667E-01 
    6.3304123357501696E-01 
    6.3219474951614918E-01 
    6.3271650179798400E-01 
    6.3414289063985518E-01 
    6.3462142092664675E-01 
    5.8504909179289655E-01 
    5.8450669045720782E-01 
    5.8329857152001852E-01 
    5.8190119211716307E-01 
    5.8069582171678669E-01 
    5.7966578804281677E-01 
    5.7858434711293283E-01 
    5.7798711639588796E-01 
    5.7799088654925534E-01 
    5.7854795680228566E-01 
    5.7916791687482549E-01 
    5.7857192955908709E-01 
    5.7743922895968525E-01 
    5.7600826690302087E-01 
    5.7448105761213653E-01 
    5.7354610565170572E-01 
    5.2747069320626716E-01 
    5.2705275980672961E-01 
    5.2626967989122853E-01 
    5.2549141384953690E-01 
    5.2473906454375485E-01 
    5.2343366129444380E-01 
    5.2115044841487812E-01 
    5.1949975015365757E-01 
    5.1865759429861857E-01 
    5.1734301646983616E-01 
    5.1527752536714233E-01 
    5.1319458503092563E-01 
    5.1180408521082998E-01 
    5.1060823077338846E-01 
    5.0993473513783361E-01 
    5.0958132971281545E-01 
    4.7562653841778468E-01 
    4.7526416767051177E-01 
    4.7441747425153735E-01 
    4.7307718452764103E-01 
    4.7119584701179357E-01 
    4.6880812893230978E-01 
    4.6610304746334308E-01 
    4.6273270686497875E-01 
    4.5860535111109235E-01 
    4.5405851460136221E-01 
    4.4985261939534393E-01 
    4.4603521098389420E-01 
    4.4287372927527524E-01 
    4.4113719575335059E-01 
    4.4095271879170295E-01 
    4.4146720339503465E-01 
    4.2538769498343404E-01 
    4.2482143484028140E-01 
    4.2349943188368161E-01 
    4.2123531378561963E-01 
    4.1810415192477696E-01 
    4.1443407302488139E-01 
    4.1034887501185824E-01 
    4.0478980981734936E-01 
    3.9790399942044663E-01 
    3.9072980848844224E-01 
    3.8404034118672736E-01 
    3.7772956521573076E-01 
    3.7246544077154303E-01 
    3.6966302458221961E-01 
    3.6937142701790743E-01 
    3.7032475678497401E-01 
    3.7601740074850493E-01 
    3.7520878901477245E-01 
    3.7337236830220294E-01 
    3.7016261310111281E-01 
    3.6571345446859782E-01 
    3.6056920126922765E-01 
    3.5499284730624181E-01 
    3.4750875147311439E-01 
    3.3825841865935385E-01 
    3.2860162183476288E-01 
    3.1922863268638368E-01 
    3.1006985834125711E-01 
    3.0194180571850354E-01 
    2.9660134965965257E-01 
    2.9410357847682805E-01 
    2.9341323953034137E-01 
    3.3090529630365656E-01 
    3.2990878731848700E-01 
    3.2765958852021887E-01 
    3.2365711089443339E-01 
    3.1804932906642830E-01 
    3.1160033321029662E-01 
    3.0489459873590413E-01 
    2.9616162677123647E-01 
    2.8520324956863269E-01 
    2.7308034238474738E-01 
    2.6022694307969374E-01 
    2.4644466551567670E-01 
    2.3176402043483524E-01 
    2.1736691091120303E-01 
    2.0408403099901581E-01 
    1.9435764647958820E-01 
    3.0209213459769174E-01 
    3.0091174837622298E-01 
    2.9830197181036910E-01 
    2.9376547301467987E-01 
    2.8746932507597911E-01 
    2.8039103211039151E-01 
    2.7359904005555757E-01 
    2.6508072723581227E-01 
    2.5313413967094672E-01 
    2.3721484443421986E-01 
    2.1863432194397697E-01 
    1.9583476325460686E-01 
    1.6459394322135407E-01 
    1.2239268183749952E-01 
    6.8055847629343913E-02 
    0.0000000000000000E+00 

SCALARS Saturarion double 1 
LOOKUP_TABLE default 

    1.0000000084318461E+00 
    9.4009971290735572E-01 
    8.5588529757914344E-01 
    7.8080736216522728E-01 
    7.1457299609130964E-01 
    6.5489135165081058E-01 
    5.9955143023603430E-01 
    5.4542131624616708E-01 
    4.9403336335401904E-01 
    4.2597354501521761E-01 
    6.6727318780957556E-02 
    1.0000790465904836E-06 
    1.0000000000446530E-06 
    9.9999999999999974E-07 
    9.9999999999999995E-07 
    9.9999999999999995E-07 
    8.8027703556493053E-01 
    8.5315893160419387E-01 
    7.9633592072439496E-01 
    7.4057893421628640E-01 
    6.8480206382475872E-01 
    6.3374044794077744E-01 
    5.8469096076320581E-01 
    5.3968252906498593E-01 
    4.9609173105448084E-01 
    4.3615747735737898E-01 
    1.1266326618794041E-01 
    1.0958357555816924E-06 
    1.0000000471276686E-06 
    9.9999999999999678E-07 
    9.9999999999999995E-07 
    9.9999999999999995E-07 
    7.3229584189518904E-01 
    7.2333181195978047E-01 
    6.9598333540247159E-01 
    6.6502875174586429E-01 
    6.3159684975384667E-01 
    5.9119555586438033E-01 
    5.5329847600424675E-01 
    5.1694384492660117E-01 
    4.8071193713840432E-01 
    3.9920157693039493E-01 
    5.4716561042872959E-02 
    4.4038120550371390E-05 
    1.0001868504301650E-06 
    1.0000000000000021E-06 
    9.9999999999999995E-07 
    9.9999999999999995E-07 
    6.2510411913072761E-01 
    6.2024749827024361E-01 
    6.0478057755713210E-01 
    5.8571218428404648E-01 
    5.6675080007657397E-01 
    5.3938681311653269E-01 
    5.0949196190257973E-01 
    4.8054822487026433E-01 
    4.4230974101402881E-01 
    2.4420254555514720E-01 
    2.6864470471181100E-03 
    1.2636943099741617E-06 
    1.0000000399352993E-06 
    1.0000000000000008E-06 
    9.9999999999999995E-07 
    9.9999999999999995E-07 
    5.3242405928191516E-01 
    5.2925386923471851E-01 
    5.2435774047118788E-01 
    5.1580557308947272E-01 
    5.0239133238293643E-01 
    4.8720034028082204E-01 
    4.6353724580001970E-01 
    4.1401679081023218E-01 
    2.5558070753782786E-01 
    2.4888723365802803E-02 
    2.7846115273808725E-05 
    1.0000374407021927E-06 
    1.0000000000000201E-06 
    9.9999999999999995E-07 
    9.9999999999999995E-07 
    9.9999999999999995E-07 
    4.5659730348572758E-01 
    4.5318169862665653E-01 
    4.4533153018286009E-01 
    4.3294888860989322E-01 
    4.2352012235434222E-01 
    3.7618115391089302E-01 
    2.4243695697037712E-01 
    8.3332213134684183E-02 
    5.1773592623851269E-03 
    3.0297565546699896E-05 
    1.0000826872890737E-06 
    1.0000000000073566E-06 
    9.9999999999999995E-07 
    9.9999999999999995E-07 
    9.9999999999999995E-07 
    9.9999999999999995E-07 
    1.5455953911095344E-01 
    1.3244383431139053E-01 
    9.9578065791111073E-02 
    6.1336739637988649E-02 
    5.1486076185761412E-02 
    2.7458287870347511E-02 
    1.2037959903487443E-03 
    2.1475361268969096E-04 
    1.9439081476619395E-06 
    1.0000619460729708E-06 
    1.0000000000063893E-06 
    9.9999999999999995E-07 
    9.9999999999999995E-07 
    9.9999999999999995E-07 
    9.9999999999999995E-07 
    9.9999999999999995E-07 
    1.0000013386275398E-06 
    6.7274329527739631E-06 
    1.7273238828354905E-05 
    2.3372550768855761E-05 
    2.7348720661606542E-06 
    1.7627618512056095E-05 
    1.0957672143255095E-06 
    1.0085549435533892E-06 
    1.0000002468581153E-06 
    1.0000000000000677E-06 
    9.9999999999999995E-07 
    9.9999999999999995E-07 
    9.9999999999999995E-07 
    9.9999999999999995E-07 
    9.9999999999999995E-07 
    9.9999999999999995E-07 
    1.0000000000015507E-06 
    1.0000144767414816E-06 
    1.0000763150598040E-06 
    1.0000913288039601E-06 
    1.0000014137626455E-06 
    1.0000298602920458E-06 
    1.0000000263770847E-06 
    1.0000000000000029E-06 
    1.0000000000000019E-06 
    9.9999999999999995E-07 
    9.9999999999999995E-07 
    9.9999999999999995E-07 
    9.9999999999999995E-07 
    9.9999999999999995E-07 
    9.9999999999999995E-07 
    9.9999999999999995E-07 
    9.9999999999999995E-07 
    1.0000000000015341E-06 
    9.9999999999999974E-07 
    9.9999999999999953E-07 
    9.9999999999999974E-07 
    1.0000000000000256E-06 
    1.0000000000000010E-06 
    9.9999999999999995E-07 
    9.9999999999999995E-07 
    9.9999999999999995E-07 
    9.9999999999999995E-07 
    9.9999999999999995E-07 
    9.9999999999999995E-07 
    9.9999999999999995E-07 
    9.9999999999999995E-07 
    9.9999999999999995E-07 
    9.9999999999999995E-07 
    9.9999999999999995E-07 
    9.9999999999999995E-07 
    9.9999999999999995E-07 
    9.9999999999999995E-07 
    9.9999999999999995E-07 
    9.9999999999999995E-07 
    9.9999999999999995E-07 
    9.9999999999999995E-07 
    9.9999999999999995E-07 
    9.9999999999999995E-07 
    9.9999999999999995E-07 
    9.9999999999999995E-07 
    9.9999999999999995E-07 
    9.9999999999999995E-07 
    9.9999999999999995E-07 
    9.9999999999999995E-07 
    9.9999999999999995E-07 
    9.9999999999999995E-07 
    9.9999999999999995E-07 
    9.9999999999999995E-07 
    9.9999999999999995E-07 
    9.9999999999999995E-07 
    9.9999999999999995E-07 
    9.9999999999999995E-07 
    9.9999999999999995E-07 
    9.9999999999999995E-07 
    9.9999999999999995E-07 
    9.9999999999999995E-07 
    9.9999999999999995E-07 
    9.9999999999999995E-07 
    9.9999999999999995E-07 
    9.9999999999999995E-07 
    9.9999999999999995E-07 
    9.9999999999999995E-07 
    9.9999999999999995E-07 
    9.9999999999999995E-07 
    9.9999999999999995E-07 
    9.9999999999999995E-07 
    9.9999999999999995E-07 
    9.9999999999999995E-07 
    9.9999999999999995E-07 
    9.9999999999999995E-07 
    9.9999999999999995E-07 
    9.9999999999999995E-07 
    9.9999999999999995E-07 
    9.9999999999999995E-07 
    9.9999999999999995E-07 
    9.9999999999999995E-07 
    9.9999999999999995E-07 
    9.9999999999999995E-07 
    9.9999999999999995E-07 
    9.9999999999999995E-07 
    9.9999999999999995E-07 
    9.9999999999999995E-07 
    9.9999999999999995E-07 
    9.9999999999999995E-07 
    9.9999999999999995E-07 
    9.9999999999999995E-07 
    9.9999999999999995E-07 
    9.9999999999999995E-07 
    9.9999999999999995E-07 
    9.9999999999999995E-07 
    9.9999999999999995E-07 
    9.9999999999999995E-07 
    9.9999999999999995E-07 
    9.9999999999999995E-07 
    9.9999999999999995E-07 
    9.9999999999999995E-07 
    9.9999999999999995E-07 
    9.9999999999999995E-07 
    9.9999999999999995E-07 
    9.9999999999999995E-07 
    9.9999999999999995E-07 
    9.9999999999999995E-07 
    9.9999999999999995E-07 
    9.9999999999999995E-07 
    9.9999999999999995E-07 
    9.9999999999999995E-07 
    9.9999999999999995E-07 
    9.9999999999999995E-07 
    9.9999999999999995E-07 
    9.9999999999999995E-07 
    9.9999999999999995E-07 
    9.9999999999999995E-07 
    9.9999999999999995E-07 
    9.9999999999999995E-07 
    9.9999999999999995E-07 
    9.9999999999999995E-07 
    9.9999999999999995E-07 
    9.9999999999999995E-07 
    9.9999999999999995E-07 
    9.9999999999999995E-07 
    9.9999999999999995E-07 
    9.9999999999999995E-07 
    1.0000000347646042E-06 
