# vtk DataFile Version 2.0
Pressure Field Data 
ASCII 
DATASET UNSTRUCTURED_GRID 

POINTS 289 double 

    0.0000000000000000E+00     0.0000000000000000E+00     0.0000000000000000E+00 
    1.0000000000000000E+00     0.0000000000000000E+00     0.0000000000000000E+00 
    1.0000000000000000E+00     1.0000000000000000E+00     0.0000000000000000E+00 
    0.0000000000000000E+00     1.0000000000000000E+00     0.0000000000000000E+00 
    6.2499999999872928E-02     0.0000000000000000E+00     0.0000000000000000E+00 
    1.2499999999977310E-01     0.0000000000000000E+00     0.0000000000000000E+00 
    1.8749999999959341E-01     0.0000000000000000E+00     0.0000000000000000E+00 
    2.4999999999941089E-01     0.0000000000000000E+00     0.0000000000000000E+00 
    3.1249999999922851E-01     0.0000000000000000E+00     0.0000000000000000E+00 
    3.7499999999904610E-01     0.0000000000000000E+00     0.0000000000000000E+00 
    4.3749999999886358E-01     0.0000000000000000E+00     0.0000000000000000E+00 
    4.9999999999869210E-01     0.0000000000000000E+00     0.0000000000000000E+00 
    5.6249999999884603E-01     0.0000000000000000E+00     0.0000000000000000E+00 
    6.2499999999901090E-01     0.0000000000000000E+00     0.0000000000000000E+00 
    6.8749999999917577E-01     0.0000000000000000E+00     0.0000000000000000E+00 
    7.4999999999934064E-01     0.0000000000000000E+00     0.0000000000000000E+00 
    8.1249999999950551E-01     0.0000000000000000E+00     0.0000000000000000E+00 
    8.7499999999967026E-01     0.0000000000000000E+00     0.0000000000000000E+00 
    9.3749999999983513E-01     0.0000000000000000E+00     0.0000000000000000E+00 
    1.0000000000000000E+00     6.2499999999872928E-02     0.0000000000000000E+00 
    1.0000000000000000E+00     1.2499999999977310E-01     0.0000000000000000E+00 
    1.0000000000000000E+00     1.8749999999959341E-01     0.0000000000000000E+00 
    1.0000000000000000E+00     2.4999999999941089E-01     0.0000000000000000E+00 
    1.0000000000000000E+00     3.1249999999922851E-01     0.0000000000000000E+00 
    1.0000000000000000E+00     3.7499999999904610E-01     0.0000000000000000E+00 
    1.0000000000000000E+00     4.3749999999886358E-01     0.0000000000000000E+00 
    1.0000000000000000E+00     4.9999999999869210E-01     0.0000000000000000E+00 
    1.0000000000000000E+00     5.6249999999884603E-01     0.0000000000000000E+00 
    1.0000000000000000E+00     6.2499999999901090E-01     0.0000000000000000E+00 
    1.0000000000000000E+00     6.8749999999917577E-01     0.0000000000000000E+00 
    1.0000000000000000E+00     7.4999999999934064E-01     0.0000000000000000E+00 
    1.0000000000000000E+00     8.1249999999950551E-01     0.0000000000000000E+00 
    1.0000000000000000E+00     8.7499999999967026E-01     0.0000000000000000E+00 
    1.0000000000000000E+00     9.3749999999983513E-01     0.0000000000000000E+00 
    9.3749999999973976E-01     1.0000000000000000E+00     0.0000000000000000E+00 
    8.7499999999950118E-01     1.0000000000000000E+00     0.0000000000000000E+00 
    8.1249999999991318E-01     1.0000000000000000E+00     0.0000000000000000E+00 
    7.5000000000034706E-01     1.0000000000000000E+00     0.0000000000000000E+00 
    6.8750000000078049E-01     1.0000000000000000E+00     0.0000000000000000E+00 
    6.2500000000121403E-01     1.0000000000000000E+00     0.0000000000000000E+00 
    5.6250000000164757E-01     1.0000000000000000E+00     0.0000000000000000E+00 
    5.0000000000205946E-01     1.0000000000000000E+00     0.0000000000000000E+00 
    4.3750000000182099E-01     1.0000000000000000E+00     0.0000000000000000E+00 
    3.7500000000156092E-01     1.0000000000000000E+00     0.0000000000000000E+00 
    3.1250000000130068E-01     1.0000000000000000E+00     0.0000000000000000E+00 
    2.5000000000104050E-01     1.0000000000000000E+00     0.0000000000000000E+00 
    1.8750000000078040E-01     1.0000000000000000E+00     0.0000000000000000E+00 
    1.2500000000052031E-01     1.0000000000000000E+00     0.0000000000000000E+00 
    6.2500000000260125E-02     1.0000000000000000E+00     0.0000000000000000E+00 
    0.0000000000000000E+00     9.3749999999973976E-01     0.0000000000000000E+00 
    0.0000000000000000E+00     8.7499999999950118E-01     0.0000000000000000E+00 
    0.0000000000000000E+00     8.1249999999991318E-01     0.0000000000000000E+00 
    0.0000000000000000E+00     7.5000000000034706E-01     0.0000000000000000E+00 
    0.0000000000000000E+00     6.8750000000078049E-01     0.0000000000000000E+00 
    0.0000000000000000E+00     6.2500000000121403E-01     0.0000000000000000E+00 
    0.0000000000000000E+00     5.6250000000164757E-01     0.0000000000000000E+00 
    0.0000000000000000E+00     5.0000000000205946E-01     0.0000000000000000E+00 
    0.0000000000000000E+00     4.3750000000182099E-01     0.0000000000000000E+00 
    0.0000000000000000E+00     3.7500000000156092E-01     0.0000000000000000E+00 
    0.0000000000000000E+00     3.1250000000130068E-01     0.0000000000000000E+00 
    0.0000000000000000E+00     2.5000000000104050E-01     0.0000000000000000E+00 
    0.0000000000000000E+00     1.8750000000078040E-01     0.0000000000000000E+00 
    0.0000000000000000E+00     1.2500000000052031E-01     0.0000000000000000E+00 
    0.0000000000000000E+00     6.2500000000260125E-02     0.0000000000000000E+00 
    6.2499999999897131E-02     6.2500000000235922E-02     0.0000000000000000E+00 
    6.2499999999921327E-02     1.2500000000047351E-01     0.0000000000000000E+00 
    6.2499999999945530E-02     1.8750000000070621E-01     0.0000000000000000E+00 
    6.2499999999969733E-02     2.5000000000093858E-01     0.0000000000000000E+00 
    6.2499999999993928E-02     3.1250000000117117E-01     0.0000000000000000E+00 
    6.2500000000018124E-02     3.7500000000140382E-01     0.0000000000000000E+00 
    6.2500000000042327E-02     4.3750000000163619E-01     0.0000000000000000E+00 
    6.2500000000066530E-02     5.0000000000184897E-01     0.0000000000000000E+00 
    6.2500000000090733E-02     5.6250000000147260E-01     0.0000000000000000E+00 
    6.2500000000114922E-02     6.2500000000107636E-01     0.0000000000000000E+00 
    6.2500000000139125E-02     6.8750000000068034E-01     0.0000000000000000E+00 
    6.2500000000163328E-02     7.5000000000028411E-01     0.0000000000000000E+00 
    6.2500000000187531E-02     8.1249999999988787E-01     0.0000000000000000E+00 
    6.2500000000211720E-02     8.7499999999951172E-01     0.0000000000000000E+00 
    6.2500000000235922E-02     9.3749999999974565E-01     0.0000000000000000E+00 
    1.2499999999981980E-01     6.2500000000211733E-02     0.0000000000000000E+00 
    1.2499999999986650E-01     1.2500000000042691E-01     0.0000000000000000E+00 
    1.2499999999991319E-01     1.8750000000063199E-01     0.0000000000000000E+00 
    1.2499999999995989E-01     2.5000000000083678E-01     0.0000000000000000E+00 
    1.2500000000000661E-01     3.1250000000104172E-01     0.0000000000000000E+00 
    1.2500000000005329E-01     3.7500000000124661E-01     0.0000000000000000E+00 
    1.2500000000010000E-01     4.3750000000145117E-01     0.0000000000000000E+00 
    1.2500000000014669E-01     5.0000000000163858E-01     0.0000000000000000E+00 
    1.2500000000019340E-01     5.6250000000129741E-01     0.0000000000000000E+00 
    1.2500000000024011E-01     6.2500000000093847E-01     0.0000000000000000E+00 
    1.2500000000028680E-01     6.8750000000057998E-01     0.0000000000000000E+00 
    1.2500000000033351E-01     7.5000000000022127E-01     0.0000000000000000E+00 
    1.2500000000038020E-01     8.1249999999986211E-01     0.0000000000000000E+00 
    1.2500000000042691E-01     8.7499999999952238E-01     0.0000000000000000E+00 
    1.2500000000047359E-01     9.3749999999975164E-01     0.0000000000000000E+00 
    1.8749999999966760E-01     6.2500000000187531E-02     0.0000000000000000E+00 
    1.8749999999974179E-01     1.2500000000038020E-01     0.0000000000000000E+00 
    1.8749999999981601E-01     1.8750000000055780E-01     0.0000000000000000E+00 
    1.8749999999989009E-01     2.5000000000073502E-01     0.0000000000000000E+00 
    1.8749999999996431E-01     3.1250000000091221E-01     0.0000000000000000E+00 
    1.8750000000003850E-01     3.7500000000108941E-01     0.0000000000000000E+00 
    1.8750000000011269E-01     4.3750000000126649E-01     0.0000000000000000E+00 
    1.8750000000018691E-01     5.0000000000142808E-01     0.0000000000000000E+00 
    1.8750000000026110E-01     5.6250000000112244E-01     0.0000000000000000E+00 
    1.8750000000033529E-01     6.2500000000080080E-01     0.0000000000000000E+00 
    1.8750000000040951E-01     6.8750000000047962E-01     0.0000000000000000E+00 
    1.8750000000048361E-01     7.5000000000015843E-01     0.0000000000000000E+00 
    1.8750000000055780E-01     8.1249999999983680E-01     0.0000000000000000E+00 
    1.8750000000063199E-01     8.7499999999953304E-01     0.0000000000000000E+00 
    1.8750000000070621E-01     9.3749999999975764E-01     0.0000000000000000E+00 
    2.4999999999951281E-01     6.2500000000163314E-02     0.0000000000000000E+00 
    2.4999999999961461E-01     1.2500000000033351E-01     0.0000000000000000E+00 
    2.4999999999971650E-01     1.8750000000048361E-01     0.0000000000000000E+00 
    2.4999999999981831E-01     2.5000000000063310E-01     0.0000000000000000E+00 
    2.4999999999992020E-01     3.1250000000078260E-01     0.0000000000000000E+00 
    2.5000000000002198E-01     3.7500000000093209E-01     0.0000000000000000E+00 
    2.5000000000012390E-01     4.3750000000108180E-01     0.0000000000000000E+00 
    2.5000000000022571E-01     5.0000000000121769E-01     0.0000000000000000E+00 
    2.5000000000032763E-01     5.6250000000094724E-01     0.0000000000000000E+00 
    2.5000000000042938E-01     6.2500000000066314E-01     0.0000000000000000E+00 
    2.5000000000053119E-01     6.8750000000037925E-01     0.0000000000000000E+00 
[...]
CELL_DATA 256 
SCALARS Pressure double 1 
LOOKUP_TABLE default 

    8.7592749307929541E-01 
    8.6366108513554873E-01 
    8.5143438091908685E-01 
    8.4037716194557022E-01 
    8.3240861656519949E-01 
    8.2901423387545348E-01 
    8.2296447142544438E-01 
    8.1800784336451660E-01 
    8.1455656675921562E-01 
    8.1253858044629945E-01 
    8.0988847109136741E-01 
    8.0727897094745404E-01 
    8.0446881928795910E-01 
    8.0142949705011157E-01 
    7.9869411585863703E-01 
    7.9695142374186823E-01 
    8.3114064254826814E-01 
    8.2775357193822041E-01 
    8.2374006348798523E-01 
    8.1940656925881727E-01 
    8.1511951409886441E-01 
    8.1037571751523219E-01 
    8.0530272690672755E-01 
    8.0230221064400564E-01 
    7.9906409828703573E-01 
    7.9579333249045492E-01 
    7.9297265146552498E-01 
    7.9090523063202989E-01 
    7.8880355769600496E-01 
    7.8709549207436380E-01 
    7.8584204583698281E-01 
    7.8500744380981480E-01 
    7.9832761085427562E-01 
    7.9676034574176202E-01 
    7.9493443394209673E-01 
    7.9266736915310865E-01 
    7.8981023690628704E-01 
    7.8601777193189537E-01 
    7.8181185946384646E-01 
    7.7929699350425219E-01 
    7.7604550610405754E-01 
    7.7263806290459236E-01 
    7.6998262736649825E-01 
    7.6834895244619661E-01 
    7.6669241755238327E-01 
    7.6575297894992378E-01 
    7.6544607725758484E-01 
    7.6542207549447061E-01 
    7.6482918198328931E-01 
    7.6464962924070823E-01 
    7.6432205715505575E-01 
    7.6350470370204182E-01 
    7.6189793122493799E-01 
    7.5909978313649762E-01 
    7.5565834151435129E-01 
    7.5340919220397407E-01 
    7.5035575856448866E-01 
    7.4713052842587235E-01 
    7.4480595761025425E-01 
    7.4358105979789169E-01 
    7.4229469641833412E-01 
    7.4184011345246703E-01 
    7.4208150921838201E-01 
    7.4238908775776802E-01 
    7.3391446745877109E-01 
    7.3596797539265957E-01 
    7.3582272998977649E-01 
    7.3507684101852844E-01 
    7.3359418433010404E-01 
    7.3089025332320046E-01 
    7.2767477609303355E-01 
    7.2621675464712687E-01 
    7.2379003793908525E-01 
    7.2091787133753460E-01 
    7.1894356008789784E-01 
    7.1855321283873663E-01 
    7.1748585784267949E-01 
    7.1703629905825950E-01 
    7.1697498635811163E-01 
    7.1659225123957637E-01 
    7.0796072032698043E-01 
    7.0647546098107195E-01 
    7.0417946144932053E-01 
    7.0093390496639474E-01 
    6.9752770008985843E-01 
    6.9519906362699690E-01 
    6.9413221882679499E-01 
    6.9361122671840392E-01 
    6.9298988136637762E-01 
    6.9296639942929894E-01 
    6.9289535504297128E-01 
    6.9202552570351716E-01 
    6.9027850986240469E-01 
    6.8858169668230584E-01 
    6.8717768045184313E-01 
    6.8635552433763025E-01 
    6.6193118113680072E-01 
    6.6159492363568140E-01 
    6.6074834737099752E-01 
    6.5953323893636018E-01 
    6.5851165668307943E-01 
    6.5850106959995636E-01 
    6.5865794286622892E-01 
    6.5646610896047752E-01 
    6.5566382266299061E-01 
    6.5586209875048418E-01 
    6.5584389852479630E-01 
    6.5440221721843439E-01 
    6.5355871332273530E-01 
    6.5285485192475912E-01 
    6.5249255757453006E-01 
    6.5232369224242870E-01 
    6.1940304846780692E-01 
    6.2031092422636624E-01 
    6.2094143078783037E-01 
    6.2129064844515625E-01 
    6.2134158503670989E-01 
    6.2111116464358418E-01 
    6.2030119697260100E-01 
    6.1901379008541602E-01 
    6.1774994140678563E-01 
    6.1680584261916194E-01 
    6.1598360590085965E-01 
    6.1524251626175397E-01 
    6.1459607257606197E-01 
    6.1444988206417184E-01 
    6.1492952409017787E-01 
    6.1519803098281167E-01 
    5.8234827893229135E-01 
    5.8415402060478061E-01 
    5.8416168646793498E-01 
    5.8394898436730103E-01 
    5.8322252043287859E-01 
    5.8183543864280995E-01 
    5.8005714860429070E-01 
    5.7915458227354433E-01 
    5.7763549433305061E-01 
    5.7655116601064094E-01 
    5.7606072832935706E-01 
    5.7622079090849754E-01 
    5.7572748698260201E-01 
    5.7569073086394096E-01 
    5.7596177590039099E-01 
    5.7537248927956819E-01 
    5.4715388803640119E-01 
    5.4638672914122299E-01 
    5.4475784167759578E-01 
    5.4246363314927148E-01 
    5.4014881511948298E-01 
    5.3834500455070000E-01 
    5.3689005442425763E-01 
    5.3590133956876218E-01 
    5.3545309991726520E-01 
    5.3609035208165001E-01 
    5.3701626960472881E-01 
    5.3636523690856119E-01 
    5.3470577469202762E-01 
    5.3273869451910294E-01 
    5.3078528048743856E-01 
    5.2962722133392792E-01 
    5.0591981026474719E-01 
    5.0514451901375312E-01 
    5.0376905813883377E-01 
    5.0206061269707603E-01 
    5.0051947058930701E-01 
    4.9907652671559960E-01 
    4.9653108804607432E-01 
    4.9349061756600510E-01 
    4.9183099346879011E-01 
    4.9038898872406006E-01 
    4.8795534450297773E-01 
    4.8473411730773092E-01 
    4.8210593789867318E-01 
    4.7989506608947746E-01 
    4.7895688889671151E-01 
    4.7876272614655979E-01 
    4.6810272916950518E-01 
    4.6752998340035368E-01 
    4.6645273692318384E-01 
    4.6475415292678490E-01 
    4.6233584164167202E-01 
    4.5917597904913515E-01 
    4.5572961360917241E-01 
    4.5183636657387716E-01 
    4.4677386706626349E-01 
    4.4074040555629040E-01 
    4.3496842394140023E-01 
    4.2983463646126696E-01 
    4.2469888783159931E-01 
    4.2145061132443290E-01 
    4.2101815080883748E-01 
    4.2183312584554011E-01 
    4.2838442024701751E-01 
    4.2774147995435086E-01 
    4.2638666779446388E-01 
    4.2395179181587173E-01 
    4.2033762484709342E-01 
    4.1592261392112190E-01 
    4.1127332303119313E-01 
    4.0513789699147723E-01 
    3.9684230543355459E-01 
    3.8766172113974268E-01 
    3.7923240536153496E-01 
    3.7118306973516274E-01 
    3.6322396298309040E-01 
    3.5866482157843926E-01 
    3.5807567752474617E-01 
    3.5924772636322982E-01 
    3.8011530332292187E-01 
    3.7927522383216988E-01 
    3.7737171360668831E-01 
    3.7399243736571969E-01 
    3.6925593725049211E-01 
    3.6375683657380731E-01 
    3.5778099922486389E-01 
    3.4968395298735228E-01 
    3.3950076614631303E-01 
    3.2875707776043966E-01 
    3.1830483483427763E-01 
    3.0742991428844368E-01 
    2.9723944835988397E-01 
    2.9093083640048001E-01 
    2.8828276276547532E-01 
    2.8763904941991703E-01 
    3.2959779693906149E-01 
    3.2857713884078904E-01 
    3.2624046897007963E-01 
    3.2211601663980649E-01 
    3.1639753638326540E-01 
    3.0985410291918197E-01 
    3.0301682762225446E-01 
    2.9421576011169670E-01 
    2.8338950552116648E-01 
    2.7141219749342427E-01 
    2.5841828560163588E-01 
    2.4418874861580905E-01 
    2.2928922126716439E-01 
    2.1495973919573730E-01 
    2.0159489563586455E-01 
    1.9166750049300843E-01 
    2.9914918749491276E-01 
    2.9800073678441202E-01 
    2.9540083685972196E-01 
    2.9084790754357581E-01 
    2.8449624847013261E-01 
    2.7736556898582415E-01 
    2.7066561793373839E-01 
    2.6257597024045992E-01 
    2.5131933346633428E-01 
    2.3608335747038808E-01 
    2.1784875943712367E-01 
    1.9541833946544460E-01 
    1.6461462768054705E-01 
    1.2254042161223105E-01 
    6.8097208414036769E-02 
    0.0000000000000000E+00 

SCALARS Saturarion double 1 
LOOKUP_TABLE default 

    1.0000000001025640E+00 
    9.7938707091594324E-01 
    9.4322606709758838E-01 
    9.0435562583665308E-01 
    8.6324433581587556E-01 
    8.1987253998357812E-01 
    7.7472004690616936E-01 
    7.2849597953623835E-01 
    6.7881737868395586E-01 
    6.3292020437371943E-01 
    5.8830466501532785E-01 
    5.4678308360227590E-01 
    5.0828149944046297E-01 
    4.6519459268633517E-01 
    2.9851207902432880E-01 
    2.8160430900957050E-03 
    9.4762804312798909E-01 
    9.3434491891668647E-01 
    9.0576734031074879E-01 
    8.7240560425259228E-01 
    8.3633097795442957E-01 
    7.9721508031490151E-01 
    7.5874660812408523E-01 
    7.1846489141735648E-01 
    6.7360801244524238E-01 
    6.2939927527285167E-01 
    5.8484631202647930E-01 
    5.4010994878640861E-01 
    4.9633867805975418E-01 
    4.4189081207698805E-01 
    1.5430650094375872E-01 
    6.4219434606207714E-05 
    8.6194529528943220E-01 
    8.5551061285317398E-01 
    8.3878292220003892E-01 
    8.1519896003912629E-01 
    7.8888851201280896E-01 
    7.5961882518186186E-01 
    7.2879398484134128E-01 
    6.9661024555291196E-01 
    6.6125479063217762E-01 
    6.2130707981899769E-01 
    5.7891393188556661E-01 
    5.3515225277159728E-01 
    4.8842362584981991E-01 
    4.1253236818220196E-01 
    4.7998914647795127E-02 
    2.3364035219116667E-05 
    7.8611445616629916E-01 
    7.8213308896135891E-01 
    7.7234542126295880E-01 
    7.5756025783567993E-01 
    7.4056037727552981E-01 
    7.1984989412684719E-01 
    6.9606792077567869E-01 
    6.7140032898172608E-01 
    6.4398036217707255E-01 
    6.0893315258617875E-01 
    5.6878832777282751E-01 
    5.2453667606409105E-01 
    4.7685651816612684E-01 
    3.4847152355519750E-01 
    7.3461601600987468E-03 
    1.6458912998978986E-06 
    7.2727924400734512E-01 
    7.2386856502574715E-01 
    7.1661321499102149E-01 
    7.0646139358106419E-01 
    6.9247012325851798E-01 
    6.7891077049309856E-01 
    6.6174487923482250E-01 
    6.4267362615057455E-01 
    6.2202541871734218E-01 
    5.9308402322973652E-01 
    5.5692995707914417E-01 
    5.1373749908047472E-01 
    4.6377653690382781E-01 
    2.7151406607112322E-01 
    3.8606664063222962E-04 
    1.0041450834524435E-06 
    6.8041958885198539E-01 
    6.7830730535198647E-01 
    6.7307503295806403E-01 
    6.6665898333428453E-01 
    6.5506784399964035E-01 
    6.4155204855101167E-01 
    6.2746426039050562E-01 
    6.0943352697807429E-01 
    5.9286055511729374E-01 
    5.7206403746996359E-01 
    5.4283051625824263E-01 
    5.0616188138376472E-01 
    4.5859370108093267E-01 
    2.3043694791465552E-01 
    4.3552768171690482E-05 
    1.0002232116541652E-06 
    6.3809976121110679E-01 
    6.3620786750632441E-01 
    6.3203059987655574E-01 
    6.2651565399091425E-01 
    6.2366219813622448E-01 
    6.1067947776251885E-01 
    5.9702840165513249E-01 
    5.7985383178981964E-01 
    5.6123968621953757E-01 
    5.4556463822310131E-01 
    5.2171899041588266E-01 
    4.9197158796529944E-01 
    4.4920169008579630E-01 
    1.6458208841001434E-01 
    6.4653401124987670E-05 
    1.0004288952058913E-06 
    5.9869108413279271E-01 
    5.9657203569709727E-01 
    5.9260558155070464E-01 
    5.8739037942666161E-01 
    5.9157716305282781E-01 
    5.8274222978003498E-01 
    5.7038551795546066E-01 
    5.5569884388061885E-01 
    5.3546500096007832E-01 
    5.2010324403161767E-01 
    4.9840165572137496E-01 
    4.7200151504664756E-01 
    4.1819678930738324E-01 
    5.5271022888779664E-02 
    1.8098224199359034E-05 
    1.0000102046888416E-06 
    5.6418867562784358E-01 
    5.6236828409882511E-01 
    5.5894045758750166E-01 
    5.5449716643522085E-01 
    5.5934012447851778E-01 
    5.5554920515803219E-01 
    5.4528044516437757E-01 
    5.3327783225694692E-01 
    5.1720520663967195E-01 
    4.9864620474857790E-01 
    4.8091452934125312E-01 
    4.5474488997459334E-01 
    3.5628783019654003E-01 
    2.0154922206144982E-02 
    9.7633518010702948E-06 
    1.0000087845700619E-06 
    5.3616873400578469E-01 
    5.3477482631898909E-01 
    5.3170655703228342E-01 
    5.2814232965408014E-01 
    5.2714365271078023E-01 
    5.2821572744842948E-01 
    5.2012495734280384E-01 
    5.1023175289239497E-01 
    4.9932595538945879E-01 
    4.8068075837034058E-01 
    4.6742951259109472E-01 
    4.4416212320284798E-01 
    2.6025540802121622E-01 
    1.5563211851879442E-03 
    1.0504549077038759E-06 
    1.0000000039486429E-06 
    5.0857219589814795E-01 
    5.0746018204832655E-01 
    5.0493942950133941E-01 
    5.0221725748593049E-01 
    4.9962960239828963E-01 
    5.0005827325236185E-01 
    4.9591883969968198E-01 
    4.8921938821453981E-01 
    4.8007079194051661E-01 
    4.6644841370947998E-01 
    4.5298896152582252E-01 
    4.3057623837438502E-01 
    2.0293109249340946E-01 
    1.8637227210325033E-04 
    1.0123113108398247E-06 
    1.0000000000119774E-06 
    4.7968337951703327E-01 
    4.7891250635830890E-01 
    4.7662617476467989E-01 
    4.7486000175639237E-01 
    4.7359253153122421E-01 
    4.7159422857152178E-01 
    4.7210536945869025E-01 
    4.7020929130800498E-01 
    4.6340316725591463E-01 
    4.5480193256719109E-01 
    4.4077346898101760E-01 
    4.0987261540391523E-01 
    1.7410515858913428E-01 
    1.1009005892744436E-04 
    1.0040515199518940E-06 
    9.9999999999999551E-07 
    4.4538346937244722E-01 
    4.4642655094254752E-01 
    4.4573736447807449E-01 
    4.4450618319781909E-01 
    4.4256514358245119E-01 
    4.4158956660475052E-01 
    4.4183753490763067E-01 
    4.4329578747327408E-01 
    4.4379152412068895E-01 
    4.3862343960562794E-01 
    4.2799630362000785E-01 
    3.8468525809944143E-01 
    1.2581342805099990E-01 
    1.5593900898943407E-04 
    1.0043956031531955E-06 
    1.0000000000078437E-06 
    2.9707235037558172E-01 
    2.9189087544919384E-01 
    2.8706078600504048E-01 
    2.8448249960203909E-01 
    2.7448590993936739E-01 
    2.6760517904891884E-01 
    2.6604183051777197E-01 
    2.7077524553151344E-01 
    3.2216482848145972E-01 
    3.6595065380054725E-01 
    3.6983142943791320E-01 
    2.5554166310219978E-01 
    1.8193078375440958E-02 
    1.4817111028114634E-05 
    1.0000108959066206E-06 
    1.0000000000000010E-06 
    5.0177896131269773E-05 
    3.9041387435560774E-05 
    1.0273494540926501E-03 
    9.0555739660259341E-04 
    7.1307890704835029E-05 
    1.5455189047845551E-05 
    1.2160640219588121E-05 
    2.6371126894859145E-05 
    2.4832124215704496E-02 
    7.2365903106551568E-02 
    6.8374999143844720E-02 
    1.0721740570316024E-02 
    3.4134076130646270E-05 
    1.0001502289353826E-06 
    1.0000000000061782E-06 
    9.9999999999999995E-07 
    9.9999999865808737E-07 
    1.0000011839655611E-06 
    1.0000388659738368E-06 
    1.0003166497644527E-06 
    1.0001714244947687E-06 
    1.0000024300962082E-06 
    1.0000007502462246E-06 
    1.0000068651550095E-06 
    2.8278678652060881E-05 
    2.3503796634155325E-05 
    4.7068081386292126E-05 
    4.8559793574891608E-06 
    1.0000846437543903E-06 
    1.0000000000702906E-06 
    9.9999999999999974E-07 
    1.0000001131281252E-06 
