# vtk DataFile Version 2.0
Pressure Field Data 
ASCII 
DATASET UNSTRUCTURED_GRID 

POINTS 289 double 

    0.0000000000000000E+00     0.0000000000000000E+00     0.0000000000000000E+00 
    1.0000000000000000E+00     0.0000000000000000E+00     0.0000000000000000E+00 
    1.0000000000000000E+00     1.0000000000000000E+00     0.0000000000000000E+00 
    0.0000000000000000E+00     1.0000000000000000E+00     0.0000000000000000E+00 
    6.2499999999872928E-02     0.0000000000000000E+00     0.0000000000000000E+00 
    1.2499999999977310E-01     0.0000000000000000E+00     0.0000000000000000E+00 
    1.8749999999959341E-01     0.0000000000000000E+00     0.0000000000000000E+00 
    2.4999999999941089E-01     0.0000000000000000E+00     0.0000000000000000E+00 
    3.1249999999922851E-01     0.0000000000000000E+00     0.0000000000000000E+00 
    3.7499999999904610E-01     0.0000000000000000E+00     0.0000000000000000E+00 
    4.3749999999886358E-01     0.0000000000000000E+00     0.0000000000000000E+00 
    4.9999999999869210E-01     0.0000000000000000E+00     0.0000000000000000E+00 
    5.6249999999884603E-01     0.0000000000000000E+00     0.0000000000000000E+00 
    6.2499999999901090E-01     0.0000000000000000E+00     0.0000000000000000E+00 
    6.8749999999917577E-01     0.0000000000000000E+00     0.0000000000000000E+00 
    7.4999999999934064E-01     0.0000000000000000E+00     0.0000000000000000E+00 
    8.1249999999950551E-01     0.0000000000000000E+00     0.0000000000000000E+00 
    8.7499999999967026E-01     0.0000000000000000E+00     0.0000000000000000E+00 
    9.3749999999983513E-01     0.0000000000000000E+00     0.0000000000000000E+00 
    1.0000000000000000E+00     6.2499999999872928E-02     0.0000000000000000E+00 
    1.0000000000000000E+00     1.2499999999977310E-01     0.0000000000000000E+00 
    1.0000000000000000E+00     1.8749999999959341E-01     0.0000000000000000E+00 
    1.0000000000000000E+00     2.4999999999941089E-01     0.0000000000000000E+00 
    1.0000000000000000E+00     3.1249999999922851E-01     0.0000000000000000E+00 
    1.0000000000000000E+00     3.7499999999904610E-01     0.0000000000000000E+00 
    1.0000000000000000E+00     4.3749999999886358E-01     0.0000000000000000E+00 
    1.0000000000000000E+00     4.9999999999869210E-01     0.0000000000000000E+00 
    1.0000000000000000E+00     5.6249999999884603E-01     0.0000000000000000E+00 
    1.0000000000000000E+00     6.2499999999901090E-01     0.0000000000000000E+00 
    1.0000000000000000E+00     6.8749999999917577E-01     0.0000000000000000E+00 
    1.0000000000000000E+00     7.4999999999934064E-01     0.0000000000000000E+00 
    1.0000000000000000E+00     8.1249999999950551E-01     0.0000000000000000E+00 
    1.0000000000000000E+00     8.7499999999967026E-01     0.0000000000000000E+00 
    1.0000000000000000E+00     9.3749999999983513E-01     0.0000000000000000E+00 
    9.3749999999973976E-01     1.0000000000000000E+00     0.0000000000000000E+00 
    8.7499999999950118E-01     1.0000000000000000E+00     0.0000000000000000E+00 
    8.1249999999991318E-01     1.0000000000000000E+00     0.0000000000000000E+00 
    7.5000000000034706E-01     1.0000000000000000E+00     0.0000000000000000E+00 
    6.8750000000078049E-01     1.0000000000000000E+00     0.0000000000000000E+00 
    6.2500000000121403E-01     1.0000000000000000E+00     0.0000000000000000E+00 
    5.6250000000164757E-01     1.0000000000000000E+00     0.0000000000000000E+00 
    5.0000000000205946E-01     1.0000000000000000E+00     0.0000000000000000E+00 
    4.3750000000182099E-01     1.0000000000000000E+00     0.0000000000000000E+00 
    3.7500000000156092E-01     1.0000000000000000E+00     0.0000000000000000E+00 
    3.1250000000130068E-01     1.0000000000000000E+00     0.0000000000000000E+00 
    2.5000000000104050E-01     1.0000000000000000E+00     0.0000000000000000E+00 
    1.8750000000078040E-01     1.0000000000000000E+00     0.0000000000000000E+00 
    1.2500000000052031E-01     1.0000000000000000E+00     0.0000000000000000E+00 
    6.2500000000260125E-02     1.0000000000000000E+00     0.0000000000000000E+00 
    0.0000000000000000E+00     9.3749999999973976E-01     0.0000000000000000E+00 
    0.0000000000000000E+00     8.7499999999950118E-01     0.0000000000000000E+00 
    0.0000000000000000E+00     8.1249999999991318E-01     0.0000000000000000E+00 
    0.0000000000000000E+00     7.5000000000034706E-01     0.0000000000000000E+00 
    0.0000000000000000E+00     6.8750000000078049E-01     0.0000000000000000E+00 
    0.0000000000000000E+00     6.2500000000121403E-01     0.0000000000000000E+00 
    0.0000000000000000E+00     5.6250000000164757E-01     0.0000000000000000E+00 
    0.0000000000000000E+00     5.0000000000205946E-01     0.0000000000000000E+00 
    0.0000000000000000E+00     4.3750000000182099E-01     0.0000000000000000E+00 
    0.0000000000000000E+00     3.7500000000156092E-01     0.0000000000000000E+00 
    0.0000000000000000E+00     3.1250000000130068E-01     0.0000000000000000E+00 
    0.0000000000000000E+00     2.5000000000104050E-01     0.0000000000000000E+00 
    0.0000000000000000E+00     1.8750000000078040E-01     0.0000000000000000E+00 
    0.0000000000000000E+00     1.2500000000052031E-01     0.0000000000000000E+00 
    0.0000000000000000E+00     6.2500000000260125E-02     0.0000000000000000E+00 
    6.2499999999897131E-02     6.2500000000235922E-02     0.0000000000000000E+00 
    6.2499999999921327E-02     1.2500000000047351E-01     0.0000000000000000E+00 
    6.2499999999945530E-02     1.8750000000070621E-01     0.0000000000000000E+00 
    6.2499999999969733E-02     2.5000000000093858E-01     0.0000000000000000E+00 
    6.2499999999993928E-02     3.1250000000117117E-01     0.0000000000000000E+00 
    6.2500000000018124E-02     3.7500000000140382E-01     0.0000000000000000E+00 
    6.2500000000042327E-02     4.3750000000163619E-01     0.0000000000000000E+00 
    6.2500000000066530E-02     5.0000000000184897E-01     0.0000000000000000E+00 
    6.2500000000090733E-02     5.6250000000147260E-01     0.0000000000000000E+00 
    6.2500000000114922E-02     6.2500000000107636E-01     0.0000000000000000E+00 
    6.2500000000139125E-02     6.8750000000068034E-01     0.0000000000000000E+00 
    6.2500000000163328E-02     7.5000000000028411E-01     0.0000000000000000E+00 
    6.2500000000187531E-02     8.1249999999988787E-01     0.0000000000000000E+00 
    6.2500000000211720E-02     8.7499999999951172E-01     0.0000000000000000E+00 
    6.2500000000235922E-02     9.3749999999974565E-01     0.0000000000000000E+00 
    1.2499999999981980E-01     6.2500000000211733E-02     0.0000000000000000E+00 
    1.2499999999986650E-01     1.2500000000042691E-01     0.0000000000000000E+00 
    1.2499999999991319E-01     1.8750000000063199E-01     0.0000000000000000E+00 
    1.2499999999995989E-01     2.5000000000083678E-01     0.0000000000000000E+00 
    1.2500000000000661E-01     3.1250000000104172E-01     0.0000000000000000E+00 
    1.2500000000005329E-01     3.7500000000124661E-01     0.0000000000000000E+00 
    1.2500000000010000E-01     4.3750000000145117E-01     0.0000000000000000E+00 
    1.2500000000014669E-01     5.0000000000163858E-01     0.0000000000000000E+00 
    1.2500000000019340E-01     5.6250000000129741E-01     0.0000000000000000E+00 
    1.2500000000024011E-01     6.2500000000093847E-01     0.0000000000000000E+00 
    1.2500000000028680E-01     6.8750000000057998E-01     0.0000000000000000E+00 
    1.2500000000033351E-01     7.5000000000022127E-01     0.0000000000000000E+00 
    1.2500000000038020E-01     8.1249999999986211E-01     0.0000000000000000E+00 
    1.2500000000042691E-01     8.7499999999952238E-01     0.0000000000000000E+00 
    1.2500000000047359E-01     9.3749999999975164E-01     0.0000000000000000E+00 
    1.8749999999966760E-01     6.2500000000187531E-02     0.0000000000000000E+00 
    1.8749999999974179E-01     1.2500000000038020E-01     0.0000000000000000E+00 
    1.8749999999981601E-01     1.8750000000055780E-01     0.0000000000000000E+00 
    1.8749999999989009E-01     2.5000000000073502E-01     0.0000000000000000E+00 
    1.8749999999996431E-01     3.1250000000091221E-01     0.0000000000000000E+00 
    1.8750000000003850E-01     3.7500000000108941E-01     0.0000000000000000E+00 
    1.8750000000011269E-01     4.3750000000126649E-01     0.0000000000000000E+00 
    1.8750000000018691E-01     5.0000000000142808E-01     0.0000000000000000E+00 
    1.8750000000026110E-01     5.6250000000112244E-01     0.0000000000000000E+00 
    1.8750000000033529E-01     6.2500000000080080E-01     0.0000000000000000E+00 
    1.8750000000040951E-01     6.8750000000047962E-01     0.0000000000000000E+00 
    1.8750000000048361E-01     7.5000000000015843E-01     0.0000000000000000E+00 
    1.8750000000055780E-01     8.1249999999983680E-01     0.0000000000000000E+00 
    1.8750000000063199E-01     8.7499999999953304E-01     0.0000000000000000E+00 
    1.8750000000070621E-01     9.3749999999975764E-01     0.0000000000000000E+00 
    2.4999999999951281E-01     6.2500000000163314E-02     0.0000000000000000E+00 
    2.4999999999961461E-01     1.2500000000033351E-01     0.0000000000000000E+00 
    2.4999999999971650E-01     1.8750000000048361E-01     0.0000000000000000E+00 
    2.4999999999981831E-01     2.5000000000063310E-01     0.0000000000000000E+00 
    2.4999999999992020E-01     3.1250000000078260E-01     0.0000000000000000E+00 
    2.5000000000002198E-01     3.7500000000093209E-01     0.0000000000000000E+00 
    2.5000000000012390E-01     4.3750000000108180E-01     0.0000000000000000E+00 
    2.5000000000022571E-01     5.0000000000121769E-01     0.0000000000000000E+00 
    2.5000000000032763E-01     5.6250000000094724E-01     0.0000000000000000E+00 
    2.5000000000042938E-01     6.2500000000066314E-01     0.0000000000000000E+00 
    2.5000000000053119E-01     6.8750000000037925E-01     0.0000000000000000E+00 
[...]
CELL_DATA 256 
SCALARS Pressure double 1 
LOOKUP_TABLE default 

    9.5271117394969740E-01 
    9.4041544541773869E-01 
    9.2798561803399671E-01 
    9.1662349098389417E-01 
    9.0839112177049997E-01 
    9.0452804763461048E-01 
    8.9795141424554026E-01 
    8.9259673176061394E-01 
    8.8879499032055054E-01 
    8.8615544354720355E-01 
    8.8281814323408281E-01 
    8.7947687065895586E-01 
    8.7597028415770206E-01 
    8.7239676455457438E-01 
    8.6934829571408268E-01 
    8.6737869560744874E-01 
    9.0653426985719032E-01 
    9.0303992860053461E-01 
    8.9884040832564760E-01 
    8.9423721302517722E-01 
    8.8957891597553762E-01 
    8.8434206266024717E-01 
    8.7886723935188638E-01 
    8.7546467547148765E-01 
    8.7170834953302934E-01 
    8.6791480099579010E-01 
    8.6472611958862011E-01 
    8.6223792732358662E-01 
    8.5973981835854985E-01 
    8.5750687682598448E-01 
    8.5591156280879588E-01 
    8.5495936956382468E-01 
    8.7156878632452783E-01 
    8.6987205948675095E-01 
    8.6785700078551997E-01 
    8.6529998128322794E-01 
    8.6201415400306314E-01 
    8.5768023031680496E-01 
    8.5306126664982318E-01 
    8.5012404817713771E-01 
    8.4632178997130958E-01 
    8.4247552702002915E-01 
    8.3966546115945240E-01 
    8.3780581907878637E-01 
    8.3587328292907470E-01 
    8.3453834917610559E-01 
    8.3407961325449353E-01 
    8.3405725966359701E-01 
    8.3519738327201010E-01 
    8.3493774060873938E-01 
    8.3446351093114890E-01 
    8.3337388815097957E-01 
    8.3131923146701336E-01 
    8.2794731503757990E-01 
    8.2408192578366357E-01 
    8.2138938194221445E-01 
    8.1779715426958211E-01 
    8.1424030546031145E-01 
    8.1194355573411614E-01 
    8.1063128286638497E-01 
    8.0906412269035266E-01 
    8.0826676823757593E-01 
    8.0845403457852927E-01 
    8.0875491497466090E-01 
    8.0139502082327618E-01 
    8.0324787970694123E-01 
    8.0276487693825749E-01 
    8.0161817574190575E-01 
    7.9958452971629868E-01 
    7.9629252416320462E-01 
    7.9275045909260322E-01 
    7.9085542804662945E-01 
    7.8794098581919092E-01 
    7.8493619976902984E-01 
    7.8320387134632685E-01 
    7.8272908116395423E-01 
    7.8134837060858076E-01 
    7.8060152302979868E-01 
    7.8043033845483611E-01 
    7.7981038974181260E-01 
    7.7050920544668788E-01 
    7.6887461450935468E-01 
    7.6631995315622214E-01 
    7.6277243424675567E-01 
    7.5913857219508785E-01 
    7.5664917206810167E-01 
    7.5542158695954353E-01 
    7.5458095547993997E-01 
    7.5370086813124570E-01 
    7.5349837459436364E-01 
    7.5314886947692616E-01 
    7.5180541429799919E-01 
    7.4982065196471026E-01 
    7.4789513182378364E-01 
    7.4609964510707261E-01 
    7.4488582774000411E-01 
    7.1953223698000968E-01 
    7.1914101638138406E-01 
    7.1817864459534508E-01 
    7.1685145041000875E-01 
    7.1580806396360230E-01 
    7.1573606524533295E-01 
    7.1541249565662912E-01 
    7.1288084754424519E-01 
    7.1176771897358615E-01 
    7.1149935306366097E-01 
    7.1072920968209141E-01 
    7.0860822492729980E-01 
    7.0685481270525308E-01 
    7.0550792653553429E-01 
    7.0499293934170681E-01 
    7.0483551145688228E-01 
    6.7194865325986552E-01 
    6.7283657712576617E-01 
    6.7338165359856783E-01 
    6.7362986156253268E-01 
    6.7357426130160181E-01 
    6.7317846582701812E-01 
    6.7201613625730805E-01 
    6.7013601870235329E-01 
    6.6808499190717141E-01 
    6.6635853729820227E-01 
    6.6474545860290923E-01 
    6.6268604145946786E-01 
    6.6051588851842091E-01 
    6.5965598015892579E-01 
    6.6019661195482771E-01 
    6.6083687470321573E-01 
    6.2936417406096512E-01 
    6.3083515101957943E-01 
    6.3058199401536696E-01 
    6.3017920138783035E-01 
    6.2926702384692179E-01 
    6.2774762618675484E-01 
    6.2576132749345992E-01 
    6.2420477208166536E-01 
    6.2186887832707916E-01 
    6.2005218135732409E-01 
    6.1841223559935621E-01 
    6.1627734784510158E-01 
    6.1406055804781101E-01 
    6.1347825525684874E-01 
    6.1395311363399352E-01 
    6.1378790198962885E-01 
    5.8590950797543639E-01 
    5.8509791428957814E-01 
    5.8339638415940775E-01 
    5.8116317834709952E-01 
    5.7904373885752758E-01 
    5.7736134186876864E-01 
    5.7582201653981158E-01 
    5.7459347086543711E-01 
    5.7348991125232085E-01 
    5.7247601316002394E-01 
    5.7097330196762985E-01 
    5.6842241013427419E-01 
    5.6592212061497660E-01 
    5.6360315871581335E-01 
    5.6157041329167867E-01 
    5.6038349308473068E-01 
    5.3701031920441711E-01 
    5.3621349102608185E-01 
    5.3472344541091765E-01 
    5.3283663021068250E-01 
    5.3080325878385248E-01 
    5.2828295068140152E-01 
    5.2467979492513217E-01 
    5.2115912754654381E-01 
    5.1812755449067194E-01 
    5.1444955983966645E-01 
    5.1029346662621089E-01 
    5.0669449201854877E-01 
    5.0421967256527278E-01 
    5.0236251079410854E-01 
    5.0140370671821666E-01 
    5.0098809455346449E-01 
    4.8432414126111284E-01 
    4.8366260246910997E-01 
    4.8218225955916572E-01 
    4.7978562601373276E-01 
    4.7647594872079002E-01 
    4.7244337610095261E-01 
    4.6803602889781309E-01 
    4.6278782477712815E-01 
    4.5678246269102446E-01 
    4.5086564285460468E-01 
    4.4578612991631239E-01 
    4.4116612016642731E-01 
    4.3733596446374257E-01 
    4.3524683311176221E-01 
    4.3498137686309568E-01 
    4.3556293102426519E-01 
    4.2772258594374779E-01 
    4.2703282127538261E-01 
    4.2541917473810920E-01 
    4.2264370094905701E-01 
    4.1881843596289331E-01 
    4.1439756765939018E-01 
    4.0963699696939743E-01 
    4.0337269857777680E-01 
    3.9579369102565054E-01 
    3.8806148655152722E-01 
    3.8093069160252246E-01 
    3.7413935879202503E-01 
    3.6849502295794812E-01 
    3.6552379552882702E-01 
    3.6523377438948373E-01 
    3.6626916526572934E-01 
    3.7643457327008811E-01 
    3.7555714564689796E-01 
    3.7355957229222631E-01 
    3.7006814281365036E-01 
    3.6525419129772335E-01 
    3.5975479951012745E-01 
    3.5390717432454460E-01 
    3.4610744835340707E-01 
    3.3654217740542364E-01 
    3.2665008554928093E-01 
    3.1709271247174459E-01 
    3.0770228209411793E-01 
    2.9941027604981357E-01 
    2.9401299846462942E-01 
    2.9152839947503090E-01 
    2.9086424091807422E-01 
    3.2940575892578572E-01 
    3.2842117062984988E-01 
    3.2616953472554172E-01 
    3.2216092210034436E-01 
    3.1657994218019686E-01 
    3.1022023984643743E-01 
    3.0364446956827251E-01 
    2.9494283953081868E-01 
    2.8398821559117865E-01 
    2.7187723392053070E-01 
    2.5903649944744295E-01 
    2.4522339554416972E-01 
    2.3054149787059830E-01 
    2.1615606589538702E-01 
    2.0286982248154772E-01 
    1.9310173020533414E-01 
    2.9944476440551948E-01 
    2.9836915829341104E-01 
    2.9592265671988338E-01 
    2.9164623194489131E-01 
    2.8569186242288314E-01 
    2.7896511775540900E-01 
    2.7249935857572671E-01 
    2.6415361276958177E-01 
    2.5231792013251175E-01 
    2.3650615193832106E-01 
    2.1807429155654437E-01 
    1.9538038451561512E-01 
    1.6423905446369338E-01 
    1.2213629335724863E-01 
    6.7906837396508643E-02 
    0.0000000000000000E+00 

SCALARS Saturarion double 1 
LOOKUP_TABLE default 

    1.0000000013100836E+00 
    9.7250545126613552E-01 
    9.2677811963605639E-01 
    8.7906534859094154E-01 
    8.3119396847965732E-01 
    7.8138927297355754E-01 
    7.3349858823211334E-01 
    6.8315973893595527E-01 
    6.3240652698235522E-01 
    5.8115841261434464E-01 
    5.3485212301470431E-01 
    4.9406952969942003E-01 
    4.4997989471194455E-01 
    2.2698767104567619E-01 
    5.9436474003842812E-06 
    1.0000000013295556E-06 
    9.3432817803162926E-01 
    9.1842393046846060E-01 
    8.8354839541813890E-01 
    8.4410442835075605E-01 
    8.0169546122587132E-01 
    7.5904810174036674E-01 
    7.1717652302399915E-01 
    6.7422096430604062E-01 
    6.2940553617178874E-01 
    5.8259732256400942E-01 
    5.3738438370160968E-01 
    4.9244017535584927E-01 
    4.3861839327983959E-01 
    1.3306792894400477E-01 
    2.3079426196304608E-05 
    1.0000650383467113E-06 
    8.3403284807730427E-01 
    8.2646383679162405E-01 
    8.0768079825402961E-01 
    7.8148881173725959E-01 
    7.5277973787084995E-01 
    7.2053178575557164E-01 
    6.8648338023813027E-01 
    6.5366836981119469E-01 
    6.1726704249986808E-01 
    5.7568166237706020E-01 
    5.3359411282785707E-01 
    4.9026004912862470E-01 
    4.2109798260690418E-01 
    6.8199076281866194E-02 
    2.1049528728102798E-05 
    1.0000257072225388E-06 
    7.5023245837557506E-01 
    7.4615891226267117E-01 
    7.3529920532091253E-01 
    7.1926807451798869E-01 
    7.0100577682904097E-01 
    6.7876352461598000E-01 
    6.5422396511648917E-01 
    6.2855068597751207E-01 
    5.9886164346562287E-01 
    5.6312377892744048E-01 
    5.2361605363922858E-01 
    4.8003422151596598E-01 
    3.7434510229238899E-01 
    2.0566046106247585E-02 
    4.2560221050164363E-06 
    1.0000005177868221E-06 
    6.8362275600340050E-01 
    6.8029604563121782E-01 
    6.7333294164664481E-01 
    6.6233979816894295E-01 
    6.4859391855317250E-01 
    6.3590756897927603E-01 
    6.1773852582419186E-01 
    5.9646933904521438E-01 
    5.7494500843083729E-01 
    5.4675411049066358E-01 
    5.1070738811336813E-01 
    4.6927659344231926E-01 
    3.0757715710200845E-01 
    3.0387367791733159E-03 
    1.2128578354168382E-06 
    1.0000000241913266E-06 
    6.3488171247337455E-01 
    6.3273286577977228E-01 
    6.2745970890754554E-01 
    6.2016478531547703E-01 
    6.0818017288394655E-01 
    5.9599131369565106E-01 
    5.8047517892499434E-01 
    5.6110803592141356E-01 
    5.4321296407639708E-01 
    5.2227267255316590E-01 
    4.9170589160929890E-01 
    4.5629271553671330E-01 
    2.3623379717512574E-01 
    2.1211765298363022E-04 
    1.0056824902523023E-06 
    1.0000000000142850E-06 
    5.8758613796441783E-01 
    5.8529971773375034E-01 
    5.8063415965076681E-01 
    5.7513430981002645E-01 
    5.7502333341224399E-01 
    5.6248494580095532E-01 
    5.4735459665323638E-01 
    5.2991165030708154E-01 
    5.0948205878580899E-01 
    4.9298095028304273E-01 
    4.6940128226318145E-01 
    4.2842418827699674E-01 
    1.3391035242710300E-01 
    1.5583475385315071E-04 
    1.0028105056722579E-06 
    1.0000000000004626E-06 
    5.4281879840724434E-01 
    5.4060730550865344E-01 
    5.3653447559970158E-01 
    5.3158699723956437E-01 
    5.3806752543971881E-01 
    5.2963701701960253E-01 
    5.1765785121994234E-01 
    5.0351622320419653E-01 
    4.8335336030390458E-01 
    4.6776135304854172E-01 
    4.4749802941716199E-01 
    3.4749829045502689E-01 
    2.6886570004715199E-02 
    1.6099977341830939E-05 
    1.0000083252352941E-06 
    1.0000000000000002E-06 
    5.0473233785480287E-01 
    5.0306090766061551E-01 
    4.9988996150471160E-01 
    4.9629281880196929E-01 
    4.9825025020948460E-01 
    4.9530440475120174E-01 
    4.8844242291030276E-01 
    4.7839273049214770E-01 
    4.6474490608831870E-01 
    4.4202970611461534E-01 
    3.8975594614694448E-01 
    1.2435376218949327E-01 
    3.8406527614887650E-04 
    1.0174149494893463E-06 
    1.0000000000903676E-06 
    9.9999999999999995E-07 
    4.7099198778879153E-01 
    4.6911328498628302E-01 
    4.6613566975269333E-01 
    4.6326202909889758E-01 
    4.6006013359969922E-01 
    4.6058185256320128E-01 
    4.5688376261240982E-01 
    4.4776938413470463E-01 
    4.3507009624204024E-01 
    3.7662643595825618E-01 
    1.6105425674792895E-01 
    2.4202554090853004E-03 
    1.3394963130583440E-06 
    1.0000000430285296E-06 
    1.0000000000000019E-06 
    9.9999999999999995E-07 
    4.3393158733457332E-01 
    4.3258485380356199E-01 
    4.2973789325384526E-01 
    4.2470291274500321E-01 
    4.1885479372732481E-01 
    4.1538099865127881E-01 
    3.9954492470337077E-01 
    3.5248452929733509E-01 
    2.3339711532033672E-01 
    7.8366981429068713E-02 
    1.3399737751861162E-03 
    1.4850104474844913E-06 
    1.0000003343133517E-06 
    1.0000000000000400E-06 
    9.9999999999999995E-07 
    9.9999999999999995E-07 
    1.9017297879921385E-01 
    1.7424490673370746E-01 
    1.4983128258231687E-01 
    1.2487209351983633E-01 
    9.9208670239606014E-02 
    8.4755994444503879E-02 
    6.6068169380784636E-02 
    2.7456351702842396E-02 
    1.0553776246661883E-03 
    2.4389251931873439E-04 
    1.3233470913698505E-06 
    1.0000003459348271E-06 
    1.0000000000001219E-06 
    9.9999999999999995E-07 
    9.9999999999999995E-07 
    9.9999999999999995E-07 
    1.0000007925011278E-06 
    3.7818974677072513E-06 
    7.8537042791241410E-06 
    1.6407762946354491E-05 
    8.3021358671054771E-06 
    4.4011276396060157E-06 
    2.6831707886586271E-05 
    1.5431269708330734E-05 
    1.0570457770590434E-06 
    1.0107088954414356E-06 
    1.0000000602630926E-06 
    1.0000000000000756E-06 
    9.9999999999999995E-07 
    9.9999999999999995E-07 
    9.9999999999999995E-07 
    9.9999999999999995E-07 
    1.0000000000009054E-06 
    1.0000054568996373E-06 
    1.0000222551858283E-06 
    1.0000711067512591E-06 
    1.0000153029797071E-06 
    1.0000044823574542E-06 
    1.0000952641383113E-06 
    1.0000196075450388E-06 
    1.0000000176132829E-06 
    1.0000000000000463E-06 
    1.0000000000000154E-06 
    9.9999999999999995E-07 
    9.9999999999999995E-07 
    9.9999999999999995E-07 
    9.9999999999999995E-07 
    9.9999999999999995E-07 
    9.9999999999999995E-07 
    1.0000000000004250E-06 
    1.0000000000015365E-06 
    9.9999999999999953E-07 
    9.9999999999999953E-07 
    9.9999999999999953E-07 
    1.0000000000000019E-06 
    1.0000000000000010E-06 
    1.0000000000000010E-06 
    9.9999999999999995E-07 
    9.9999999999999995E-07 
    9.9999999999999995E-07 
    9.9999999999999995E-07 
    9.9999999999999995E-07 
    9.9999999999999995E-07 
    9.9999999999999995E-07 
    9.9999999999999995E-07 
    9.9999999999999995E-07 
    9.9999999999999995E-07 
    9.9999999999999995E-07 
    9.9999999999999995E-07 
    9.9999999999999995E-07 
    9.9999999999999995E-07 
    9.9999999999999995E-07 
    9.9999999999999995E-07 
    9.9999999999999995E-07 
    9.9999999999999995E-07 
    9.9999999999999995E-07 
    9.9999999999999995E-07 
    9.9999999999999995E-07 
    9.9999999999999995E-07 
    1.0000000838891868E-06 
