# vtk DataFile Version 2.0
Pressure Field Data 
ASCII 
DATASET UNSTRUCTURED_GRID 

POINTS 289 double 

    0.0000000000000000E+00     0.0000000000000000E+00     0.0000000000000000E+00 
    1.0000000000000000E+00     0.0000000000000000E+00     0.0000000000000000E+00 
    1.0000000000000000E+00     1.0000000000000000E+00     0.0000000000000000E+00 
    0.0000000000000000E+00     1.0000000000000000E+00     0.0000000000000000E+00 
    6.2499999999872928E-02     0.0000000000000000E+00     0.0000000000000000E+00 
    1.2499999999977310E-01     0.0000000000000000E+00     0.0000000000000000E+00 
    1.8749999999959341E-01     0.0000000000000000E+00     0.0000000000000000E+00 
    2.4999999999941089E-01     0.0000000000000000E+00     0.0000000000000000E+00 
    3.1249999999922851E-01     0.0000000000000000E+00     0.0000000000000000E+00 
    3.7499999999904610E-01     0.0000000000000000E+00     0.0000000000000000E+00 
    4.3749999999886358E-01     0.0000000000000000E+00     0.0000000000000000E+00 
    4.9999999999869210E-01     0.0000000000000000E+00     0.0000000000000000E+00 
    5.6249999999884603E-01     0.0000000000000000E+00     0.0000000000000000E+00 
    6.2499999999901090E-01     0.0000000000000000E+00     0.0000000000000000E+00 
    6.8749999999917577E-01     0.0000000000000000E+00     0.0000000000000000E+00 
    7.4999999999934064E-01     0.0000000000000000E+00     0.0000000000000000E+00 
    8.1249999999950551E-01     0.0000000000000000E+00     0.0000000000000000E+00 
    8.7499999999967026E-01     0.0000000000000000E+00     0.0000000000000000E+00 
    9.3749999999983513E-01     0.0000000000000000E+00     0.0000000000000000E+00 
    1.0000000000000000E+00     6.2499999999872928E-02     0.0000000000000000E+00 
    1.0000000000000000E+00     1.2499999999977310E-01     0.0000000000000000E+00 
    1.0000000000000000E+00     1.8749999999959341E-01     0.0000000000000000E+00 
    1.0000000000000000E+00     2.4999999999941089E-01     0.0000000000000000E+00 
    1.0000000000000000E+00     3.1249999999922851E-01     0.0000000000000000E+00 
    1.0000000000000000E+00     3.7499999999904610E-01     0.0000000000000000E+00 
    1.0000000000000000E+00     4.3749999999886358E-01     0.0000000000000000E+00 
    1.0000000000000000E+00     4.9999999999869210E-01     0.0000000000000000E+00 
    1.0000000000000000E+00     5.6249999999884603E-01     0.0000000000000000E+00 
    1.0000000000000000E+00     6.2499999999901090E-01     0.0000000000000000E+00 
    1.0000000000000000E+00     6.8749999999917577E-01     0.0000000000000000E+00 
    1.0000000000000000E+00     7.4999999999934064E-01     0.0000000000000000E+00 
    1.0000000000000000E+00     8.1249999999950551E-01     0.0000000000000000E+00 
    1.0000000000000000E+00     8.7499999999967026E-01     0.0000000000000000E+00 
    1.0000000000000000E+00     9.3749999999983513E-01     0.0000000000000000E+00 
    9.3749999999973976E-01     1.0000000000000000E+00     0.0000000000000000E+00 
    8.7499999999950118E-01     1.0000000000000000E+00     0.0000000000000000E+00 
    8.1249999999991318E-01     1.0000000000000000E+00     0.0000000000000000E+00 
    7.5000000000034706E-01     1.0000000000000000E+00     0.0000000000000000E+00 
    6.8750000000078049E-01     1.0000000000000000E+00     0.0000000000000000E+00 
    6.2500000000121403E-01     1.0000000000000000E+00     0.0000000000000000E+00 
    5.6250000000164757E-01     1.0000000000000000E+00     0.0000000000000000E+00 
    5.0000000000205946E-01     1.0000000000000000E+00     0.0000000000000000E+00 
    4.3750000000182099E-01     1.0000000000000000E+00     0.0000000000000000E+00 
    3.7500000000156092E-01     1.0000000000000000E+00     0.0000000000000000E+00 
    3.1250000000130068E-01     1.0000000000000000E+00     0.0000000000000000E+00 
    2.5000000000104050E-01     1.0000000000000000E+00     0.0000000000000000E+00 
    1.8750000000078040E-01     1.0000000000000000E+00     0.0000000000000000E+00 
    1.2500000000052031E-01     1.0000000000000000E+00     0.0000000000000000E+00 
    6.2500000000260125E-02     1.0000000000000000E+00     0.0000000000000000E+00 
    0.0000000000000000E+00     9.3749999999973976E-01     0.0000000000000000E+00 
    0.0000000000000000E+00     8.7499999999950118E-01     0.0000000000000000E+00 
    0.0000000000000000E+00     8.1249999999991318E-01     0.0000000000000000E+00 
    0.0000000000000000E+00     7.5000000000034706E-01     0.0000000000000000E+00 
    0.0000000000000000E+00     6.8750000000078049E-01     0.0000000000000000E+00 
    0.0000000000000000E+00     6.2500000000121403E-01     0.0000000000000000E+00 
    0.0000000000000000E+00     5.6250000000164757E-01     0.0000000000000000E+00 
    0.0000000000000000E+00     5.0000000000205946E-01     0.0000000000000000E+00 
    0.0000000000000000E+00     4.3750000000182099E-01     0.0000000000000000E+00 
    0.0000000000000000E+00     3.7500000000156092E-01     0.0000000000000000E+00 
    0.0000000000000000E+00     3.1250000000130068E-01     0.0000000000000000E+00 
    0.0000000000000000E+00     2.5000000000104050E-01     0.0000000000000000E+00 
    0.0000000000000000E+00     1.8750000000078040E-01     0.0000000000000000E+00 
    0.0000000000000000E+00     1.2500000000052031E-01     0.0000000000000000E+00 
    0.0000000000000000E+00     6.2500000000260125E-02     0.0000000000000000E+00 
    6.2499999999897131E-02     6.2500000000235922E-02     0.0000000000000000E+00 
    6.2499999999921327E-02     1.2500000000047351E-01     0.0000000000000000E+00 
    6.2499999999945530E-02     1.8750000000070621E-01     0.0000000000000000E+00 
    6.2499999999969733E-02     2.5000000000093858E-01     0.0000000000000000E+00 
    6.2499999999993928E-02     3.1250000000117117E-01     0.0000000000000000E+00 
    6.2500000000018124E-02     3.7500000000140382E-01     0.0000000000000000E+00 
    6.2500000000042327E-02     4.3750000000163619E-01     0.0000000000000000E+00 
    6.2500000000066530E-02     5.0000000000184897E-01     0.0000000000000000E+00 
    6.2500000000090733E-02     5.6250000000147260E-01     0.0000000000000000E+00 
    6.2500000000114922E-02     6.2500000000107636E-01     0.0000000000000000E+00 
    6.2500000000139125E-02     6.8750000000068034E-01     0.0000000000000000E+00 
    6.2500000000163328E-02     7.5000000000028411E-01     0.0000000000000000E+00 
    6.2500000000187531E-02     8.1249999999988787E-01     0.0000000000000000E+00 
    6.2500000000211720E-02     8.7499999999951172E-01     0.0000000000000000E+00 
    6.2500000000235922E-02     9.3749999999974565E-01     0.0000000000000000E+00 
    1.2499999999981980E-01     6.2500000000211733E-02     0.0000000000000000E+00 
    1.2499999999986650E-01     1.2500000000042691E-01     0.0000000000000000E+00 
    1.2499999999991319E-01     1.8750000000063199E-01     0.0000000000000000E+00 
    1.2499999999995989E-01     2.5000000000083678E-01     0.0000000000000000E+00 
    1.2500000000000661E-01     3.1250000000104172E-01     0.0000000000000000E+00 
    1.2500000000005329E-01     3.7500000000124661E-01     0.0000000000000000E+00 
    1.2500000000010000E-01     4.3750000000145117E-01     0.0000000000000000E+00 
    1.2500000000014669E-01     5.0000000000163858E-01     0.0000000000000000E+00 
    1.2500000000019340E-01     5.6250000000129741E-01     0.0000000000000000E+00 
    1.2500000000024011E-01     6.2500000000093847E-01     0.0000000000000000E+00 
    1.2500000000028680E-01     6.8750000000057998E-01     0.0000000000000000E+00 
    1.2500000000033351E-01     7.5000000000022127E-01     0.0000000000000000E+00 
    1.2500000000038020E-01     8.1249999999986211E-01     0.0000000000000000E+00 
    1.2500000000042691E-01     8.7499999999952238E-01     0.0000000000000000E+00 
    1.2500000000047359E-01     9.3749999999975164E-01     0.0000000000000000E+00 
    1.8749999999966760E-01     6.2500000000187531E-02     0.0000000000000000E+00 
    1.8749999999974179E-01     1.2500000000038020E-01     0.0000000000000000E+00 
    1.8749999999981601E-01     1.8750000000055780E-01     0.0000000000000000E+00 
    1.8749999999989009E-01     2.5000000000073502E-01     0.0000000000000000E+00 
    1.8749999999996431E-01     3.1250000000091221E-01     0.0000000000000000E+00 
    1.8750000000003850E-01     3.7500000000108941E-01     0.0000000000000000E+00 
    1.8750000000011269E-01     4.3750000000126649E-01     0.0000000000000000E+00 
    1.8750000000018691E-01     5.0000000000142808E-01     0.0000000000000000E+00 
    1.8750000000026110E-01     5.6250000000112244E-01     0.0000000000000000E+00 
    1.8750000000033529E-01     6.2500000000080080E-01     0.0000000000000000E+00 
    1.8750000000040951E-01     6.8750000000047962E-01     0.0000000000000000E+00 
    1.8750000000048361E-01     7.5000000000015843E-01     0.0000000000000000E+00 
    1.8750000000055780E-01     8.1249999999983680E-01     0.0000000000000000E+00 
    1.8750000000063199E-01     8.7499999999953304E-01     0.0000000000000000E+00 
    1.8750000000070621E-01     9.3749999999975764E-01     0.0000000000000000E+00 
    2.4999999999951281E-01     6.2500000000163314E-02     0.0000000000000000E+00 
    2.4999999999961461E-01     1.2500000000033351E-01     0.0000000000000000E+00 
    2.4999999999971650E-01     1.8750000000048361E-01     0.0000000000000000E+00 
    2.4999999999981831E-01     2.5000000000063310E-01     0.0000000000000000E+00 
    2.4999999999992020E-01     3.1250000000078260E-01     0.0000000000000000E+00 
    2.5000000000002198E-01     3.7500000000093209E-01     0.0000000000000000E+00 
    2.5000000000012390E-01     4.3750000000108180E-01     0.0000000000000000E+00 
    2.5000000000022571E-01     5.0000000000121769E-01     0.0000000000000000E+00 
    2.5000000000032763E-01     5.6250000000094724E-01     0.0000000000000000E+00 
    2.5000000000042938E-01     6.2500000000066314E-01     0.0000000000000000E+00 
    2.5000000000053119E-01     6.8750000000037925E-01     0.0000000000000000E+00 
[...]
CELL_DATA 256 
SCALARS Pressure double 1 
LOOKUP_TABLE default 

    1.1687464267909231E+00 
    1.1557161249119556E+00 
    1.1400803820216583E+00 
    1.1244259581296250E+00 
    1.1113911274818071E+00 
    1.0993335183168162E+00 
    1.0852393416444657E+00 
    1.0723869362451148E+00 
    1.0601882474811637E+00 
    1.0500740846645928E+00 
    1.0413257173516284E+00 
    1.0339753230034536E+00 
    1.0273422732130224E+00 
    1.0213834907616919E+00 
    1.0163743868776420E+00 
    1.0127056126938512E+00 
    1.1098812245700482E+00 
    1.1049424364303664E+00 
    1.0981102861131418E+00 
    1.0894749848063883E+00 
    1.0790606686715714E+00 
    1.0668566911169601E+00 
    1.0545269122642151E+00 
    1.0418403771480287E+00 
    1.0291702273097167E+00 
    1.0190926075692075E+00 
    1.0113153909284456E+00 
    1.0047010832094758E+00 
    9.9901320213097278E-01 
    9.9491991814138747E-01 
    9.9230764336687016E-01 
    9.9060229313769788E-01 
    1.0528444442432185E+00 
    1.0498351845645941E+00 
    1.0452661530666294E+00 
    1.0381491404568901E+00 
    1.0283732830545707E+00 
    1.0169528200719899E+00 
    1.0051754387322109E+00 
    9.9348189689194710E-01 
    9.8243495414821913E-01 
    9.7363660399116803E-01 
    9.6701961343085507E-01 
    9.6135793948233983E-01 
    9.5677125912563599E-01 
    9.5424839457750321E-01 
    9.5352606371127813E-01 
    9.5360637890198341E-01 
    9.8341924689475324E-01 
    9.8189634179986773E-01 
    9.7829763606590714E-01 
    9.7195696666839615E-01 
    9.6338072047119006E-01 
    9.5410543508471479E-01 
    9.4535990440691897E-01 
    9.3690355549835258E-01 
    9.2864087439985210E-01 
    9.2195877995418518E-01 
    9.1699187227839329E-01 
    9.1263501460593821E-01 
    9.0925146640190257E-01 
    9.0803380537813361E-01 
    9.0865540278092305E-01 
    9.0966298542045276E-01 
    9.0872381735117935E-01 
    9.0780195366828842E-01 
    9.0411212020299536E-01 
    8.9934438876298739E-01 
    8.9391961828998268E-01 
    8.8867281089115180E-01 
    8.8375768956135958E-01 
    8.7895245420817225E-01 
    8.7381496451825413E-01 
    8.6979509085777507E-01 
    8.6693617698839587E-01 
    8.6438279909076932E-01 
    8.6216991122115516E-01 
    8.6172990610497857E-01 
    8.6236214668923650E-01 
    8.6233008528057742E-01 
    8.3462784872125839E-01 
    8.3328375506924057E-01 
    8.3090057760754932E-01 
    8.2806627170988567E-01 
    8.2560970426323632E-01 
    8.2373114753920273E-01 
    8.2190446510399806E-01 
    8.2010865874290562E-01 
    8.1880971395149982E-01 
    8.1817832709203131E-01 
    8.1742614945543501E-01 
    8.1599934044467604E-01 
    8.1436711398174544E-01 
    8.1273445435861191E-01 
    8.1103782797116164E-01 
    8.0966603719821262E-01 
    7.6186003052139550E-01 
    7.6170835562844075E-01 
    7.6120892106888949E-01 
    7.6081473726645366E-01 
    7.6064489108773414E-01 
    7.6017429316562990E-01 
    7.5858398264371374E-01 
    7.5694865546862333E-01 
    7.5662022090427150E-01 
    7.5643035419842386E-01 
    7.5537676059719949E-01 
    7.5402866802697466E-01 
    7.5328849423577260E-01 
    7.5273686887710867E-01 
    7.5250660716162998E-01 
    7.5230066059249068E-01 
    6.9801629848056346E-01 
    6.9862219781418644E-01 
    6.9891743301127018E-01 
    6.9907313541479832E-01 
    6.9892962870424791E-01 
    6.9829808555701023E-01 
    6.9700633934015988E-01 
    6.9543465835875917E-01 
    6.9414642920132852E-01 
    6.9322357724280315E-01 
    6.9216630066480644E-01 
    6.9104941643717033E-01 
    6.9029065295411940E-01 
    6.9049448422853266E-01 
    6.9166529291900780E-01 
    6.9268646839206460E-01 
    6.4065069783664186E-01 
    6.4107866628926646E-01 
    6.4061066813121281E-01 
    6.4010940445143205E-01 
    6.3919752285333542E-01 
    6.3794499467080545E-01 
    6.3641254468824182E-01 
    6.3507534265958332E-01 
    6.3364372880962372E-01 
    6.3296761621178455E-01 
    6.3244022044296533E-01 
    6.3172957078241543E-01 
    6.3104046520605106E-01 
    6.3167344520118107E-01 
    6.3315910313618540E-01 
    6.3364145775826508E-01 
    5.8253639271106739E-01 
    5.8203765615076397E-01 
    5.8092105608571032E-01 
    5.7964880972957877E-01 
    5.7857029336963417E-01 
    5.7765471976692850E-01 
    5.7670219474264905E-01 
    5.7625321676344865E-01 
    5.7638810304181742E-01 
    5.7704263230117225E-01 
    5.7775537157885948E-01 
    5.7724557477305538E-01 
    5.7618002170874927E-01 
    5.7479113356326528E-01 
    5.7329005254126009E-01 
    5.7238613302831032E-01 
    5.2572012493434095E-01 
    5.2532074042672106E-01 
    5.2457919278211840E-01 
    5.2385998610704310E-01 
    5.2317044264631873E-01 
    5.2192220851986593E-01 
    5.1969734674655621E-01 
    5.1812756434853768E-01 
    5.1734872178686653E-01 
    5.1608050779501702E-01 
    5.1405471073991382E-01 
    5.1202604769547755E-01 
    5.1066749857763305E-01 
    5.0948567547321777E-01 
    5.0881949424241513E-01 
    5.0847929041244511E-01 
    4.7428536233340335E-01 
    4.7393191493222608E-01 
    4.7310880237104569E-01 
    4.7180568064230211E-01 
    4.6996691691215353E-01 
    4.6761645018093417E-01 
    4.6493872772572747E-01 
    4.6161191471481156E-01 
    4.5752419842451980E-01 
    4.5300526485732195E-01 
    4.4882635495668727E-01 
    4.4504403689928923E-01 
    4.4190339856304245E-01 
    4.4017399222774495E-01 
    4.3999236550540749E-01 
    4.4051292709904971E-01 
    4.2435833805825202E-01 
    4.2379764988743879E-01 
    4.2249068163321041E-01 
    4.2025068401690796E-01 
    4.1714644878793189E-01 
    4.1349764191507238E-01 
    4.0942659417093530E-01 
    4.0389352849910043E-01 
    3.9703221437042757E-01 
    3.8987610809277329E-01 
    3.8320911686850040E-01 
    3.7692410641723390E-01 
    3.7167671962186155E-01 
    3.6888220868800253E-01 
    3.6859554997153049E-01 
    3.6955258985496381E-01 
    3.7527145774487813E-01 
    3.7446579446764561E-01 
    3.7263684177601342E-01 
    3.6943889916555106E-01 
    3.6500192569177625E-01 
    3.5986585125777121E-01 
    3.5429557004462031E-01 
    3.4682313280986449E-01 
    3.3758471680842789E-01 
    3.2793990793870953E-01 
    3.1858895734559656E-01 
    3.0945028811831843E-01 
    3.0133851459198091E-01 
    2.9601070629498538E-01 
    2.9352360476717149E-01 
    2.9283740489456839E-01 
    3.3041618027649666E-01 
    3.2941907748109278E-01 
    3.2716952466768923E-01 
    3.2316710634963597E-01 
    3.1755815757853756E-01 
    3.1110558135159988E-01 
    3.0439864595301269E-01 
    2.9566521597349893E-01 
    2.8470949025113684E-01 
    2.7259585771834577E-01 
    2.5976712537340835E-01 
    2.4600364415715259E-01 
    2.3134340946495968E-01 
    2.1696850548334559E-01 
    2.0370865121590737E-01 
    1.9399786373389924E-01 
    3.0177279868145068E-01 
    3.0058872525526020E-01 
    2.9797512347032318E-01 
    2.9343381272369840E-01 
    2.8713140273543536E-01 
    2.8004066157512325E-01 
    2.7324080031698456E-01 
    2.6472083852663575E-01 
    2.5277790925994592E-01 
    2.3686737892371768E-01 
    2.1831479598861728E-01 
    1.9554175354663450E-01 
    1.6433194842255144E-01 
    1.2217485768452560E-01 
    6.7914609603756615E-02 
    0.0000000000000000E+00 

SCALARS Saturarion double 1 
LOOKUP_TABLE default 

    9.9995443288775276E-01 
    8.8059680691089348E-01 
    7.5071070389358663E-01 
    6.5900267202991003E-01 
    5.8259418450663336E-01 
    5.2142874083918422E-01 
    4.6426896102079751E-01 
    1.9731100893466036E-01 
    1.2887483076879750E-06 
    1.0000003487868965E-06 
    9.9999999999999741E-07 
    9.9999999999999995E-07 
    9.9999999999999995E-07 
    9.9999999999999995E-07 
    9.9999999999999995E-07 
    9.9999999999999995E-07 
    7.9624733659301183E-01 
    7.5567819714817575E-01 
    6.7817748591469040E-01 
    6.1446637978611884E-01 
    5.5019058746153904E-01 
    4.9129764916088331E-01 
    3.9670885413152895E-01 
    6.5629910679651321E-02 
    1.4384321316113501E-04 
    1.0025760101821349E-06 
    1.0000000000032856E-06 
    9.9999999999999995E-07 
    9.9999999999999995E-07 
    9.9999999999999995E-07 
    9.9999999999999995E-07 
    9.9999999999999995E-07 
    5.9694821140057064E-01 
    5.8256742117272853E-01 
    5.4955683159798441E-01 
    5.1807649923074661E-01 
    4.7125649845809325E-01 
    3.7030404929567318E-01 
    1.1309109025433320E-01 
    8.4168719789491132E-04 
    1.1100040998638532E-06 
    1.0000000051065378E-06 
    1.0000000000000002E-06 
    9.9999999999999995E-07 
    9.9999999999999995E-07 
    9.9999999999999995E-07 
    9.9999999999999995E-07 
    9.9999999999999995E-07 
    4.3290100426961403E-01 
    4.1776740215835478E-01 
    3.7519478211418422E-01 
    2.9402438273489978E-01 
    1.6423293902272315E-01 
    3.3878361116139129E-02 
    4.6164349589997611E-04 
    1.0956786807972248E-06 
    1.0000000287568399E-06 
    1.0000000000000019E-06 
    9.9999999999999995E-07 
    9.9999999999999995E-07 
    9.9999999999999995E-07 
    9.9999999999999995E-07 
    9.9999999999999995E-07 
    9.9999999999999995E-07 
    2.8075256323103898E-02 
    1.6101966145322666E-02 
    4.9449596065101742E-03 
    1.2422190611939303E-03 
    2.0894072710959287E-04 
    3.7215960989660883E-05 
    1.0209128788038842E-06 
    1.0000000075408238E-06 
    1.0000000000000023E-06 
    9.9999999999999995E-07 
    9.9999999999999995E-07 
    9.9999999999999995E-07 
    9.9999999999999995E-07 
    9.9999999999999995E-07 
    9.9999999999999995E-07 
    9.9999999999999995E-07 
    1.0000012700506122E-06 
    2.0830384743011569E-06 
    1.4548321144095043E-06 
    1.0403140627295302E-06 
    1.0160382063272730E-06 
    1.0000982982063094E-06 
    1.0000000003839966E-06 
    1.0000000000000004E-06 
    9.9999999999999995E-07 
    9.9999999999999995E-07 
    9.9999999999999995E-07 
    9.9999999999999995E-07 
    9.9999999999999995E-07 
    9.9999999999999995E-07 
    9.9999999999999995E-07 
    9.9999999999999995E-07 
    1.0000000000004086E-06 
    1.0000002605476443E-06 
    1.0000000818702136E-06 
    1.0000000056939949E-06 
    1.0000000000000004E-06 
    1.0000000000000004E-06 
    9.9999999999999995E-07 
    9.9999999999999995E-07 
    9.9999999999999995E-07 
    9.9999999999999995E-07 
    9.9999999999999995E-07 
    9.9999999999999995E-07 
    9.9999999999999995E-07 
    9.9999999999999995E-07 
    9.9999999999999995E-07 
    9.9999999999999995E-07 
    9.9999999999999995E-07 
    1.0000000000000019E-06 
    9.9999999999999974E-07 
    1.0000000000000002E-06 
    9.9999999999999995E-07 
    9.9999999999999995E-07 
    9.9999999999999995E-07 
    9.9999999999999995E-07 
    9.9999999999999995E-07 
    9.9999999999999995E-07 
    9.9999999999999995E-07 
    9.9999999999999995E-07 
    9.9999999999999995E-07 
    9.9999999999999995E-07 
    9.9999999999999995E-07 
    9.9999999999999995E-07 
    9.9999999999999995E-07 
    9.9999999999999995E-07 
    9.9999999999999995E-07 
    9.9999999999999995E-07 
    9.9999999999999995E-07 
    9.9999999999999995E-07 
    9.9999999999999995E-07 
    9.9999999999999995E-07 
    9.9999999999999995E-07 
    9.9999999999999995E-07 
    9.9999999999999995E-07 
    9.9999999999999995E-07 
    9.9999999999999995E-07 
    9.9999999999999995E-07 
    9.9999999999999995E-07 
    9.9999999999999995E-07 
    9.9999999999999995E-07 
    9.9999999999999995E-07 
    9.9999999999999995E-07 
    9.9999999999999995E-07 
    9.9999999999999995E-07 
    9.9999999999999995E-07 
    9.9999999999999995E-07 
    9.9999999999999995E-07 
    9.9999999999999995E-07 
    9.9999999999999995E-07 
    9.9999999999999995E-07 
    9.9999999999999995E-07 
    9.9999999999999995E-07 
    9.9999999999999995E-07 
    9.9999999999999995E-07 
    9.9999999999999995E-07 
    9.9999999999999995E-07 
    9.9999999999999995E-07 
    9.9999999999999995E-07 
    9.9999999999999995E-07 
    9.9999999999999995E-07 
    9.9999999999999995E-07 
    9.9999999999999995E-07 
    9.9999999999999995E-07 
    9.9999999999999995E-07 
    9.9999999999999995E-07 
    9.9999999999999995E-07 
    9.9999999999999995E-07 
    9.9999999999999995E-07 
    9.9999999999999995E-07 
    9.9999999999999995E-07 
    9.9999999999999995E-07 
    9.9999999999999995E-07 
    9.9999999999999995E-07 
    9.9999999999999995E-07 
    9.9999999999999995E-07 
    9.9999999999999995E-07 
    9.9999999999999995E-07 
    9.9999999999999995E-07 
    9.9999999999999995E-07 
    9.9999999999999995E-07 
    9.9999999999999995E-07 
    9.9999999999999995E-07 
    9.9999999999999995E-07 
    9.9999999999999995E-07 
    9.9999999999999995E-07 
    9.9999999999999995E-07 
    9.9999999999999995E-07 
    9.9999999999999995E-07 
    9.9999999999999995E-07 
    9.9999999999999995E-07 
    9.9999999999999995E-07 
    9.9999999999999995E-07 
    9.9999999999999995E-07 
    9.9999999999999995E-07 
    9.9999999999999995E-07 
    9.9999999999999995E-07 
    9.9999999999999995E-07 
    9.9999999999999995E-07 
    9.9999999999999995E-07 
    9.9999999999999995E-07 
    9.9999999999999995E-07 
    9.9999999999999995E-07 
    9.9999999999999995E-07 
    9.9999999999999995E-07 
    9.9999999999999995E-07 
    9.9999999999999995E-07 
    9.9999999999999995E-07 
    9.9999999999999995E-07 
    9.9999999999999995E-07 
    9.9999999999999995E-07 
    9.9999999999999995E-07 
    9.9999999999999995E-07 
    9.9999999999999995E-07 
    9.9999999999999995E-07 
    9.9999999999999995E-07 
    9.9999999999999995E-07 
    9.9999999999999995E-07 
    9.9999999999999995E-07 
    9.9999999999999995E-07 
    9.9999999999999995E-07 
    9.9999999999999995E-07 
    9.9999999999999995E-07 
    9.9999999999999995E-07 
    9.9999999999999995E-07 
    9.9999999999999995E-07 
    9.9999999999999995E-07 
    9.9999999999999995E-07 
    9.9999999999999995E-07 
    9.9999999999999995E-07 
    9.9999999999999995E-07 
    9.9999999999999995E-07 
    9.9999999999999995E-07 
    9.9999999999999995E-07 
    9.9999999999999995E-07 
    9.9999999999999995E-07 
    9.9999999999999995E-07 
    9.9999999999999995E-07 
    9.9999999999999995E-07 
    9.9999999999999995E-07 
    9.9999999999999995E-07 
    9.9999999999999995E-07 
    9.9999999999999995E-07 
    9.9999999999999995E-07 
    9.9999999999999995E-07 
    9.9999999999999995E-07 
    9.9999999999999995E-07 
    9.9999999999999995E-07 
    9.9999999999999995E-07 
    9.9999999999999995E-07 
    9.9999999999999995E-07 
    1.0000000145684845E-06 
