# vtk DataFile Version 2.0
Pressure Field Data 
ASCII 
DATASET UNSTRUCTURED_GRID 

POINTS 289 double 

    0.0000000000000000E+00     0.0000000000000000E+00     0.0000000000000000E+00 
    1.0000000000000000E+00     0.0000000000000000E+00     0.0000000000000000E+00 
    1.0000000000000000E+00     1.0000000000000000E+00     0.0000000000000000E+00 
    0.0000000000000000E+00     1.0000000000000000E+00     0.0000000000000000E+00 
    6.2499999999872928E-02     0.0000000000000000E+00     0.0000000000000000E+00 
    1.2499999999977310E-01     0.0000000000000000E+00     0.0000000000000000E+00 
    1.8749999999959341E-01     0.0000000000000000E+00     0.0000000000000000E+00 
    2.4999999999941089E-01     0.0000000000000000E+00     0.0000000000000000E+00 
    3.1249999999922851E-01     0.0000000000000000E+00     0.0000000000000000E+00 
    3.7499999999904610E-01     0.0000000000000000E+00     0.0000000000000000E+00 
    4.3749999999886358E-01     0.0000000000000000E+00     0.0000000000000000E+00 
    4.9999999999869210E-01     0.0000000000000000E+00     0.0000000000000000E+00 
    5.6249999999884603E-01     0.0000000000000000E+00     0.0000000000000000E+00 
    6.2499999999901090E-01     0.0000000000000000E+00     0.0000000000000000E+00 
    6.8749999999917577E-01     0.0000000000000000E+00     0.0000000000000000E+00 
    7.4999999999934064E-01     0.0000000000000000E+00     0.0000000000000000E+00 
    8.1249999999950551E-01     0.0000000000000000E+00     0.0000000000000000E+00 
    8.7499999999967026E-01     0.0000000000000000E+00     0.0000000000000000E+00 
    9.3749999999983513E-01     0.0000000000000000E+00     0.0000000000000000E+00 
    1.0000000000000000E+00     6.2499999999872928E-02     0.0000000000000000E+00 
    1.0000000000000000E+00     1.2499999999977310E-01     0.0000000000000000E+00 
    1.0000000000000000E+00     1.8749999999959341E-01     0.0000000000000000E+00 
    1.0000000000000000E+00     2.4999999999941089E-01     0.0000000000000000E+00 
    1.0000000000000000E+00     3.1249999999922851E-01     0.0000000000000000E+00 
    1.0000000000000000E+00     3.7499999999904610E-01     0.0000000000000000E+00 
    1.0000000000000000E+00     4.3749999999886358E-01     0.0000000000000000E+00 
    1.0000000000000000E+00     4.9999999999869210E-01     0.0000000000000000E+00 
    1.0000000000000000E+00     5.6249999999884603E-01     0.0000000000000000E+00 
    1.0000000000000000E+00     6.2499999999901090E-01     0.0000000000000000E+00 
    1.0000000000000000E+00     6.8749999999917577E-01     0.0000000000000000E+00 
    1.0000000000000000E+00     7.4999999999934064E-01     0.0000000000000000E+00 
    1.0000000000000000E+00     8.1249999999950551E-01     0.0000000000000000E+00 
    1.0000000000000000E+00     8.7499999999967026E-01     0.0000000000000000E+00 
    1.0000000000000000E+00     9.3749999999983513E-01     0.0000000000000000E+00 
    9.3749999999973976E-01     1.0000000000000000E+00     0.0000000000000000E+00 
    8.7499999999950118E-01     1.0000000000000000E+00     0.0000000000000000E+00 
    8.1249999999991318E-01     1.0000000000000000E+00     0.0000000000000000E+00 
    7.5000000000034706E-01     1.0000000000000000E+00     0.0000000000000000E+00 
    6.8750000000078049E-01     1.0000000000000000E+00     0.0000000000000000E+00 
    6.2500000000121403E-01     1.0000000000000000E+00     0.0000000000000000E+00 
    5.6250000000164757E-01     1.0000000000000000E+00     0.0000000000000000E+00 
    5.0000000000205946E-01     1.0000000000000000E+00     0.0000000000000000E+00 
    4.3750000000182099E-01     1.0000000000000000E+00     0.0000000000000000E+00 
    3.7500000000156092E-01     1.0000000000000000E+00     0.0000000000000000E+00 
    3.1250000000130068E-01     1.0000000000000000E+00     0.0000000000000000E+00 
    2.5000000000104050E-01     1.0000000000000000E+00     0.0000000000000000E+00 
    1.8750000000078040E-01     1.0000000000000000E+00     0.0000000000000000E+00 
    1.2500000000052031E-01     1.0000000000000000E+00     0.0000000000000000E+00 
    6.2500000000260125E-02     1.0000000000000000E+00     0.0000000000000000E+00 
    0.0000000000000000E+00     9.3749999999973976E-01     0.0000000000000000E+00 
    0.0000000000000000E+00     8.7499999999950118E-01     0.0000000000000000E+00 
    0.0000000000000000E+00     8.1249999999991318E-01     0.0000000000000000E+00 
    0.0000000000000000E+00     7.5000000000034706E-01     0.0000000000000000E+00 
    0.0000000000000000E+00     6.8750000000078049E-01     0.0000000000000000E+00 
    0.0000000000000000E+00     6.2500000000121403E-01     0.0000000000000000E+00 
    0.0000000000000000E+00     5.6250000000164757E-01     0.0000000000000000E+00 
    0.0000000000000000E+00     5.0000000000205946E-01     0.0000000000000000E+00 
    0.0000000000000000E+00     4.3750000000182099E-01     0.0000000000000000E+00 
    0.0000000000000000E+00     3.7500000000156092E-01     0.0000000000000000E+00 
    0.0000000000000000E+00     3.1250000000130068E-01     0.0000000000000000E+00 
    0.0000000000000000E+00     2.5000000000104050E-01     0.0000000000000000E+00 
    0.0000000000000000E+00     1.8750000000078040E-01     0.0000000000000000E+00 
    0.0000000000000000E+00     1.2500000000052031E-01     0.0000000000000000E+00 
    0.0000000000000000E+00     6.2500000000260125E-02     0.0000000000000000E+00 
    6.2499999999897131E-02     6.2500000000235922E-02     0.0000000000000000E+00 
    6.2499999999921327E-02     1.2500000000047351E-01     0.0000000000000000E+00 
    6.2499999999945530E-02     1.8750000000070621E-01     0.0000000000000000E+00 
    6.2499999999969733E-02     2.5000000000093858E-01     0.0000000000000000E+00 
    6.2499999999993928E-02     3.1250000000117117E-01     0.0000000000000000E+00 
    6.2500000000018124E-02     3.7500000000140382E-01     0.0000000000000000E+00 
    6.2500000000042327E-02     4.3750000000163619E-01     0.0000000000000000E+00 
    6.2500000000066530E-02     5.0000000000184897E-01     0.0000000000000000E+00 
    6.2500000000090733E-02     5.6250000000147260E-01     0.0000000000000000E+00 
    6.2500000000114922E-02     6.2500000000107636E-01     0.0000000000000000E+00 
    6.2500000000139125E-02     6.8750000000068034E-01     0.0000000000000000E+00 
    6.2500000000163328E-02     7.5000000000028411E-01     0.0000000000000000E+00 
    6.2500000000187531E-02     8.1249999999988787E-01     0.0000000000000000E+00 
    6.2500000000211720E-02     8.7499999999951172E-01     0.0000000000000000E+00 
    6.2500000000235922E-02     9.3749999999974565E-01     0.0000000000000000E+00 
    1.2499999999981980E-01     6.2500000000211733E-02     0.0000000000000000E+00 
    1.2499999999986650E-01     1.2500000000042691E-01     0.0000000000000000E+00 
    1.2499999999991319E-01     1.8750000000063199E-01     0.0000000000000000E+00 
    1.2499999999995989E-01     2.5000000000083678E-01     0.0000000000000000E+00 
    1.2500000000000661E-01     3.1250000000104172E-01     0.0000000000000000E+00 
    1.2500000000005329E-01     3.7500000000124661E-01     0.0000000000000000E+00 
    1.2500000000010000E-01     4.3750000000145117E-01     0.0000000000000000E+00 
    1.2500000000014669E-01     5.0000000000163858E-01     0.0000000000000000E+00 
    1.2500000000019340E-01     5.6250000000129741E-01     0.0000000000000000E+00 
    1.2500000000024011E-01     6.2500000000093847E-01     0.0000000000000000E+00 
    1.2500000000028680E-01     6.8750000000057998E-01     0.0000000000000000E+00 
    1.2500000000033351E-01     7.5000000000022127E-01     0.0000000000000000E+00 
    1.2500000000038020E-01     8.1249999999986211E-01     0.0000000000000000E+00 
    1.2500000000042691E-01     8.7499999999952238E-01     0.0000000000000000E+00 
    1.2500000000047359E-01     9.3749999999975164E-01     0.0000000000000000E+00 
    1.8749999999966760E-01     6.2500000000187531E-02     0.0000000000000000E+00 
    1.8749999999974179E-01     1.2500000000038020E-01     0.0000000000000000E+00 
    1.8749999999981601E-01     1.8750000000055780E-01     0.0000000000000000E+00 
    1.8749999999989009E-01     2.5000000000073502E-01     0.0000000000000000E+00 
    1.8749999999996431E-01     3.1250000000091221E-01     0.0000000000000000E+00 
    1.8750000000003850E-01     3.7500000000108941E-01     0.0000000000000000E+00 
    1.8750000000011269E-01     4.3750000000126649E-01     0.0000000000000000E+00 
    1.8750000000018691E-01     5.0000000000142808E-01     0.0000000000000000E+00 
    1.8750000000026110E-01     5.6250000000112244E-01     0.0000000000000000E+00 
    1.8750000000033529E-01     6.2500000000080080E-01     0.0000000000000000E+00 
    1.8750000000040951E-01     6.8750000000047962E-01     0.0000000000000000E+00 
    1.8750000000048361E-01     7.5000000000015843E-01     0.0000000000000000E+00 
    1.8750000000055780E-01     8.1249999999983680E-01     0.0000000000000000E+00 
    1.8750000000063199E-01     8.7499999999953304E-01     0.0000000000000000E+00 
    1.8750000000070621E-01     9.3749999999975764E-01     0.0000000000000000E+00 
    2.4999999999951281E-01     6.2500000000163314E-02     0.0000000000000000E+00 
    2.4999999999961461E-01     1.2500000000033351E-01     0.0000000000000000E+00 
    2.4999999999971650E-01     1.8750000000048361E-01     0.0000000000000000E+00 
    2.4999999999981831E-01     2.5000000000063310E-01     0.0000000000000000E+00 
    2.4999999999992020E-01     3.1250000000078260E-01     0.0000000000000000E+00 
    2.5000000000002198E-01     3.7500000000093209E-01     0.0000000000000000E+00 
    2.5000000000012390E-01     4.3750000000108180E-01     0.0000000000000000E+00 
    2.5000000000022571E-01     5.0000000000121769E-01     0.0000000000000000E+00 
    2.5000000000032763E-01     5.6250000000094724E-01     0.0000000000000000E+00 
    2.5000000000042938E-01     6.2500000000066314E-01     0.0000000000000000E+00 
    2.5000000000053119E-01     6.8750000000037925E-01     0.0000000000000000E+00 
[...]
CELL_DATA 256 
SCALARS Pressure double 1 
LOOKUP_TABLE default 

    8.5026316591875772E-01 
    8.3800242372539713E-01 
    8.2581742657311941E-01 
    8.1482421062625676E-01 
    8.0690966543042064E-01 
    8.0360674355099915E-01 
    7.9765885046832541E-01 
    7.9277409987515801E-01 
    7.8936752916109698E-01 
    7.8741750994584014E-01 
    7.8481401143386997E-01 
    7.8229253813416089E-01 
    7.7963271543011814E-01 
    7.7677139895183622E-01 
    7.7413857943364317E-01 
    7.7244663700786276E-01 
    8.0584230787520883E-01 
    8.0247333479071414E-01 
    7.9849442671577020E-01 
    7.9421198429114381E-01 
    7.8999476346817332E-01 
    7.8534313767597641E-01 
    7.8033957623792061E-01 
    7.7740970716670488E-01 
    7.7426150146151518E-01 
    7.7107502962676788E-01 
    7.6830287833044508E-01 
    7.6631640837861059E-01 
    7.6430341236347388E-01 
    7.6269873544242162E-01 
    7.6157043681970604E-01 
    7.6080171264352270E-01 
    7.7356188487132160E-01 
    7.7201637199779560E-01 
    7.7022357200527303E-01 
    7.6800835019038982E-01 
    7.6522910831765445E-01 
    7.6153563125034118E-01 
    7.5740239664725184E-01 
    7.5496551504103371E-01 
    7.5181939284467536E-01 
    7.4849746747904489E-01 
    7.4587120273579832E-01 
    7.4428262243098553E-01 
    7.4263726332810731E-01 
    7.4174908968738762E-01 
    7.4151140483575706E-01 
    7.4149419938710603E-01 
    7.4075670300337570E-01 
    7.4058491462689902E-01 
    7.4027734004675705E-01 
    7.3950387242406912E-01 
    7.3797509891627211E-01 
    7.3528301689068520E-01 
    7.3192455260824674E-01 
    7.2976349201733637E-01 
    7.2681952980840692E-01 
    7.2366574990357180E-01 
    7.2133728389302831E-01 
    7.2011151249877958E-01 
    7.1875533252949442E-01 
    7.1828818014048101E-01 
    7.1856272952746347E-01 
    7.1885843296257768E-01 
    7.1051697635141420E-01 
    7.1259201975108155E-01 
    7.1250499647232790E-01 
    7.1182855919370858E-01 
    7.1044599530079622E-01 
    7.0785926192434756E-01 
    7.0471964511997887E-01 
    7.0335149702240651E-01 
    7.0104007260007595E-01 
    6.9822808835122696E-01 
    6.9623005726090459E-01 
    6.9586497028356242E-01 
    6.9478063144332003E-01 
    6.9435714635390122E-01 
    6.9436557870895488E-01 
    6.9401891461259357E-01 
    6.8564272578886731E-01 
    6.8418603097104780E-01 
    6.8194352926029800E-01 
    6.7876328518344820E-01 
    6.7540733556904109E-01 
    6.7311513703096570E-01 
    6.7209470477850408E-01 
    6.7163935885953308E-01 
    6.7108068836086288E-01 
    6.7112186257121209E-01 
    6.7116130207672697E-01 
    6.7047312713285101E-01 
    6.6890541940950043E-01 
    6.6730374568935946E-01 
    6.6592258924328906E-01 
    6.6513080128764401E-01 
    6.4087782288632567E-01 
    6.4055215344619232E-01 
    6.3973339096024195E-01 
    6.3855547726322037E-01 
    6.3756348794346118E-01 
    6.3758479202069718E-01 
    6.3784131656984500E-01 
    6.3573735670122167E-01 
    6.3499716608906320E-01 
    6.3526734245337935E-01 
    6.3538478861844960E-01 
    6.3408099532819939E-01 
    6.3340332617884987E-01 
    6.3288318578515235E-01 
    6.3258011428395200E-01 
    6.3239897075358920E-01 
    5.9959749626465209E-01 
    6.0050841623085904E-01 
    6.0116372296951448E-01 
    6.0156258111510286E-01 
    6.0169094665339373E-01 
    6.0154805646093423E-01 
    6.0082968136344694E-01 
    5.9965548571460980E-01 
    5.9851297515554347E-01 
    5.9764769648902150E-01 
    5.9688019780414259E-01 
    5.9620250986142920E-01 
    5.9568416841460681E-01 
    5.9570264856085631E-01 
    5.9622285620887561E-01 
    5.9645785525134221E-01 
    5.6385355486814681E-01 
    5.6572110388621155E-01 
    5.6580594833990006E-01 
    5.6568326929564983E-01 
    5.6507517370869198E-01 
    5.6378930845118402E-01 
    5.6209522009081436E-01 
    5.6132261781701986E-01 
    5.5991606797263638E-01 
    5.5884017136125541E-01 
    5.5832638263933099E-01 
    5.5849177025159691E-01 
    5.5804908629903205E-01 
    5.5810530504556399E-01 
    5.5843303892776708E-01 
    5.5787201033600620E-01 
    5.3051011933016634E-01 
    5.2977308101423481E-01 
    5.2819653275957779E-01 
    5.2595359532968966E-01 
    5.2368019926939857E-01 
    5.2193129673068106E-01 
    5.2054024232384488E-01 
    5.1962611608098186E-01 
    5.1923486406202035E-01 
    5.1994380361042292E-01 
    5.2097823796583675E-01 
    5.2045901233863046E-01 
    5.1879861646421133E-01 
    5.1685705626711576E-01 
    5.1508060505099795E-01 
    5.1403370233994616E-01 
    4.9108633062770440E-01 
    4.9030337168072663E-01 
    4.8893003457019324E-01 
    4.8720953679384266E-01 
    4.8565603138513419E-01 
    4.8426919560417847E-01 
    4.8183526158190082E-01 
    4.7883157819233846E-01 
    4.7722452888173539E-01 
    4.7594153093406805E-01 
    4.7371805172661213E-01 
    4.7064376086125137E-01 
    4.6839685845474849E-01 
    4.6657918460601799E-01 
    4.6580713245902994E-01 
    4.6570024103253493E-01 
    4.5522986041739893E-01 
    4.5462874221057814E-01 
    4.5354444427587298E-01 
    4.5186001191393876E-01 
    4.4948254532853710E-01 
    4.4636817794415212E-01 
    4.4296451662194675E-01 
    4.3925133351563223E-01 
    4.3444732507576961E-01 
    4.2867067994324143E-01 
    4.2307070916245548E-01 
    4.1830503137307051E-01 
    4.1412828621887504E-01 
    4.1172453156029998E-01 
    4.1153295366300585E-01 
    4.1239821263288695E-01 
    4.1798330252511373E-01 
    4.1729496686691492E-01 
    4.1597321384355596E-01 
    4.1362574295352933E-01 
    4.1008477164571050E-01 
    4.0566581734845736E-01 
    4.0113287598128500E-01 
    3.9551619187776538E-01 
    3.8771828028620792E-01 
    3.7877583259767050E-01 
    3.7049927433634450E-01 
    3.6342058031051189E-01 
    3.5732447472930290E-01 
    3.5383001171431372E-01 
    3.5330109586721226E-01 
    3.5441314143832137E-01 
    3.7721587419902486E-01 
    3.7638696849550890E-01 
    3.7464480899765984E-01 
    3.7146774091771839E-01 
    3.6682722627129677E-01 
    3.6132156047207448E-01 
    3.5559489026907792E-01 
    3.4806622532103088E-01 
    3.3793598111126427E-01 
    3.2675675495064521E-01 
    3.1620943825443804E-01 
    3.0664273659810093E-01 
    2.9804238522172671E-01 
    2.9166686819910859E-01 
    2.8821676173805699E-01 
    2.8722752197612722E-01 
    3.3244772484773660E-01 
    3.3147603678817777E-01 
    3.2926145819071384E-01 
    3.2529352351641067E-01 
    3.1972426730373171E-01 
    3.1330241455414870E-01 
    3.0656423134356692E-01 
    2.9783247958120135E-01 
    2.8667530616474229E-01 
    2.7435934594357919E-01 
    2.6167832151877018E-01 
    2.4829487767482417E-01 
    2.3358109437494728E-01 
    2.1763634373872995E-01 
    2.0278875204881075E-01 
    1.9259556423508448E-01 
    3.0157047771971379E-01 
    3.0041317324094935E-01 
    2.9779678383927116E-01 
    2.9325283219777409E-01 
    2.8699347769224132E-01 
    2.8003006028233773E-01 
    2.7334554598420707E-01 
    2.6523169862413942E-01 
    2.5398568174576780E-01 
    2.3913942062782306E-01 
    2.2118534551372418E-01 
    1.9785045882382429E-01 
    1.6524578698075848E-01 
    1.2160724765294802E-01 
    6.6958243086479990E-02 
    0.0000000000000000E+00 

SCALARS Saturarion double 1 
LOOKUP_TABLE default 

    1.0000000001169571E+00 
    9.8079546195972267E-01 
    9.4670834311021990E-01 
    9.0991615544756288E-01 
    8.7036011221378629E-01 
    8.2867993447496857E-01 
    7.8441843781956289E-01 
    7.3914046686724133E-01 
    6.9019970259797392E-01 
    6.4492278169755668E-01 
    6.0124788642481120E-01 
    5.5958583125027306E-01 
    5.2066088992570436E-01 
    4.7944312364682568E-01 
    3.9152934745492735E-01 
    3.2853922246204030E-02 
    9.5048438159438675E-01 
    9.3794146041791060E-01 
    9.1066915476669696E-01 
    8.7872526761092073E-01 
    8.4407134227838332E-01 
    8.0626758463776038E-01 
    7.6835658904659188E-01 
    7.2899330184828171E-01 
    6.8444609101305520E-01 
    6.4057715323426090E-01 
    5.9669860226629301E-01 
    5.5214501883206002E-01 
    5.0838059036846772E-01 
    4.6098183417781063E-01 
    2.4834017508935025E-01 
    9.6453445023467405E-04 
    8.6820819856157427E-01 
    8.6197191212983049E-01 
    8.4581546170012278E-01 
    8.2296839838445190E-01 
    7.9740121990588797E-01 
    7.6866507769396930E-01 
    7.3864313313923990E-01 
    7.0716871628860623E-01 
    6.7177249269550954E-01 
    6.3236210292379946E-01 
    5.9046803857988495E-01 
    5.4695153010236852E-01 
    5.0058508819745462E-01 
    4.4331789123221021E-01 
    1.2320922409430349E-01 
    6.5520053263846590E-05 
    7.9442419024116839E-01 
    7.9031491191815095E-01 
    7.8070364047036434E-01 
    7.6629346649252628E-01 
    7.4963598990076918E-01 
    7.2946560624804624E-01 
    7.0620249500869203E-01 
    6.8162312597864527E-01 
    6.5447282072855117E-01 
    6.2016482797546779E-01 
    5.8021681057200059E-01 
    5.3605614845657101E-01 
    4.8908526084780274E-01 
    4.1462722769048616E-01 
    4.3892463812591057E-02 
    1.2520458070342940E-05 
    7.3714064727121720E-01 
    7.3381491932525666E-01 
    7.2674971571464186E-01 
    7.1651430714209519E-01 
    7.0253720051168467E-01 
    6.8902374541167088E-01 
    6.7186761450589216E-01 
    6.5308766688733311E-01 
    6.3290811726751239E-01 
    6.0424662362899906E-01 
    5.6806304987687017E-01 
    5.2525332556320092E-01 
    4.7658724358674037E-01 
    3.6778128243479935E-01 
    1.4345595294775077E-02 
    2.6085465494910477E-06 
    6.9133990233270892E-01 
    6.8923192241290332E-01 
    6.8378992856831899E-01 
    6.7759211636588457E-01 
    6.6617598749596041E-01 
    6.5229223341632114E-01 
    6.3812660444953651E-01 
    6.2059630120733855E-01 
    6.0438852552782329E-01 
    5.8340176358723095E-01 
    5.5393352749293856E-01 
    5.1722277969141217E-01 
    4.7080381000510269E-01 
    3.2330066997575746E-01 
    1.4309504404763245E-03 
    1.0212000000143071E-06 
    6.4924217825802533E-01 
    6.4739455124354095E-01 
    6.4331462194027800E-01 
    6.3789648892801853E-01 
    6.3510412355819279E-01 
    6.2184130958884354E-01 
    6.0820150758481395E-01 
    5.9130395173803219E-01 
    5.7327357379490385E-01 
    5.5760983434433642E-01 
    5.3426649231077938E-01 
    5.0401254210333579E-01 
    4.6344186704990198E-01 
    2.6402496889467192E-01 
    7.4574259081719918E-04 
    1.0023528412120512E-06 
    6.1113395982200980E-01 
    6.0906962381439655E-01 
    6.0517088465094693E-01 
    5.9993779569456329E-01 
    6.0341812925649663E-01 
    5.9412716839049851E-01 
    5.8212680068806333E-01 
    5.6739104699810350E-01 
    5.4762070549662423E-01 
    5.3269882075380348E-01 
    5.1140890541327499E-01 
    4.8440102015490955E-01 
    4.4496258107371234E-01 
    1.4690323991445639E-01 
    6.6508671895769092E-05 
    1.0002966890199569E-06 
    5.7759130829119043E-01 
    5.7574430457734971E-01 
    5.7232249599265594E-01 
    5.6787844681957766E-01 
    5.7215223803104198E-01 
    5.6801738137426661E-01 
    5.5769290477247113E-01 
    5.4550274692310197E-01 
    5.2909617917066298E-01 
    5.1135733188777643E-01 
    4.9260390678807359E-01 
    4.6668818138073487E-01 
    4.1414482114230822E-01 
    7.7658034281475455E-02 
    3.1546184370143893E-05 
    1.0004097250206896E-06 
    5.5019693044414275E-01 
    5.4882922641245835E-01 
    5.4569374545451488E-01 
    5.4210099880247598E-01 
    5.4086930304169256E-01 
    5.4238157368889517E-01 
    5.3344891212794365E-01 
    5.2322956890116656E-01 
    5.1169803943052772E-01 
    4.9329616064717591E-01 
    4.7922981738329784E-01 
    4.5701017545429695E-01 
    3.7192300623887486E-01 
    3.8072754387356675E-02 
    1.2724086260629657E-05 
    1.0000079957664190E-06 
    5.2331560409324906E-01 
    5.2223910215703451E-01 
    5.1967295680342240E-01 
    5.1689990552142873E-01 
    5.1407209910989060E-01 
    5.1564795703604227E-01 
    5.1070656013786941E-01 
    5.0305820965815873E-01 
    4.9334332647219920E-01 
    4.7894571482705806E-01 
    4.6651868162623594E-01 
    4.4948888427016864E-01 
    3.4615600221911724E-01 
    1.5254493594030204E-02 
    1.5086981261184891E-06 
    1.0000000437953673E-06 
    4.9571349683507537E-01 
    4.9503567169577573E-01 
    4.9307317989465782E-01 
    4.9117857167962037E-01 
    4.8970248287433432E-01 
    4.8835893760571325E-01 
    4.8841597650338647E-01 
    4.8519719530705879E-01 
    4.7834335136400702E-01 
    4.6939504451888847E-01 
    4.5603706471359634E-01 
    4.4211280921982432E-01 
    3.6538122734352296E-01 
    1.7089052716731799E-02 
    1.5964227736292417E-06 
    1.0000000355125136E-06 
    4.6524761911019669E-01 
    4.6475020887445251E-01 
    4.6360665758281350E-01 
    4.6283404794497585E-01 
    4.6161523833520046E-01 
    4.6069950045498742E-01 
    4.6012074127731695E-01 
    4.6140797840159459E-01 
    4.6274696607237803E-01 
    4.5878652560353866E-01 
    4.5080548681302135E-01 
    4.3735865294638882E-01 
    3.9323497363635007E-01 
    8.7605225870524342E-02 
    5.4816125356365037E-05 
    1.0002774180882140E-06 
    4.2014880940798344E-01 
    4.1681580428381687E-01 
    4.1454406195638882E-01 
    4.1643473148144661E-01 
    4.1456622876564181E-01 
    4.1241626784507346E-01 
    4.1201886778859592E-01 
    4.1232324253089514E-01 
    4.2484444899456963E-01 
    4.3494178553602036E-01 
    4.3494702492106024E-01 
    4.3073614041484692E-01 
    4.0052069275492574E-01 
    1.2457112518380058E-01 
    3.3322376443813571E-05 
    1.0003561504692155E-06 
    6.4291685459004724E-02 
    6.6555228841653907E-02 
    6.9893085900024923E-02 
    6.6347668594207321E-02 
    5.1504675964741911E-02 
    4.6635147174328768E-02 
    4.8025609973801620E-02 
    6.1578306944889166E-02 
    1.5430113778618712E-01 
    2.6217607156552475E-01 
    3.3267529936701767E-01 
    3.6462519338806404E-01 
    3.6537677431666793E-01 
    1.3156171421725441E-01 
    3.9663519844921149E-04 
    1.0443853576399641E-06 
    1.0000000146779654E-06 
    1.0826159400543465E-06 
    1.4114266128386540E-06 
    1.0340743894386963E-06 
    2.6037684726275747E-06 
    1.0295437713921283E-06 
    1.0335530959513386E-06 
    7.0506478254045303E-06 
    7.1416429374005928E-04 
    3.9496350627350602E-03 
    3.8979555309633339E-02 
    7.7397032541775990E-02 
    6.8317715906142273E-02 
    1.0456220585896406E-02 
    5.2085910803878593E-05 
    1.0000049915653646E-06 
