# vtk DataFile Version 2.0
Pressure Field Data 
ASCII 
DATASET UNSTRUCTURED_GRID 

POINTS 289 double 

    0.0000000000000000E+00     0.0000000000000000E+00     0.0000000000000000E+00 
    1.0000000000000000E+00     0.0000000000000000E+00     0.0000000000000000E+00 
    1.0000000000000000E+00     1.0000000000000000E+00     0.0000000000000000E+00 
    0.0000000000000000E+00     1.0000000000000000E+00     0.0000000000000000E+00 
    6.2499999999872928E-02     0.0000000000000000E+00     0.0000000000000000E+00 
    1.2499999999977310E-01     0.0000000000000000E+00     0.0000000000000000E+00 
    1.8749999999959341E-01     0.0000000000000000E+00     0.0000000000000000E+00 
    2.4999999999941089E-01     0.0000000000000000E+00     0.0000000000000000E+00 
    3.1249999999922851E-01     0.0000000000000000E+00     0.0000000000000000E+00 
    3.7499999999904610E-01     0.0000000000000000E+00     0.0000000000000000E+00 
    4.3749999999886358E-01     0.0000000000000000E+00     0.0000000000000000E+00 
    4.9999999999869210E-01     0.0000000000000000E+00     0.0000000000000000E+00 
    5.6249999999884603E-01     0.0000000000000000E+00     0.0000000000000000E+00 
    6.2499999999901090E-01     0.0000000000000000E+00     0.0000000000000000E+00 
    6.8749999999917577E-01     0.0000000000000000E+00     0.0000000000000000E+00 
    7.4999999999934064E-01     0.0000000000000000E+00     0.0000000000000000E+00 
    8.1249999999950551E-01     0.0000000000000000E+00     0.0000000000000000E+00 
    8.7499999999967026E-01     0.0000000000000000E+00     0.0000000000000000E+00 
    9.3749999999983513E-01     0.0000000000000000E+00     0.0000000000000000E+00 
    1.0000000000000000E+00     6.2499999999872928E-02     0.0000000000000000E+00 
    1.0000000000000000E+00     1.2499999999977310E-01     0.0000000000000000E+00 
    1.0000000000000000E+00     1.8749999999959341E-01     0.0000000000000000E+00 
    1.0000000000000000E+00     2.4999999999941089E-01     0.0000000000000000E+00 
    1.0000000000000000E+00     3.1249999999922851E-01     0.0000000000000000E+00 
    1.0000000000000000E+00     3.7499999999904610E-01     0.0000000000000000E+00 
    1.0000000000000000E+00     4.3749999999886358E-01     0.0000000000000000E+00 
    1.0000000000000000E+00     4.9999999999869210E-01     0.0000000000000000E+00 
    1.0000000000000000E+00     5.6249999999884603E-01     0.0000000000000000E+00 
    1.0000000000000000E+00     6.2499999999901090E-01     0.0000000000000000E+00 
    1.0000000000000000E+00     6.8749999999917577E-01     0.0000000000000000E+00 
    1.0000000000000000E+00     7.4999999999934064E-01     0.0000000000000000E+00 
    1.0000000000000000E+00     8.1249999999950551E-01     0.0000000000000000E+00 
    1.0000000000000000E+00     8.7499999999967026E-01     0.0000000000000000E+00 
    1.0000000000000000E+00     9.3749999999983513E-01     0.0000000000000000E+00 
    9.3749999999973976E-01     1.0000000000000000E+00     0.0000000000000000E+00 
    8.7499999999950118E-01     1.0000000000000000E+00     0.0000000000000000E+00 
    8.1249999999991318E-01     1.0000000000000000E+00     0.0000000000000000E+00 
    7.5000000000034706E-01     1.0000000000000000E+00     0.0000000000000000E+00 
    6.8750000000078049E-01     1.0000000000000000E+00     0.0000000000000000E+00 
    6.2500000000121403E-01     1.0000000000000000E+00     0.0000000000000000E+00 
    5.6250000000164757E-01     1.0000000000000000E+00     0.0000000000000000E+00 
    5.0000000000205946E-01     1.0000000000000000E+00     0.0000000000000000E+00 
    4.3750000000182099E-01     1.0000000000000000E+00     0.0000000000000000E+00 
    3.7500000000156092E-01     1.0000000000000000E+00     0.0000000000000000E+00 
    3.1250000000130068E-01     1.0000000000000000E+00     0.0000000000000000E+00 
    2.5000000000104050E-01     1.0000000000000000E+00     0.0000000000000000E+00 
    1.8750000000078040E-01     1.0000000000000000E+00     0.0000000000000000E+00 
    1.2500000000052031E-01     1.0000000000000000E+00     0.0000000000000000E+00 
    6.2500000000260125E-02     1.0000000000000000E+00     0.0000000000000000E+00 
    0.0000000000000000E+00     9.3749999999973976E-01     0.0000000000000000E+00 
    0.0000000000000000E+00     8.7499999999950118E-01     0.0000000000000000E+00 
    0.0000000000000000E+00     8.1249999999991318E-01     0.0000000000000000E+00 
    0.0000000000000000E+00     7.5000000000034706E-01     0.0000000000000000E+00 
    0.0000000000000000E+00     6.8750000000078049E-01     0.0000000000000000E+00 
    0.0000000000000000E+00     6.2500000000121403E-01     0.0000000000000000E+00 
    0.0000000000000000E+00     5.6250000000164757E-01     0.0000000000000000E+00 
    0.0000000000000000E+00     5.0000000000205946E-01     0.0000000000000000E+00 
    0.0000000000000000E+00     4.3750000000182099E-01     0.0000000000000000E+00 
    0.0000000000000000E+00     3.7500000000156092E-01     0.0000000000000000E+00 
    0.0000000000000000E+00     3.1250000000130068E-01     0.0000000000000000E+00 
    0.0000000000000000E+00     2.5000000000104050E-01     0.0000000000000000E+00 
    0.0000000000000000E+00     1.8750000000078040E-01     0.0000000000000000E+00 
    0.0000000000000000E+00     1.2500000000052031E-01     0.0000000000000000E+00 
    0.0000000000000000E+00     6.2500000000260125E-02     0.0000000000000000E+00 
    6.2499999999897131E-02     6.2500000000235922E-02     0.0000000000000000E+00 
    6.2499999999921327E-02     1.2500000000047351E-01     0.0000000000000000E+00 
    6.2499999999945530E-02     1.8750000000070621E-01     0.0000000000000000E+00 
    6.2499999999969733E-02     2.5000000000093858E-01     0.0000000000000000E+00 
    6.2499999999993928E-02     3.1250000000117117E-01     0.0000000000000000E+00 
    6.2500000000018124E-02     3.7500000000140382E-01     0.0000000000000000E+00 
    6.2500000000042327E-02     4.3750000000163619E-01     0.0000000000000000E+00 
    6.2500000000066530E-02     5.0000000000184897E-01     0.0000000000000000E+00 
    6.2500000000090733E-02     5.6250000000147260E-01     0.0000000000000000E+00 
    6.2500000000114922E-02     6.2500000000107636E-01     0.0000000000000000E+00 
    6.2500000000139125E-02     6.8750000000068034E-01     0.0000000000000000E+00 
    6.2500000000163328E-02     7.5000000000028411E-01     0.0000000000000000E+00 
    6.2500000000187531E-02     8.1249999999988787E-01     0.0000000000000000E+00 
    6.2500000000211720E-02     8.7499999999951172E-01     0.0000000000000000E+00 
    6.2500000000235922E-02     9.3749999999974565E-01     0.0000000000000000E+00 
    1.2499999999981980E-01     6.2500000000211733E-02     0.0000000000000000E+00 
    1.2499999999986650E-01     1.2500000000042691E-01     0.0000000000000000E+00 
    1.2499999999991319E-01     1.8750000000063199E-01     0.0000000000000000E+00 
    1.2499999999995989E-01     2.5000000000083678E-01     0.0000000000000000E+00 
    1.2500000000000661E-01     3.1250000000104172E-01     0.0000000000000000E+00 
    1.2500000000005329E-01     3.7500000000124661E-01     0.0000000000000000E+00 
    1.2500000000010000E-01     4.3750000000145117E-01     0.0000000000000000E+00 
    1.2500000000014669E-01     5.0000000000163858E-01     0.0000000000000000E+00 
    1.2500000000019340E-01     5.6250000000129741E-01     0.0000000000000000E+00 
    1.2500000000024011E-01     6.2500000000093847E-01     0.0000000000000000E+00 
    1.2500000000028680E-01     6.8750000000057998E-01     0.0000000000000000E+00 
    1.2500000000033351E-01     7.5000000000022127E-01     0.0000000000000000E+00 
    1.2500000000038020E-01     8.1249999999986211E-01     0.0000000000000000E+00 
    1.2500000000042691E-01     8.7499999999952238E-01     0.0000000000000000E+00 
    1.2500000000047359E-01     9.3749999999975164E-01     0.0000000000000000E+00 
    1.8749999999966760E-01     6.2500000000187531E-02     0.0000000000000000E+00 
    1.8749999999974179E-01     1.2500000000038020E-01     0.0000000000000000E+00 
    1.8749999999981601E-01     1.8750000000055780E-01     0.0000000000000000E+00 
    1.8749999999989009E-01     2.5000000000073502E-01     0.0000000000000000E+00 
    1.8749999999996431E-01     3.1250000000091221E-01     0.0000000000000000E+00 
    1.8750000000003850E-01     3.7500000000108941E-01     0.0000000000000000E+00 
    1.8750000000011269E-01     4.3750000000126649E-01     0.0000000000000000E+00 
    1.8750000000018691E-01     5.0000000000142808E-01     0.0000000000000000E+00 
    1.8750000000026110E-01     5.6250000000112244E-01     0.0000000000000000E+00 
    1.8750000000033529E-01     6.2500000000080080E-01     0.0000000000000000E+00 
    1.8750000000040951E-01     6.8750000000047962E-01     0.0000000000000000E+00 
    1.8750000000048361E-01     7.5000000000015843E-01     0.0000000000000000E+00 
    1.8750000000055780E-01     8.1249999999983680E-01     0.0000000000000000E+00 
    1.8750000000063199E-01     8.7499999999953304E-01     0.0000000000000000E+00 
    1.8750000000070621E-01     9.3749999999975764E-01     0.0000000000000000E+00 
    2.4999999999951281E-01     6.2500000000163314E-02     0.0000000000000000E+00 
    2.4999999999961461E-01     1.2500000000033351E-01     0.0000000000000000E+00 
    2.4999999999971650E-01     1.8750000000048361E-01     0.0000000000000000E+00 
    2.4999999999981831E-01     2.5000000000063310E-01     0.0000000000000000E+00 
    2.4999999999992020E-01     3.1250000000078260E-01     0.0000000000000000E+00 
    2.5000000000002198E-01     3.7500000000093209E-01     0.0000000000000000E+00 
    2.5000000000012390E-01     4.3750000000108180E-01     0.0000000000000000E+00 
    2.5000000000022571E-01     5.0000000000121769E-01     0.0000000000000000E+00 
    2.5000000000032763E-01     5.6250000000094724E-01     0.0000000000000000E+00 
    2.5000000000042938E-01     6.2500000000066314E-01     0.0000000000000000E+00 
    2.5000000000053119E-01     6.8750000000037925E-01     0.0000000000000000E+00 
[...]
CELL_DATA 256 
SCALARS Pressure double 1 
LOOKUP_TABLE default 

    1.1015378977038479E+00 
    1.0886627079556321E+00 
    1.0746415406196468E+00 
    1.0612046133531281E+00 
    1.0511564184226634E+00 
    1.0446268629660072E+00 
    1.0355525782268609E+00 
    1.0283657269031634E+00 
    1.0224951644661475E+00 
    1.0160852364381079E+00 
    1.0094450262187815E+00 
    1.0038191207139164E+00 
    9.9858595088504842E-01 
    9.9367412716489611E-01 
    9.8937023574953542E-01 
    9.8615852505338653E-01 
    1.0493010442501467E+00 
    1.0450877550729964E+00 
    1.0397190151966795E+00 
    1.0334616019650320E+00 
    1.0266206772263147E+00 
    1.0188181264559630E+00 
    1.0113940276484401E+00 
    1.0056546860335625E+00 
    9.9898932699778409E-01 
    9.9185308336105560E-01 
    9.8529298793351894E-01 
    9.7972058462182054E-01 
    9.7495650898488340E-01 
    9.7147458754331728E-01 
    9.6921268027089602E-01 
    9.6771164522124342E-01 
    1.0047219374416156E+00 
    1.0024872184734370E+00 
    9.9957415423533003E-01 
    9.9552176183790475E-01 
    9.9001811148183316E-01 
    9.8311502415314478E-01 
    9.7639441214032174E-01 
    9.7061245073263558E-01 
    9.6340212868916852E-01 
    9.5588622859009797E-01 
    9.4931809338412299E-01 
    9.4390165581127994E-01 
    9.3954760777607305E-01 
    9.3714579280044796E-01 
    9.3643982374531232E-01 
    9.3650357929596795E-01 
    9.5599123372285455E-01 
    9.5555322233723927E-01 
    9.5440416249504056E-01 
    9.5186221825336403E-01 
    9.4744746574755656E-01 
    9.4133576291684451E-01 
    9.3505616085863308E-01 
    9.2882051267616739E-01 
    9.2098784709832160E-01 
    9.1342690330074461E-01 
    9.0758769364133585E-01 
    9.0276766631404215E-01 
    8.9900165175704028E-01 
    8.9748712852878010E-01 
    8.9784125301724338E-01 
    8.9865900994182324E-01 
    9.0836698523924220E-01 
    9.0913812852433296E-01 
    9.0715848382272990E-01 
    9.0402759872404703E-01 
    8.9921737016251291E-01 
    8.9310463696035214E-01 
    8.8686123632612790E-01 
    8.8059477849782064E-01 
    8.7340983313704545E-01 
    8.6770001041611222E-01 
    8.6368375270866071E-01 
    8.6020614345879221E-01 
    8.5730241108749627E-01 
    8.5632584524669342E-01 
    8.5653248325027320E-01 
    8.5624945026154953E-01 
    8.4722388816583527E-01 
    8.4529359089811518E-01 
    8.4216925285728217E-01 
    8.3833837355991592E-01 
    8.3459712624774751E-01 
    8.3112452860142194E-01 
    8.2741216597593714E-01 
    8.2354853902440106E-01 
    8.2049490090920629E-01 
    8.1854724600093665E-01 
    8.1674157795102909E-01 
    8.1447612476801889E-01 
    8.1221832338431110E-01 
    8.1013235245571236E-01 
    8.0816982602618403E-01 
    8.0668532862254383E-01 
    7.6941034391564767E-01 
    7.6866559859796035E-01 
    7.6727964788451319E-01 
    7.6580626602219803E-01 
    7.6456364952177058E-01 
    7.6319153944531282E-01 
    7.6098262960977658E-01 
    7.5875470887410978E-01 
    7.5782305327479194E-01 
    7.5705016812969483E-01 
    7.5545290794959774E-01 
    7.5358423608761549E-01 
    7.5243550022727601E-01 
    7.5161119292043443E-01 
    7.5125028083819889E-01 
    7.5101459656201208E-01 
    7.0188689808167748E-01 
    7.0230273386181141E-01 
    7.0228438499563384E-01 
    7.0200699193135963E-01 
    7.0140177984798380E-01 
    7.0036242386313641E-01 
    6.9872562691491980E-01 
    6.9680854533354020E-01 
    6.9513671869133375E-01 
    6.9386887435886313E-01 
    6.9249906303485176E-01 
    6.9110028958629000E-01 
    6.9011655935164506E-01 
    6.9017459944475079E-01 
    6.9127780764686120E-01 
    6.9229023023919001E-01 
    6.4283795670110844E-01 
    6.4324667121622270E-01 
    6.4262224930160572E-01 
    6.4192061697517366E-01 
    6.4079793993467993E-01 
    6.3934814555206920E-01 
    6.3761088290007939E-01 
    6.3608387270981404E-01 
    6.3444989265954255E-01 
    6.3359399430970231E-01 
    6.3290043380325733E-01 
    6.3205921116614505E-01 
    6.3125792535647374E-01 
    6.3180311475857631E-01 
    6.3323688954306634E-01 
    6.3371630363808185E-01 
    5.8394214200244532E-01 
    5.8341072519986592E-01 
    5.8221796980757246E-01 
    5.8083199645818284E-01 
    5.7962807870999977E-01 
    5.7859857127972669E-01 
    5.7753493917766641E-01 
    5.7696699796741913E-01 
    5.7699908216399720E-01 
    5.7757965320984184E-01 
    5.7822902747753624E-01 
    5.7766158476901619E-01 
    5.7654924927952833E-01 
    5.7513257832216125E-01 
    5.7361604873458238E-01 
    5.7269028986401838E-01 
    5.2665659169108170E-01 
    5.2624654783804414E-01 
    5.2547156005793172E-01 
    5.2469803218210664E-01 
    5.2394208356498517E-01 
    5.2262594904822035E-01 
    5.2033459375610147E-01 
    5.1868898982722333E-01 
    5.1785077721651351E-01 
    5.1654198518954253E-01 
    5.1448530689071714E-01 
    5.1241512981728499E-01 
    5.1103420721607240E-01 
    5.0984610048579782E-01 
    5.0917882044931917E-01 
    5.0882896217165574E-01 
    4.7497310110490776E-01 
    4.7461532213161356E-01 
    4.7377353924198295E-01 
    4.7243633747302533E-01 
    4.7055305448881773E-01 
    4.6815846778050335E-01 
    4.6544543946651823E-01 
    4.6207039724340782E-01 
    4.5794116648564492E-01 
    4.5339606619239892E-01 
    4.4919868332020074E-01 
    4.4538963709512475E-01 
    4.4223464025845205E-01 
    4.4050396478235837E-01 
    4.4032401839268609E-01 
    4.4083927571654208E-01 
    4.2485041177465610E-01 
    4.2428713563480808E-01 
    4.2296836104849700E-01 
    4.2070663431424526E-01 
    4.1757500203158476E-01 
    4.1390130904346412E-01 
    4.0981171629488350E-01 
    4.0424959932696408E-01 
    3.9736365788012556E-01 
    3.9019325352471218E-01 
    3.8351399374787970E-01 
    3.7721100829948523E-01 
    3.7195405533413350E-01 
    3.6915839899489605E-01 
    3.6887172343195651E-01 
    3.6982482508877695E-01 
    3.7558235482846819E-01 
    3.7477520737633802E-01 
    3.7294011592412041E-01 
    3.6973139422685958E-01 
    3.6528235672433468E-01 
    3.6013771649881660E-01 
    3.5456234543618809E-01 
    3.4707900540566766E-01 
    3.3783196161462842E-01 
    3.2818225586313593E-01 
    3.1882226097369604E-01 
    3.0967244874669581E-01 
    3.0155385962395559E-01 
    2.9622250912367326E-01 
    2.9373138202393151E-01 
    2.9304106982991113E-01 
    3.3056088612986712E-01 
    3.2956395196691129E-01 
    3.2731409034541981E-01 
    3.2331156980971987E-01 
    3.1770515287642048E-01 
    3.1125956285420281E-01 
    3.0456030541958157E-01 
    2.9583187725504900E-01 
    2.8487989450261608E-01 
    2.7276692235550293E-01 
    2.5992949231824497E-01 
    2.4615893317515178E-01 
    2.3149210314084612E-01 
    2.1710979431283828E-01 
    2.0384099583414086E-01 
    1.9412320714748077E-01 
    3.0180556823875931E-01 
    3.0062337046874643E-01 
    2.9801325553927832E-01 
    2.9347896669949219E-01 
    2.8718857280416826E-01 
    2.8011703013796996E-01 
    2.7333414840241083E-01 
    2.6482386772124705E-01 
    2.5288571228992140E-01 
    2.3697563213951298E-01 
    2.1841359982751166E-01 
    1.9563256688504760E-01 
    1.6441534771713054E-01 
    1.2224863208368499E-01 
    6.7967027240479039E-02 
    0.0000000000000000E+00 

SCALARS Saturarion double 1 
LOOKUP_TABLE default 

    1.0000000160901055E+00 
    9.3469399161141697E-01 
    8.4529740548204124E-01 
    7.6767550773105642E-01 
    6.9888913479353310E-01 
    6.3997191512258489E-01 
    5.8285480705960335E-01 
    5.3024005522061601E-01 
    4.7840773658988889E-01 
    3.3795171786300637E-01 
    1.7024119727114600E-03 
    1.0000006584055518E-06 
    1.0000000000003870E-06 
    9.9999999999999995E-07 
    9.9999999999999995E-07 
    9.9999999999999995E-07 
    8.7205177322407790E-01 
    8.4389084506074652E-01 
    7.8433711735155609E-01 
    7.2697555287308979E-01 
    6.7032201599927466E-01 
    6.1809389752205857E-01 
    5.6855145749879754E-01 
    5.2448353853072394E-01 
    4.8071218489675854E-01 
    3.6058852259514557E-01 
    1.6584850379818362E-02 
    1.0001784036105332E-06 
    1.0000000001833184E-06 
    1.0000000000000002E-06 
    9.9999999999999995E-07 
    9.9999999999999995E-07 
    7.1855256295562187E-01 
    7.0890435170024491E-01 
    6.8008573983585252E-01 
    6.4985991629806161E-01 
    6.1547084378694783E-01 
    5.7371738969536734E-01 
    5.3595864134839089E-01 
    4.9886658888216068E-01 
    4.5974608028352826E-01 
    2.6506420604891151E-01 
    1.3053748612057352E-03 
    1.0555370358938233E-06 
    1.0000000042253031E-06 
    1.0000000000000002E-06 
    9.9999999999999995E-07 
    9.9999999999999995E-07 
    6.0854698457358958E-01 
    6.0348167917905404E-01 
    5.8853240053502265E-01 
    5.6920632286556561E-01 
    5.4886752446947329E-01 
    5.2096708453373042E-01 
    4.9067343194281726E-01 
    4.5855239756975985E-01 
    3.7563980053759605E-01 
    7.0076932269864500E-02 
    2.2855527450558457E-04 
    1.0051157829057433E-06 
    1.0000000000000023E-06 
    9.9999999999999995E-07 
    9.9999999999999995E-07 
    9.9999999999999995E-07 
    5.1037405581253403E-01 
    5.0723358578268585E-01 
    5.0322983362293772E-01 
    4.9486888993107847E-01 
    4.8322336255065312E-01 
    4.6591767871126394E-01 
    4.2186572125042893E-01 
    2.8796411211305140E-01 
    7.5084014551908274E-02 
    7.8348169369314529E-04 
    1.0369506941328273E-06 
    1.0000000030891880E-06 
    1.0000000000000002E-06 
    9.9999999999999995E-07 
    9.9999999999999995E-07 
    9.9999999999999995E-07 
    4.0905280224341140E-01 
    3.9592355386915018E-01 
    3.6801536676936797E-01 
    3.2228892134353926E-01 
    2.9780757891549675E-01 
    2.1655637054809088E-01 
    8.2148204503360300E-02 
    6.5800690646700627E-03 
    2.8458062203243195E-04 
    1.0525537349917767E-06 
    1.0000000113554221E-06 
    1.0000000000000008E-06 
    9.9999999999999995E-07 
    9.9999999999999995E-07 
    9.9999999999999995E-07 
    9.9999999999999995E-07 
    2.6702733095721187E-02 
    1.5322077387718156E-02 
    4.8508877398236372E-03 
    1.2510895157581436E-03 
    9.0523284462802730E-04 
    2.8792767496537683E-04 
    1.7343461711178730E-04 
    2.4569079814997429E-06 
    1.0101771338537519E-06 
    1.0000000069082986E-06 
    1.0000000000000012E-06 
    9.9999999999999995E-07 
    9.9999999999999995E-07 
    9.9999999999999995E-07 
    9.9999999999999995E-07 
    9.9999999999999995E-07 
    1.0000003092490229E-06 
    1.4762734468183043E-06 
    1.2183937978357895E-06 
    1.0473290830545572E-06 
    1.0088098536474199E-06 
    1.0274123268415640E-06 
    1.0052291710563690E-06 
    1.0000004146283464E-06 
    1.0000000000000336E-06 
    1.0000000000000002E-06 
    9.9999999999999995E-07 
    9.9999999999999995E-07 
    9.9999999999999995E-07 
    9.9999999999999995E-07 
    9.9999999999999995E-07 
    9.9999999999999995E-07 
    1.0000000000001285E-06 
    1.0000001065629772E-06 
    1.0000000375671212E-06 
    1.0000000102553743E-06 
    1.0000000039621857E-06 
    1.0000000010470441E-06 
    1.0000000000000002E-06 
    1.0000000000000014E-06 
    9.9999999999999995E-07 
    9.9999999999999995E-07 
    9.9999999999999995E-07 
    9.9999999999999995E-07 
    9.9999999999999995E-07 
    9.9999999999999995E-07 
    9.9999999999999995E-07 
    9.9999999999999995E-07 
    9.9999999999999995E-07 
    1.0000000000000038E-06 
    1.0000000000000002E-06 
    9.9999999999999995E-07 
    9.9999999999999995E-07 
    1.0000000000000004E-06 
    9.9999999999999995E-07 
    9.9999999999999995E-07 
    9.9999999999999995E-07 
    9.9999999999999995E-07 
    9.9999999999999995E-07 
    9.9999999999999995E-07 
    9.9999999999999995E-07 
    9.9999999999999995E-07 
    9.9999999999999995E-07 
    9.9999999999999995E-07 
    9.9999999999999995E-07 
    9.9999999999999995E-07 
    9.9999999999999995E-07 
    9.9999999999999995E-07 
    9.9999999999999995E-07 
    9.9999999999999995E-07 
    9.9999999999999995E-07 
    9.9999999999999995E-07 
    9.9999999999999995E-07 
    9.9999999999999995E-07 
    9.9999999999999995E-07 
    9.9999999999999995E-07 
    9.9999999999999995E-07 
    9.9999999999999995E-07 
    9.9999999999999995E-07 
    9.9999999999999995E-07 
    9.9999999999999995E-07 
    9.9999999999999995E-07 
    9.9999999999999995E-07 
    9.9999999999999995E-07 
    9.9999999999999995E-07 
    9.9999999999999995E-07 
    9.9999999999999995E-07 
    9.9999999999999995E-07 
    9.9999999999999995E-07 
    9.9999999999999995E-07 
    9.9999999999999995E-07 
    9.9999999999999995E-07 
    9.9999999999999995E-07 
    9.9999999999999995E-07 
    9.9999999999999995E-07 
    9.9999999999999995E-07 
    9.9999999999999995E-07 
    9.9999999999999995E-07 
    9.9999999999999995E-07 
    9.9999999999999995E-07 
    9.9999999999999995E-07 
    9.9999999999999995E-07 
    9.9999999999999995E-07 
    9.9999999999999995E-07 
    9.9999999999999995E-07 
    9.9999999999999995E-07 
    9.9999999999999995E-07 
    9.9999999999999995E-07 
    9.9999999999999995E-07 
    9.9999999999999995E-07 
    9.9999999999999995E-07 
    9.9999999999999995E-07 
    9.9999999999999995E-07 
    9.9999999999999995E-07 
    9.9999999999999995E-07 
    9.9999999999999995E-07 
    9.9999999999999995E-07 
    9.9999999999999995E-07 
    9.9999999999999995E-07 
    9.9999999999999995E-07 
    9.9999999999999995E-07 
    9.9999999999999995E-07 
    9.9999999999999995E-07 
    9.9999999999999995E-07 
    9.9999999999999995E-07 
    9.9999999999999995E-07 
    9.9999999999999995E-07 
    9.9999999999999995E-07 
    9.9999999999999995E-07 
    9.9999999999999995E-07 
    9.9999999999999995E-07 
    9.9999999999999995E-07 
    9.9999999999999995E-07 
    9.9999999999999995E-07 
    9.9999999999999995E-07 
    9.9999999999999995E-07 
    9.9999999999999995E-07 
    9.9999999999999995E-07 
    9.9999999999999995E-07 
    9.9999999999999995E-07 
    9.9999999999999995E-07 
    9.9999999999999995E-07 
    9.9999999999999995E-07 
    9.9999999999999995E-07 
    9.9999999999999995E-07 
    9.9999999999999995E-07 
    9.9999999999999995E-07 
    9.9999999999999995E-07 
    9.9999999999999995E-07 
    9.9999999999999995E-07 
    9.9999999999999995E-07 
    9.9999999999999995E-07 
    9.9999999999999995E-07 
    9.9999999999999995E-07 
    9.9999999999999995E-07 
    9.9999999999999995E-07 
    9.9999999999999995E-07 
    9.9999999999999995E-07 
    9.9999999999999995E-07 
    1.0000000313864128E-06 
