# vtk DataFile Version 2.0
Pressure Field Data 
ASCII 
DATASET UNSTRUCTURED_GRID 

POINTS 289 double 

    0.0000000000000000E+00     0.0000000000000000E+00     0.0000000000000000E+00 
    1.0000000000000000E+00     0.0000000000000000E+00     0.0000000000000000E+00 
    1.0000000000000000E+00     1.0000000000000000E+00     0.0000000000000000E+00 
    0.0000000000000000E+00     1.0000000000000000E+00     0.0000000000000000E+00 
    6.2499999999872928E-02     0.0000000000000000E+00     0.0000000000000000E+00 
    1.2499999999977310E-01     0.0000000000000000E+00     0.0000000000000000E+00 
    1.8749999999959341E-01     0.0000000000000000E+00     0.0000000000000000E+00 
    2.4999999999941089E-01     0.0000000000000000E+00     0.0000000000000000E+00 
    3.1249999999922851E-01     0.0000000000000000E+00     0.0000000000000000E+00 
    3.7499999999904610E-01     0.0000000000000000E+00     0.0000000000000000E+00 
    4.3749999999886358E-01     0.0000000000000000E+00     0.0000000000000000E+00 
    4.9999999999869210E-01     0.0000000000000000E+00     0.0000000000000000E+00 
    5.6249999999884603E-01     0.0000000000000000E+00     0.0000000000000000E+00 
    6.2499999999901090E-01     0.0000000000000000E+00     0.0000000000000000E+00 
    6.8749999999917577E-01     0.0000000000000000E+00     0.0000000000000000E+00 
    7.4999999999934064E-01     0.0000000000000000E+00     0.0000000000000000E+00 
    8.1249999999950551E-01     0.0000000000000000E+00     0.0000000000000000E+00 
    8.7499999999967026E-01     0.0000000000000000E+00     0.0000000000000000E+00 
    9.3749999999983513E-01     0.0000000000000000E+00     0.0000000000000000E+00 
    1.0000000000000000E+00     6.2499999999872928E-02     0.0000000000000000E+00 
    1.0000000000000000E+00     1.2499999999977310E-01     0.0000000000000000E+00 
    1.0000000000000000E+00     1.8749999999959341E-01     0.0000000000000000E+00 
    1.0000000000000000E+00     2.4999999999941089E-01     0.0000000000000000E+00 
    1.0000000000000000E+00     3.1249999999922851E-01     0.0000000000000000E+00 
    1.0000000000000000E+00     3.7499999999904610E-01     0.0000000000000000E+00 
    1.0000000000000000E+00     4.3749999999886358E-01     0.0000000000000000E+00 
    1.0000000000000000E+00     4.9999999999869210E-01     0.0000000000000000E+00 
    1.0000000000000000E+00     5.6249999999884603E-01     0.0000000000000000E+00 
    1.0000000000000000E+00     6.2499999999901090E-01     0.0000000000000000E+00 
    1.0000000000000000E+00     6.8749999999917577E-01     0.0000000000000000E+00 
    1.0000000000000000E+00     7.4999999999934064E-01     0.0000000000000000E+00 
    1.0000000000000000E+00     8.1249999999950551E-01     0.0000000000000000E+00 
    1.0000000000000000E+00     8.7499999999967026E-01     0.0000000000000000E+00 
    1.0000000000000000E+00     9.3749999999983513E-01     0.0000000000000000E+00 
    9.3749999999973976E-01     1.0000000000000000E+00     0.0000000000000000E+00 
    8.7499999999950118E-01     1.0000000000000000E+00     0.0000000000000000E+00 
    8.1249999999991318E-01     1.0000000000000000E+00     0.0000000000000000E+00 
    7.5000000000034706E-01     1.0000000000000000E+00     0.0000000000000000E+00 
    6.8750000000078049E-01     1.0000000000000000E+00     0.0000000000000000E+00 
    6.2500000000121403E-01     1.0000000000000000E+00     0.0000000000000000E+00 
    5.6250000000164757E-01     1.0000000000000000E+00     0.0000000000000000E+00 
    5.0000000000205946E-01     1.0000000000000000E+00     0.0000000000000000E+00 
    4.3750000000182099E-01     1.0000000000000000E+00     0.0000000000000000E+00 
    3.7500000000156092E-01     1.0000000000000000E+00     0.0000000000000000E+00 
    3.1250000000130068E-01     1.0000000000000000E+00     0.0000000000000000E+00 
    2.5000000000104050E-01     1.0000000000000000E+00     0.0000000000000000E+00 
    1.8750000000078040E-01     1.0000000000000000E+00     0.0000000000000000E+00 
    1.2500000000052031E-01     1.0000000000000000E+00     0.0000000000000000E+00 
    6.2500000000260125E-02     1.0000000000000000E+00     0.0000000000000000E+00 
    0.0000000000000000E+00     9.3749999999973976E-01     0.0000000000000000E+00 
    0.0000000000000000E+00     8.7499999999950118E-01     0.0000000000000000E+00 
    0.0000000000000000E+00     8.1249999999991318E-01     0.0000000000000000E+00 
    0.0000000000000000E+00     7.5000000000034706E-01     0.0000000000000000E+00 
    0.0000000000000000E+00     6.8750000000078049E-01     0.0000000000000000E+00 
    0.0000000000000000E+00     6.2500000000121403E-01     0.0000000000000000E+00 
    0.0000000000000000E+00     5.6250000000164757E-01     0.0000000000000000E+00 
    0.0000000000000000E+00     5.0000000000205946E-01     0.0000000000000000E+00 
    0.0000000000000000E+00     4.3750000000182099E-01     0.0000000000000000E+00 
    0.0000000000000000E+00     3.7500000000156092E-01     0.0000000000000000E+00 
    0.0000000000000000E+00     3.1250000000130068E-01     0.0000000000000000E+00 
    0.0000000000000000E+00     2.5000000000104050E-01     0.0000000000000000E+00 
    0.0000000000000000E+00     1.8750000000078040E-01     0.0000000000000000E+00 
    0.0000000000000000E+00     1.2500000000052031E-01     0.0000000000000000E+00 
    0.0000000000000000E+00     6.2500000000260125E-02     0.0000000000000000E+00 
    6.2499999999897131E-02     6.2500000000235922E-02     0.0000000000000000E+00 
    6.2499999999921327E-02     1.2500000000047351E-01     0.0000000000000000E+00 
    6.2499999999945530E-02     1.8750000000070621E-01     0.0000000000000000E+00 
    6.2499999999969733E-02     2.5000000000093858E-01     0.0000000000000000E+00 
    6.2499999999993928E-02     3.1250000000117117E-01     0.0000000000000000E+00 
    6.2500000000018124E-02     3.7500000000140382E-01     0.0000000000000000E+00 
    6.2500000000042327E-02     4.3750000000163619E-01     0.0000000000000000E+00 
    6.2500000000066530E-02     5.0000000000184897E-01     0.0000000000000000E+00 
    6.2500000000090733E-02     5.6250000000147260E-01     0.0000000000000000E+00 
    6.2500000000114922E-02     6.2500000000107636E-01     0.0000000000000000E+00 
    6.2500000000139125E-02     6.8750000000068034E-01     0.0000000000000000E+00 
    6.2500000000163328E-02     7.5000000000028411E-01     0.0000000000000000E+00 
    6.2500000000187531E-02     8.1249999999988787E-01     0.0000000000000000E+00 
    6.2500000000211720E-02     8.7499999999951172E-01     0.0000000000000000E+00 
    6.2500000000235922E-02     9.3749999999974565E-01     0.0000000000000000E+00 
    1.2499999999981980E-01     6.2500000000211733E-02     0.0000000000000000E+00 
    1.2499999999986650E-01     1.2500000000042691E-01     0.0000000000000000E+00 
    1.2499999999991319E-01     1.8750000000063199E-01     0.0000000000000000E+00 
    1.2499999999995989E-01     2.5000000000083678E-01     0.0000000000000000E+00 
    1.2500000000000661E-01     3.1250000000104172E-01     0.0000000000000000E+00 
    1.2500000000005329E-01     3.7500000000124661E-01     0.0000000000000000E+00 
    1.2500000000010000E-01     4.3750000000145117E-01     0.0000000000000000E+00 
    1.2500000000014669E-01     5.0000000000163858E-01     0.0000000000000000E+00 
    1.2500000000019340E-01     5.6250000000129741E-01     0.0000000000000000E+00 
    1.2500000000024011E-01     6.2500000000093847E-01     0.0000000000000000E+00 
    1.2500000000028680E-01     6.8750000000057998E-01     0.0000000000000000E+00 
    1.2500000000033351E-01     7.5000000000022127E-01     0.0000000000000000E+00 
    1.2500000000038020E-01     8.1249999999986211E-01     0.0000000000000000E+00 
    1.2500000000042691E-01     8.7499999999952238E-01     0.0000000000000000E+00 
    1.2500000000047359E-01     9.3749999999975164E-01     0.0000000000000000E+00 
    1.8749999999966760E-01     6.2500000000187531E-02     0.0000000000000000E+00 
    1.8749999999974179E-01     1.2500000000038020E-01     0.0000000000000000E+00 
    1.8749999999981601E-01     1.8750000000055780E-01     0.0000000000000000E+00 
    1.8749999999989009E-01     2.5000000000073502E-01     0.0000000000000000E+00 
    1.8749999999996431E-01     3.1250000000091221E-01     0.0000000000000000E+00 
    1.8750000000003850E-01     3.7500000000108941E-01     0.0000000000000000E+00 
    1.8750000000011269E-01     4.3750000000126649E-01     0.0000000000000000E+00 
    1.8750000000018691E-01     5.0000000000142808E-01     0.0000000000000000E+00 
    1.8750000000026110E-01     5.6250000000112244E-01     0.0000000000000000E+00 
    1.8750000000033529E-01     6.2500000000080080E-01     0.0000000000000000E+00 
    1.8750000000040951E-01     6.8750000000047962E-01     0.0000000000000000E+00 
    1.8750000000048361E-01     7.5000000000015843E-01     0.0000000000000000E+00 
    1.8750000000055780E-01     8.1249999999983680E-01     0.0000000000000000E+00 
    1.8750000000063199E-01     8.7499999999953304E-01     0.0000000000000000E+00 
    1.8750000000070621E-01     9.3749999999975764E-01     0.0000000000000000E+00 
    2.4999999999951281E-01     6.2500000000163314E-02     0.0000000000000000E+00 
    2.4999999999961461E-01     1.2500000000033351E-01     0.0000000000000000E+00 
    2.4999999999971650E-01     1.8750000000048361E-01     0.0000000000000000E+00 
    2.4999999999981831E-01     2.5000000000063310E-01     0.0000000000000000E+00 
    2.4999999999992020E-01     3.1250000000078260E-01     0.0000000000000000E+00 
    2.5000000000002198E-01     3.7500000000093209E-01     0.0000000000000000E+00 
    2.5000000000012390E-01     4.3750000000108180E-01     0.0000000000000000E+00 
    2.5000000000022571E-01     5.0000000000121769E-01     0.0000000000000000E+00 
    2.5000000000032763E-01     5.6250000000094724E-01     0.0000000000000000E+00 
    2.5000000000042938E-01     6.2500000000066314E-01     0.0000000000000000E+00 
    2.5000000000053119E-01     6.8750000000037925E-01     0.0000000000000000E+00 
[...]
CELL_DATA 256 
SCALARS Pressure double 1 
LOOKUP_TABLE default 

    1.0048114949499360E+00 
    9.9252007414421561E-01 
    9.7989108036778239E-01 
    9.6822365329601001E-01 
    9.5969000302308771E-01 
    9.5518299141452956E-01 
    9.4789684247574424E-01 
    9.4204295835784468E-01 
    9.3782915428840352E-01 
    9.3452355777017682E-01 
    9.3051393133052995E-01 
    9.2661935485029567E-01 
    9.2257652552863589E-01 
    9.1864375087358463E-01 
    9.1535616865949887E-01 
    9.1307262289999547E-01 
    9.5735597140806195E-01 
    9.5374534480777617E-01 
    9.4933916147977637E-01 
    9.4442681967671438E-01 
    9.3932801969782609E-01 
    9.3350971658588688E-01 
    9.2756877726959552E-01 
    9.2369221578945471E-01 
    9.1934486570129637E-01 
    9.1498661205104570E-01 
    9.1140397002543483E-01 
    9.0844968435268203E-01 
    9.0514223548625206E-01 
    9.0237007924281987E-01 
    9.0066962866227596E-01 
    8.9959195708910067E-01 
    9.2030122108022350E-01 
    9.1845466343360882E-01 
    9.1621423027348747E-01 
    9.1330544363297028E-01 
    9.0951274140294192E-01 
    9.0459579511767862E-01 
    8.9959160797166637E-01 
    8.9619499045815199E-01 
    8.9177317384125654E-01 
    8.8740694723090596E-01 
    8.8426853810579431E-01 
    8.8183901804837683E-01 
    8.7899505265655131E-01 
    8.7714757665053555E-01 
    8.7667341498667439E-01 
    8.7669391604037050E-01 
    8.8104127410466981E-01 
    8.8067178019257530E-01 
    8.7999839597787499E-01 
    8.7855512787185019E-01 
    8.7597694325620745E-01 
    8.7205622796590598E-01 
    8.6788953215752696E-01 
    8.6476135757698036E-01 
    8.6058582549879137E-01 
    8.5656512430399390E-01 
    8.5394881264121780E-01 
    8.5182124559701766E-01 
    8.4926062003855352E-01 
    8.4807128211178440E-01 
    8.4831311745362870E-01 
    8.4872135399444848E-01 
    8.4421047427412843E-01 
    8.4575979116524913E-01 
    8.4485689483150483E-01 
    8.4321439043062185E-01 
    8.4059931597104987E-01 
    8.3687766661708607E-01 
    8.3322152346174427E-01 
    8.3093384418235672E-01 
    8.2752195014803032E-01 
    8.2421057776334727E-01 
    8.2222189726694106E-01 
    8.2068049306919000E-01 
    8.1831491607222617E-01 
    8.1727023688054190E-01 
    8.1707260135571469E-01 
    8.1638982759475398E-01 
    8.0789103450212441E-01 
    8.0610496781197205E-01 
    8.0329489915305241E-01 
    7.9948818166277802E-01 
    7.9574735465987889E-01 
    7.9328549832553819E-01 
    7.9201741364505218E-01 
    7.9085414867430515E-01 
    7.8962531975223837E-01 
    7.8891408841423483E-01 
    7.8768177726441502E-01 
    7.8527217764201085E-01 
    7.8262424250301021E-01 
    7.8026781969955505E-01 
    7.7815719870528843E-01 
    7.7670716122882366E-01 
    7.5220461336882560E-01 
    7.5180394185290045E-01 
    7.5077287840064910E-01 
    7.4938659902855009E-01 
    7.4830717685875736E-01 
    7.4797155765255874E-01 
    7.4687586256288419E-01 
    7.4393077453633538E-01 
    7.4245401410907597E-01 
    7.4129842097116982E-01 
    7.3871659718271132E-01 
    7.3518447706845291E-01 
    7.3279871997295265E-01 
    7.3129671035519883E-01 
    7.3063903752028991E-01 
    7.3041532601475201E-01 
    7.0010983719786124E-01 
    7.0097636102781247E-01 
    7.0135560935785679E-01 
    7.0129275677736091E-01 
    7.0072350429763408E-01 
    6.9959887922070574E-01 
    6.9748439075886248E-01 
    6.9436769048888780E-01 
    6.9090551716242243E-01 
    6.8750689387259889E-01 
    6.8401857559505375E-01 
    6.8087183464782552E-01 
    6.7865981181928525E-01 
    6.7794841413856299E-01 
    6.7862646839663709E-01 
    6.7947388539976705E-01 
    6.5163934100659138E-01 
    6.5234385452450405E-01 
    6.5134354296286057E-01 
    6.4995957076549471E-01 
    6.4782177626768356E-01 
    6.4503799024196962E-01 
    6.4163278325762085E-01 
    6.3802893009240913E-01 
    6.3405123862851243E-01 
    6.3117786499326511E-01 
    6.2896400286941212E-01 
    6.2696116691023740E-01 
    6.2527178269987804E-01 
    6.2514285628069766E-01 
    6.2606520639222640E-01 
    6.2625496360215727E-01 
    5.9189415119997135E-01 
    5.9097747259758093E-01 
    5.8913040855909304E-01 
    5.8682805876718891E-01 
    5.8455378820757808E-01 
    5.8233517739213769E-01 
    5.7991744901030318E-01 
    5.7783607224877576E-01 
    5.7654228262811547E-01 
    5.7610253907737596E-01 
    5.7590161606026613E-01 
    5.7460815438885293E-01 
    5.7292840760884134E-01 
    5.7111267939451293E-01 
    5.6937006852249417E-01 
    5.6832853182061616E-01 
    5.2860426530254545E-01 
    5.2806765761880881E-01 
    5.2712763992284073E-01 
    5.2611592824852116E-01 
    5.2504229199971797E-01 
    5.2335213627952937E-01 
    5.2067848314918996E-01 
    5.1856619261077286E-01 
    5.1724547361530193E-01 
    5.1543358500365810E-01 
    5.1287400759893031E-01 
    5.1034437171533464E-01 
    5.0861358011848290E-01 
    5.0721063008507727E-01 
    5.0645603819012475E-01 
    5.0607738907211941E-01 
    4.7616765612062156E-01 
    4.7570624315552479E-01 
    4.7470950074788337E-01 
    4.7315118619268881E-01 
    4.7100076414340036E-01 
    4.6833008447277952E-01 
    4.6536472545021046E-01 
    4.6171851029637850E-01 
    4.5726450084536435E-01 
    4.5240181515519440E-01 
    4.4792136274506156E-01 
    4.4383725826192327E-01 
    4.4047192938644830E-01 
    4.3863757031111383E-01 
    4.3844358725663973E-01 
    4.3897339046797079E-01 
    4.2540356702691368E-01 
    4.2477414019871368E-01 
    4.2334693289188324E-01 
    4.2092644513826333E-01 
    4.1760790798771852E-01 
    4.1375487580059472E-01 
    4.0951418018852503E-01 
    4.0378013303795046E-01 
    3.9669250986072385E-01 
    3.8934042777578459E-01 
    3.8250511809691951E-01 
    3.7604332208483254E-01 
    3.7067287723268888E-01 
    3.6783401990290082E-01 
    3.6755606358451087E-01 
    3.6852714005050652E-01 
    3.7550232333539046E-01 
    3.7467033030888564E-01 
    3.7278686240075171E-01 
    3.6950234181046293E-01 
    3.6496465291162927E-01 
    3.5974042085259306E-01 
    3.5410322993755389E-01 
    3.4653934424178506E-01 
    3.3720491695142712E-01 
    3.2748584139591541E-01 
    3.1806686780463572E-01 
    3.0885195726028553E-01 
    3.0069401260894907E-01 
    2.9535462076440150E-01 
    2.9287034941883550E-01 
    2.9218163414069870E-01 
    3.2991432393133846E-01 
    3.2894000843115662E-01 
    3.2670709985546115E-01 
    3.2271340479533955E-01 
    3.1711012320058574E-01 
    3.1067081627723192E-01 
    3.0398725361068374E-01 
    2.9526053258883123E-01 
    2.8432045666533906E-01 
    2.7223120681443652E-01 
    2.5941343273476841E-01 
    2.4565497316328905E-01 
    2.3100723032193102E-01 
    2.1664242427405697E-01 
    2.0337895760090263E-01 
    1.9365262149442858E-01 
    3.0085905346634234E-01 
    2.9974475202882173E-01 
    2.9720026370098779E-01 
    2.9273015157169197E-01 
    2.8648579637725091E-01 
    2.7944121976859498E-01 
    2.7272039142386301E-01 
    2.6426860409563357E-01 
    2.5239834421427099E-01 
    2.3655789168066924E-01 
    2.1805825814201560E-01 
    1.9533604304412686E-01 
    1.6418374444779096E-01 
    1.2208729285540636E-01 
    6.7882569698748396E-02 
    0.0000000000000000E+00 

SCALARS Saturarion double 1 
LOOKUP_TABLE default 

    1.0000000002955456E+00 
    9.6455706952806586E-01 
    9.0778123611938089E-01 
    8.5247738101524351E-01 
    7.9660324124248949E-01 
    7.4418651464170205E-01 
    6.9174595913755910E-01 
    6.4120196732419266E-01 
    5.8683993644626498E-01 
    5.3393786879387761E-01 
    4.8758170922497279E-01 
    4.3904686210147381E-01 
    1.4301613046446507E-01 
    1.0000060522762533E-06 
    1.0000000000081798E-06 
    9.9999999999999995E-07 
    9.2002474061273287E-01 
    9.0108698371472173E-01 
    8.5947993742706685E-01 
    8.1384045026599172E-01 
    7.6726556507935550E-01 
    7.2105972744262448E-01 
    6.7605074796991849E-01 
    6.3332399212085189E-01 
    5.8609966205649100E-01 
    5.3959941172179771E-01 
    4.9538402388524005E-01 
    4.4230484466664588E-01 
    1.4161910973412789E-01 
    1.1281387386048877E-05 
    1.0000321127649040E-06 
    9.9999999999999995E-07 
    8.0462102968720572E-01 
    7.9701044091564011E-01 
    7.7595295546209420E-01 
    7.4769928913409389E-01 
    7.1663655766722478E-01 
    6.8150531860742292E-01 
    6.4721165232941702E-01 
    6.1226769873627784E-01 
    5.7438878398225535E-01 
    5.3413829293288573E-01 
    4.9253832927169794E-01 
    4.3630278067783507E-01 
    1.1568017839815435E-01 
    3.0479160869075196E-05 
    1.0001318357595323E-06 
    9.9999999999999699E-07 
    7.1301175624578106E-01 
    7.0808996157611159E-01 
    6.9624534123665638E-01 
    6.7918473161430526E-01 
    6.6111131133855461E-01 
    6.3887463752621987E-01 
    6.1227456649378742E-01 
    5.8497998977988619E-01 
    5.5573172396680814E-01 
    5.2060933922241004E-01 
    4.8275461511006745E-01 
    4.1381103926186913E-01 
    6.0584430980814001E-02 
    3.9523604712214250E-05 
    1.0001219086231014E-06 
    1.0000000000000004E-06 
    6.4236574206565100E-01 
    6.3945328598188067E-01 
    6.3189769467081203E-01 
    6.1886467549823188E-01 
    6.0555089176265386E-01 
    5.9208385359960647E-01 
    5.7213821530358389E-01 
    5.4987079961623264E-01 
    5.2838101380817104E-01 
    4.9982803621058625E-01 
    4.6634562600297175E-01 
    3.4691123529262874E-01 
    1.5104590140284898E-02 
    5.2591812094968233E-06 
    1.0000011873183314E-06 
    9.9999999999999995E-07 
    5.8803477992276287E-01 
    5.8544739704318116E-01 
    5.7995310550129753E-01 
    5.7363967315723452E-01 
    5.6294113973246906E-01 
    5.4867097045540880E-01 
    5.3218078277443226E-01 
    5.1242874937370719E-01 
    4.9390443930838435E-01 
    4.7418103957140323E-01 
    4.3734216747321719E-01 
    1.9802630422206496E-01 
    5.4121101422778778E-04 
    1.0380765106055424E-06 
    1.0000000004589292E-06 
    9.9999999999999995E-07 
    5.3415212854388439E-01 
    5.3171808119204023E-01 
    5.2691114123253724E-01 
    5.2220428386386764E-01 
    5.2109629829337600E-01 
    5.0957145527726344E-01 
    4.9554510288933323E-01 
    4.7890447674870845E-01 
    4.5822770213587405E-01 
    4.3004813963000377E-01 
    2.9669202288549901E-01 
    2.5667264172308309E-02 
    2.1846421257114834E-05 
    1.0000173574886272E-06 
    1.0000000000000019E-06 
    9.9999999999999995E-07 
    4.8489584431507504E-01 
    4.8246811691041563E-01 
    4.7837101894072603E-01 
    4.7390783223216132E-01 
    4.7413126848885223E-01 
    4.6994783384799182E-01 
    4.6085994997804813E-01 
    4.4555339405383354E-01 
    3.8806524522964869E-01 
    1.9918789575232645E-01 
    2.1773616727899434E-02 
    7.9898177149487828E-05 
    1.0003232268387807E-06 
    1.0000000000111808E-06 
    9.9999999999999995E-07 
    9.9999999999999995E-07 
    4.3629290739596777E-01 
    4.3507070532598446E-01 
    4.3068556397727292E-01 
    4.2244543120402089E-01 
    4.1714559045538724E-01 
    4.0068208059519067E-01 
    3.6850111192384366E-01 
    2.6636807702508886E-01 
    9.5354788027729120E-02 
    1.9742478155415884E-03 
    4.8539690994109144E-05 
    1.0006641551724704E-06 
    1.0000000000581229E-06 
    1.0000000000000002E-06 
    9.9999999999999995E-07 
    9.9999999999999995E-07 
    1.6969504229749346E-01 
    1.4957443251892777E-01 
    1.2081569290377790E-01 
    8.6702398446995343E-02 
    6.7806325290719630E-02 
    6.4814081592289144E-02 
    2.8601779866310063E-02 
    2.6536761183552898E-03 
    4.5325443188894783E-04 
    1.2683264584633853E-06 
    1.0000851550626502E-06 
    1.0000000000579618E-06 
    1.0000000000000002E-06 
    9.9999999999999995E-07 
    9.9999999999999995E-07 
    9.9999999999999995E-07 
    1.0000015436909601E-06 
    8.9123636358815046E-06 
    1.2184571767934159E-05 
    1.7517815197347717E-05 
    3.6138471454874042E-06 
    3.5950197415498127E-06 
    1.7129775070168407E-05 
    1.2343859704197748E-06 
    1.0418345127796394E-06 
    1.0000000595464937E-06 
    1.0000000000019185E-06 
    1.0000000000000002E-06 
    9.9999999999999995E-07 
    9.9999999999999995E-07 
    9.9999999999999995E-07 
    9.9999999999999995E-07 
    1.0000000000020614E-06 
    1.0000334871375272E-06 
    1.0000390335303561E-06 
    1.0000698295126213E-06 
    1.0000027267666556E-06 
    1.0000017080845184E-06 
    1.0000353893885782E-06 
    1.0000000686551232E-06 
    1.0000000000000167E-06 
    1.0000000000000237E-06 
    9.9999999999999995E-07 
    9.9999999999999995E-07 
    9.9999999999999995E-07 
    9.9999999999999995E-07 
    9.9999999999999995E-07 
    9.9999999999999995E-07 
    9.9999999999999995E-07 
    1.0000000000015809E-06 
    1.0000000000032543E-06 
    9.9999999999999932E-07 
    9.9999999999999953E-07 
    1.0000000000000002E-06 
    1.0000000000000067E-06 
    1.0000000000000004E-06 
    9.9999999999999995E-07 
    9.9999999999999995E-07 
    9.9999999999999995E-07 
    9.9999999999999995E-07 
    9.9999999999999995E-07 
    9.9999999999999995E-07 
    9.9999999999999995E-07 
    9.9999999999999995E-07 
    9.9999999999999995E-07 
    9.9999999999999995E-07 
    9.9999999999999995E-07 
    9.9999999999999995E-07 
    9.9999999999999995E-07 
    9.9999999999999995E-07 
    9.9999999999999995E-07 
    9.9999999999999995E-07 
    9.9999999999999995E-07 
    9.9999999999999995E-07 
    9.9999999999999995E-07 
    9.9999999999999995E-07 
    9.9999999999999995E-07 
    9.9999999999999995E-07 
    9.9999999999999995E-07 
    9.9999999999999995E-07 
    9.9999999999999995E-07 
    9.9999999999999995E-07 
    9.9999999999999995E-07 
    9.9999999999999995E-07 
    9.9999999999999995E-07 
    9.9999999999999995E-07 
    9.9999999999999995E-07 
    9.9999999999999995E-07 
    9.9999999999999995E-07 
    9.9999999999999995E-07 
    9.9999999999999995E-07 
    9.9999999999999995E-07 
    9.9999999999999995E-07 
    9.9999999999999995E-07 
    9.9999999999999995E-07 
    9.9999999999999995E-07 
    9.9999999999999995E-07 
    9.9999999999999995E-07 
    9.9999999999999995E-07 
    9.9999999999999995E-07 
    9.9999999999999995E-07 
    9.9999999999999995E-07 
    9.9999999999999995E-07 
    9.9999999999999995E-07 
    9.9999999999999995E-07 
    9.9999999999999995E-07 
    9.9999999999999995E-07 
    9.9999999999999995E-07 
    9.9999999999999995E-07 
    9.9999999999999995E-07 
    9.9999999999999995E-07 
    1.0000000634712189E-06 
