# vtk DataFile Version 2.0
Pressure Field Data 
ASCII 
DATASET UNSTRUCTURED_GRID 

POINTS 289 double 

    0.0000000000000000E+00     0.0000000000000000E+00     0.0000000000000000E+00 
    1.0000000000000000E+00     0.0000000000000000E+00     0.0000000000000000E+00 
    1.0000000000000000E+00     1.0000000000000000E+00     0.0000000000000000E+00 
    0.0000000000000000E+00     1.0000000000000000E+00     0.0000000000000000E+00 
    6.2499999999872928E-02     0.0000000000000000E+00     0.0000000000000000E+00 
    1.2499999999977310E-01     0.0000000000000000E+00     0.0000000000000000E+00 
    1.8749999999959341E-01     0.0000000000000000E+00     0.0000000000000000E+00 
    2.4999999999941089E-01     0.0000000000000000E+00     0.0000000000000000E+00 
    3.1249999999922851E-01     0.0000000000000000E+00     0.0000000000000000E+00 
    3.7499999999904610E-01     0.0000000000000000E+00     0.0000000000000000E+00 
    4.3749999999886358E-01     0.0000000000000000E+00     0.0000000000000000E+00 
    4.9999999999869210E-01     0.0000000000000000E+00     0.0000000000000000E+00 
    5.6249999999884603E-01     0.0000000000000000E+00     0.0000000000000000E+00 
    6.2499999999901090E-01     0.0000000000000000E+00     0.0000000000000000E+00 
    6.8749999999917577E-01     0.0000000000000000E+00     0.0000000000000000E+00 
    7.4999999999934064E-01     0.0000000000000000E+00     0.0000000000000000E+00 
    8.1249999999950551E-01     0.0000000000000000E+00     0.0000000000000000E+00 
    8.7499999999967026E-01     0.0000000000000000E+00     0.0000000000000000E+00 
    9.3749999999983513E-01     0.0000000000000000E+00     0.0000000000000000E+00 
    1.0000000000000000E+00     6.2499999999872928E-02     0.0000000000000000E+00 
    1.0000000000000000E+00     1.2499999999977310E-01     0.0000000000000000E+00 
    1.0000000000000000E+00     1.8749999999959341E-01     0.0000000000000000E+00 
    1.0000000000000000E+00     2.4999999999941089E-01     0.0000000000000000E+00 
    1.0000000000000000E+00     3.1249999999922851E-01     0.0000000000000000E+00 
    1.0000000000000000E+00     3.7499999999904610E-01     0.0000000000000000E+00 
    1.0000000000000000E+00     4.3749999999886358E-01     0.0000000000000000E+00 
    1.0000000000000000E+00     4.9999999999869210E-01     0.0000000000000000E+00 
    1.0000000000000000E+00     5.6249999999884603E-01     0.0000000000000000E+00 
    1.0000000000000000E+00     6.2499999999901090E-01     0.0000000000000000E+00 
    1.0000000000000000E+00     6.8749999999917577E-01     0.0000000000000000E+00 
    1.0000000000000000E+00     7.4999999999934064E-01     0.0000000000000000E+00 
    1.0000000000000000E+00     8.1249999999950551E-01     0.0000000000000000E+00 
    1.0000000000000000E+00     8.7499999999967026E-01     0.0000000000000000E+00 
    1.0000000000000000E+00     9.3749999999983513E-01     0.0000000000000000E+00 
    9.3749999999973976E-01     1.0000000000000000E+00     0.0000000000000000E+00 
    8.7499999999950118E-01     1.0000000000000000E+00     0.0000000000000000E+00 
    8.1249999999991318E-01     1.0000000000000000E+00     0.0000000000000000E+00 
    7.5000000000034706E-01     1.0000000000000000E+00     0.0000000000000000E+00 
    6.8750000000078049E-01     1.0000000000000000E+00     0.0000000000000000E+00 
    6.2500000000121403E-01     1.0000000000000000E+00     0.0000000000000000E+00 
    5.6250000000164757E-01     1.0000000000000000E+00     0.0000000000000000E+00 
    5.0000000000205946E-01     1.0000000000000000E+00     0.0000000000000000E+00 
    4.3750000000182099E-01     1.0000000000000000E+00     0.0000000000000000E+00 
    3.7500000000156092E-01     1.0000000000000000E+00     0.0000000000000000E+00 
    3.1250000000130068E-01     1.0000000000000000E+00     0.0000000000000000E+00 
    2.5000000000104050E-01     1.0000000000000000E+00     0.0000000000000000E+00 
    1.8750000000078040E-01     1.0000000000000000E+00     0.0000000000000000E+00 
    1.2500000000052031E-01     1.0000000000000000E+00     0.0000000000000000E+00 
    6.2500000000260125E-02     1.0000000000000000E+00     0.0000000000000000E+00 
    0.0000000000000000E+00     9.3749999999973976E-01     0.0000000000000000E+00 
    0.0000000000000000E+00     8.7499999999950118E-01     0.0000000000000000E+00 
    0.0000000000000000E+00     8.1249999999991318E-01     0.0000000000000000E+00 
    0.0000000000000000E+00     7.5000000000034706E-01     0.0000000000000000E+00 
    0.0000000000000000E+00     6.8750000000078049E-01     0.0000000000000000E+00 
    0.0000000000000000E+00     6.2500000000121403E-01     0.0000000000000000E+00 
    0.0000000000000000E+00     5.6250000000164757E-01     0.0000000000000000E+00 
    0.0000000000000000E+00     5.0000000000205946E-01     0.0000000000000000E+00 
    0.0000000000000000E+00     4.3750000000182099E-01     0.0000000000000000E+00 
    0.0000000000000000E+00     3.7500000000156092E-01     0.0000000000000000E+00 
    0.0000000000000000E+00     3.1250000000130068E-01     0.0000000000000000E+00 
    0.0000000000000000E+00     2.5000000000104050E-01     0.0000000000000000E+00 
    0.0000000000000000E+00     1.8750000000078040E-01     0.0000000000000000E+00 
    0.0000000000000000E+00     1.2500000000052031E-01     0.0000000000000000E+00 
    0.0000000000000000E+00     6.2500000000260125E-02     0.0000000000000000E+00 
    6.2499999999897131E-02     6.2500000000235922E-02     0.0000000000000000E+00 
    6.2499999999921327E-02     1.2500000000047351E-01     0.0000000000000000E+00 
    6.2499999999945530E-02     1.8750000000070621E-01     0.0000000000000000E+00 
    6.2499999999969733E-02     2.5000000000093858E-01     0.0000000000000000E+00 
    6.2499999999993928E-02     3.1250000000117117E-01     0.0000000000000000E+00 
    6.2500000000018124E-02     3.7500000000140382E-01     0.0000000000000000E+00 
    6.2500000000042327E-02     4.3750000000163619E-01     0.0000000000000000E+00 
    6.2500000000066530E-02     5.0000000000184897E-01     0.0000000000000000E+00 
    6.2500000000090733E-02     5.6250000000147260E-01     0.0000000000000000E+00 
    6.2500000000114922E-02     6.2500000000107636E-01     0.0000000000000000E+00 
    6.2500000000139125E-02     6.8750000000068034E-01     0.0000000000000000E+00 
    6.2500000000163328E-02     7.5000000000028411E-01     0.0000000000000000E+00 
    6.2500000000187531E-02     8.1249999999988787E-01     0.0000000000000000E+00 
    6.2500000000211720E-02     8.7499999999951172E-01     0.0000000000000000E+00 
    6.2500000000235922E-02     9.3749999999974565E-01     0.0000000000000000E+00 
    1.2499999999981980E-01     6.2500000000211733E-02     0.0000000000000000E+00 
    1.2499999999986650E-01     1.2500000000042691E-01     0.0000000000000000E+00 
    1.2499999999991319E-01     1.8750000000063199E-01     0.0000000000000000E+00 
    1.2499999999995989E-01     2.5000000000083678E-01     0.0000000000000000E+00 
    1.2500000000000661E-01     3.1250000000104172E-01     0.0000000000000000E+00 
    1.2500000000005329E-01     3.7500000000124661E-01     0.0000000000000000E+00 
    1.2500000000010000E-01     4.3750000000145117E-01     0.0000000000000000E+00 
    1.2500000000014669E-01     5.0000000000163858E-01     0.0000000000000000E+00 
    1.2500000000019340E-01     5.6250000000129741E-01     0.0000000000000000E+00 
    1.2500000000024011E-01     6.2500000000093847E-01     0.0000000000000000E+00 
    1.2500000000028680E-01     6.8750000000057998E-01     0.0000000000000000E+00 
    1.2500000000033351E-01     7.5000000000022127E-01     0.0000000000000000E+00 
    1.2500000000038020E-01     8.1249999999986211E-01     0.0000000000000000E+00 
    1.2500000000042691E-01     8.7499999999952238E-01     0.0000000000000000E+00 
    1.2500000000047359E-01     9.3749999999975164E-01     0.0000000000000000E+00 
    1.8749999999966760E-01     6.2500000000187531E-02     0.0000000000000000E+00 
    1.8749999999974179E-01     1.2500000000038020E-01     0.0000000000000000E+00 
    1.8749999999981601E-01     1.8750000000055780E-01     0.0000000000000000E+00 
    1.8749999999989009E-01     2.5000000000073502E-01     0.0000000000000000E+00 
    1.8749999999996431E-01     3.1250000000091221E-01     0.0000000000000000E+00 
    1.8750000000003850E-01     3.7500000000108941E-01     0.0000000000000000E+00 
    1.8750000000011269E-01     4.3750000000126649E-01     0.0000000000000000E+00 
    1.8750000000018691E-01     5.0000000000142808E-01     0.0000000000000000E+00 
    1.8750000000026110E-01     5.6250000000112244E-01     0.0000000000000000E+00 
    1.8750000000033529E-01     6.2500000000080080E-01     0.0000000000000000E+00 
    1.8750000000040951E-01     6.8750000000047962E-01     0.0000000000000000E+00 
    1.8750000000048361E-01     7.5000000000015843E-01     0.0000000000000000E+00 
    1.8750000000055780E-01     8.1249999999983680E-01     0.0000000000000000E+00 
    1.8750000000063199E-01     8.7499999999953304E-01     0.0000000000000000E+00 
    1.8750000000070621E-01     9.3749999999975764E-01     0.0000000000000000E+00 
    2.4999999999951281E-01     6.2500000000163314E-02     0.0000000000000000E+00 
    2.4999999999961461E-01     1.2500000000033351E-01     0.0000000000000000E+00 
    2.4999999999971650E-01     1.8750000000048361E-01     0.0000000000000000E+00 
    2.4999999999981831E-01     2.5000000000063310E-01     0.0000000000000000E+00 
    2.4999999999992020E-01     3.1250000000078260E-01     0.0000000000000000E+00 
    2.5000000000002198E-01     3.7500000000093209E-01     0.0000000000000000E+00 
    2.5000000000012390E-01     4.3750000000108180E-01     0.0000000000000000E+00 
    2.5000000000022571E-01     5.0000000000121769E-01     0.0000000000000000E+00 
    2.5000000000032763E-01     5.6250000000094724E-01     0.0000000000000000E+00 
    2.5000000000042938E-01     6.2500000000066314E-01     0.0000000000000000E+00 
    2.5000000000053119E-01     6.8750000000037925E-01     0.0000000000000000E+00 
[...]
CELL_DATA 256 
SCALARS Pressure double 1 
LOOKUP_TABLE default 

    9.0623744253903427E-01 
    8.9396949966671468E-01 
    8.8168410297901345E-01 
    8.7053373928357769E-01 
    8.6248665855679318E-01 
    8.5894859587559325E-01 
    8.5275430066527358E-01 
    8.4769298730935716E-01 
    8.4415015456671127E-01 
    8.4194394861685740E-01 
    8.3909056054710307E-01 
    8.3626683786846168E-01 
    8.3323449906930236E-01 
    8.3001229803914756E-01 
    8.2715236149245874E-01 
    8.2533727949301450E-01 
    8.6094079432137449E-01 
    8.5752471682007747E-01 
    8.5345583622937349E-01 
    8.4903978012874315E-01 
    8.4463847096493405E-01 
    8.3974525992613669E-01 
    8.3456399117296198E-01 
    8.3144923131650450E-01 
    8.2806491110483316E-01 
    8.2465889075812437E-01 
    8.2174940197313817E-01 
    8.1956943863111220E-01 
    8.1738092220586700E-01 
    8.1552580811241693E-01 
    8.1411308905516566E-01 
    8.1321755715704991E-01 
    8.2735178706147583E-01 
    8.2574671415407430E-01 
    8.2386368321340087E-01 
    8.2150746039053535E-01 
    8.1851740139127638E-01 
    8.1455881342036585E-01 
    8.1023555280226012E-01 
    8.0759648761723568E-01 
    8.0418747304415672E-01 
    8.0067327865168636E-01 
    7.9800227887979203E-01 
    7.9633698283714593E-01 
    7.9471672508699154E-01 
    7.9371152414838064E-01 
    7.9330998601005243E-01 
    7.9327876149010634E-01 
    7.9282071181783631E-01 
    7.9262173606917319E-01 
    7.9225338995514427E-01 
    7.9135488999090231E-01 
    7.8961169774003470E-01 
    7.8663952642282264E-01 
    7.8307752125848618E-01 
    7.8069808723129930E-01 
    7.7748234871405986E-01 
    7.7415469058939546E-01 
    7.7182893142457709E-01 
    7.7057335278932160E-01 
    7.6929757828536882E-01 
    7.6877188272611563E-01 
    7.6894808085982769E-01 
    7.6925414396526748E-01 
    7.6087740082351152E-01 
    7.6288051930107781E-01 
    7.6263176002068289E-01 
    7.6176342116057316E-01 
    7.6011376940477782E-01 
    7.5723633782630673E-01 
    7.5393511881616138E-01 
    7.5235651159277128E-01 
    7.4977086514681546E-01 
    7.4682177214832890E-01 
    7.4487799664073318E-01 
    7.4441520918750059E-01 
    7.4325571083168196E-01 
    7.4268306660042660E-01 
    7.4254215446917338E-01 
    7.4208796075335348E-01 
    7.3323994480089050E-01 
    7.3170741522507443E-01 
    7.2932575541007072E-01 
    7.2597853325367601E-01 
    7.2250167649398656E-01 
    7.2013916873089279E-01 
    7.1903833074380530E-01 
    7.1843446939049505E-01 
    7.1773788173736419E-01 
    7.1764368227293729E-01 
    7.1746088180922041E-01 
    7.1642387443564581E-01 
    7.1453886352373042E-01 
    7.1267372985273869E-01 
    7.1112336072994842E-01 
    7.1019040341513817E-01 
    6.8539953065644088E-01 
    6.8505403388612773E-01 
    6.8417065957868062E-01 
    6.8290323307232037E-01 
    6.8184188920636890E-01 
    6.8179372012080830E-01 
    6.8179396149711291E-01 
    6.7947470421935652E-01 
    6.7858418312111712E-01 
    6.7867025210708920E-01 
    6.7846133167070044E-01 
    6.7689738841224800E-01 
    6.7587172512780702E-01 
    6.7491625101962027E-01 
    6.7442674844907036E-01 
    6.7424846336335720E-01 
    6.4106630926793740E-01 
    6.4198237766446176E-01 
    6.4258374496024495E-01 
    6.4286085683291017E-01 
    6.4279395555423280E-01 
    6.4243871675405606E-01 
    6.4147023484321708E-01 
    6.3994724658622359E-01 
    6.3841160126377661E-01 
    6.3723030472742104E-01 
    6.3623239746110849E-01 
    6.3531480156718656E-01 
    6.3439828748574700E-01 
    6.3399658805321013E-01 
    6.3442426299224175E-01 
    6.3480021572375611E-01 
    6.0204807409686312E-01 
    6.0377383241285365E-01 
    6.0368608923567302E-01 
    6.0335266859101477E-01 
    6.0245300214858344E-01 
    6.0091491794747587E-01 
    5.9895285108969210E-01 
    5.9775024013559697E-01 
    5.9591733922435963E-01 
    5.9461229019502704E-01 
    5.9389487705182231E-01 
    5.9361601854567814E-01 
    5.9260750834158349E-01 
    5.9234107712987960E-01 
    5.9268955535938939E-01 
    5.9225481442534189E-01 
    5.6394102477459940E-01 
    5.6316377207119450E-01 
    5.6149064336154919E-01 
    5.5914969859050412E-01 
    5.5677809641415699E-01 
    5.5486691687668943E-01 
    5.5329520397462184E-01 
    5.5220113035910467E-01 
    5.5166295488625228E-01 
    5.5212687754717460E-01 
    5.5265041180790231E-01 
    5.5141878711756509E-01 
    5.4915983438815619E-01 
    5.4685124484518655E-01 
    5.4481495479427344E-01 
    5.4363598513275313E-01 
    5.1959041851795784E-01 
    5.1882642971763260E-01 
    5.1744766804151465E-01 
    5.1576427088293575E-01 
    5.1425631911279923E-01 
    5.1277505140133717E-01 
    5.1020215991452822E-01 
    5.0723478772192754E-01 
    5.0555326863559946E-01 
    5.0380588779870261E-01 
    5.0075031823654159E-01 
    4.9667388545748087E-01 
    4.9326722850075683E-01 
    4.9087037590651877E-01 
    4.8978978753162122E-01 
    4.8945967268710905E-01 
    4.7825980479907471E-01 
    4.7773443812284971E-01 
    4.7667511794611950E-01 
    4.7496741979872598E-01 
    4.7253838073827198E-01 
    4.6942628182958301E-01 
    4.6599284754625026E-01 
    4.6176972040262620E-01 
    4.5625336947800160E-01 
    4.4972383387682430E-01 
    4.4305358472327189E-01 
    4.3635010080437919E-01 
    4.3094536677349260E-01 
    4.2814806212605899E-01 
    4.2771164816114943E-01 
    4.2838213268564429E-01 
    4.3187302961190072E-01 
    4.3115367219019735E-01 
    4.2957567237067734E-01 
    4.2680367667104263E-01 
    4.2285643280682250E-01 
    4.1819464017177482E-01 
    4.1314739639529546E-01 
    4.0632479540073313E-01 
    3.9765848492061229E-01 
    3.8832877638828517E-01 
    3.7937665652885050E-01 
    3.7103103569008744E-01 
    3.6443661037020553E-01 
    3.6105144176332882E-01 
    3.6071216212689200E-01 
    3.6185699825345602E-01 
    3.7921344919634525E-01 
    3.7820836323808821E-01 
    3.7598116403251330E-01 
    3.7214732411815671E-01 
    3.6691196705474316E-01 
    3.6096362343319005E-01 
    3.5462201056376325E-01 
    3.4618033523450331E-01 
    3.3587760581529535E-01 
    3.2524594210985464E-01 
    3.1510666615942773E-01 
    3.0535903359071476E-01 
    2.9684546372592779E-01 
    2.9135771663001736E-01 
    2.8889063855467723E-01 
    2.8828535477209893E-01 
    3.3047870287209052E-01 
    3.2943662120771333E-01 
    3.2706628466240079E-01 
    3.2286922107429616E-01 
    3.1706262476508951E-01 
    3.1048961093100674E-01 
    3.0372715455766830E-01 
    2.9482014668309470E-01 
    2.8368035209814552E-01 
    2.7144615922029730E-01 
    2.5849676373123942E-01 
    2.4457947580489894E-01 
    2.2981376623666325E-01 
    2.1534311836663589E-01 
    2.0194483914542635E-01 
    1.9206938226533771E-01 
    2.9995081721191896E-01 
    2.9883047745696223E-01 
    2.9631121356520768E-01 
    2.9193466966825099E-01 
    2.8587835489360819E-01 
    2.7909280248073876E-01 
    2.7261082122689589E-01 
    2.6430606966133258E-01 
    2.5257305640210226E-01 
    2.3688296952109558E-01 
    2.1852009998856262E-01 
    1.9586688695590251E-01 
    1.6471461488219999E-01 
    1.2250846907773620E-01 
    6.8101764083141211E-02 
    0.0000000000000000E+00 

SCALARS Saturarion double 1 
LOOKUP_TABLE default 

    1.0000000002653342E+00 
    9.7707806609482217E-01 
    9.3762288710943009E-01 
    8.9554145635935689E-01 
    8.5212829596195061E-01 
    8.0613032827536046E-01 
    7.6001517166904120E-01 
    7.1215100037741041E-01 
    6.6192248577580148E-01 
    6.1437422103874939E-01 
    5.6870931705090533E-01 
    5.2751042808957882E-01 
    4.8880136067866919E-01 
    4.3801969435614285E-01 
    1.2990996274466754E-01 
    1.0010450891216305E-06 
    9.4304126463953875E-01 
    9.2880679518436871E-01 
    8.9803167603296663E-01 
    8.6251462101212528E-01 
    8.2415965111673828E-01 
    7.8342396867598563E-01 
    7.4401717367339915E-01 
    7.0235488150871994E-01 
    6.5754046460901783E-01 
    6.1238893643550674E-01 
    5.6721823276282701E-01 
    5.2244747152507298E-01 
    4.7722738522036012E-01 
    3.8857839572285580E-01 
    3.5018348367688953E-02 
    1.3025263230723217E-05 
    8.5214341301812135E-01 
    8.4525610178375710E-01 
    8.2778842355617466E-01 
    8.0317978021156422E-01 
    7.7590461534931465E-01 
    7.4575335925501329E-01 
    7.1357994233709610E-01 
    6.8076446748937114E-01 
    6.4549267269417843E-01 
    6.0462787003488050E-01 
    5.6195887566058977E-01 
    5.1826113409923247E-01 
    4.7051443660008507E-01 
    3.0452064915684501E-01 
    2.4889333715183552E-03 
    1.0687652807222373E-06 
    7.7335976216146562E-01 
    7.6949747986525041E-01 
    7.5935180560118110E-01 
    7.4403620874727683E-01 
    7.2653283733206198E-01 
    7.0506518608428670E-01 
    6.8078353373450218E-01 
    6.5608555399848634E-01 
    6.2787490723646944E-01 
    5.9208929133286337E-01 
    5.5216516434032814E-01 
    5.0786161067975455E-01 
    4.5704874720772859E-01 
    2.0370888372413110E-01 
    1.0346241774621476E-04 
    1.0007202338820159E-06 
    7.1179276899268396E-01 
    7.0827096717733240E-01 
    7.0100694599830216E-01 
    6.9081000101388468E-01 
    6.7685625180611064E-01 
    6.6346068191557817E-01 
    6.4622926554858995E-01 
    6.2641015746562911E-01 
    6.0518923334649966E-01 
    5.7627035773981794E-01 
    5.4039742530037327E-01 
    4.9716266789366448E-01 
    4.3972070040386346E-01 
    1.3126385975898372E-01 
    3.6791384645585044E-05 
    1.0003576428183749E-06 
    6.6386053146218127E-01 
    6.6177189371468781E-01 
    6.5673678342306685E-01 
    6.4990296515808166E-01 
    6.3805409049266371E-01 
    6.2519583301785020E-01 
    6.1090301707934314E-01 
    5.9218752457654378E-01 
    5.7508773080135056E-01 
    5.5448261830141166E-01 
    5.2490508854090445E-01 
    4.8913884138755931E-01 
    4.2984834764067897E-01 
    9.1942254615191316E-02 
    1.9064484971089918E-05 
    1.0000385769938658E-06 
    6.2061359690377749E-01 
    6.1859684269336102E-01 
    6.1421590345476473E-01 
    6.0864512102721202E-01 
    6.0625443246966382E-01 
    5.9372590469191877E-01 
    5.7959533531679541E-01 
    5.6220881954211999E-01 
    5.4273207395387624E-01 
    5.2680860334669710E-01 
    5.0187631010331490E-01 
    4.7297799081033987E-01 
    4.0268277984280454E-01 
    3.6198456959617986E-02 
    1.1515952334538649E-05 
    1.0000039732610711E-06 
    5.7907252805823672E-01 
    5.7687974604180803E-01 
    5.7281258475346208E-01 
    5.6759653796536402E-01 
    5.7321284862292743E-01 
    5.6472584598745612E-01 
    5.5196311885855964E-01 
    5.3745534603581457E-01 
    5.1685893935287719E-01 
    5.0075599876613675E-01 
    4.8003369248951783E-01 
    4.5291458529744777E-01 
    3.0600542451731744E-01 
    4.0095783768162299E-03 
    1.2062833715915940E-06 
    1.0000000108508058E-06 
    5.4322583953289583E-01 
    5.4142436633221569E-01 
    5.3808469571870554E-01 
    5.3376193885380563E-01 
    5.3892131438952873E-01 
    5.3508191368469105E-01 
    5.2557080948189172E-01 
    5.1389131186013948E-01 
    4.9863475952770775E-01 
    4.7927985973623910E-01 
    4.6401669594727168E-01 
    4.3314150715984928E-01 
    1.7512982335361843E-01 
    2.3617941630174749E-04 
    1.0179917893836625E-06 
    1.0000000000091737E-06 
    5.1408401865221920E-01 
    5.1266595395474002E-01 
    5.0975424590395146E-01 
    5.0645121386524705E-01 
    5.0480966907051816E-01 
    5.0489351875722743E-01 
    4.9839967007013164E-01 
    4.8960998183901022E-01 
    4.7998839506423807E-01 
    4.6173253286239607E-01 
    4.4702390331242398E-01 
    3.9320746951410745E-01 
    6.1942703572976127E-02 
    6.2169220688691883E-05 
    1.0002546324587850E-06 
    1.0000000000000002E-06 
    4.8470290602632415E-01 
    4.8350164264724199E-01 
    4.8068935196916501E-01 
    4.7817122129481970E-01 
    4.7513381528416548E-01 
    4.7442760996521754E-01 
    4.7231749204825924E-01 
    4.6673381804358272E-01 
    4.5826890542077731E-01 
    4.4515902780845285E-01 
    4.1725827445449193E-01 
    2.5597612432149952E-01 
    5.1596738701155508E-03 
    1.5600322775491549E-06 
    1.0000000567713012E-06 
    1.0000000000000002E-06 
    4.5137516282203427E-01 
    4.5114448588287304E-01 
    4.5003145924748783E-01 
    4.4757560004941072E-01 
    4.4472463018137681E-01 
    4.4329012762616904E-01 
    4.4419789525299230E-01 
    4.4157632892793036E-01 
    4.3281089970388004E-01 
    4.1161787851571441E-01 
    3.3080984177305994E-01 
    6.0007034644995315E-02 
    1.8949166426132988E-04 
    1.0029845651398400E-06 
    1.0000000000007688E-06 
    9.9999999999999995E-07 
    3.8278046349350542E-01 
    3.7692964231672588E-01 
    3.6609163842029485E-01 
    3.4973869662939355E-01 
    3.4449018319064201E-01 
    3.3821116590297795E-01 
    3.3332610699556819E-01 
    3.2903071412846174E-01 
    3.1894799401740714E-01 
    2.2296823794681800E-01 
    4.8570509436450644E-02 
    5.5079458159026115E-04 
    1.0349407340841504E-06 
    1.0000000041323863E-06 
    1.0000000000000002E-06 
    9.9999999999999995E-07 
    1.4495798682506863E-02 
    1.0808983012933492E-02 
    1.0485678990440754E-02 
    1.5569002468911887E-02 
    1.0373947030118610E-02 
    2.4944951086041402E-03 
    1.1057483605198661E-03 
    2.9276405205166545E-03 
    8.8282086130762934E-03 
    1.4900054885395675E-03 
    1.0994511996653365E-04 
    1.0256335546794715E-06 
    1.0000000153846918E-06 
    1.0000000000000025E-06 
    9.9999999999999995E-07 
    9.9999999999999995E-07 
    1.0000000338796693E-06 
    1.0427723251471871E-06 
    1.1188085304745809E-06 
    1.0154358407264608E-06 
    1.2418811772242724E-06 
    1.0646229913438687E-06 
    1.0009115103453379E-06 
    1.0060501651795303E-06 
    1.2084637394491282E-06 
    1.2530725082282637E-06 
    1.0013034081562610E-06 
    1.0000000034759528E-06 
    1.0000000000000033E-06 
    9.9999999999999995E-07 
    9.9999999999999995E-07 
    9.9999999999999995E-07 
    1.0000000000000061E-06 
    1.0000000017710923E-06 
    1.0000000055991639E-06 
    1.0000000037201401E-06 
    1.0000000259387441E-06 
    1.0000000052718307E-06 
    1.0000000000919363E-06 
    1.0000000006926455E-06 
    1.0000000655415203E-06 
    1.0000000129208548E-06 
    1.0000000000000487E-06 
    1.0000000000000002E-06 
    9.9999999999999995E-07 
    9.9999999999999995E-07 
    9.9999999999999995E-07 
    1.0000001014024133E-06 
