# vtk DataFile Version 2.0
Pressure Field Data 
ASCII 
DATASET UNSTRUCTURED_GRID 

POINTS 289 double 

    0.0000000000000000E+00     0.0000000000000000E+00     0.0000000000000000E+00 
    1.0000000000000000E+00     0.0000000000000000E+00     0.0000000000000000E+00 
    1.0000000000000000E+00     1.0000000000000000E+00     0.0000000000000000E+00 
    0.0000000000000000E+00     1.0000000000000000E+00     0.0000000000000000E+00 
    6.2499999999872928E-02     0.0000000000000000E+00     0.0000000000000000E+00 
    1.2499999999977310E-01     0.0000000000000000E+00     0.0000000000000000E+00 
    1.8749999999959341E-01     0.0000000000000000E+00     0.0000000000000000E+00 
    2.4999999999941089E-01     0.0000000000000000E+00     0.0000000000000000E+00 
    3.1249999999922851E-01     0.0000000000000000E+00     0.0000000000000000E+00 
    3.7499999999904610E-01     0.0000000000000000E+00     0.0000000000000000E+00 
    4.3749999999886358E-01     0.0000000000000000E+00     0.0000000000000000E+00 
    4.9999999999869210E-01     0.0000000000000000E+00     0.0000000000000000E+00 
    5.6249999999884603E-01     0.0000000000000000E+00     0.0000000000000000E+00 
    6.2499999999901090E-01     0.0000000000000000E+00     0.0000000000000000E+00 
    6.8749999999917577E-01     0.0000000000000000E+00     0.0000000000000000E+00 
    7.4999999999934064E-01     0.0000000000000000E+00     0.0000000000000000E+00 
    8.1249999999950551E-01     0.0000000000000000E+00     0.0000000000000000E+00 
    8.7499999999967026E-01     0.0000000000000000E+00     0.0000000000000000E+00 
    9.3749999999983513E-01     0.0000000000000000E+00     0.0000000000000000E+00 
    1.0000000000000000E+00     6.2499999999872928E-02     0.0000000000000000E+00 
    1.0000000000000000E+00     1.2499999999977310E-01     0.0000000000000000E+00 
    1.0000000000000000E+00     1.8749999999959341E-01     0.0000000000000000E+00 
    1.0000000000000000E+00     2.4999999999941089E-01     0.0000000000000000E+00 
    1.0000000000000000E+00     3.1249999999922851E-01     0.0000000000000000E+00 
    1.0000000000000000E+00     3.7499999999904610E-01     0.0000000000000000E+00 
    1.0000000000000000E+00     4.3749999999886358E-01     0.0000000000000000E+00 
    1.0000000000000000E+00     4.9999999999869210E-01     0.0000000000000000E+00 
    1.0000000000000000E+00     5.6249999999884603E-01     0.0000000000000000E+00 
    1.0000000000000000E+00     6.2499999999901090E-01     0.0000000000000000E+00 
    1.0000000000000000E+00     6.8749999999917577E-01     0.0000000000000000E+00 
    1.0000000000000000E+00     7.4999999999934064E-01     0.0000000000000000E+00 
    1.0000000000000000E+00     8.1249999999950551E-01     0.0000000000000000E+00 
    1.0000000000000000E+00     8.7499999999967026E-01     0.0000000000000000E+00 
    1.0000000000000000E+00     9.3749999999983513E-01     0.0000000000000000E+00 
    9.3749999999973976E-01     1.0000000000000000E+00     0.0000000000000000E+00 
    8.7499999999950118E-01     1.0000000000000000E+00     0.0000000000000000E+00 
    8.1249999999991318E-01     1.0000000000000000E+00     0.0000000000000000E+00 
    7.5000000000034706E-01     1.0000000000000000E+00     0.0000000000000000E+00 
    6.8750000000078049E-01     1.0000000000000000E+00     0.0000000000000000E+00 
    6.2500000000121403E-01     1.0000000000000000E+00     0.0000000000000000E+00 
    5.6250000000164757E-01     1.0000000000000000E+00     0.0000000000000000E+00 
    5.0000000000205946E-01     1.0000000000000000E+00     0.0000000000000000E+00 
    4.3750000000182099E-01     1.0000000000000000E+00     0.0000000000000000E+00 
    3.7500000000156092E-01     1.0000000000000000E+00     0.0000000000000000E+00 
    3.1250000000130068E-01     1.0000000000000000E+00     0.0000000000000000E+00 
    2.5000000000104050E-01     1.0000000000000000E+00     0.0000000000000000E+00 
    1.8750000000078040E-01     1.0000000000000000E+00     0.0000000000000000E+00 
    1.2500000000052031E-01     1.0000000000000000E+00     0.0000000000000000E+00 
    6.2500000000260125E-02     1.0000000000000000E+00     0.0000000000000000E+00 
    0.0000000000000000E+00     9.3749999999973976E-01     0.0000000000000000E+00 
    0.0000000000000000E+00     8.7499999999950118E-01     0.0000000000000000E+00 
    0.0000000000000000E+00     8.1249999999991318E-01     0.0000000000000000E+00 
    0.0000000000000000E+00     7.5000000000034706E-01     0.0000000000000000E+00 
    0.0000000000000000E+00     6.8750000000078049E-01     0.0000000000000000E+00 
    0.0000000000000000E+00     6.2500000000121403E-01     0.0000000000000000E+00 
    0.0000000000000000E+00     5.6250000000164757E-01     0.0000000000000000E+00 
    0.0000000000000000E+00     5.0000000000205946E-01     0.0000000000000000E+00 
    0.0000000000000000E+00     4.3750000000182099E-01     0.0000000000000000E+00 
    0.0000000000000000E+00     3.7500000000156092E-01     0.0000000000000000E+00 
    0.0000000000000000E+00     3.1250000000130068E-01     0.0000000000000000E+00 
    0.0000000000000000E+00     2.5000000000104050E-01     0.0000000000000000E+00 
    0.0000000000000000E+00     1.8750000000078040E-01     0.0000000000000000E+00 
    0.0000000000000000E+00     1.2500000000052031E-01     0.0000000000000000E+00 
    0.0000000000000000E+00     6.2500000000260125E-02     0.0000000000000000E+00 
    6.2499999999897131E-02     6.2500000000235922E-02     0.0000000000000000E+00 
    6.2499999999921327E-02     1.2500000000047351E-01     0.0000000000000000E+00 
    6.2499999999945530E-02     1.8750000000070621E-01     0.0000000000000000E+00 
    6.2499999999969733E-02     2.5000000000093858E-01     0.0000000000000000E+00 
    6.2499999999993928E-02     3.1250000000117117E-01     0.0000000000000000E+00 
    6.2500000000018124E-02     3.7500000000140382E-01     0.0000000000000000E+00 
    6.2500000000042327E-02     4.3750000000163619E-01     0.0000000000000000E+00 
    6.2500000000066530E-02     5.0000000000184897E-01     0.0000000000000000E+00 
    6.2500000000090733E-02     5.6250000000147260E-01     0.0000000000000000E+00 
    6.2500000000114922E-02     6.2500000000107636E-01     0.0000000000000000E+00 
    6.2500000000139125E-02     6.8750000000068034E-01     0.0000000000000000E+00 
    6.2500000000163328E-02     7.5000000000028411E-01     0.0000000000000000E+00 
    6.2500000000187531E-02     8.1249999999988787E-01     0.0000000000000000E+00 
    6.2500000000211720E-02     8.7499999999951172E-01     0.0000000000000000E+00 
    6.2500000000235922E-02     9.3749999999974565E-01     0.0000000000000000E+00 
    1.2499999999981980E-01     6.2500000000211733E-02     0.0000000000000000E+00 
    1.2499999999986650E-01     1.2500000000042691E-01     0.0000000000000000E+00 
    1.2499999999991319E-01     1.8750000000063199E-01     0.0000000000000000E+00 
    1.2499999999995989E-01     2.5000000000083678E-01     0.0000000000000000E+00 
    1.2500000000000661E-01     3.1250000000104172E-01     0.0000000000000000E+00 
    1.2500000000005329E-01     3.7500000000124661E-01     0.0000000000000000E+00 
    1.2500000000010000E-01     4.3750000000145117E-01     0.0000000000000000E+00 
    1.2500000000014669E-01     5.0000000000163858E-01     0.0000000000000000E+00 
    1.2500000000019340E-01     5.6250000000129741E-01     0.0000000000000000E+00 
    1.2500000000024011E-01     6.2500000000093847E-01     0.0000000000000000E+00 
    1.2500000000028680E-01     6.8750000000057998E-01     0.0000000000000000E+00 
    1.2500000000033351E-01     7.5000000000022127E-01     0.0000000000000000E+00 
    1.2500000000038020E-01     8.1249999999986211E-01     0.0000000000000000E+00 
    1.2500000000042691E-01     8.7499999999952238E-01     0.0000000000000000E+00 
    1.2500000000047359E-01     9.3749999999975164E-01     0.0000000000000000E+00 
    1.8749999999966760E-01     6.2500000000187531E-02     0.0000000000000000E+00 
    1.8749999999974179E-01     1.2500000000038020E-01     0.0000000000000000E+00 
    1.8749999999981601E-01     1.8750000000055780E-01     0.0000000000000000E+00 
    1.8749999999989009E-01     2.5000000000073502E-01     0.0000000000000000E+00 
    1.8749999999996431E-01     3.1250000000091221E-01     0.0000000000000000E+00 
    1.8750000000003850E-01     3.7500000000108941E-01     0.0000000000000000E+00 
    1.8750000000011269E-01     4.3750000000126649E-01     0.0000000000000000E+00 
    1.8750000000018691E-01     5.0000000000142808E-01     0.0000000000000000E+00 
    1.8750000000026110E-01     5.6250000000112244E-01     0.0000000000000000E+00 
    1.8750000000033529E-01     6.2500000000080080E-01     0.0000000000000000E+00 
    1.8750000000040951E-01     6.8750000000047962E-01     0.0000000000000000E+00 
    1.8750000000048361E-01     7.5000000000015843E-01     0.0000000000000000E+00 
    1.8750000000055780E-01     8.1249999999983680E-01     0.0000000000000000E+00 
    1.8750000000063199E-01     8.7499999999953304E-01     0.0000000000000000E+00 
    1.8750000000070621E-01     9.3749999999975764E-01     0.0000000000000000E+00 
    2.4999999999951281E-01     6.2500000000163314E-02     0.0000000000000000E+00 
    2.4999999999961461E-01     1.2500000000033351E-01     0.0000000000000000E+00 
    2.4999999999971650E-01     1.8750000000048361E-01     0.0000000000000000E+00 
    2.4999999999981831E-01     2.5000000000063310E-01     0.0000000000000000E+00 
    2.4999999999992020E-01     3.1250000000078260E-01     0.0000000000000000E+00 
    2.5000000000002198E-01     3.7500000000093209E-01     0.0000000000000000E+00 
    2.5000000000012390E-01     4.3750000000108180E-01     0.0000000000000000E+00 
    2.5000000000022571E-01     5.0000000000121769E-01     0.0000000000000000E+00 
    2.5000000000032763E-01     5.6250000000094724E-01     0.0000000000000000E+00 
    2.5000000000042938E-01     6.2500000000066314E-01     0.0000000000000000E+00 
    2.5000000000053119E-01     6.8750000000037925E-01     0.0000000000000000E+00 
[...]
CELL_DATA 256 
SCALARS Pressure double 1 
LOOKUP_TABLE default 

    1.1197593900463492E+00 
    1.1066854064022638E+00 
    1.0921514347419994E+00 
    1.0781143207333910E+00 
    1.0675625974525029E+00 
    1.0601933640624324E+00 
    1.0503512755241751E+00 
    1.0425422049073254E+00 
    1.0356529304913402E+00 
    1.0278535534982447E+00 
    1.0204358709474248E+00 
    1.0142673744215263E+00 
    1.0085682926199890E+00 
    1.0033060027668705E+00 
    9.9876464366970741E-01 
    9.9538172331449482E-01 
    1.0660709018457561E+00 
    1.0616714725395060E+00 
    1.0559806403967178E+00 
    1.0492545115825942E+00 
    1.0417570190760237E+00 
    1.0331173454264881E+00 
    1.0249298737944519E+00 
    1.0182937793119384E+00 
    1.0101320577825121E+00 
    1.0014817843085202E+00 
    9.9435675387568390E-01 
    9.8841629161265510E-01 
    9.8332364027872143E-01 
    9.7962387488972125E-01 
    9.7723477770657308E-01 
    9.7565693641957507E-01 
    1.0190142287355581E+00 
    1.0166422455640072E+00 
    1.0134581896899379E+00 
    1.0089182987359939E+00 
    1.0026683427211591E+00 
    9.9490772293682794E-01 
    9.8739946802022838E-01 
    9.8032581416791087E-01 
    9.7102701986824980E-01 
    9.6214798621182507E-01 
    9.5557513220703116E-01 
    9.5003226279651398E-01 
    9.4554249986797057E-01 
    9.4306857873851135E-01 
    9.4234138236201093E-01 
    9.4241507012060166E-01 
    9.6674229738747963E-01 
    9.6615804140585182E-01 
    9.6466006812648086E-01 
    9.6149375795710645E-01 
    9.5620366173752802E-01 
    9.4914509011043502E-01 
    9.4169887748141534E-01 
    9.3352576890575556E-01 
    9.2405542594487766E-01 
    9.1634257610518077E-01 
    9.1092388140236880E-01 
    9.0620162335549237E-01 
    9.0250548654263851E-01 
    9.0106121242747739E-01 
    9.0149468302780733E-01 
    9.0238944615583572E-01 
    9.1392643783762773E-01 
    9.1391864568492764E-01 
    9.1099976755171153E-01 
    9.0672365338091887E-01 
    9.0080227541991675E-01 
    8.9389189005914982E-01 
    8.8683420131778290E-01 
    8.7991325337618487E-01 
    8.7315228685069246E-01 
    8.6813628442065138E-01 
    8.6461294497547969E-01 
    8.6145428622370324E-01 
    8.5879049345932279E-01 
    8.5799962277309572E-01 
    8.5835766608211816E-01 
    8.5817879522214624E-01 
    8.4389209515910157E-01 
    8.4203627558970795E-01 
    8.3883793209391633E-01 
    8.3482425324591858E-01 
    8.3094830847625412E-01 
    8.2759473818383011E-01 
    8.2444455465848399E-01 
    8.2157156251487218E-01 
    8.1942751348779275E-01 
    8.1804853723075788E-01 
    8.1665841659477068E-01 
    8.1472334448434913E-01 
    8.1270498378619327E-01 
    8.1078950044862919E-01 
    8.0892848510616344E-01 
    8.0748717471097498E-01 
    7.6404273356331265E-01 
    7.6381011788191233E-01 
    7.6325026692620235E-01 
    7.6275960923328068E-01 
    7.6243420320986499E-01 
    7.6175545980064541E-01 
    7.5991746294587670E-01 
    7.5786925184303267E-01 
    7.5713138331320906E-01 
    7.5655354128756136E-01 
    7.5515406574671706E-01 
    7.5347327731196145E-01 
    7.5246884284336402E-01 
    7.5174225899658997E-01 
    7.5142881400594919E-01 
    7.5120018785901099E-01 
    6.9927785361227668E-01 
    6.9984041181121703E-01 
    7.0008119053747297E-01 
    7.0015322918537615E-01 
    6.9989538440321097E-01 
    6.9912597296896717E-01 
    6.9768794763476183E-01 
    6.9595190622641623E-01 
    6.9445555604909881E-01 
    6.9332858925588758E-01 
    6.9208201016980020E-01 
    6.9079141255441145E-01 
    6.8989092100991145E-01 
    6.9000327578463749E-01 
    6.9113063015272769E-01 
    6.9214090779850357E-01 
    6.4130121089512371E-01 
    6.4175201490198330E-01 
    6.4125118956247473E-01 
    6.4069556122391891E-01 
    6.3971150569021284E-01 
    6.3837760529800136E-01 
    6.3675512393818712E-01 
    6.3533661097478633E-01 
    6.3380285512818724E-01 
    6.3302952123126188E-01 
    6.3240801156101389E-01 
    6.3162407562949074E-01 
    6.3086800058493897E-01 
    6.3144676566457725E-01 
    6.3289727796237227E-01 
    6.3337523784947047E-01 
    5.8290909881651098E-01 
    5.8239432884212416E-01 
    5.8124455420147769E-01 
    5.7992047123434831E-01 
    5.7878280151658090E-01 
    5.7781866640872404E-01 
    5.7682697737219923E-01 
    5.7632674584073140E-01 
    5.7641124855990478E-01 
    5.7703111202960955E-01 
    5.7771820825875508E-01 
    5.7718322516647813E-01 
    5.7609552080075999E-01 
    5.7469451513457226E-01 
    5.7318838787455939E-01 
    5.7227481435951799E-01 
    5.2591561220481653E-01 
    5.2550683594505965E-01 
    5.2474620256171822E-01 
    5.2399764158933293E-01 
    5.2327418390455627E-01 
    5.2199598485851817E-01 
    5.1974795761006176E-01 
    5.1814457163798022E-01 
    5.1733804922655757E-01 
    5.1605266138324268E-01 
    5.1401781731187213E-01 
    5.1197299014216435E-01 
    5.1060698035201579E-01 
    5.0942612898981576E-01 
    5.0876320794525842E-01 
    5.0841926074735189E-01 
    4.7439953030107446E-01 
    4.7404091912370216E-01 
    4.7320626282812123E-01 
    4.7188412253797429E-01 
    4.7002175848404260E-01 
    4.6764908643677172E-01 
    4.6495599494021983E-01 
    4.6160917692069964E-01 
    4.5750342826915241E-01 
    4.5297517276597660E-01 
    4.4879347050296958E-01 
    4.4500233583246301E-01 
    4.4185895303304279E-01 
    4.4013314048881114E-01 
    4.3995555372014095E-01 
    4.4047355268292665E-01 
    4.2440781133687178E-01 
    4.2384421991383409E-01 
    4.2253021004868052E-01 
    4.2027825111649847E-01 
    4.1715924846895602E-01 
    4.1349743128586525E-01 
    4.0941890741096215E-01 
    4.0387481719985813E-01 
    3.9700420626043698E-01 
    3.8984510029164809E-01 
    3.8317835303739517E-01 
    3.7688898523092701E-01 
    3.7164143811836853E-01 
    3.6885041798998974E-01 
    3.6856632775646786E-01 
    3.6952083218422893E-01 
    3.7525828720746868E-01 
    3.7445173216829863E-01 
    3.7261988500439330E-01 
    3.6941677125841982E-01 
    3.6497392843711390E-01 
    3.5983413732743413E-01 
    3.5426367790555019E-01 
    3.4678881081862672E-01 
    3.3754955839635697E-01 
    3.2790710990237659E-01 
    3.1855814770035412E-01 
    3.0941875369799765E-01 
    3.0130853486140219E-01 
    2.9598321506277819E-01 
    2.9349667930499307E-01 
    2.9280803324174198E-01 
    3.3034231051393770E-01 
    3.2934693555776323E-01 
    3.2709907793394249E-01 
    3.2309843297587615E-01 
    3.1749220782168480E-01 
    3.1104461569755865E-01 
    3.0434451397008316E-01 
    2.9561661721015936E-01 
    2.8466707150005138E-01 
    2.7255936904156919E-01 
    2.5973304331829095E-01 
    2.4597167435587738E-01 
    2.3131453553886905E-01 
    2.1694248852880454E-01 
    2.0368411395598987E-01 
    1.9397351421155645E-01 
    3.0165510224458125E-01 
    3.0047608369348505E-01 
    2.9786819128707581E-01 
    2.9333394074996599E-01 
    2.8703934299008410E-01 
    2.7995807500850189E-01 
    2.7317079690040191E-01 
    2.6466052761727310E-01 
    2.5272529558653067E-01 
    2.3682003408149058E-01 
    2.1826961132513248E-01 
    1.9550069760156707E-01 
    1.6429863616205365E-01 
    1.2215364590980118E-01 
    6.7907321379066743E-02 
    0.0000000000000000E+00 

SCALARS Saturarion double 1 
LOOKUP_TABLE default 

    9.9999998732358175E-01 
    9.2277388368581648E-01 
    8.2305641328419987E-01 
    7.4156596506675765E-01 
    6.6925802160546211E-01 
    6.0887555692716189E-01 
    5.5139055539450799E-01 
    5.0149870504958693E-01 
    4.3625769330449155E-01 
    8.2408418580074486E-02 
    1.0013850226105419E-06 
    1.0000000009753273E-06 
    9.9999999999999763E-07 
    9.9999999999999995E-07 
    9.9999999999999995E-07 
    9.9999999999999995E-07 
    8.5447797131612913E-01 
    8.2464415950133563E-01 
    7.5977450929904355E-01 
    6.9926048516308092E-01 
    6.4216978203841590E-01 
    5.8636599452773897E-01 
    5.3795711919461520E-01 
    4.9405546736152733E-01 
    4.1699439567099000E-01 
    8.9501904322458345E-02 
    8.9840907404494619E-06 
    1.0000156078545192E-06 
    1.0000000000000065E-06 
    9.9999999999999995E-07 
    9.9999999999999995E-07 
    9.9999999999999995E-07 
    6.9153677495163701E-01 
    6.7961521318882145E-01 
    6.4728571350652864E-01 
    6.1929187669729346E-01 
    5.8152585603725093E-01 
    5.3894504073686633E-01 
    4.9925776882046857E-01 
    4.5961515783959761E-01 
    3.1849711504536404E-01 
    1.1252545021215744E-02 
    4.2259370300974913E-06 
    1.0000011239951628E-06 
    1.0000000000000033E-06 
    9.9999999999999995E-07 
    9.9999999999999995E-07 
    9.9999999999999995E-07 
    5.7176109941877040E-01 
    5.6636308169993788E-01 
    5.5420868255998124E-01 
    5.3335175956543379E-01 
    5.1274035526587447E-01 
    4.8387455326335194E-01 
    4.4134840956537341E-01 
    3.2885133351218404E-01 
    6.2312197107167469E-02 
    2.5175740762074707E-04 
    1.0058996809828277E-06 
    1.0000000000001613E-06 
    9.9999999999999995E-07 
    9.9999999999999995E-07 
    9.9999999999999995E-07 
    9.9999999999999995E-07 
    4.6803258445802631E-01 
    4.6489853034123940E-01 
    4.5847038651578653E-01 
    4.4216666550438471E-01 
    4.0900677345240855E-01 
    3.1417392478091810E-01 
    1.4899146469098706E-01 
    2.0649933755615444E-02 
    2.3539868790924657E-04 
    1.0085561099263251E-06 
    1.0000000011224770E-06 
    9.9999999999999974E-07 
    9.9999999999999995E-07 
    9.9999999999999995E-07 
    9.9999999999999995E-07 
    9.9999999999999995E-07 
    1.5625140657062386E-01 
    1.3545960135747076E-01 
    1.0295799336723718E-01 
    6.3411090092234501E-02 
    3.7470460595088226E-02 
    6.3827704855039568E-03 
    2.9467147714538249E-04 
    1.5991282940325594E-05 
    1.0045287438732574E-06 
    1.0000000006244697E-06 
    1.0000000000000002E-06 
    9.9999999999999995E-07 
    9.9999999999999995E-07 
    9.9999999999999995E-07 
    9.9999999999999995E-07 
    9.9999999999999995E-07 
    1.0000018878471421E-06 
    1.1145878524632739E-05 
    2.3929862597222923E-05 
    2.7343371613739837E-05 
    1.9755025335288541E-05 
    2.4652218173201835E-06 
    1.0296269675273093E-06 
    1.0000180819437976E-06 
    1.0000000000551647E-06 
    1.0000000000000004E-06 
    9.9999999999999995E-07 
    9.9999999999999995E-07 
    9.9999999999999995E-07 
    9.9999999999999995E-07 
    9.9999999999999995E-07 
    9.9999999999999995E-07 
    1.0000000000020252E-06 
    1.0000339752502911E-06 
    1.0001449620682465E-06 
    1.0001193937269388E-06 
    1.0000436253572968E-06 
    1.0000004186158148E-06 
    1.0000000000000188E-06 
    1.0000000000000019E-06 
    9.9999999999999995E-07 
    9.9999999999999995E-07 
    9.9999999999999995E-07 
    9.9999999999999995E-07 
    9.9999999999999995E-07 
    9.9999999999999995E-07 
    9.9999999999999995E-07 
    9.9999999999999995E-07 
    9.9999999999999995E-07 
    1.0000000000047939E-06 
    9.9999999999999932E-07 
    9.9999999999999974E-07 
    1.0000000000000006E-06 
    1.0000000000000048E-06 
    9.9999999999999995E-07 
    9.9999999999999995E-07 
    9.9999999999999995E-07 
    9.9999999999999995E-07 
    9.9999999999999995E-07 
    9.9999999999999995E-07 
    9.9999999999999995E-07 
    9.9999999999999995E-07 
    9.9999999999999995E-07 
    9.9999999999999995E-07 
    9.9999999999999995E-07 
    9.9999999999999995E-07 
    9.9999999999999995E-07 
    9.9999999999999995E-07 
    9.9999999999999995E-07 
    9.9999999999999995E-07 
    9.9999999999999995E-07 
    9.9999999999999995E-07 
    9.9999999999999995E-07 
    9.9999999999999995E-07 
    9.9999999999999995E-07 
    9.9999999999999995E-07 
    9.9999999999999995E-07 
    9.9999999999999995E-07 
    9.9999999999999995E-07 
    9.9999999999999995E-07 
    9.9999999999999995E-07 
    9.9999999999999995E-07 
    9.9999999999999995E-07 
    9.9999999999999995E-07 
    9.9999999999999995E-07 
    9.9999999999999995E-07 
    9.9999999999999995E-07 
    9.9999999999999995E-07 
    9.9999999999999995E-07 
    9.9999999999999995E-07 
    9.9999999999999995E-07 
    9.9999999999999995E-07 
    9.9999999999999995E-07 
    9.9999999999999995E-07 
    9.9999999999999995E-07 
    9.9999999999999995E-07 
    9.9999999999999995E-07 
    9.9999999999999995E-07 
    9.9999999999999995E-07 
    9.9999999999999995E-07 
    9.9999999999999995E-07 
    9.9999999999999995E-07 
    9.9999999999999995E-07 
    9.9999999999999995E-07 
    9.9999999999999995E-07 
    9.9999999999999995E-07 
    9.9999999999999995E-07 
    9.9999999999999995E-07 
    9.9999999999999995E-07 
    9.9999999999999995E-07 
    9.9999999999999995E-07 
    9.9999999999999995E-07 
    9.9999999999999995E-07 
    9.9999999999999995E-07 
    9.9999999999999995E-07 
    9.9999999999999995E-07 
    9.9999999999999995E-07 
    9.9999999999999995E-07 
    9.9999999999999995E-07 
    9.9999999999999995E-07 
    9.9999999999999995E-07 
    9.9999999999999995E-07 
    9.9999999999999995E-07 
    9.9999999999999995E-07 
    9.9999999999999995E-07 
    9.9999999999999995E-07 
    9.9999999999999995E-07 
    9.9999999999999995E-07 
    9.9999999999999995E-07 
    9.9999999999999995E-07 
    9.9999999999999995E-07 
    9.9999999999999995E-07 
    9.9999999999999995E-07 
    9.9999999999999995E-07 
    9.9999999999999995E-07 
    9.9999999999999995E-07 
    9.9999999999999995E-07 
    9.9999999999999995E-07 
    9.9999999999999995E-07 
    9.9999999999999995E-07 
    9.9999999999999995E-07 
    9.9999999999999995E-07 
    9.9999999999999995E-07 
    9.9999999999999995E-07 
    9.9999999999999995E-07 
    9.9999999999999995E-07 
    9.9999999999999995E-07 
    9.9999999999999995E-07 
    9.9999999999999995E-07 
    9.9999999999999995E-07 
    9.9999999999999995E-07 
    9.9999999999999995E-07 
    9.9999999999999995E-07 
    9.9999999999999995E-07 
    9.9999999999999995E-07 
    9.9999999999999995E-07 
    9.9999999999999995E-07 
    9.9999999999999995E-07 
    9.9999999999999995E-07 
    9.9999999999999995E-07 
    9.9999999999999995E-07 
    9.9999999999999995E-07 
    9.9999999999999995E-07 
    9.9999999999999995E-07 
    9.9999999999999995E-07 
    9.9999999999999995E-07 
    9.9999999999999995E-07 
    9.9999999999999995E-07 
    9.9999999999999995E-07 
    9.9999999999999995E-07 
    9.9999999999999995E-07 
    9.9999999999999995E-07 
    9.9999999999999995E-07 
    9.9999999999999995E-07 
    9.9999999999999995E-07 
    1.0000000257397549E-06 
