# vtk DataFile Version 2.0
Pressure Field Data 
ASCII 
DATASET UNSTRUCTURED_GRID 

POINTS 289 double 

    0.0000000000000000E+00     0.0000000000000000E+00     0.0000000000000000E+00 
    1.0000000000000000E+00     0.0000000000000000E+00     0.0000000000000000E+00 
    1.0000000000000000E+00     1.0000000000000000E+00     0.0000000000000000E+00 
    0.0000000000000000E+00     1.0000000000000000E+00     0.0000000000000000E+00 
    6.2499999999872928E-02     0.0000000000000000E+00     0.0000000000000000E+00 
    1.2499999999977310E-01     0.0000000000000000E+00     0.0000000000000000E+00 
    1.8749999999959341E-01     0.0000000000000000E+00     0.0000000000000000E+00 
    2.4999999999941089E-01     0.0000000000000000E+00     0.0000000000000000E+00 
    3.1249999999922851E-01     0.0000000000000000E+00     0.0000000000000000E+00 
    3.7499999999904610E-01     0.0000000000000000E+00     0.0000000000000000E+00 
    4.3749999999886358E-01     0.0000000000000000E+00     0.0000000000000000E+00 
    4.9999999999869210E-01     0.0000000000000000E+00     0.0000000000000000E+00 
    5.6249999999884603E-01     0.0000000000000000E+00     0.0000000000000000E+00 
    6.2499999999901090E-01     0.0000000000000000E+00     0.0000000000000000E+00 
    6.8749999999917577E-01     0.0000000000000000E+00     0.0000000000000000E+00 
    7.4999999999934064E-01     0.0000000000000000E+00     0.0000000000000000E+00 
    8.1249999999950551E-01     0.0000000000000000E+00     0.0000000000000000E+00 
    8.7499999999967026E-01     0.0000000000000000E+00     0.0000000000000000E+00 
    9.3749999999983513E-01     0.0000000000000000E+00     0.0000000000000000E+00 
    1.0000000000000000E+00     6.2499999999872928E-02     0.0000000000000000E+00 
    1.0000000000000000E+00     1.2499999999977310E-01     0.0000000000000000E+00 
    1.0000000000000000E+00     1.8749999999959341E-01     0.0000000000000000E+00 
    1.0000000000000000E+00     2.4999999999941089E-01     0.0000000000000000E+00 
    1.0000000000000000E+00     3.1249999999922851E-01     0.0000000000000000E+00 
    1.0000000000000000E+00     3.7499999999904610E-01     0.0000000000000000E+00 
    1.0000000000000000E+00     4.3749999999886358E-01     0.0000000000000000E+00 
    1.0000000000000000E+00     4.9999999999869210E-01     0.0000000000000000E+00 
    1.0000000000000000E+00     5.6249999999884603E-01     0.0000000000000000E+00 
    1.0000000000000000E+00     6.2499999999901090E-01     0.0000000000000000E+00 
    1.0000000000000000E+00     6.8749999999917577E-01     0.0000000000000000E+00 
    1.0000000000000000E+00     7.4999999999934064E-01     0.0000000000000000E+00 
    1.0000000000000000E+00     8.1249999999950551E-01     0.0000000000000000E+00 
    1.0000000000000000E+00     8.7499999999967026E-01     0.0000000000000000E+00 
    1.0000000000000000E+00     9.3749999999983513E-01     0.0000000000000000E+00 
    9.3749999999973976E-01     1.0000000000000000E+00     0.0000000000000000E+00 
    8.7499999999950118E-01     1.0000000000000000E+00     0.0000000000000000E+00 
    8.1249999999991318E-01     1.0000000000000000E+00     0.0000000000000000E+00 
    7.5000000000034706E-01     1.0000000000000000E+00     0.0000000000000000E+00 
    6.8750000000078049E-01     1.0000000000000000E+00     0.0000000000000000E+00 
    6.2500000000121403E-01     1.0000000000000000E+00     0.0000000000000000E+00 
    5.6250000000164757E-01     1.0000000000000000E+00     0.0000000000000000E+00 
    5.0000000000205946E-01     1.0000000000000000E+00     0.0000000000000000E+00 
    4.3750000000182099E-01     1.0000000000000000E+00     0.0000000000000000E+00 
    3.7500000000156092E-01     1.0000000000000000E+00     0.0000000000000000E+00 
    3.1250000000130068E-01     1.0000000000000000E+00     0.0000000000000000E+00 
    2.5000000000104050E-01     1.0000000000000000E+00     0.0000000000000000E+00 
    1.8750000000078040E-01     1.0000000000000000E+00     0.0000000000000000E+00 
    1.2500000000052031E-01     1.0000000000000000E+00     0.0000000000000000E+00 
    6.2500000000260125E-02     1.0000000000000000E+00     0.0000000000000000E+00 
    0.0000000000000000E+00     9.3749999999973976E-01     0.0000000000000000E+00 
    0.0000000000000000E+00     8.7499999999950118E-01     0.0000000000000000E+00 
    0.0000000000000000E+00     8.1249999999991318E-01     0.0000000000000000E+00 
    0.0000000000000000E+00     7.5000000000034706E-01     0.0000000000000000E+00 
    0.0000000000000000E+00     6.8750000000078049E-01     0.0000000000000000E+00 
    0.0000000000000000E+00     6.2500000000121403E-01     0.0000000000000000E+00 
    0.0000000000000000E+00     5.6250000000164757E-01     0.0000000000000000E+00 
    0.0000000000000000E+00     5.0000000000205946E-01     0.0000000000000000E+00 
    0.0000000000000000E+00     4.3750000000182099E-01     0.0000000000000000E+00 
    0.0000000000000000E+00     3.7500000000156092E-01     0.0000000000000000E+00 
    0.0000000000000000E+00     3.1250000000130068E-01     0.0000000000000000E+00 
    0.0000000000000000E+00     2.5000000000104050E-01     0.0000000000000000E+00 
    0.0000000000000000E+00     1.8750000000078040E-01     0.0000000000000000E+00 
    0.0000000000000000E+00     1.2500000000052031E-01     0.0000000000000000E+00 
    0.0000000000000000E+00     6.2500000000260125E-02     0.0000000000000000E+00 
    6.2499999999897131E-02     6.2500000000235922E-02     0.0000000000000000E+00 
    6.2499999999921327E-02     1.2500000000047351E-01     0.0000000000000000E+00 
    6.2499999999945530E-02     1.8750000000070621E-01     0.0000000000000000E+00 
    6.2499999999969733E-02     2.5000000000093858E-01     0.0000000000000000E+00 
    6.2499999999993928E-02     3.1250000000117117E-01     0.0000000000000000E+00 
    6.2500000000018124E-02     3.7500000000140382E-01     0.0000000000000000E+00 
    6.2500000000042327E-02     4.3750000000163619E-01     0.0000000000000000E+00 
    6.2500000000066530E-02     5.0000000000184897E-01     0.0000000000000000E+00 
    6.2500000000090733E-02     5.6250000000147260E-01     0.0000000000000000E+00 
    6.2500000000114922E-02     6.2500000000107636E-01     0.0000000000000000E+00 
    6.2500000000139125E-02     6.8750000000068034E-01     0.0000000000000000E+00 
    6.2500000000163328E-02     7.5000000000028411E-01     0.0000000000000000E+00 
    6.2500000000187531E-02     8.1249999999988787E-01     0.0000000000000000E+00 
    6.2500000000211720E-02     8.7499999999951172E-01     0.0000000000000000E+00 
    6.2500000000235922E-02     9.3749999999974565E-01     0.0000000000000000E+00 
    1.2499999999981980E-01     6.2500000000211733E-02     0.0000000000000000E+00 
    1.2499999999986650E-01     1.2500000000042691E-01     0.0000000000000000E+00 
    1.2499999999991319E-01     1.8750000000063199E-01     0.0000000000000000E+00 
    1.2499999999995989E-01     2.5000000000083678E-01     0.0000000000000000E+00 
    1.2500000000000661E-01     3.1250000000104172E-01     0.0000000000000000E+00 
    1.2500000000005329E-01     3.7500000000124661E-01     0.0000000000000000E+00 
    1.2500000000010000E-01     4.3750000000145117E-01     0.0000000000000000E+00 
    1.2500000000014669E-01     5.0000000000163858E-01     0.0000000000000000E+00 
    1.2500000000019340E-01     5.6250000000129741E-01     0.0000000000000000E+00 
    1.2500000000024011E-01     6.2500000000093847E-01     0.0000000000000000E+00 
    1.2500000000028680E-01     6.8750000000057998E-01     0.0000000000000000E+00 
    1.2500000000033351E-01     7.5000000000022127E-01     0.0000000000000000E+00 
    1.2500000000038020E-01     8.1249999999986211E-01     0.0000000000000000E+00 
    1.2500000000042691E-01     8.7499999999952238E-01     0.0000000000000000E+00 
    1.2500000000047359E-01     9.3749999999975164E-01     0.0000000000000000E+00 
    1.8749999999966760E-01     6.2500000000187531E-02     0.0000000000000000E+00 
    1.8749999999974179E-01     1.2500000000038020E-01     0.0000000000000000E+00 
    1.8749999999981601E-01     1.8750000000055780E-01     0.0000000000000000E+00 
    1.8749999999989009E-01     2.5000000000073502E-01     0.0000000000000000E+00 
    1.8749999999996431E-01     3.1250000000091221E-01     0.0000000000000000E+00 
    1.8750000000003850E-01     3.7500000000108941E-01     0.0000000000000000E+00 
    1.8750000000011269E-01     4.3750000000126649E-01     0.0000000000000000E+00 
    1.8750000000018691E-01     5.0000000000142808E-01     0.0000000000000000E+00 
    1.8750000000026110E-01     5.6250000000112244E-01     0.0000000000000000E+00 
    1.8750000000033529E-01     6.2500000000080080E-01     0.0000000000000000E+00 
    1.8750000000040951E-01     6.8750000000047962E-01     0.0000000000000000E+00 
    1.8750000000048361E-01     7.5000000000015843E-01     0.0000000000000000E+00 
    1.8750000000055780E-01     8.1249999999983680E-01     0.0000000000000000E+00 
    1.8750000000063199E-01     8.7499999999953304E-01     0.0000000000000000E+00 
    1.8750000000070621E-01     9.3749999999975764E-01     0.0000000000000000E+00 
    2.4999999999951281E-01     6.2500000000163314E-02     0.0000000000000000E+00 
    2.4999999999961461E-01     1.2500000000033351E-01     0.0000000000000000E+00 
    2.4999999999971650E-01     1.8750000000048361E-01     0.0000000000000000E+00 
    2.4999999999981831E-01     2.5000000000063310E-01     0.0000000000000000E+00 
    2.4999999999992020E-01     3.1250000000078260E-01     0.0000000000000000E+00 
    2.5000000000002198E-01     3.7500000000093209E-01     0.0000000000000000E+00 
    2.5000000000012390E-01     4.3750000000108180E-01     0.0000000000000000E+00 
    2.5000000000022571E-01     5.0000000000121769E-01     0.0000000000000000E+00 
    2.5000000000032763E-01     5.6250000000094724E-01     0.0000000000000000E+00 
    2.5000000000042938E-01     6.2500000000066314E-01     0.0000000000000000E+00 
    2.5000000000053119E-01     6.8750000000037925E-01     0.0000000000000000E+00 
[...]
CELL_DATA 256 
SCALARS Pressure double 1 
LOOKUP_TABLE default 

    9.1783295564498013E-01 
    9.0555896647429779E-01 
    8.9324735103921682E-01 
    8.8205889056102882E-01 
    8.7398054475591380E-01 
    8.7039269725190971E-01 
    8.6414552338113326E-01 
    8.5904361579191846E-01 
    8.5545992056675701E-01 
    8.5317137634526052E-01 
    8.5022252943089538E-01 
    8.4731423647280124E-01 
    8.4421915007897397E-01 
    8.4096126540789384E-01 
    8.3806795730260242E-01 
    8.3621988658121615E-01 
    8.7235588448860635E-01 
    8.6892733264874489E-01 
    8.6483691549176012E-01 
    8.6038994281201586E-01 
    8.5594673569733959E-01 
    8.5099851137034976E-01 
    8.4577331782339604E-01 
    8.4261347275212006E-01 
    8.3917171126972245E-01 
    8.3570935608861141E-01 
    8.3275726842550390E-01 
    8.3053682332179002E-01 
    8.2832371606175847E-01 
    8.2641894564130813E-01 
    8.2496474945896470E-01 
    8.2405972204995315E-01 
    8.3850154039751945E-01 
    8.3688261156000943E-01 
    8.3497916153867968E-01 
    8.3259136153486224E-01 
    8.2955401295033437E-01 
    8.2553458907240851E-01 
    8.2116274824246605E-01 
    8.1847371730126339E-01 
    8.1500180128174315E-01 
    8.1143806455810530E-01 
    8.0874403691863639E-01 
    8.0705166614886226E-01 
    8.0540880971943185E-01 
    8.0435025732578069E-01 
    8.0391648211919198E-01 
    8.0388852318688275E-01 
    8.0362808702687960E-01 
    8.0342173246370452E-01 
    8.0303878720230881E-01 
    8.0211183940512865E-01 
    8.0032015228702724E-01 
    7.9728355285241015E-01 
    7.9366988701255481E-01 
    7.9123651283008722E-01 
    7.8795546283392393E-01 
    7.8458233896574581E-01 
    7.8224453697024832E-01 
    7.8096295553394735E-01 
    7.7964065154235052E-01 
    7.7905526406322856E-01 
    7.7921485970107573E-01 
    7.7952376367795484E-01 
    7.7134486171822625E-01 
    7.7332840674892600E-01 
    7.7304394981439117E-01 
    7.7213328443105200E-01 
    7.7042350581733832E-01 
    7.6747827730099549E-01 
    7.6413303155657741E-01 
    7.6249972034536362E-01 
    7.5985252715151030E-01 
    7.5688128684006495E-01 
    7.5495822829771264E-01 
    7.5447565175337827E-01 
    7.5326536431891133E-01 
    7.5264710529103107E-01 
    7.5249629416035535E-01 
    7.5201802081626934E-01 
    7.4312181614881856E-01 
    7.4157357513211841E-01 
    7.3916352791339179E-01 
    7.3578258861394197E-01 
    7.3227869231426701E-01 
    7.2989248884484781E-01 
    7.2876196333420618E-01 
    7.2811938575288970E-01 
    7.2739543680810981E-01 
    7.2729017298116683E-01 
    7.2709635311887733E-01 
    7.2603936742650654E-01 
    7.2416257143049179E-01 
    7.2226529767790870E-01 
    7.2063638497307081E-01 
    7.1963966320768336E-01 
    6.9459409578684284E-01 
    6.9424173738736561E-01 
    6.9334358935039109E-01 
    6.9206191027930508E-01 
    6.9099981011416423E-01 
    6.9095198639237998E-01 
    6.9090864439950317E-01 
    6.8855358215306917E-01 
    6.8763415495901570E-01 
    6.8767224226888390E-01 
    6.8738918290922857E-01 
    6.8577513458886918E-01 
    6.8468247738083821E-01 
    6.8365018766553998E-01 
    6.8312297863256777E-01 
    6.8293639217454261E-01 
    6.4955017245416224E-01 
    6.5046215730066836E-01 
    6.5105227681579780E-01 
    6.5131964844674217E-01 
    6.5125239976986304E-01 
    6.5090106018285687E-01 
    6.4991166858949889E-01 
    6.4833371222909897E-01 
    6.4670551684471611E-01 
    6.4540823669611147E-01 
    6.4428809201031922E-01 
    6.4320384588140000E-01 
    6.4208651659331095E-01 
    6.4158963006426006E-01 
    6.4204262803471857E-01 
    6.4247940353275401E-01 
    6.0978485563687623E-01 
    6.1147150651742521E-01 
    6.1134876899679791E-01 
    6.1099585390548972E-01 
    6.1009635076027913E-01 
    6.0858493155743432E-01 
    6.0663931979043517E-01 
    6.0539667558775878E-01 
    6.0347782731537636E-01 
    6.0206855240025681E-01 
    6.0122506227180172E-01 
    6.0068139343900617E-01 
    5.9935852718248062E-01 
    5.9894942623030634E-01 
    5.9931654900434239E-01 
    5.9894267335459905E-01 
    5.7074824224267429E-01 
    5.6994890718650681E-01 
    5.6824562664104050E-01 
    5.6588906034214281E-01 
    5.6353375101762093E-01 
    5.6166202972145862E-01 
    5.6012600926494538E-01 
    5.5901945440648082E-01 
    5.5841998098697276E-01 
    5.5871841561979463E-01 
    5.5895331900923917E-01 
    5.5743830479292478E-01 
    5.5500501800472068E-01 
    5.5257882994743412E-01 
    5.5047723997640274E-01 
    5.4927749650232638E-01 
    5.2573393862655216E-01 
    5.2495321980253673E-01 
    5.2354222794112037E-01 
    5.2180991846394453E-01 
    5.2021537205123025E-01 
    5.1858027311962507E-01 
    5.1585037654470123E-01 
    5.1281161974874445E-01 
    5.1103025818712178E-01 
    5.0901031968419219E-01 
    5.0544860079825982E-01 
    5.0100877869659277E-01 
    4.9756058953315729E-01 
    4.9520901892411928E-01 
    4.9409462611526628E-01 
    4.9372168510158537E-01 
    4.8367676657053044E-01 
    4.8311868571122280E-01 
    4.8194437226222614E-01 
    4.8002877321840626E-01 
    4.7730071947667446E-01 
    4.7382602688353592E-01 
    4.6998076601215233E-01 
    4.6524528910196000E-01 
    4.5918024634273519E-01 
    4.5220309891825194E-01 
    4.4522884027173465E-01 
    4.3864208265527926E-01 
    4.3358337166767041E-01 
    4.3092826661764316E-01 
    4.3050825590637037E-01 
    4.3114083772605966E-01 
    4.3320863256490844E-01 
    4.3246784995981080E-01 
    4.3076003205898639E-01 
    4.2780000604094370E-01 
    4.2367191223097500E-01 
    4.1882611794647134E-01 
    4.1347343348745302E-01 
    4.0626105705850302E-01 
    3.9736266143109111E-01 
    3.8818635158450338E-01 
    3.7973892089996431E-01 
    3.7198620522959236E-01 
    3.6580738083336639E-01 
    3.6258059781339719E-01 
    3.6226646081524755E-01 
    3.6337663741802911E-01 
    3.7674848506506564E-01 
    3.7577759600396166E-01 
    3.7358369563692811E-01 
    3.6982976620690411E-01 
    3.6474474908082183E-01 
    3.5898115205561670E-01 
    3.5280192001631444E-01 
    3.4460183105639980E-01 
    3.3476776903768363E-01 
    3.2479993715575206E-01 
    3.1522589202356688E-01 
    3.0577077336084896E-01 
    2.9741669955898126E-01 
    2.9200965161321252E-01 
    2.8955692559111162E-01 
    2.8893496031469690E-01 
    3.2886140573201084E-01 
    3.2784261705182899E-01 
    3.2551948041409601E-01 
    3.2140875204078928E-01 
    3.1572070054073331E-01 
    3.0927096656830233E-01 
    3.0262303918101796E-01 
    2.9385637429000006E-01 
    2.8289038093543550E-01 
    2.7082671760618254E-01 
    2.5802811680949217E-01 
    2.4425916014034488E-01 
    2.2962180502305629E-01 
    2.1525254295915203E-01 
    2.0193936749088703E-01 
    1.9212826295946836E-01 
    2.9853708309366900E-01 
    2.9745271495467429E-01 
    2.9499081852707237E-01 
    2.9069928959310681E-01 
    2.8473784623582776E-01 
    2.7801935938176725E-01 
    2.7157435511520306E-01 
    2.6329869007529483E-01 
    2.5160088509674600E-01 
    2.3598345929607284E-01 
    2.1770783481547018E-01 
    1.9515122386154624E-01 
    1.6412205398807617E-01 
    1.2208288803214370E-01 
    6.7882645724386959E-02 
    0.0000000000000000E+00 

SCALARS Saturarion double 1 
LOOKUP_TABLE default 

    1.0000000004489582E+00 
    9.7632871884315431E-01 
    9.3582303251540067E-01 
    8.9275403466383396E-01 
    8.4862176294582370E-01 
    8.0184958743033563E-01 
    7.5547856483516440E-01 
    7.0709834075937550E-01 
    6.5681072891139092E-01 
    6.0863615883125199E-01 
    5.6276219842027220E-01 
    5.2168427434163633E-01 
    4.8266198433400709E-01 
    4.2707857155878653E-01 
    8.1906818572874115E-02 
    1.0006080863851428E-06 
    9.4158118222326181E-01 
    9.2705601002426175E-01 
    8.9558999354633773E-01 
    8.5940311771507938E-01 
    8.2032886304729258E-01 
    7.7919202769063001E-01 
    7.3943775022321190E-01 
    6.9740958896377914E-01 
    6.5267192420591180E-01 
    6.0718422228796642E-01 
    5.6192789400852428E-01 
    5.1719374623978309E-01 
    4.7117038739571776E-01 
    3.6000355432239295E-01 
    1.2532480419477495E-02 
    4.7988525990571032E-06 
    8.4906267032157168E-01 
    8.4204194328986026E-01 
    8.2434777542450366E-01 
    7.9944574111857813E-01 
    7.7190714476176536E-01 
    7.4144519842492440E-01 
    7.0886416298497112E-01 
    6.7598050682403288E-01 
    6.4065353489169108E-01 
    5.9955806502485876E-01 
    5.5691682681979648E-01 
    5.1334383152900087E-01 
    4.6487087701633306E-01 
    2.5980100448409632E-01 
    6.2547675002375981E-04 
    1.0029691692254830E-06 
    7.6940275473227659E-01 
    7.6554408045420275E-01 
    7.5527559466698913E-01 
    7.3981503043122931E-01 
    7.2216285513226852E-01 
    7.0049690656230579E-01 
    6.7613818647627755E-01 
    6.5138263749703018E-01 
    6.2287016013088981E-01 
    5.8697453011401057E-01 
    5.4717975042182154E-01 
    5.0280646344392887E-01 
    4.4906179579803007E-01 
    1.6224880989364115E-01 
    5.7495600256692615E-05 
    1.0005070099823497E-06 
    7.0692728791042725E-01 
    7.0339719664482259E-01 
    6.9618798302174123E-01 
    6.8591881263254373E-01 
    6.7199541538987906E-01 
    6.5870155687272836E-01 
    6.4139511789348291E-01 
    6.2130211413275782E-01 
    5.9996499644108825E-01 
    5.7113574383351795E-01 
    5.3530573532486680E-01 
    4.9231835868833235E-01 
    4.2893968026156248E-01 
    9.4560083374660223E-02 
    3.1298584856192560E-05 
    1.0001770316713121E-06 
    6.5880163061986452E-01 
    6.5671966388658576E-01 
    6.5168806396462131E-01 
    6.4473600865041636E-01 
    6.3282760031651031E-01 
    6.2016847563861133E-01 
    6.0572646650664586E-01 
    5.8684413128949786E-01 
    5.6958506857873414E-01 
    5.4898796567336050E-01 
    5.1913206403226997E-01 
    4.8374021703369441E-01 
    4.1501739724194964E-01 
    5.5563332584000473E-02 
    1.4040840398384227E-05 
    1.0000117603955181E-06 
    6.1505337870019328E-01 
    6.1298812224983068E-01 
    6.0854567526243575E-01 
    6.0297484508289134E-01 
    6.0089318591789886E-01 
    5.8846846875243708E-01 
    5.7412144189493108E-01 
    5.5671598286801627E-01 
    5.3699518840305560E-01 
    5.2094618790005986E-01 
    4.9581783020548481E-01 
    4.6710788719858332E-01 
    3.6955539296590556E-01 
    1.6313668896324792E-02 
    3.7200616844607462E-06 
    1.0000003472537813E-06 
    5.7289084851354910E-01 
    5.7067894872278291E-01 
    5.6658659819317791E-01 
    5.6137019915047148E-01 
    5.6742897821290472E-01 
    5.5891863762580607E-01 
    5.4615163268507261E-01 
    5.3169567792571815E-01 
    5.1107927358037852E-01 
    4.9476618098164654E-01 
    4.7494142986320115E-01 
    4.4643835688291383E-01 
    2.5354424944167514E-01 
    1.0854773255139687E-03 
    1.0179203569321400E-06 
    1.0000000010447647E-06 
    5.3665238402325632E-01 
    5.3486136560613606E-01 
    5.3156948591595099E-01 
    5.2734245236837018E-01 
    5.3229635489191673E-01 
    5.2845871294086233E-01 
    5.1929808069698025E-01 
    5.0776617400917035E-01 
    4.9280590646031208E-01 
    4.7358799807876728E-01 
    4.5831303103435334E-01 
    4.1981373676797401E-01 
    1.1716481936445861E-01 
    2.0292902260398015E-04 
    1.0063147248316500E-06 
    1.0000000000000033E-06 
    5.0709922417233577E-01 
    5.0568163181570103E-01 
    5.0277664796961619E-01 
    4.9959131683184876E-01 
    4.9746711153280088E-01 
    4.9734785059456460E-01 
    4.9144105480729217E-01 
    4.8318524757001680E-01 
    4.7389081296012225E-01 
    4.5535951287736642E-01 
    4.3743592080837868E-01 
    3.3717732039211262E-01 
    2.2424572589023365E-02 
    1.2173473390346510E-05 
    1.0000052199513552E-06 
    1.0000000000000002E-06 
    4.7682281271378563E-01 
    4.7545723563803377E-01 
    4.7263972773154089E-01 
    4.7025261674153968E-01 
    4.6685571607999832E-01 
    4.6620929190887805E-01 
    4.6474932002948971E-01 
    4.5886571490159295E-01 
    4.5018268048861737E-01 
    4.3653984625974790E-01 
    3.8729334961091516E-01 
    1.3039523319520829E-01 
    4.3562566367533304E-04 
    1.0285214591530500E-06 
    1.0000000000926656E-06 
    9.9999999999999995E-07 
    4.4163163997203225E-01 
    4.4155543833497207E-01 
    4.4060580512890624E-01 
    4.3795906214927460E-01 
    4.3496431445960748E-01 
    4.3336371382785766E-01 
    4.3340767271391273E-01 
    4.2965392690373699E-01 
    4.1481282685566084E-01 
    3.5629817751047710E-01 
    1.6515535216813479E-01 
    3.7899793646775843E-03 
    1.6496409811777909E-06 
    1.0000001328472479E-06 
    1.0000000000000180E-06 
    9.9999999999999995E-07 
    2.8841051465189360E-01 
    2.7790955422667624E-01 
    2.6425794611579390E-01 
    2.5073526893344095E-01 
    2.3813983278279069E-01 
    2.2288556522905800E-01 
    2.1500979020046709E-01 
    2.0498496236993907E-01 
    1.6514977856583102E-01 
    5.0457281889975482E-02 
    9.7518169013358601E-04 
    1.9308850732452190E-06 
    1.0000009190642678E-06 
    1.0000000000002649E-06 
    9.9999999999999995E-07 
    9.9999999999999995E-07 
    1.9951697098135809E-04 
    5.5875333838861323E-05 
    4.0209912408061655E-04 
    1.6335501541897841E-04 
    1.7706277190341678E-04 
    1.3750061186944309E-05 
    1.1679531729577518E-05 
    3.7596811644136771E-05 
    2.4992013695616835E-04 
    1.0250968863401502E-04 
    1.2155175153758969E-06 
    1.0000005464136094E-06 
    1.0000000000006975E-06 
    9.9999999999999995E-07 
    9.9999999999999995E-07 
    9.9999999999999995E-07 
    1.0000000167167504E-06 
    1.0000116008153657E-06 
    1.0002376463896137E-06 
    1.0001957496375118E-06 
    1.0003836865754230E-06 
    1.0000166169654792E-06 
    1.0000204306721043E-06 
    1.0006580546209538E-06 
    1.0313967292854527E-06 
    1.0012299171667277E-06 
    1.0000000255458547E-06 
    1.0000000000001312E-06 
    9.9999999999999995E-07 
    9.9999999999999995E-07 
    9.9999999999999995E-07 
    9.9999999999999995E-07 
    1.0000000000000002E-06 
    1.0000000000010274E-06 
    1.0000000000084464E-06 
    1.0000000000091117E-06 
    1.0000000000182281E-06 
    1.0000000000001823E-06 
    1.0000000000006494E-06 
    1.0000000000161995E-06 
    1.0000000000940850E-06 
    1.0000000000000044E-06 
    1.0000000000000042E-06 
    9.9999999999999995E-07 
    9.9999999999999995E-07 
    9.9999999999999995E-07 
    9.9999999999999995E-07 
    1.0000000980780631E-06 
