# vtk DataFile Version 2.0
Pressure Field Data 
ASCII 
DATASET UNSTRUCTURED_GRID 

POINTS 289 double 

    0.0000000000000000E+00     0.0000000000000000E+00     0.0000000000000000E+00 
    1.0000000000000000E+00     0.0000000000000000E+00     0.0000000000000000E+00 
    1.0000000000000000E+00     1.0000000000000000E+00     0.0000000000000000E+00 
    0.0000000000000000E+00     1.0000000000000000E+00     0.0000000000000000E+00 
    6.2499999999872928E-02     0.0000000000000000E+00     0.0000000000000000E+00 
    1.2499999999977310E-01     0.0000000000000000E+00     0.0000000000000000E+00 
    1.8749999999959341E-01     0.0000000000000000E+00     0.0000000000000000E+00 
    2.4999999999941089E-01     0.0000000000000000E+00     0.0000000000000000E+00 
    3.1249999999922851E-01     0.0000000000000000E+00     0.0000000000000000E+00 
    3.7499999999904610E-01     0.0000000000000000E+00     0.0000000000000000E+00 
    4.3749999999886358E-01     0.0000000000000000E+00     0.0000000000000000E+00 
    4.9999999999869210E-01     0.0000000000000000E+00     0.0000000000000000E+00 
    5.6249999999884603E-01     0.0000000000000000E+00     0.0000000000000000E+00 
    6.2499999999901090E-01     0.0000000000000000E+00     0.0000000000000000E+00 
    6.8749999999917577E-01     0.0000000000000000E+00     0.0000000000000000E+00 
    7.4999999999934064E-01     0.0000000000000000E+00     0.0000000000000000E+00 
    8.1249999999950551E-01     0.0000000000000000E+00     0.0000000000000000E+00 
    8.7499999999967026E-01     0.0000000000000000E+00     0.0000000000000000E+00 
    9.3749999999983513E-01     0.0000000000000000E+00     0.0000000000000000E+00 
    1.0000000000000000E+00     6.2499999999872928E-02     0.0000000000000000E+00 
    1.0000000000000000E+00     1.2499999999977310E-01     0.0000000000000000E+00 
    1.0000000000000000E+00     1.8749999999959341E-01     0.0000000000000000E+00 
    1.0000000000000000E+00     2.4999999999941089E-01     0.0000000000000000E+00 
    1.0000000000000000E+00     3.1249999999922851E-01     0.0000000000000000E+00 
    1.0000000000000000E+00     3.7499999999904610E-01     0.0000000000000000E+00 
    1.0000000000000000E+00     4.3749999999886358E-01     0.0000000000000000E+00 
    1.0000000000000000E+00     4.9999999999869210E-01     0.0000000000000000E+00 
    1.0000000000000000E+00     5.6249999999884603E-01     0.0000000000000000E+00 
    1.0000000000000000E+00     6.2499999999901090E-01     0.0000000000000000E+00 
    1.0000000000000000E+00     6.8749999999917577E-01     0.0000000000000000E+00 
    1.0000000000000000E+00     7.4999999999934064E-01     0.0000000000000000E+00 
    1.0000000000000000E+00     8.1249999999950551E-01     0.0000000000000000E+00 
    1.0000000000000000E+00     8.7499999999967026E-01     0.0000000000000000E+00 
    1.0000000000000000E+00     9.3749999999983513E-01     0.0000000000000000E+00 
    9.3749999999973976E-01     1.0000000000000000E+00     0.0000000000000000E+00 
    8.7499999999950118E-01     1.0000000000000000E+00     0.0000000000000000E+00 
    8.1249999999991318E-01     1.0000000000000000E+00     0.0000000000000000E+00 
    7.5000000000034706E-01     1.0000000000000000E+00     0.0000000000000000E+00 
    6.8750000000078049E-01     1.0000000000000000E+00     0.0000000000000000E+00 
    6.2500000000121403E-01     1.0000000000000000E+00     0.0000000000000000E+00 
    5.6250000000164757E-01     1.0000000000000000E+00     0.0000000000000000E+00 
    5.0000000000205946E-01     1.0000000000000000E+00     0.0000000000000000E+00 
    4.3750000000182099E-01     1.0000000000000000E+00     0.0000000000000000E+00 
    3.7500000000156092E-01     1.0000000000000000E+00     0.0000000000000000E+00 
    3.1250000000130068E-01     1.0000000000000000E+00     0.0000000000000000E+00 
    2.5000000000104050E-01     1.0000000000000000E+00     0.0000000000000000E+00 
    1.8750000000078040E-01     1.0000000000000000E+00     0.0000000000000000E+00 
    1.2500000000052031E-01     1.0000000000000000E+00     0.0000000000000000E+00 
    6.2500000000260125E-02     1.0000000000000000E+00     0.0000000000000000E+00 
    0.0000000000000000E+00     9.3749999999973976E-01     0.0000000000000000E+00 
    0.0000000000000000E+00     8.7499999999950118E-01     0.0000000000000000E+00 
    0.0000000000000000E+00     8.1249999999991318E-01     0.0000000000000000E+00 
    0.0000000000000000E+00     7.5000000000034706E-01     0.0000000000000000E+00 
    0.0000000000000000E+00     6.8750000000078049E-01     0.0000000000000000E+00 
    0.0000000000000000E+00     6.2500000000121403E-01     0.0000000000000000E+00 
    0.0000000000000000E+00     5.6250000000164757E-01     0.0000000000000000E+00 
    0.0000000000000000E+00     5.0000000000205946E-01     0.0000000000000000E+00 
    0.0000000000000000E+00     4.3750000000182099E-01     0.0000000000000000E+00 
    0.0000000000000000E+00     3.7500000000156092E-01     0.0000000000000000E+00 
    0.0000000000000000E+00     3.1250000000130068E-01     0.0000000000000000E+00 
    0.0000000000000000E+00     2.5000000000104050E-01     0.0000000000000000E+00 
    0.0000000000000000E+00     1.8750000000078040E-01     0.0000000000000000E+00 
    0.0000000000000000E+00     1.2500000000052031E-01     0.0000000000000000E+00 
    0.0000000000000000E+00     6.2500000000260125E-02     0.0000000000000000E+00 
    6.2499999999897131E-02     6.2500000000235922E-02     0.0000000000000000E+00 
    6.2499999999921327E-02     1.2500000000047351E-01     0.0000000000000000E+00 
    6.2499999999945530E-02     1.8750000000070621E-01     0.0000000000000000E+00 
    6.2499999999969733E-02     2.5000000000093858E-01     0.0000000000000000E+00 
    6.2499999999993928E-02     3.1250000000117117E-01     0.0000000000000000E+00 
    6.2500000000018124E-02     3.7500000000140382E-01     0.0000000000000000E+00 
    6.2500000000042327E-02     4.3750000000163619E-01     0.0000000000000000E+00 
    6.2500000000066530E-02     5.0000000000184897E-01     0.0000000000000000E+00 
    6.2500000000090733E-02     5.6250000000147260E-01     0.0000000000000000E+00 
    6.2500000000114922E-02     6.2500000000107636E-01     0.0000000000000000E+00 
    6.2500000000139125E-02     6.8750000000068034E-01     0.0000000000000000E+00 
    6.2500000000163328E-02     7.5000000000028411E-01     0.0000000000000000E+00 
    6.2500000000187531E-02     8.1249999999988787E-01     0.0000000000000000E+00 
    6.2500000000211720E-02     8.7499999999951172E-01     0.0000000000000000E+00 
    6.2500000000235922E-02     9.3749999999974565E-01     0.0000000000000000E+00 
    1.2499999999981980E-01     6.2500000000211733E-02     0.0000000000000000E+00 
    1.2499999999986650E-01     1.2500000000042691E-01     0.0000000000000000E+00 
    1.2499999999991319E-01     1.8750000000063199E-01     0.0000000000000000E+00 
    1.2499999999995989E-01     2.5000000000083678E-01     0.0000000000000000E+00 
    1.2500000000000661E-01     3.1250000000104172E-01     0.0000000000000000E+00 
    1.2500000000005329E-01     3.7500000000124661E-01     0.0000000000000000E+00 
    1.2500000000010000E-01     4.3750000000145117E-01     0.0000000000000000E+00 
    1.2500000000014669E-01     5.0000000000163858E-01     0.0000000000000000E+00 
    1.2500000000019340E-01     5.6250000000129741E-01     0.0000000000000000E+00 
    1.2500000000024011E-01     6.2500000000093847E-01     0.0000000000000000E+00 
    1.2500000000028680E-01     6.8750000000057998E-01     0.0000000000000000E+00 
    1.2500000000033351E-01     7.5000000000022127E-01     0.0000000000000000E+00 
    1.2500000000038020E-01     8.1249999999986211E-01     0.0000000000000000E+00 
    1.2500000000042691E-01     8.7499999999952238E-01     0.0000000000000000E+00 
    1.2500000000047359E-01     9.3749999999975164E-01     0.0000000000000000E+00 
    1.8749999999966760E-01     6.2500000000187531E-02     0.0000000000000000E+00 
    1.8749999999974179E-01     1.2500000000038020E-01     0.0000000000000000E+00 
    1.8749999999981601E-01     1.8750000000055780E-01     0.0000000000000000E+00 
    1.8749999999989009E-01     2.5000000000073502E-01     0.0000000000000000E+00 
    1.8749999999996431E-01     3.1250000000091221E-01     0.0000000000000000E+00 
    1.8750000000003850E-01     3.7500000000108941E-01     0.0000000000000000E+00 
    1.8750000000011269E-01     4.3750000000126649E-01     0.0000000000000000E+00 
    1.8750000000018691E-01     5.0000000000142808E-01     0.0000000000000000E+00 
    1.8750000000026110E-01     5.6250000000112244E-01     0.0000000000000000E+00 
    1.8750000000033529E-01     6.2500000000080080E-01     0.0000000000000000E+00 
    1.8750000000040951E-01     6.8750000000047962E-01     0.0000000000000000E+00 
    1.8750000000048361E-01     7.5000000000015843E-01     0.0000000000000000E+00 
    1.8750000000055780E-01     8.1249999999983680E-01     0.0000000000000000E+00 
    1.8750000000063199E-01     8.7499999999953304E-01     0.0000000000000000E+00 
    1.8750000000070621E-01     9.3749999999975764E-01     0.0000000000000000E+00 
    2.4999999999951281E-01     6.2500000000163314E-02     0.0000000000000000E+00 
    2.4999999999961461E-01     1.2500000000033351E-01     0.0000000000000000E+00 
    2.4999999999971650E-01     1.8750000000048361E-01     0.0000000000000000E+00 
    2.4999999999981831E-01     2.5000000000063310E-01     0.0000000000000000E+00 
    2.4999999999992020E-01     3.1250000000078260E-01     0.0000000000000000E+00 
    2.5000000000002198E-01     3.7500000000093209E-01     0.0000000000000000E+00 
    2.5000000000012390E-01     4.3750000000108180E-01     0.0000000000000000E+00 
    2.5000000000022571E-01     5.0000000000121769E-01     0.0000000000000000E+00 
    2.5000000000032763E-01     5.6250000000094724E-01     0.0000000000000000E+00 
    2.5000000000042938E-01     6.2500000000066314E-01     0.0000000000000000E+00 
    2.5000000000053119E-01     6.8750000000037925E-01     0.0000000000000000E+00 
[...]
CELL_DATA 256 
SCALARS Pressure double 1 
LOOKUP_TABLE default 

    9.4625309334785812E-01 
    9.3395649097269151E-01 
    9.2154868305980930E-01 
    9.1022111779429493E-01 
    9.0202099373934197E-01 
    8.9822630421914396E-01 
    8.9172563432121710E-01 
    8.8642737130912563E-01 
    8.8267471689876442E-01 
    8.8011967968966753E-01 
    8.7686864564046951E-01 
    8.7361948078960217E-01 
    8.7019907684545550E-01 
    8.6669427908279328E-01 
    8.6367647228628985E-01 
    8.6172965950825731E-01 
    9.0021069592060898E-01 
    8.9673136840591916E-01 
    8.9255722531375592E-01 
    8.8799113058821622E-01 
    8.8338497557157147E-01 
    8.7821739375339980E-01 
    8.7279868255129700E-01 
    8.6945159866287036E-01 
    8.6576918486159260E-01 
    8.6205397406010476E-01 
    8.5891849389614738E-01 
    8.5649556740224719E-01 
    8.5408146689775699E-01 
    8.5191673624450348E-01 
    8.5033061024654943E-01 
    8.4938777584901159E-01 
    8.6547702724873321E-01 
    8.6380140402387928E-01 
    8.6181613421272907E-01 
    8.5930373434929685E-01 
    8.5608215346005878E-01 
    8.5182673953628452E-01 
    8.4726474966318499E-01 
    8.4438408065797277E-01 
    8.4065736710723982E-01 
    8.3687029807442870E-01 
    8.3407480554300717E-01 
    8.3224490020439146E-01 
    8.3038824009977619E-01 
    8.2910314733241064E-01 
    8.2863095719644908E-01 
    8.2860854362546643E-01 
    8.2943119599477355E-01 
    8.2919052087417600E-01 
    8.2874544337331624E-01 
    8.2770366019553976E-01 
    8.2572136713221422E-01 
    8.2243594648760687E-01 
    8.1862969998917878E-01 
    8.1599661785417832E-01 
    8.1247453205823994E-01 
    8.0895075425064200E-01 
    8.0663015815594474E-01 
    8.0530958454140877E-01 
    8.0379413541320521E-01 
    8.0303803254200079E-01 
    8.0321546490058926E-01 
    8.0351933929675790E-01 
    7.9596997571129879E-01 
    7.9786791202201579E-01 
    7.9744409942811012E-01 
    7.9636721245736619E-01 
    7.9442270592830100E-01 
    7.9121604842225213E-01 
    7.8771322318499815E-01 
    7.8587959068609958E-01 
    7.8302699303061452E-01 
    7.8002934027427417E-01 
    7.7825903421870324E-01 
    7.7779521581008892E-01 
    7.7646349422014449E-01 
    7.7574263864627824E-01 
    7.7556900315382893E-01 
    7.7497362259357727E-01 
    7.6572767299587774E-01 
    7.6412021799503704E-01 
    7.6160617006798692E-01 
    7.5810346398586503E-01 
    7.5450033553803342E-01 
    7.5202594340192286E-01 
    7.5080858608810486E-01 
    7.5001402713790488E-01 
    7.4917260441224220E-01 
    7.4900004312702828E-01 
    7.4870349014034787E-01 
    7.4745844576333487E-01 
    7.4554991508708957E-01 
    7.4364065533373769E-01 
    7.4185009076363928E-01 
    7.4066240301637853E-01 
    7.1529574111458361E-01 
    7.1491149525916076E-01 
    7.1395941702589283E-01 
    7.1263306572887897E-01 
    7.1157167829279488E-01 
    7.1149536687628090E-01 
    7.1123644459848456E-01 
    7.0873728913901202E-01 
    7.0765672493581500E-01 
    7.0744427289489109E-01 
    7.0677006997665226E-01 
    7.0477295221581659E-01 
    7.0320041633449892E-01 
    7.0193198591647865E-01 
    7.0142066039669593E-01 
    7.0126221123619303E-01 
    6.6825191713549703E-01 
    6.6913626204509558E-01 
    6.6967866754827710E-01 
    6.6991397807434805E-01 
    6.6984331393107244E-01 
    6.6945922684123549E-01 
    6.6834870627274534E-01 
    6.6654148924832723E-01 
    6.6457365503411014E-01 
    6.6291828237836081E-01 
    6.6142571013541140E-01 
    6.5962862812576173E-01 
    6.5764376458598306E-01 
    6.5681302869821656E-01 
    6.5734816294603360E-01 
    6.5796260330767986E-01 
    6.2626340787400880E-01 
    6.2777600151196500E-01 
    6.2753730440908051E-01 
    6.2713199128215946E-01 
    6.2622850510159489E-01 
    6.2473464543219370E-01 
    6.2277006165222915E-01 
    6.2128529287427581E-01 
    6.1902535743970555E-01 
    6.1729999512755007E-01 
    6.1592592200743246E-01 
    6.1416434286412747E-01 
    6.1202341465998500E-01 
    6.1141707540824985E-01 
    6.1185903548117782E-01 
    6.1165854350184867E-01 
    5.8396261362579271E-01 
    5.8314738182429016E-01 
    5.8143445469853283E-01 
    5.7915224018723033E-01 
    5.7695740182288979E-01 
    5.7520085113648267E-01 
    5.7359720289761185E-01 
    5.7239570087316072E-01 
    5.7153472205373512E-01 
    5.7094856214651035E-01 
    5.6974265546282532E-01 
    5.6718882266809423E-01 
    5.6461040472294588E-01 
    5.6224191557472902E-01 
    5.6017408153089188E-01 
    5.5897809815645805E-01 
    5.3638637067740491E-01 
    5.3568749898434609E-01 
    5.3435544501823229E-01 
    5.3264538947860662E-01 
    5.3078062940642534E-01 
    5.2840182505742128E-01 
    5.2487048023653970E-01 
    5.2136188630000435E-01 
    5.1848142099796557E-01 
    5.1478912137186628E-01 
    5.1028504131441987E-01 
    5.0634059061946157E-01 
    5.0362528814195018E-01 
    5.0163622984406508E-01 
    5.0062016455047442E-01 
    5.0019508191516360E-01 
    4.8499578013820727E-01 
    4.8437420671528980E-01 
    4.8296906386926269E-01 
    4.8065763580979110E-01 
    4.7742886663784145E-01 
    4.7347129467202542E-01 
    4.6910289536441269E-01 
    4.6376543668240194E-01 
    4.5751091968984853E-01 
    4.5116344290249183E-01 
    4.4571725905984905E-01 
    4.4089859654213992E-01 
    4.3693343606267160E-01 
    4.3476936727211452E-01 
    4.3447989783021196E-01 
    4.3506316709777387E-01 
    4.2837877432352994E-01 
    4.2756314753599234E-01 
    4.2572998100142012E-01 
    4.2268393152552280E-01 
    4.1860774610966689E-01 
    4.1400331256251649E-01 
    4.0911213540476338E-01 
    4.0276682113484380E-01 
    3.9524397596601085E-01 
    3.8761422850281685E-01 
    3.8052318591729228E-01 
    3.7373177133738972E-01 
    3.6807995347497957E-01 
    3.6510779237745744E-01 
    3.6482763934941409E-01 
    3.6587363657422989E-01 
    3.7655988467428675E-01 
    3.7565392842054718E-01 
    3.7359752919861333E-01 
    3.7002897582183908E-01 
    3.6514240182224666E-01 
    3.5958811457164969E-01 
    3.5369910669516225E-01 
    3.4585368449846898E-01 
    3.3625786132979552E-01 
    3.2635126566760009E-01 
    3.1678504435816435E-01 
    3.0739196923911044E-01 
    2.9910243139103171E-01 
    2.9371095625952703E-01 
    2.9123331017348736E-01 
    2.9057246058767300E-01 
    3.2938321254021991E-01 
    3.2840559980524092E-01 
    3.2614677147845084E-01 
    3.2211443412358531E-01 
    3.1649533433217231E-01 
    3.1009158636262169E-01 
    3.0347483111995838E-01 
    2.9473787732407791E-01 
    2.8376647016253220E-01 
    2.7165562425533407E-01 
    2.5882312431252608E-01 
    2.4502295080798500E-01 
    2.3035485256501792E-01 
    2.1598042461749414E-01 
    2.0269935596876415E-01 
    1.9293139877190699E-01 
    2.9946488477975886E-01 
    2.9840575144687836E-01 
    2.9595183350513804E-01 
    2.9163723954109033E-01 
    2.8561482449255654E-01 
    2.7881646905700347E-01 
    2.7230592430443568E-01 
    2.6394648054513947E-01 
    2.5212211718933586E-01 
    2.3633587230536315E-01 
    2.1792578417261171E-01 
    1.9525756563376215E-01 
    1.6414433013128402E-01 
    1.2206927234770881E-01 
    6.7869935349070265E-02 
    0.0000000000000000E+00 

SCALARS Saturarion double 1 
LOOKUP_TABLE default 

    1.0000000010226682E+00 
    9.7343020857490958E-01 
    9.2894700481610848E-01 
    8.8229877761748421E-01 
    8.3535576750854423E-01 
    7.8613539351734019E-01 
    7.3867360816250582E-01 
    6.8866914254434630E-01 
    6.3812758812715042E-01 
    5.8755468029674507E-01 
    5.4128834208844645E-01 
    5.0060739273794652E-01 
    4.5790749256855212E-01 
    2.9262567529675121E-01 
    1.5477132128987924E-03 
    1.0000008438826214E-06 
    9.3605334250161343E-01 
    9.2047012506553372E-01 
    8.8640442730735913E-01 
    8.4772706181057034E-01 
    8.0606227510885931E-01 
    7.6373512365748975E-01 
    7.2241109923980529E-01 
    6.7953280838929275E-01 
    6.3485241877092669E-01 
    5.8827954098027957E-01 
    5.4300981646966262E-01 
    4.9821035638998201E-01 
    4.4779476782711630E-01 
    1.8644694198547782E-01 
    3.3766075996874878E-05 
    1.0001489008693348E-06 
    8.3757219668339267E-01 
    8.3011021977866739E-01 
    8.1158252663934316E-01 
    7.8567616190085188E-01 
    7.5724075309196071E-01 
    7.2544487710058458E-01 
    6.9163697180724415E-01 
    6.5880819431869286E-01 
    6.2274695952212178E-01 
    5.8117885050916396E-01 
    5.3891658812391496E-01 
    4.9562720109542263E-01 
    4.3522764187614171E-01 
    1.0723189494846386E-01 
    3.5966568210736865E-05 
    1.0001037705330347E-06 
    7.5473637150507744E-01 
    7.5074533725826098E-01 
    7.4001733357276833E-01 
    7.2410286299685922E-01 
    7.0596217698094077E-01 
    6.8379237656133685E-01 
    6.5930819014717190E-01 
    6.3393219208214036E-01 
    6.0443108692525571E-01 
    5.6855887985542863E-01 
    5.2905850428385792E-01 
    4.8507633290827706E-01 
    3.9914374567586242E-01 
    4.2411589120798232E-02 
    1.2136964544028250E-05 
    1.0000058283888471E-06 
    6.8901203596585314E-01 
    6.8560592301134171E-01 
    6.7861735435587045E-01 
    6.6783874794544396E-01 
    6.5404352228628571E-01 
    6.4122495531600043E-01 
    6.2332352319587703E-01 
    6.0228796122020156E-01 
    5.8076713748448539E-01 
    5.5243604291158077E-01 
    5.1643853274694806E-01 
    4.7475096727469157E-01 
    3.5064537051720973E-01 
    9.9065544547809626E-03 
    3.0648796415255575E-06 
    1.0000003996464657E-06 
    6.4044898813852702E-01 
    6.3833347063562440E-01 
    6.3313197712003033E-01 
    6.2587889703517230E-01 
    6.1384624300512247E-01 
    6.0165770720576206E-01 
    5.8641042659095832E-01 
    5.6712445669781086E-01 
    5.4936166581995394E-01 
    5.2856403445419109E-01 
    4.9797830731829756E-01 
    4.6310938150745418E-01 
    2.8688102805279408E-01 
    1.2511529574392782E-03 
    1.0248194915626145E-06 
    1.0000000017200670E-06 
    5.9408849057474522E-01 
    5.9184907822373867E-01 
    5.8722721434762959E-01 
    5.8170420099483799E-01 
    5.8110191647199338E-01 
    5.6869131989476807E-01 
    5.5366176662112110E-01 
    5.3622982788280038E-01 
    5.1590231178789636E-01 
    4.9939597345419956E-01 
    4.7507345193700584E-01 
    4.4139271747061321E-01 
    1.8992135265172896E-01 
    1.7830561955473436E-04 
    1.0059249518807266E-06 
    1.0000000000062585E-06 
    5.4986815202561901E-01 
    5.4763960387472654E-01 
    5.4354461417928657E-01 
    5.3848141532043436E-01 
    5.4520413777276666E-01 
    5.3663798190140544E-01 
    5.2438314306130862E-01 
    5.1012234296458214E-01 
    4.8974023656298576E-01 
    4.7365871904098594E-01 
    4.5536205966008136E-01 
    3.9355100944218979E-01 
    6.4256395266672636E-02 
    7.0804516896838613E-05 
    1.0002382224557583E-06 
    1.0000000000000002E-06 
    5.1221719871089300E-01 
    5.1053189965698309E-01 
    5.0737506552647804E-01 
    5.0366380017405710E-01 
    5.0648302410176427E-01 
    5.0322249785993112E-01 
    4.9568803738633305E-01 
    4.8522346965123037E-01 
    4.7145081288953694E-01 
    4.5116793344644507E-01 
    4.2102858109069413E-01 
    2.2538226337895753E-01 
    2.7150114889864774E-03 
    1.1179324223812917E-06 
    1.0000000127831116E-06 
    1.0000000000000010E-06 
    4.7995679745000303E-01 
    4.7823146991945931E-01 
    4.7513588296106274E-01 
    4.7236141403881282E-01 
    4.6911639305250286E-01 
    4.6934982563474814E-01 
    4.6558769663667104E-01 
    4.5748056971257428E-01 
    4.4839154633712364E-01 
    4.1822615687118142E-01 
    2.8654674754757026E-01 
    2.3553295166677389E-02 
    3.0944252690997684E-05 
    1.0000121226522388E-06 
    1.0000000000000730E-06 
    9.9999999999999995E-07 
    4.4348547649349046E-01 
    4.4271896540553762E-01 
    4.4076456064329278E-01 
    4.3776688660465546E-01 
    4.3430966283331218E-01 
    4.3343778276204986E-01 
    4.2874993960531910E-01 
    4.1213655986602205E-01 
    3.4984842115572684E-01 
    2.0080765507170256E-01 
    2.3733694482922497E-02 
    9.4312891018021221E-05 
    1.0007093297536307E-06 
    1.0000000000260289E-06 
    9.9999999999999995E-07 
    9.9999999999999995E-07 
    3.0853215147625701E-01 
    2.9379531925632019E-01 
    2.7087956865414337E-01 
    2.4703715029196724E-01 
    2.1895423852981810E-01 
    2.0288780148862576E-01 
    1.8280653466231239E-01 
    1.2600717483133769E-01 
    3.0578580406652942E-02 
    8.1453731703377439E-04 
    3.4487639547772898E-05 
    1.0005859605845625E-06 
    1.0000000001087757E-06 
    9.9999999999999995E-07 
    9.9999999999999995E-07 
    9.9999999999999995E-07 
    7.4091180064930306E-04 
    8.6350601005933129E-05 
    3.6772884441833690E-04 
    2.5554254046476386E-04 
    2.2718440157857653E-05 
    6.1678112472055362E-06 
    6.9622119149937887E-05 
    1.2599022463794486E-04 
    3.2821644985684683E-05 
    1.1343345617005517E-06 
    1.0001142680276987E-06 
    1.0000000000423109E-06 
    9.9999999999999974E-07 
    9.9999999999999995E-07 
    9.9999999999999995E-07 
    9.9999999999999995E-07 
    1.0000000034241188E-06 
    1.0000368640837703E-06 
    1.0006294335349463E-06 
    1.0003724321686959E-06 
    1.0000688698494959E-06 
    1.0000213825407511E-06 
    1.0019477320352588E-06 
    1.0040803557984944E-06 
    1.0001114677747977E-06 
    1.0000000049783978E-06 
    1.0000000000000747E-06 
    9.9999999999999974E-07 
    9.9999999999999995E-07 
    9.9999999999999995E-07 
    9.9999999999999995E-07 
    9.9999999999999995E-07 
    1.0000000000000006E-06 
    1.0000000000031679E-06 
    1.0000000000334800E-06 
    1.0000000000114760E-06 
    1.0000000000025103E-06 
    9.9999999999999974E-07 
    1.0000000001249858E-06 
    1.0000000000000008E-06 
    1.0000000000000014E-06 
    1.0000000000000019E-06 
    9.9999999999999995E-07 
    9.9999999999999995E-07 
    9.9999999999999995E-07 
    9.9999999999999995E-07 
    9.9999999999999995E-07 
    9.9999999999999995E-07 
    9.9999999999999995E-07 
    9.9999999999999995E-07 
    9.9999999999999995E-07 
    9.9999999999999995E-07 
    9.9999999999999995E-07 
    9.9999999999999995E-07 
    1.0000000000000002E-06 
    9.9999999999999995E-07 
    9.9999999999999995E-07 
    9.9999999999999995E-07 
    9.9999999999999995E-07 
    9.9999999999999995E-07 
    9.9999999999999995E-07 
    9.9999999999999995E-07 
    9.9999999999999995E-07 
    1.0000000869565306E-06 
