# vtk DataFile Version 2.0
Pressure Field Data 
ASCII 
DATASET UNSTRUCTURED_GRID 

POINTS 1681 double 

    0.0000000000000000E+00     0.0000000000000000E+00     0.0000000000000000E+00 
    1.0000000000000000E+00     0.0000000000000000E+00     0.0000000000000000E+00 
    1.0000000000000000E+00     1.0000000000000000E+00     0.0000000000000000E+00 
    0.0000000000000000E+00     1.0000000000000000E+00     0.0000000000000000E+00 
    5.2499999999875258E-01     0.0000000000000000E+00     0.0000000000000000E+00 
    7.4999999999856765E-02     0.0000000000000000E+00     0.0000000000000000E+00 
    1.2499999999975850E-01     0.0000000000000000E+00     0.0000000000000000E+00 
    1.7499999999962990E-01     0.0000000000000000E+00     0.0000000000000000E+00 
    2.2499999999948389E-01     0.0000000000000000E+00     0.0000000000000000E+00 
    2.7499999999933789E-01     0.0000000000000000E+00     0.0000000000000000E+00 
    3.2499999999919210E-01     0.0000000000000000E+00     0.0000000000000000E+00 
    3.7499999999904610E-01     0.0000000000000000E+00     0.0000000000000000E+00 
    4.2499999999890020E-01     0.0000000000000000E+00     0.0000000000000000E+00 
    4.7499999999875958E-01     0.0000000000000000E+00     0.0000000000000000E+00 
    2.4999999999949701E-02     0.0000000000000000E+00     0.0000000000000000E+00 
    5.7499999999887907E-01     0.0000000000000000E+00     0.0000000000000000E+00 
    6.2499999999901101E-01     0.0000000000000000E+00     0.0000000000000000E+00 
    6.7499999999914273E-01     0.0000000000000000E+00     0.0000000000000000E+00 
    7.2499999999927467E-01     0.0000000000000000E+00     0.0000000000000000E+00 
    7.7499999999940661E-01     0.0000000000000000E+00     0.0000000000000000E+00 
    8.2499999999953844E-01     0.0000000000000000E+00     0.0000000000000000E+00 
    8.7499999999967026E-01     0.0000000000000000E+00     0.0000000000000000E+00 
    9.2499999999980220E-01     0.0000000000000000E+00     0.0000000000000000E+00 
    9.7499999999993414E-01     0.0000000000000000E+00     0.0000000000000000E+00 
    5.4999999999881310E-01     0.0000000000000000E+00     0.0000000000000000E+00 
    9.9999999999814140E-02     0.0000000000000000E+00     0.0000000000000000E+00 
    1.4999999999970290E-01     0.0000000000000000E+00     0.0000000000000000E+00 
    1.9999999999955689E-01     0.0000000000000000E+00     0.0000000000000000E+00 
    2.4999999999941089E-01     0.0000000000000000E+00     0.0000000000000000E+00 
    2.9999999999926502E-01     0.0000000000000000E+00     0.0000000000000000E+00 
    3.4999999999911913E-01     0.0000000000000000E+00     0.0000000000000000E+00 
    3.9999999999897312E-01     0.0000000000000000E+00     0.0000000000000000E+00 
    4.4999999999882723E-01     0.0000000000000000E+00     0.0000000000000000E+00 
    4.9999999999869210E-01     0.0000000000000000E+00     0.0000000000000000E+00 
    4.9999999999899403E-02     0.0000000000000000E+00     0.0000000000000000E+00 
    5.9999999999894504E-01     0.0000000000000000E+00     0.0000000000000000E+00 
    6.4999999999907687E-01     0.0000000000000000E+00     0.0000000000000000E+00 
    6.9999999999920870E-01     0.0000000000000000E+00     0.0000000000000000E+00 
    7.4999999999934064E-01     0.0000000000000000E+00     0.0000000000000000E+00 
    7.9999999999947247E-01     0.0000000000000000E+00     0.0000000000000000E+00 
    8.4999999999960441E-01     0.0000000000000000E+00     0.0000000000000000E+00 
    8.9999999999973623E-01     0.0000000000000000E+00     0.0000000000000000E+00 
    9.4999999999986817E-01     0.0000000000000000E+00     0.0000000000000000E+00 
    1.0000000000000000E+00     5.2499999999875258E-01     0.0000000000000000E+00 
    1.0000000000000000E+00     7.4999999999856765E-02     0.0000000000000000E+00 
    1.0000000000000000E+00     1.2499999999975850E-01     0.0000000000000000E+00 
    1.0000000000000000E+00     1.7499999999962990E-01     0.0000000000000000E+00 
    1.0000000000000000E+00     2.2499999999948389E-01     0.0000000000000000E+00 
    1.0000000000000000E+00     2.7499999999933789E-01     0.0000000000000000E+00 
    1.0000000000000000E+00     3.2499999999919210E-01     0.0000000000000000E+00 
    1.0000000000000000E+00     3.7499999999904610E-01     0.0000000000000000E+00 
    1.0000000000000000E+00     4.2499999999890020E-01     0.0000000000000000E+00 
    1.0000000000000000E+00     4.7499999999875958E-01     0.0000000000000000E+00 
    1.0000000000000000E+00     2.4999999999949701E-02     0.0000000000000000E+00 
    1.0000000000000000E+00     5.7499999999887907E-01     0.0000000000000000E+00 
    1.0000000000000000E+00     6.2499999999901101E-01     0.0000000000000000E+00 
    1.0000000000000000E+00     6.7499999999914273E-01     0.0000000000000000E+00 
    1.0000000000000000E+00     7.2499999999927467E-01     0.0000000000000000E+00 
    1.0000000000000000E+00     7.7499999999940661E-01     0.0000000000000000E+00 
    1.0000000000000000E+00     8.2499999999953844E-01     0.0000000000000000E+00 
    1.0000000000000000E+00     8.7499999999967026E-01     0.0000000000000000E+00 
    1.0000000000000000E+00     9.2499999999980220E-01     0.0000000000000000E+00 
    1.0000000000000000E+00     9.7499999999993414E-01     0.0000000000000000E+00 
    1.0000000000000000E+00     5.4999999999881310E-01     0.0000000000000000E+00 
    1.0000000000000000E+00     9.9999999999814140E-02     0.0000000000000000E+00 
    1.0000000000000000E+00     1.4999999999970290E-01     0.0000000000000000E+00 
    1.0000000000000000E+00     1.9999999999955689E-01     0.0000000000000000E+00 
    1.0000000000000000E+00     2.4999999999941089E-01     0.0000000000000000E+00 
    1.0000000000000000E+00     2.9999999999926502E-01     0.0000000000000000E+00 
    1.0000000000000000E+00     3.4999999999911913E-01     0.0000000000000000E+00 
    1.0000000000000000E+00     3.9999999999897312E-01     0.0000000000000000E+00 
    1.0000000000000000E+00     4.4999999999882723E-01     0.0000000000000000E+00 
    1.0000000000000000E+00     4.9999999999869210E-01     0.0000000000000000E+00 
    1.0000000000000000E+00     4.9999999999899403E-02     0.0000000000000000E+00 
    1.0000000000000000E+00     5.9999999999894504E-01     0.0000000000000000E+00 
    1.0000000000000000E+00     6.4999999999907687E-01     0.0000000000000000E+00 
    1.0000000000000000E+00     6.9999999999920870E-01     0.0000000000000000E+00 
    1.0000000000000000E+00     7.4999999999934064E-01     0.0000000000000000E+00 
    1.0000000000000000E+00     7.9999999999947247E-01     0.0000000000000000E+00 
    1.0000000000000000E+00     8.4999999999960441E-01     0.0000000000000000E+00 
    1.0000000000000000E+00     8.9999999999973623E-01     0.0000000000000000E+00 
    1.0000000000000000E+00     9.4999999999986817E-01     0.0000000000000000E+00 
    4.7500000000196618E-01     1.0000000000000000E+00     0.0000000000000000E+00 
    9.2499999999968763E-01     1.0000000000000000E+00     0.0000000000000000E+00 
    8.7499999999961831E-01     1.0000000000000000E+00     0.0000000000000000E+00 
    8.2499999999982654E-01     1.0000000000000000E+00     0.0000000000000000E+00 
    7.7500000000017355E-01     1.0000000000000000E+00     0.0000000000000000E+00 
    7.2500000000052045E-01     1.0000000000000000E+00     0.0000000000000000E+00 
    6.7500000000086724E-01     1.0000000000000000E+00     0.0000000000000000E+00 
    6.2500000000121403E-01     1.0000000000000000E+00     0.0000000000000000E+00 
    5.7500000000156093E-01     1.0000000000000000E+00     0.0000000000000000E+00 
    5.2500000000189684E-01     1.0000000000000000E+00     0.0000000000000000E+00 
    9.7499999999989595E-01     1.0000000000000000E+00     0.0000000000000000E+00 
    4.2500000000176902E-01     1.0000000000000000E+00     0.0000000000000000E+00 
    3.7500000000156092E-01     1.0000000000000000E+00     0.0000000000000000E+00 
    3.2500000000135282E-01     1.0000000000000000E+00     0.0000000000000000E+00 
    2.7500000000114472E-01     1.0000000000000000E+00     0.0000000000000000E+00 
    2.2500000000093659E-01     1.0000000000000000E+00     0.0000000000000000E+00 
    1.7500000000072849E-01     1.0000000000000000E+00     0.0000000000000000E+00 
    1.2500000000052039E-01     1.0000000000000000E+00     0.0000000000000000E+00 
    7.5000000000312261E-02     1.0000000000000000E+00     0.0000000000000000E+00 
    2.5000000000104109E-02     1.0000000000000000E+00     0.0000000000000000E+00 
    4.5000000000187301E-01     1.0000000000000000E+00     0.0000000000000000E+00 
    8.9999999999958358E-01     1.0000000000000000E+00     0.0000000000000000E+00 
    8.4999999999965303E-01     1.0000000000000000E+00     0.0000000000000000E+00 
    8.0000000000000004E-01     1.0000000000000000E+00     0.0000000000000000E+00 
    7.5000000000034706E-01     1.0000000000000000E+00     0.0000000000000000E+00 
    7.0000000000069384E-01     1.0000000000000000E+00     0.0000000000000000E+00 
    6.5000000000104063E-01     1.0000000000000000E+00     0.0000000000000000E+00 
    6.0000000000138742E-01     1.0000000000000000E+00     0.0000000000000000E+00 
    5.5000000000173432E-01     1.0000000000000000E+00     0.0000000000000000E+00 
    5.0000000000205946E-01     1.0000000000000000E+00     0.0000000000000000E+00 
    9.4999999999979179E-01     1.0000000000000000E+00     0.0000000000000000E+00 
    4.0000000000166491E-01     1.0000000000000000E+00     0.0000000000000000E+00 
    3.5000000000145681E-01     1.0000000000000000E+00     0.0000000000000000E+00 
    3.0000000000124871E-01     1.0000000000000000E+00     0.0000000000000000E+00 
    2.5000000000104061E-01     1.0000000000000000E+00     0.0000000000000000E+00 
    2.0000000000083251E-01     1.0000000000000000E+00     0.0000000000000000E+00 
    1.5000000000062441E-01     1.0000000000000000E+00     0.0000000000000000E+00 
    1.0000000000041630E-01     1.0000000000000000E+00     0.0000000000000000E+00 
[...]
CELL_DATA 1600 
SCALARS Pressure double 1 
LOOKUP_TABLE default 

    9.6446567687372076E-01 
    9.4640299477733225E-01 
    9.4631937185092707E-01 
    9.6261494388039137E-01 
    9.6093807019488842E-01 
    9.4617011417684804E-01 
    9.4596909417066177E-01 
    9.5941284692477369E-01 
    9.5802514776080494E-01 
    9.4572873833301496E-01 
    9.4545913169110096E-01 
    9.5676363257827335E-01 
    9.5561751321487809E-01 
    9.4516928651175725E-01 
    9.4486599675559502E-01 
    9.5457690859246080E-01 
    9.5363285587722602E-01 
    9.4455531484867883E-01 
    9.4424220915606449E-01 
    9.5277800612445129E-01 
    9.5200644605455298E-01 
    9.4393192363645884E-01 
    9.4362820799320013E-01 
    9.5131292722144190E-01 
    9.5069227416142321E-01 
    9.4333456751095224E-01 
    9.4305313901730015E-01 
    9.5013938278157228E-01 
    9.4964949420202882E-01 
    9.4278569932223932E-01 
    9.4253392302961059E-01 
    9.4921910724748682E-01 
    9.4884399477318648E-01 
    9.4229948752738557E-01 
    9.4208278252469790E-01 
    9.4851993157571768E-01 
    9.4824233822733872E-01 
    9.4188375436261162E-01 
    9.4170192133808994E-01 
    9.4800659515742181E-01 
    9.4780787162145941E-01 
    9.4153614366755667E-01 
    9.4138524567996273E-01 
    9.4764174806857704E-01 
    9.4750428968874334E-01 
    9.4124801882112619E-01 
    9.4112457928591109E-01 
    9.4739389336087776E-01 
    9.4730903238085551E-01 
    9.4101423823990105E-01 
    9.4091665304625105E-01 
    9.4724821597171394E-01 
    9.4721065315416686E-01 
    9.4083089057895619E-01 
    9.4075821366850787E-01 
    9.4719737527425296E-01 
    9.4721289614553017E-01 
    9.4070548540207044E-01 
    9.4067606478262478E-01 
    9.4724144163697299E-01 
    9.4727563675778514E-01 
    9.4066183105779289E-01 
    9.4065201225651762E-01 
    9.4730974838701154E-01 
    9.4733942013615824E-01 
    9.4063975182550363E-01 
    9.4062574702585999E-01 
    9.4736037187368771E-01 
    9.4736980471416532E-01 
    9.4060924069724416E-01 
    9.4058979318139824E-01 
    9.4736507074375353E-01 
    9.4734504915437168E-01 
    9.4056588147342191E-01 
    9.4053815841946542E-01 
    9.4730865684087318E-01 
    9.4725633745149995E-01 
    9.4050612743966577E-01 
    9.4047147381246221E-01 
    9.4718848881510920E-01 
    9.3593907605286464E-01 
    9.2592878005462431E-01 
    9.2590485780035758E-01 
    9.3591040036591766E-01 
    9.3585407377984831E-01 
    9.2585737944549029E-01 
    9.2578708238257668E-01 
    9.3577116755392054E-01 
    9.3566360824521444E-01 
    9.2569464870401463E-01 
    9.2558103489724564E-01 
    9.3553334986005454E-01 
    9.3538280802208895E-01 
    9.2544723602718082E-01 
    9.2529453919534022E-01 
    9.3521409785616705E-01 
    9.3502948001051778E-01 
    9.2512410826062308E-01 
    9.2493754462365185E-01 
    9.3483128746372757E-01 
    9.3462242692007813E-01 
    9.2473663607858247E-01 
    9.2452297084669666E-01 
    9.3440529710581988E-01 
    9.3418243704378434E-01 
    9.2429821235528087E-01 
    9.2406385719320883E-01 
    9.3395582544953437E-01 
    9.3372708360010392E-01 
    9.2382112756698265E-01 
    9.2357153500493583E-01 
    9.3349812784652408E-01 
    9.3327101903117526E-01 
    9.2331716029475586E-01 
    9.2305972803733816E-01 
    9.3304718839269540E-01 
    9.3282768819410644E-01 
    9.2280089331439030E-01 
    9.2254200941833964E-01 
    9.3261339698667856E-01 
    9.3240459296697131E-01 
    9.2228429729407735E-01 
    9.2202857818202955E-01 
    9.3220147405432274E-01 
    9.3200440336445756E-01 
    9.2177615095203502E-01 
    9.2152791647825938E-01 
    9.3181420118182035E-01 
    9.3163117499901948E-01 
    9.2128480496762122E-01 
    9.2104738741100634E-01 
    9.3145560325049870E-01 
    9.3128727992013016E-01 
    9.2081616284914003E-01 
    9.2059225417537094E-01 
    9.3112756032834476E-01 
    9.3097974227820479E-01 
    9.2037781325693924E-01 
    9.2017271739313311E-01 
    9.3084888084182149E-01 
    9.3073637129140474E-01 
    9.1997901330949505E-01 
    9.1980258503453316E-01 
    9.3064015564030955E-01 
    9.3055837484904713E-01 
    9.1964604602501832E-01 
    9.1950918275021243E-01 
    9.3048454652283896E-01 
    9.3041688101762976E-01 
    9.1939245268203784E-01 
    9.1929507100904417E-01 
    9.3035906706185290E-01 
    9.3031209844333751E-01 
    9.1921869476536744E-01 
    9.1916647055446776E-01 
    9.3027691348785890E-01 
    9.3025418010136762E-01 
    9.1914016713838143E-01 
    9.1914114151399540E-01 
    9.3024531134021238E-01 
    9.1531373728264809E-01 
    9.0387101668364511E-01 
    9.0385752464110269E-01 
    9.1529316852268949E-01 
    9.1525249855704049E-01 
    9.0383052151571230E-01 
    9.0379028897400970E-01 
    9.1519203639754543E-01 
    9.1511228043805937E-01 
    9.0373672981339503E-01 
    9.0367005335368866E-01 
    9.1501355950073460E-01 
    9.1489655781588031E-01 
    9.0359010729126643E-01 
    9.0349703858656261E-01 
    9.1476188878471221E-01 
    9.1461042314881147E-01 
    9.0339075701602689E-01 
    9.0327147123661622E-01 
    9.1444298504956600E-01 
    9.1426067159955948E-01 
    9.0313905623274116E-01 
    9.0299317671099832E-01 
    9.1406403327334673E-01 
    9.1385395315500939E-01 
    9.0283338627640330E-01 
    9.0265965709702056E-01 
    9.1363121071766773E-01 
    9.1339671790048371E-01 
    9.0247195085098020E-01 
    9.0227056834535224E-01 
    9.1315143640779772E-01 
    9.1289719309401274E-01 
    9.0205661446620200E-01 
    9.0183144852478325E-01 
    9.1263564018803922E-01 
    9.1236857097515234E-01 
    9.0159658883393023E-01 
    9.0135371390425489E-01 
    9.1209764578763641E-01 
    9.1182449329316173E-01 
    9.0110459803288145E-01 
    9.0085102288643015E-01 
    9.1155057209841373E-01 
    9.1127768184118607E-01 
    9.0059530832786594E-01 
    9.0033869344006678E-01 
    9.1100697640071404E-01 
    9.1073932800862711E-01 
    9.0008230613810314E-01 
    8.9982718892340829E-01 
    9.1047570750555551E-01 
    9.1021691734924581E-01 
    8.9957471982094794E-01 
    8.9932610011776570E-01 
    9.0996420638615128E-01 
    9.0971887515252592E-01 
    8.9908281010708524E-01 
    8.9884585823276042E-01 
    9.0948188054212109E-01 
    9.0925462701546189E-01 
    8.9861694712112883E-01 
    8.9839905554015032E-01 
    9.0903904801859992E-01 
    9.0883672582695452E-01 
    8.9819549529460918E-01 
    8.9800956879009608E-01 
    9.0865411994810930E-01 
    9.0849829702434937E-01 
    8.9784698108663363E-01 
    8.9770767387900485E-01 
    9.0837023442005294E-01 
    9.0827176580841940E-01 
    8.9759570542411038E-01 
    8.9751969031499179E-01 
    9.0820584940624227E-01 
    9.0817329315385076E-01 
    8.9748095207163281E-01 
    8.9748006177422812E-01 
    9.0817601213701027E-01 
    8.9149646215936895E-01 
    8.7808514660321357E-01 
    8.7809157850555186E-01 
    8.9149325119964007E-01 
    8.9148674522327531E-01 
    8.7810423960148787E-01 
    8.7812269450596259E-01 
    8.9147669809955066E-01 
    8.9146268436007736E-01 
    8.7814620098066198E-01 
    8.7817377839679800E-01 
    8.9144415210149797E-01 
    8.9142035915911577E-01 
    8.7820410894710732E-01 
    8.7823561180220089E-01 
    8.9139034799007588E-01 
    8.9135322672151429E-01 
    8.7826629977861859E-01 
    8.7829423550001329E-01 
    8.9130794973009519E-01 
    8.9125346858135934E-01 
    8.7831731490107146E-01 
    8.7833297055893800E-01 
    8.9118798368663699E-01 
    8.9111003724370030E-01 
    8.7833846997389209E-01 
    8.7833123323872242E-01 
    8.9101798518650366E-01 
    8.9091081616152257E-01 
    8.7830844121049745E-01 
    8.7826810283226509E-01 
    8.9078739016156916E-01 
    8.9064843340083544E-01 
    8.7820995278882596E-01 
    8.7813429277091659E-01 
    8.9049435178333092E-01 
    8.9032647827814781E-01 
    8.7804143521191214E-01 
    8.7793249395243467E-01 
    8.9014587914288978E-01 
    8.8995456727024425E-01 
    8.7780892135142652E-01 
    8.7767305845737009E-01 
    8.8975430715027570E-01 
    8.8954789776129006E-01 
    8.7752750231335097E-01 
    8.7737396332067619E-01 
    8.8933656347001389E-01 
    8.8912155196073794E-01 
    8.7721317950934785E-01 
    8.7704628710476251E-01 
    8.8890392954884445E-01 
    8.8868545192858839E-01 
    8.7687467968375132E-01 
    8.7670007642684300E-01 
    8.8846756409584349E-01 
    8.8825211056914122E-01 
    8.7652424607638979E-01 
    8.7634881343755422E-01 
    8.8804043278000033E-01 
    8.8783444067066197E-01 
    8.7617520086331624E-01 
    8.7600683511439892E-01 
    8.8763764718519700E-01 
    8.8745389753667370E-01 
    8.7584727174215571E-01 
    8.7569972630829762E-01 
    8.8728683330256430E-01 
    8.8713918555161331E-01 
    8.7556708389104099E-01 
    8.7545129570624869E-01 
    8.8701043357972709E-01 
    8.8689703738986148E-01 
    8.7534426297471390E-01 
    8.7525791587524504E-01 
    8.8681395118383854E-01 
    8.8676949170628794E-01 
    8.7520579833373968E-01 
    8.7518182221598351E-01 
    8.8676080763662879E-01 
    8.6307370500241332E-01 
    8.4507304013464524E-01 
    8.4506616119048683E-01 
    8.6307794539295701E-01 
    8.6308714876314074E-01 
    8.4505223659548012E-01 
    8.4503171032971203E-01 
    8.6310141192097745E-01 
    8.6312079312261514E-01 
    8.4500493853796921E-01 
    8.4497272463367556E-01 
    8.6314477929105238E-01 
    8.6317293379385085E-01 
    8.4493571989555860E-01 
    8.4489460084233758E-01 
    8.6320420810763132E-01 
    8.6323718247913039E-01 
    8.4484911674242102E-01 
    8.4479968864235322E-01 
    8.6327019472639421E-01 
    8.6330086291663222E-01 
    8.4474719201971937E-01 
    8.4469347708266251E-01 
    8.6332695372526236E-01 
    8.6334645364915807E-01 
    8.4463971518115155E-01 
    8.4458698348276695E-01 
    8.6335708726741722E-01 
    8.6335621036961108E-01 
    8.4453510664992060E-01 
    8.4448438506132628E-01 
    8.6334160050138697E-01 
    8.6331576522594611E-01 
    8.4443441915803408E-01 
    8.4438583202850181E-01 
    8.6327603616988058E-01 
    8.6322243215654859E-01 
    8.4433834261947305E-01 
    8.4429221501728646E-01 
    8.6315546052637115E-01 
    8.6307644482718626E-01 
    8.4424683510142262E-01 
    8.4420236380470259E-01 
    8.6298750208987907E-01 
    8.6289134921372823E-01 
    8.4415767192024027E-01 
    8.4411239654713199E-01 
    8.6279338254690863E-01 
    8.6269101685781180E-01 
    8.4406647049807393E-01 
    8.4402063893051127E-01 
    8.6258418834376138E-01 
    8.6247348397099100E-01 
    8.4397477566670887E-01 
    8.4392959052318328E-01 
    8.6235996076107424E-01 
    8.6224520871816246E-01 
    8.4388515850331758E-01 
    8.4384235558538123E-01 
    8.6213074307180604E-01 
    8.6201456660055642E-01 
    8.4380073126443222E-01 
    8.4376093780943462E-01 
    8.6189911073971459E-01 
    8.6178693305845244E-01 
    8.4372289591047600E-01 
    8.4368743621334397E-01 
    8.6168040417118197E-01 
    8.6158173633664681E-01 
    8.4365491369884804E-01 
    8.4362506756641020E-01 
    8.6149239512568887E-01 
    8.6140595871184888E-01 
    8.4359227530312730E-01 
    8.4355841927180042E-01 
    8.6132899358521897E-01 
    8.6127329861530122E-01 
    8.4353258245919127E-01 
    8.4351517236935347E-01 
    8.6123518357771578E-01 
    8.2513495442062590E-01 
    8.0635194975080693E-01 
    8.0634571796890486E-01 
    8.2511758472058649E-01 
    8.2508341789949968E-01 
    8.0633344471195312E-01 
    8.0631524942818888E-01 
    8.2503347064776822E-01 
    8.2496887088284943E-01 
    8.0629147364401299E-01 
    8.0626245435408372E-01 
    8.2489122848533591E-01 
    8.2480228221674012E-01 
    8.0622889944729514E-01 
    8.0619120958708124E-01 
    8.2470385012732106E-01 
    8.2459723071872348E-01 
    8.0614995136035250E-01 
    8.0610630346403700E-01 
    8.2448455670981680E-01 
    8.2437054135904775E-01 
    8.0606236277612209E-01 
    8.0601946701057225E-01 
    8.2425824277126281E-01 
    8.2415046920317780E-01 
    8.0597968744361348E-01 
    8.0594391136097954E-01 
    8.2404978243304028E-01 
    8.2395770050116346E-01 
    8.0591358877499908E-01 
    8.0589036455208840E-01 
    8.2387688049425734E-01 
    8.2380668623807962E-01 
    8.0587564634083730E-01 
    8.0586916307553302E-01 
    8.2374957572371910E-01 
    8.2370545245977955E-01 
    8.0587147598019615E-01 
    8.0588182104805206E-01 
    8.2367429902760958E-01 
    8.2365516511160042E-01 
    8.0590029232107796E-01 
    8.0592536909341261E-01 
    8.2364703523947391E-01 
    8.2364727700735163E-01 
    8.0595619480614034E-01 
    8.0599138175561247E-01 
    8.2365162890544175E-01 
    8.2366152419968597E-01 
    8.0603037544236311E-01 
    8.0607255287494051E-01 
    8.2367719100592651E-01 
    8.2369786238341469E-01 
    8.0611805996285224E-01 
    8.0616596230771698E-01 
    8.2372311903308459E-01 
    8.2375185653113892E-01 
    8.0621619350028340E-01 
    8.0626797344849110E-01 
    8.2378372047781856E-01 
    8.2381944449222466E-01 
    8.0632134439498004E-01 
    8.0637444261148128E-01 
    8.2385713139959826E-01 
    8.2389464041430494E-01 
    8.0642634348759534E-01 
    8.0647547246482043E-01 
    8.2393068644291512E-01 
    8.2396390259069663E-01 
    8.0651963360304746E-01 
    8.0655177711034265E-01 
    8.2399100704272910E-01 
    8.2401115794709823E-01 
    8.0656984940331022E-01 
    8.0658487728151707E-01 
    8.2403036487555070E-01 
    8.2405056887088513E-01 
    8.0660043348094546E-01 
    8.0661308347726468E-01 
    8.2407063933809166E-01 
    7.8805789444126018E-01 
    7.6923203888877678E-01 
    7.6926978110598321E-01 
    7.8807325199825129E-01 
    7.8810296218716447E-01 
    7.6934406786922782E-01 
    7.6945271514037983E-01 
    7.8814636867515986E-01 
    7.8820193497711522E-01 
    7.6959330471103893E-01 
    7.6976246230853818E-01 
    7.8826852227217581E-01 
    7.8834411114048286E-01 
    7.6995657537099405E-01 
    7.7017154779748309E-01 
    7.8842693290172772E-01 
    7.8851519709902629E-01 
    7.7040317884857923E-01 
    7.7064787586135297E-01 
    7.8860822641417816E-01 
    7.8870505137751468E-01 
    7.7090240183255176E-01 
    7.7116241636335714E-01 
    7.8880469827249100E-01 
    7.8890579017948492E-01 
    7.7142403679207006E-01 
    7.7168419894900731E-01 
    7.8900714260698579E-01 
    7.8910866853106620E-01 
    7.7193986352529564E-01 
    7.7218776613822504E-01 
    7.8921026441330355E-01 
    7.8931106236129744E-01 
    7.7242541535049303E-01 
    7.7265101578263584E-01 
    7.8941032516818654E-01 
    7.8950731216356218E-01 
    7.7286247800668173E-01 
    7.7305779303251199E-01 
    7.8960106293242793E-01 
    7.8969080267071845E-01 
    7.7323533332012595E-01 
    7.7339411306662253E-01 
    7.8977537747045756E-01 
    7.8985432122363197E-01 
    7.7353380115958281E-01 
    7.7365436086650308E-01 
    7.8992709210727252E-01 
    7.8999362872212731E-01 
    7.7375607200509466E-01 
    7.7383993261516004E-01 
    7.9005419272323518E-01 
    7.9010953387807648E-01 
    7.7390700401301538E-01 
    7.7395866084083864E-01 
    7.9015987992087822E-01 
    7.9020605355221607E-01 
    7.7399703731194081E-01 
    7.7402392450595248E-01 
    7.9024830271807323E-01 
    7.9028728136951798E-01 
    7.7404088627368128E-01 
    7.7404938759905828E-01 
    7.9032275709393263E-01 
    7.9035493502613952E-01 
    7.7405061433064970E-01 
    7.7404525688418446E-01 
    7.9038321041099302E-01 
    7.9040621398392730E-01 
    7.7403439317238665E-01 
    7.7401975336749440E-01 
    7.9042072705256994E-01 
    7.9042565171067047E-01 
    7.7400366197299930E-01 
    7.7398716303580550E-01 
    7.9042652968819360E-01 
    7.9042599039142458E-01 
    7.7396956269401229E-01 
    7.7395053493876642E-01 
    7.9042313531845254E-01 
    7.4935702819013161E-01 
    7.2713900140143506E-01 
    7.2717982816569249E-01 
    7.4941007759439904E-01 
    7.4951444143646095E-01 
    7.2726106725262885E-01 
    7.2738099464578765E-01 
    7.4966763442522122E-01 
    7.4986644690670434E-01 
    7.2753799529664875E-01 
    7.2773047072948549E-01 
    7.5010731065711878E-01 
    7.5038622118971399E-01 
    7.2795595400401658E-01 
    7.2820886607857427E-01 
    7.5069729563878085E-01 
    7.5103445043885664E-01 
    7.2848480900892953E-01 
    7.2878522802274925E-01 
    7.5139289810319465E-01 
    7.5176794173586736E-01 
    7.2910846376974969E-01 
    7.2944833840555845E-01 
    7.5215230581888259E-01 
    7.5254043896970391E-01 
    7.2979877246819935E-01 
    7.3015590793276430E-01 
    7.5292731816767489E-01 
    7.5330799736289744E-01 
    7.3051431809784706E-01 
    7.3086996120457293E-01 
    7.5367688111669506E-01 
    7.5403135903245999E-01 
    7.3122283498927965E-01 
    7.3156597452031713E-01 
    7.5436769583101659E-01 
    7.5468301037116181E-01 
    7.3189330246826356E-01 
    7.3219596736862902E-01 
    7.5497202730799085E-01 
    7.5523076780115417E-01 
    7.3245782256871061E-01 
    7.3267441279217072E-01 
    7.5545561012064910E-01 
    7.5564687420325460E-01 
    7.3284949583725423E-01 
    7.3298955181996028E-01 
    7.5580455811459102E-01 
    7.5593051465341732E-01 
    7.3309281638224166E-01 
    7.3316224948274400E-01 
    7.5602496204497582E-01 
    7.5608915916147001E-01 
    7.3319967546140663E-01 
    7.3320610861913238E-01 
    7.5612371654103860E-01 
    7.5613434944793334E-01 
    7.3318033062769605E-01 
    7.3312413672760712E-01 
    7.5612460148452598E-01 
    7.5609811326778376E-01 
    7.3303577455672753E-01 
    7.3291795997505715E-01 
    7.5605721103165957E-01 
    7.5600501422663791E-01 
    7.3277206853621601E-01 
    7.3260076183504241E-01 
    7.5594279882361270E-01 
    7.5587418614586555E-01 
    7.3240633261642207E-01 
    7.3219906803909329E-01 
    7.5579841451744345E-01 
    7.5572344316820594E-01 
    7.3201941335890575E-01 
    7.3187966905977708E-01 
    7.5565615250041585E-01 
    7.5559547406051508E-01 
    7.3176504183850832E-01 
    7.3167440022668206E-01 
    7.5554036502130073E-01 
    7.0006992300974136E-01 
    6.7082510534777728E-01 
    6.7077388704019880E-01 
    7.0006277507090142E-01 
    7.0004851880464636E-01 
    6.7067304958184748E-01 
    6.7052544532697445E-01 
    7.0002755566890862E-01 
    7.0000067448696790E-01 
    6.7033427349325614E-01 
    6.7010358221429445E-01 
    6.9996921962827097E-01 
    6.9993442346065560E-01 
    6.6983805826688803E-01 
    6.6954282283204569E-01 
    6.9989615974642927E-01 
    6.9985393737307589E-01 
    6.6922381906342299E-01 
    6.6888305965651385E-01 
    6.9981048768247778E-01 
    6.9977119589089465E-01 
    6.6852657903561230E-01 
    6.6816133368176855E-01 
    6.9974096763246296E-01 
    6.9972063862821654E-01 
    6.6779399720310040E-01 
    6.6743096898526189E-01 
    6.9971096600420901E-01 
    6.9971107064721672E-01 
    6.6707706821534329E-01 
    6.6673456821307664E-01 
    6.9971991623867114E-01 
    6.9973367093183769E-01 
    6.6639889302808952E-01 
    6.6607194106608947E-01 
    6.9974925461354542E-01 
    6.9976040919527205E-01 
    6.6574883932122009E-01 
    6.6540693067596868E-01 
    6.9975649208003554E-01 
    6.9972961770779574E-01 
    6.6508641048071604E-01 
    6.6482197946134203E-01 
    6.9969291074195727E-01 
    6.9965336606557793E-01 
    6.6459248964263684E-01 
    6.6439163358672348E-01 
    6.9961264307481663E-01 
    6.9957060395733672E-01 
    6.6422315436167279E-01 
    6.6408616831434364E-01 
    6.9953011493779815E-01 
    6.9949283523101147E-01 
    6.6397849489448191E-01 
    6.6389788071037348E-01 
    6.9945859032556723E-01 
    6.9942080050091182E-01 
    6.6384591063126053E-01 
    6.6381986868041643E-01 
    6.9937666278784916E-01 
    6.9932269055721663E-01 
    6.6382198450038621E-01 
    6.6384960147036576E-01 
    6.9925785950763208E-01 
    6.9918087516150451E-01 
    6.6390013371270939E-01 
    6.6397140476396710E-01 
    6.9909372444148032E-01 
    6.9899932771763562E-01 
    6.6406151092593513E-01 
    6.6416184934402855E-01 