# vtk DataFile Version 2.0
Pressure Field Data 
ASCII 
DATASET UNSTRUCTURED_GRID 

POINTS 1681 double 

    0.0000000000000000E+00     0.0000000000000000E+00     0.0000000000000000E+00 
    1.0000000000000000E+00     0.0000000000000000E+00     0.0000000000000000E+00 
    1.0000000000000000E+00     1.0000000000000000E+00     0.0000000000000000E+00 
    0.0000000000000000E+00     1.0000000000000000E+00     0.0000000000000000E+00 
    5.2499999999875258E-01     0.0000000000000000E+00     0.0000000000000000E+00 
    7.4999999999856765E-02     0.0000000000000000E+00     0.0000000000000000E+00 
    1.2499999999975850E-01     0.0000000000000000E+00     0.0000000000000000E+00 
    1.7499999999962990E-01     0.0000000000000000E+00     0.0000000000000000E+00 
    2.2499999999948389E-01     0.0000000000000000E+00     0.0000000000000000E+00 
    2.7499999999933789E-01     0.0000000000000000E+00     0.0000000000000000E+00 
    3.2499999999919210E-01     0.0000000000000000E+00     0.0000000000000000E+00 
    3.7499999999904610E-01     0.0000000000000000E+00     0.0000000000000000E+00 
    4.2499999999890020E-01     0.0000000000000000E+00     0.0000000000000000E+00 
    4.7499999999875958E-01     0.0000000000000000E+00     0.0000000000000000E+00 
    2.4999999999949701E-02     0.0000000000000000E+00     0.0000000000000000E+00 
    5.7499999999887907E-01     0.0000000000000000E+00     0.0000000000000000E+00 
    6.2499999999901101E-01     0.0000000000000000E+00     0.0000000000000000E+00 
    6.7499999999914273E-01     0.0000000000000000E+00     0.0000000000000000E+00 
    7.2499999999927467E-01     0.0000000000000000E+00     0.0000000000000000E+00 
    7.7499999999940661E-01     0.0000000000000000E+00     0.0000000000000000E+00 
    8.2499999999953844E-01     0.0000000000000000E+00     0.0000000000000000E+00 
    8.7499999999967026E-01     0.0000000000000000E+00     0.0000000000000000E+00 
    9.2499999999980220E-01     0.0000000000000000E+00     0.0000000000000000E+00 
    9.7499999999993414E-01     0.0000000000000000E+00     0.0000000000000000E+00 
    5.4999999999881310E-01     0.0000000000000000E+00     0.0000000000000000E+00 
    9.9999999999814140E-02     0.0000000000000000E+00     0.0000000000000000E+00 
    1.4999999999970290E-01     0.0000000000000000E+00     0.0000000000000000E+00 
    1.9999999999955689E-01     0.0000000000000000E+00     0.0000000000000000E+00 
    2.4999999999941089E-01     0.0000000000000000E+00     0.0000000000000000E+00 
    2.9999999999926502E-01     0.0000000000000000E+00     0.0000000000000000E+00 
    3.4999999999911913E-01     0.0000000000000000E+00     0.0000000000000000E+00 
    3.9999999999897312E-01     0.0000000000000000E+00     0.0000000000000000E+00 
    4.4999999999882723E-01     0.0000000000000000E+00     0.0000000000000000E+00 
    4.9999999999869210E-01     0.0000000000000000E+00     0.0000000000000000E+00 
    4.9999999999899403E-02     0.0000000000000000E+00     0.0000000000000000E+00 
    5.9999999999894504E-01     0.0000000000000000E+00     0.0000000000000000E+00 
    6.4999999999907687E-01     0.0000000000000000E+00     0.0000000000000000E+00 
    6.9999999999920870E-01     0.0000000000000000E+00     0.0000000000000000E+00 
    7.4999999999934064E-01     0.0000000000000000E+00     0.0000000000000000E+00 
    7.9999999999947247E-01     0.0000000000000000E+00     0.0000000000000000E+00 
    8.4999999999960441E-01     0.0000000000000000E+00     0.0000000000000000E+00 
    8.9999999999973623E-01     0.0000000000000000E+00     0.0000000000000000E+00 
    9.4999999999986817E-01     0.0000000000000000E+00     0.0000000000000000E+00 
    1.0000000000000000E+00     5.2499999999875258E-01     0.0000000000000000E+00 
    1.0000000000000000E+00     7.4999999999856765E-02     0.0000000000000000E+00 
    1.0000000000000000E+00     1.2499999999975850E-01     0.0000000000000000E+00 
    1.0000000000000000E+00     1.7499999999962990E-01     0.0000000000000000E+00 
    1.0000000000000000E+00     2.2499999999948389E-01     0.0000000000000000E+00 
    1.0000000000000000E+00     2.7499999999933789E-01     0.0000000000000000E+00 
    1.0000000000000000E+00     3.2499999999919210E-01     0.0000000000000000E+00 
    1.0000000000000000E+00     3.7499999999904610E-01     0.0000000000000000E+00 
    1.0000000000000000E+00     4.2499999999890020E-01     0.0000000000000000E+00 
    1.0000000000000000E+00     4.7499999999875958E-01     0.0000000000000000E+00 
    1.0000000000000000E+00     2.4999999999949701E-02     0.0000000000000000E+00 
    1.0000000000000000E+00     5.7499999999887907E-01     0.0000000000000000E+00 
    1.0000000000000000E+00     6.2499999999901101E-01     0.0000000000000000E+00 
    1.0000000000000000E+00     6.7499999999914273E-01     0.0000000000000000E+00 
    1.0000000000000000E+00     7.2499999999927467E-01     0.0000000000000000E+00 
    1.0000000000000000E+00     7.7499999999940661E-01     0.0000000000000000E+00 
    1.0000000000000000E+00     8.2499999999953844E-01     0.0000000000000000E+00 
    1.0000000000000000E+00     8.7499999999967026E-01     0.0000000000000000E+00 
    1.0000000000000000E+00     9.2499999999980220E-01     0.0000000000000000E+00 
    1.0000000000000000E+00     9.7499999999993414E-01     0.0000000000000000E+00 
    1.0000000000000000E+00     5.4999999999881310E-01     0.0000000000000000E+00 
    1.0000000000000000E+00     9.9999999999814140E-02     0.0000000000000000E+00 
    1.0000000000000000E+00     1.4999999999970290E-01     0.0000000000000000E+00 
    1.0000000000000000E+00     1.9999999999955689E-01     0.0000000000000000E+00 
    1.0000000000000000E+00     2.4999999999941089E-01     0.0000000000000000E+00 
    1.0000000000000000E+00     2.9999999999926502E-01     0.0000000000000000E+00 
    1.0000000000000000E+00     3.4999999999911913E-01     0.0000000000000000E+00 
    1.0000000000000000E+00     3.9999999999897312E-01     0.0000000000000000E+00 
    1.0000000000000000E+00     4.4999999999882723E-01     0.0000000000000000E+00 
    1.0000000000000000E+00     4.9999999999869210E-01     0.0000000000000000E+00 
    1.0000000000000000E+00     4.9999999999899403E-02     0.0000000000000000E+00 
    1.0000000000000000E+00     5.9999999999894504E-01     0.0000000000000000E+00 
    1.0000000000000000E+00     6.4999999999907687E-01     0.0000000000000000E+00 
    1.0000000000000000E+00     6.9999999999920870E-01     0.0000000000000000E+00 
    1.0000000000000000E+00     7.4999999999934064E-01     0.0000000000000000E+00 
    1.0000000000000000E+00     7.9999999999947247E-01     0.0000000000000000E+00 
    1.0000000000000000E+00     8.4999999999960441E-01     0.0000000000000000E+00 
    1.0000000000000000E+00     8.9999999999973623E-01     0.0000000000000000E+00 
    1.0000000000000000E+00     9.4999999999986817E-01     0.0000000000000000E+00 
    4.7500000000196618E-01     1.0000000000000000E+00     0.0000000000000000E+00 
    9.2499999999968763E-01     1.0000000000000000E+00     0.0000000000000000E+00 
    8.7499999999961831E-01     1.0000000000000000E+00     0.0000000000000000E+00 
    8.2499999999982654E-01     1.0000000000000000E+00     0.0000000000000000E+00 
    7.7500000000017355E-01     1.0000000000000000E+00     0.0000000000000000E+00 
    7.2500000000052045E-01     1.0000000000000000E+00     0.0000000000000000E+00 
    6.7500000000086724E-01     1.0000000000000000E+00     0.0000000000000000E+00 
    6.2500000000121403E-01     1.0000000000000000E+00     0.0000000000000000E+00 
    5.7500000000156093E-01     1.0000000000000000E+00     0.0000000000000000E+00 
    5.2500000000189684E-01     1.0000000000000000E+00     0.0000000000000000E+00 
    9.7499999999989595E-01     1.0000000000000000E+00     0.0000000000000000E+00 
    4.2500000000176902E-01     1.0000000000000000E+00     0.0000000000000000E+00 
    3.7500000000156092E-01     1.0000000000000000E+00     0.0000000000000000E+00 
    3.2500000000135282E-01     1.0000000000000000E+00     0.0000000000000000E+00 
    2.7500000000114472E-01     1.0000000000000000E+00     0.0000000000000000E+00 
    2.2500000000093659E-01     1.0000000000000000E+00     0.0000000000000000E+00 
    1.7500000000072849E-01     1.0000000000000000E+00     0.0000000000000000E+00 
    1.2500000000052039E-01     1.0000000000000000E+00     0.0000000000000000E+00 
    7.5000000000312261E-02     1.0000000000000000E+00     0.0000000000000000E+00 
    2.5000000000104109E-02     1.0000000000000000E+00     0.0000000000000000E+00 
    4.5000000000187301E-01     1.0000000000000000E+00     0.0000000000000000E+00 
    8.9999999999958358E-01     1.0000000000000000E+00     0.0000000000000000E+00 
    8.4999999999965303E-01     1.0000000000000000E+00     0.0000000000000000E+00 
    8.0000000000000004E-01     1.0000000000000000E+00     0.0000000000000000E+00 
    7.5000000000034706E-01     1.0000000000000000E+00     0.0000000000000000E+00 
    7.0000000000069384E-01     1.0000000000000000E+00     0.0000000000000000E+00 
    6.5000000000104063E-01     1.0000000000000000E+00     0.0000000000000000E+00 
    6.0000000000138742E-01     1.0000000000000000E+00     0.0000000000000000E+00 
    5.5000000000173432E-01     1.0000000000000000E+00     0.0000000000000000E+00 
    5.0000000000205946E-01     1.0000000000000000E+00     0.0000000000000000E+00 
    9.4999999999979179E-01     1.0000000000000000E+00     0.0000000000000000E+00 
    4.0000000000166491E-01     1.0000000000000000E+00     0.0000000000000000E+00 
    3.5000000000145681E-01     1.0000000000000000E+00     0.0000000000000000E+00 
    3.0000000000124871E-01     1.0000000000000000E+00     0.0000000000000000E+00 
    2.5000000000104061E-01     1.0000000000000000E+00     0.0000000000000000E+00 
    2.0000000000083251E-01     1.0000000000000000E+00     0.0000000000000000E+00 
    1.5000000000062441E-01     1.0000000000000000E+00     0.0000000000000000E+00 
    1.0000000000041630E-01     1.0000000000000000E+00     0.0000000000000000E+00 
[...]
CELL_DATA 1600 
SCALARS Pressure double 1 
LOOKUP_TABLE default 

    1.0610446133665039E+00 
    1.0418325984089998E+00 
    1.0417399261319487E+00 
    1.0591720987934603E+00 
    1.0574624907496022E+00 
    1.0415726937756438E+00 
    1.0413448852700933E+00 
    1.0558910857604193E+00 
    1.0544464052177656E+00 
    1.0410693983513275E+00 
    1.0407566857866783E+00 
    1.0531174362948648E+00 
    1.0518949494284282E+00 
    1.0404165850376712E+00 
    1.0400568475102043E+00 
    1.0507715585902939E+00 
    1.0497406789629928E+00 
    1.0396843474620598E+00 
    1.0393045266032781E+00 
    1.0487956644490608E+00 
    1.0479309148835796E+00 
    1.0389235108892405E+00 
    1.0385460407241520E+00 
    1.0471421845361573E+00 
    1.0464257685466747E+00 
    1.0381767269125379E+00 
    1.0378187295888124E+00 
    1.0457780650161794E+00 
    1.0451952858343714E+00 
    1.0374747841049954E+00 
    1.0371471876489071E+00 
    1.0446745783820521E+00 
    1.0442124138794413E+00 
    1.0368383161931294E+00 
    1.0365491752066636E+00 
    1.0438053642658232E+00 
    1.0434494662318630E+00 
    1.0362804278654938E+00 
    1.0360320556846290E+00 
    1.0431406330362332E+00 
    1.0428741298914568E+00 
    1.0358032463200997E+00 
    1.0355929337004692E+00 
    1.0426454558950373E+00 
    1.0424504129236811E+00 
    1.0354000533978127E+00 
    1.0352255440375240E+00 
    1.0422875625849282E+00 
    1.0421555018894291E+00 
    1.0350697423917714E+00 
    1.0349295127878804E+00 
    1.0420453555939750E+00 
    1.0419535086260929E+00 
    1.0347964210523326E+00 
    1.0346772538008100E+00 
    1.0418886235953135E+00 
    1.0418498431635348E+00 
    1.0345783753922888E+00 
    1.0344959754978269E+00 
    1.0418283929218211E+00 
    1.0418179394864118E+00 
    1.0344292112393372E+00 
    1.0343747274310318E+00 
    1.0418123897324743E+00 
    1.0418068838867978E+00 
    1.0343281753796008E+00 
    1.0342871161769620E+00 
    1.0417968219525635E+00 
    1.0417791209041161E+00 
    1.0342481988614618E+00 
    1.0342102904702075E+00 
    1.0417509041078281E+00 
    1.0417110087119343E+00 
    1.0341712520726905E+00 
    1.0341313387126336E+00 
    1.0416584250614673E+00 
    1.0415939526557221E+00 
    1.0340897342037980E+00 
    1.0340480551984270E+00 
    1.0415184936811490E+00 
    1.0299187261304099E+00 
    1.0180243327380769E+00 
    1.0179933730945658E+00 
    1.0298819843704390E+00 
    1.0298097454044297E+00 
    1.0179319830056828E+00 
    1.0178411244924217E+00 
    1.0297032751470383E+00 
    1.0295647285234168E+00 
    1.0177216643560081E+00 
    1.0175750632265179E+00 
    1.0293963876530781E+00 
    1.0292013163870382E+00 
    1.0174027014752993E+00 
    1.0172064197336170E+00 
    1.0289823156720157E+00 
    1.0287422764765826E+00 
    1.0169878388784130E+00 
    1.0167484339990471E+00 
    1.0284837702673353E+00 
    1.0282103470237824E+00 
    1.0164901275643599E+00 
    1.0162151131181782E+00 
    1.0279252292105814E+00 
    1.0276317935413783E+00 
    1.0159256704633364E+00 
    1.0156239636931279E+00 
    1.0273328463452254E+00 
    1.0270308734598834E+00 
    1.0153119880109014E+00 
    1.0149915170565182E+00 
    1.0267282833060540E+00 
    1.0264273334008807E+00 
    1.0146644119568127E+00 
    1.0143321669499319E+00 
    1.0261297396369169E+00 
    1.0258369793846616E+00 
    1.0139965087626435E+00 
    1.0136589875881032E+00 
    1.0255503084053741E+00 
    1.0252702632547468E+00 
    1.0133210729282269E+00 
    1.0129837261134449E+00 
    1.0249972737972979E+00 
    1.0247318505880163E+00 
    1.0126483554278651E+00 
    1.0123168078613849E+00 
    1.0244759151997058E+00 
    1.0242311244641289E+00 
    1.0119911219527253E+00 
    1.0116729614715210E+00 
    1.0239979668121828E+00 
    1.0237671986608428E+00 
    1.0113607210512450E+00 
    1.0110578242263293E+00 
    1.0235448079924021E+00 
    1.0233518358962599E+00 
    1.0107756529682868E+00 
    1.0105174064246558E+00 
    1.0231835648669130E+00 
    1.0230298788484671E+00 
    1.0102802865282292E+00 
    1.0100669001661879E+00 
    1.0228915873555533E+00 
    1.0227716912867462E+00 
    1.0098782429566124E+00 
    1.0097137057185392E+00 
    1.0226689357917083E+00 
    1.0225819045745219E+00 
    1.0095754869173039E+00 
    1.0094637327358558E+00 
    1.0225099616768965E+00 
    1.0224523100727656E+00 
    1.0093788505737358E+00 
    1.0093212352140999E+00 
    1.0224090015308378E+00 
    1.0223799278310814E+00 
    1.0092913070485547E+00 
    1.0092894892218904E+00 
    1.0223658455415536E+00 
    1.0050679085473868E+00 
    9.9077685297303042E-01 
    9.9076367998706238E-01 
    1.0050427944291065E+00 
    1.0049930117671100E+00 
    9.9073712755447074E-01 
    9.9069727924574191E-01 
    1.0049189395716738E+00 
    1.0048213262210364E+00 
    9.9064372730689365E-01 
    9.9057629155682436E-01 
    1.0047007988762400E+00 
    1.0045580155887235E+00 
    9.9049432564245887E-01 
    9.9039787187107375E-01 
    1.0043938364402110E+00 
    1.0042094305911755E+00 
    9.9028660036578819E-01 
    9.9015982294625204E-01 
    1.0040051473127705E+00 
    1.0037818065216617E+00 
    9.9001672305343580E-01 
    9.8985663162246307E-01 
    1.0035401094232805E+00 
    1.0032812072260375E+00 
    9.8967880933901442E-01 
    9.8948316428050453E-01 
    1.0030062254321723E+00 
    1.0027166653726800E+00 
    9.8926972144497827E-01 
    9.8903846641505622E-01 
    1.0024135243418633E+00 
    1.0020982120618183E+00 
    9.8878988234495468E-01 
    9.8852462370604721E-01 
    1.0017717949631868E+00 
    1.0014358475914888E+00 
    9.8824370276148854E-01 
    9.8794866533979520E-01 
    1.0010920594470030E+00 
    1.0007423354309524E+00 
    9.8764139278714014E-01 
    9.8732394171130944E-01 
    1.0003882849787702E+00 
    1.0000319885222801E+00 
    9.8699898946952891E-01 
    9.8666873692902413E-01 
    9.9967550163302510E-01 
    9.9932075423664379E-01 
    9.8633530707124117E-01 
    9.8600095892299922E-01 
    9.9896986283591693E-01 
    9.9862500746963734E-01 
    9.8566848323720468E-01 
    9.8534066412564925E-01 
    9.9828849837269706E-01 
    9.9796168807169983E-01 
    9.8502064218329966E-01 
    9.8471137335060044E-01 
    9.9765059354277574E-01 
    9.9736028710067581E-01 
    9.8441440246435807E-01 
    9.8413090063384745E-01 
    9.9709000478175869E-01 
    9.9684077221626521E-01 
    9.8385944846389661E-01 
    9.8360443051297375E-01 
    9.9662252786304084E-01 
    9.9644037026419674E-01 
    9.8338822113991342E-01 
    9.8321642659905018E-01 
    9.9629355580905676E-01 
    9.9618246368332941E-01 
    9.8308599045610578E-01 
    9.8299762232409760E-01 
    9.9610837249767548E-01 
    9.9607147670990581E-01 
    9.8295219020787861E-01 
    9.8294915611574818E-01 
    9.9607242415462816E-01 
    9.7500659363283559E-01 
    9.5761358661113594E-01 
    9.5763361316375062E-01 
    9.7501029913843817E-01 
    9.7501713155582925E-01 
    9.5767297128314699E-01 
    9.5773031650403628E-01 
    9.7502641619407626E-01 
    9.7503684648176081E-01 
    9.5780390433650231E-01 
    9.5789143117231945E-01 
    9.7504703053139274E-01 
    9.7505520853678895E-01 
    9.5799015157996004E-01 
    9.5809636094897699E-01 
    9.7505947061119891E-01 
    9.7505752940953150E-01 
    9.5820567789732114E-01 
    9.5831420097684761E-01 
    9.7504687441753068E-01 
    9.7502547390620731E-01 
    9.5841868376035166E-01 
    9.5851522839950964E-01 
    9.7499064806841940E-01 
    9.7494008605191895E-01 
    9.5859957381487970E-01 
    9.5866725515003537E-01 
    9.7487125656419660E-01 
    9.7478234642467876E-01 
    9.5871323881042003E-01 
    9.5873381735542784E-01 
    9.7467116354891015E-01 
    9.7453771996968253E-01 
    9.5872766394994136E-01 
    9.5869393236598066E-01 
    9.7438135092863154E-01 
    9.7420279456710945E-01 
    9.5863194599510093E-01 
    9.5854233467748551E-01 
    9.7400261507676900E-01 
    9.7378292339157502E-01 
    9.5842623354052214E-01 
    9.5828623679263503E-01 
    9.7354556365220912E-01 
    9.7329394164907801E-01 
    9.5812533868097427E-01 
    9.5794617554205830E-01 
    9.7303001425526958E-01 
    9.7275611190908717E-01 
    9.5775023182873398E-01 
    9.5753983968576561E-01 
    9.7247434886184647E-01 
    9.7218810097393138E-01 
    9.5731773710947787E-01 
    9.5708747857754661E-01 
    9.7190033316432234E-01 
    9.7161467125051426E-01 
    9.5685284888084721E-01 
    9.5661777414270055E-01 
    9.7133436174422694E-01 
    9.7106301054541144E-01 
    9.5638508785030618E-01 
    9.5615930363901125E-01 
    9.7080430569640941E-01 
    9.7055571872654234E-01 
    9.5594067967212770E-01 
    9.5570631497155301E-01 
    9.7030123584132277E-01 
    9.7007122588851225E-01 
    9.5548125193956501E-01 
    9.5530398820172113E-01 
    9.6989293490697670E-01 
    9.6975534879899228E-01 
    9.5516243567225634E-01 
    9.5505690729639414E-01 
    9.6965937104430189E-01 
    9.6960524367219902E-01 
    9.5498758210617662E-01 
    9.5495297422981207E-01 
    9.6959228964249411E-01 
    9.3800128092211854E-01 
    9.1459718003068458E-01 
    9.1459882425659433E-01 
    9.3802096406573210E-01 
    9.3806057853251368E-01 
    9.1460189737414466E-01 
    9.1460664032871819E-01 
    9.3811969295074127E-01 
    9.3819742180967114E-01 
    9.1461342419620462E-01 
    9.1462282841314790E-01 
    9.3829222308944504E-01 
    9.3840216144884403E-01 
    9.1463550650529268E-01 
    9.1465167592519026E-01 
    9.3852428573888436E-01 
    9.3865451927019583E-01 
    9.1466978600080706E-01 
    9.1468898253218633E-01 
    9.3878923338348730E-01 
    9.3892514400281879E-01 
    9.1471093727906494E-01 
    9.1473882702670295E-01 
    9.3905899561411843E-01 
    9.3918755625974548E-01 
    9.1477542550650148E-01 
    9.1482368253687929E-01 
    9.3930628586741738E-01 
    9.3940860597847176E-01 
    9.1488255555869114E-01 
    9.1494889891001108E-01 
    9.3948944063229400E-01 
    9.3955068909885675E-01 
    9.1501842394061284E-01 
    9.1508504134996216E-01 
    9.3958757043552188E-01 
    9.3959855265698322E-01 
    9.1513903101372129E-01 
    9.1517497866550102E-01 
    9.3958308456336526E-01 
    9.3954189457089898E-01 
    9.1519024899636559E-01 
    9.1518470679462904E-01 
    9.3947697316462087E-01 
    9.3939160020229506E-01 
    9.1515826772067099E-01 
    9.1511276724221879E-01 
    9.3929306005133939E-01 
    9.3917890039528074E-01 
    9.1504820664291253E-01 
    9.1496433595695126E-01 
    9.3904948389365606E-01 
    9.3890589507766886E-01 
    9.1485936933094802E-01 
    9.1473416562930487E-01 
    9.3875040550454480E-01 
    9.3858729981031486E-01 
    9.1458980960481362E-01 
    9.1442750628904013E-01 
    9.3842082084718870E-01 
    9.3824868890476754E-01 
    9.1424494494323094E-01 
    9.1404350316523997E-01 
    9.3807110674504091E-01 
    9.3788000755569789E-01 
    9.1382303856054947E-01 
    9.1360234139830099E-01 
    9.3766131233409233E-01 
    9.3745154530963137E-01 
    9.1342018265491598E-01 
    9.1327857665639800E-01 
    9.3728154115531315E-01 
    9.3714014421153047E-01 
    9.1316449646148379E-01 
    9.1307614270894033E-01 
    9.3702704118215119E-01 
    9.3694180301841656E-01 
    9.1301130536010622E-01 
    9.1296842123312749E-01 
    9.3688277123052810E-01 
    8.8878080800444959E-01 
    8.6432888626298876E-01 
    8.6429513594168550E-01 
    8.8875418963516950E-01 
    8.8870196841540372E-01 
    8.6422832733098731E-01 
    8.6412942240951984E-01 
    8.8862546981742896E-01 
    8.8852669859941935E-01 
    8.6399997206701062E-01 
    8.6384187588729500E-01 
    8.8840815469473378E-01 
    8.8827299514104707E-01 
    8.6365765515328119E-01 
    8.6344953933826418E-01 
    8.8812375089754081E-01 
    8.8796279543273993E-01 
    8.6321901846208471E-01 
    8.6296618582058104E-01 
    8.8779298303696119E-01 
    8.8761961220553787E-01 
    8.6268938418599250E-01 
    8.6238276606435804E-01 
    8.8744665363165398E-01 
    8.8727852013567388E-01 
    8.6204283825903250E-01 
    8.6166862560588586E-01 
    8.8711872858051277E-01 
    8.8696842362325323E-01 
    8.6126349304233918E-01 
    8.6083287302324552E-01 
    8.8682516083523277E-01 
    8.8667420815311826E-01 
    8.6038109209902902E-01 
    8.5994223884926613E-01 
    8.8651321075335776E-01 
    8.8635267648261418E-01 
    8.5954742895758229E-01 
    8.5919448133947041E-01 
    8.8620238272298801E-01 
    8.8606375801345749E-01 
    8.5888516542990201E-01 
    8.5861884789518339E-01 
    8.8593720602981152E-01 
    8.8582069445466227E-01 
    8.5839420979730685E-01 
    8.5820645258614547E-01 
    8.8570808375932641E-01 
    8.8560002884584088E-01 
    8.5805267054556555E-01 
    8.5793198353596245E-01 
    8.8549647750027616E-01 
    8.8539700987009773E-01 
    8.5784511657165652E-01 
    8.5779031978083786E-01 
    8.8530222325415353E-01 
    8.8520971389166525E-01 
    8.5776544811134869E-01 
    8.5776745422653267E-01 
    8.8511635116435861E-01 
    8.8502334093420998E-01 
    8.5779494301742898E-01 
    8.5784213856434210E-01 
    8.8493431630444708E-01 
    8.8485945648263598E-01 
    8.5789965929499012E-01 
    8.5795775982919342E-01 
    8.8481080108566634E-01 
    8.8478530836923885E-01 
    8.5801245179150265E-01 
    8.5806176322920835E-01 
    8.8477302690853732E-01 
    8.8476918772815061E-01 
    8.5810503404802496E-01 
    8.5814149054787348E-01 
    8.8477254036984576E-01 
    8.8478211148368802E-01 
    8.5817137858500359E-01 
    8.5819494458995538E-01 
    8.8479794458122296E-01 
    8.3996869150159015E-01 
    8.1195711095621015E-01 
    8.1195245413861483E-01 
    8.3993567210131359E-01 
    8.3986929203235416E-01 
    8.1194189597665289E-01 
    8.1192389476776150E-01 
    8.3976944233849449E-01 
    8.3963580694628959E-01 
    8.1189655880776412E-01 
    8.1185796971074964E-01 
    8.3946837680030106E-01 
    8.3926697952568885E-01 
    8.1180595443721570E-01 
    8.1173858322871717E-01 
    8.3903168196580313E-01 
    8.3876174623169353E-01 
    8.1165505557102058E-01 
    8.1155824344442828E-01 
    8.3845852169715229E-01 
    8.3812627551622654E-01 
    8.1145467148120531E-01 
    8.1135317766700943E-01 
    8.3776734502986683E-01 
    8.3738727277050562E-01 
    8.1126331709510680E-01 
    8.1119079277430217E-01 
    8.3699793532325473E-01 
    8.3661183503582570E-01 
    8.1113452608638681E-01 
    8.1108878609947010E-01 
    8.3624122021036185E-01 
    8.3589764067592953E-01 
    8.1104685658443665E-01 
    8.1100433719793585E-01 
    8.3559447292603917E-01 
    8.3532900391237186E-01 
    8.1096036413230888E-01 
    8.1091513928463521E-01 
    8.3509103120941719E-01 
    8.3487905050388034E-01 
    8.1086943864400685E-01 
    8.1082362126706242E-01 
    8.3469231501576135E-01 
    8.3453011425176815E-01 
    8.1077855134776544E-01 
    8.1073380466233158E-01 
    8.3439095434431954E-01 
    8.3427307062733957E-01 
    8.1068934810692639E-01 
    8.1064544179388820E-01 
    8.3417543592532206E-01 
    8.3409689835285672E-01 
    8.1060265300250089E-01 
    8.1056091338444347E-01 
    8.3403571638195628E-01 
    8.3398995994451453E-01 
    8.1052038017853179E-01 
    8.1048115608979143E-01 
    8.3395769853221557E-01 
    8.3393712381575236E-01 
    8.1044354948447594E-01 
    8.1040771343238416E-01 
    8.3392583121225961E-01 
    8.3392163969283772E-01 
    8.1037401535689779E-01 
    8.1034249662262736E-01 
    8.3392226577838668E-01 
    8.3392594635429029E-01 
    8.1031340588686995E-01 
    8.1028681428901739E-01 
    8.3393110129309511E-01 
    8.3393677303579827E-01 
    8.1026299919038924E-01 
    8.1024217272555088E-01 
    8.3394223055104089E-01 
    8.3394740246552290E-01 
    8.1022475288392459E-01 
    8.1021115309054181E-01 
    8.3395246476992402E-01 
    7.8242195336207920E-01 
    7.5367159196753108E-01 
    7.5370837238434962E-01 
    7.8246407802950046E-01 
    7.8254657062632460E-01 
    7.5378101806641840E-01 
    7.5388703997447581E-01 
    7.8266663419522842E-01 
    7.8282111157764156E-01 
    7.5402339358092885E-01 
    7.5418582632107856E-01 
    7.8300590933640479E-01 
    7.8321692322619196E-01 
    7.5436963823659564E-01 
    7.5456945790451546E-01 
    7.8344892473789185E-01 
    7.8369630139447866E-01 
    7.5477968890107505E-01 
    7.5499844591252185E-01 
    7.8395193580331446E-01 
    7.8420742630930240E-01 
    7.5521949295860191E-01 
    7.5543765097750937E-01 
    7.8445368702781770E-01 
    7.8468652320040855E-01 
    7.5564776060639161E-01 
    7.5584586709613466E-01 
    7.8490270639461113E-01 
    7.8510118036372223E-01 
    7.5602803007806318E-01 
    7.5619195415847973E-01 
    7.8527961082193476E-01 
    7.8543799636646539E-01 
    7.5633876501672948E-01 
    7.5646395859926685E-01 
    7.8557503435396747E-01 
    7.8569091362906363E-01 
    7.5656522790172476E-01 
    7.5664239548554535E-01 
    7.8578452338774252E-01 
    7.8585737182329130E-01 
    7.5669511632802200E-01 
    7.5672522464627812E-01 
    7.8590945603732476E-01 
    7.8594333525861459E-01 
    7.5673429314787444E-01 
    7.5672861278005688E-01 
    7.8595868082002152E-01 
    7.8595739024423394E-01 
    7.5670456598833769E-01 
    7.5666381736408916E-01 
    7.8594006367463809E-01 
    7.8590938047155767E-01 
    7.5660731353636557E-01 
    7.5653757191189597E-01 
    7.8586604196515542E-01 
    7.8581259701797479E-01 
    7.5645612489274472E-01 
    7.5636606420300745E-01 
    7.8575008777566302E-01 
    7.8568116442242120E-01 
    7.5626651964379565E-01 
    7.5616154902496735E-01 
    7.8560749379893147E-01 
    7.8553226996587566E-01 
    7.5605382458703996E-01 
    7.5594668778311391E-01 
    7.8545674862309323E-01 
    7.8538351451984290E-01 
    7.5584211882877250E-01 
    7.5574261958044897E-01 
    7.8531336931810203E-01 
    7.8524829578267052E-01 
    7.5564936618065714E-01 
    7.5556395366741047E-01 
    7.8518864591935289E-01 
    7.8513586282332581E-01 
    7.5548669314016093E-01 
    7.5541825275993701E-01 
    7.8508989926092232E-01 
    7.2000558256291936E-01 
    6.8440189834910625E-01 
    6.8436032595996821E-01 
    7.2000272624241379E-01 
    7.1999665249440004E-01 
    6.8427930616614485E-01 
    6.8416229256410022E-01 
    7.1998745975481215E-01 
    7.1997515721517436E-01 
    6.8401305974607129E-01 
    6.8383647837893913E-01 
    7.1996014198881708E-01 
    7.1994233616839809E-01 
    6.8363746982943896E-01 
    6.8342174736819139E-01 
    7.1992187142239128E-01 
    7.1989823336549008E-01 
    6.8319477328094014E-01 
    6.8295810573570925E-01 
    7.1987189014537267E-01 
    7.1984302606656014E-01 
    6.8272000631210283E-01 
    6.8248571066404595E-01 
    7.1981267409453675E-01 
    7.1978043674022896E-01 
    6.8225955308199548E-01 
    6.8204564993580497E-01 
    7.1974716501338953E-01 
    7.1971202516565869E-01 
    6.8184698206578842E-01 
    6.8166603307998652E-01 
    7.1967571839878242E-01 
    7.1963699867803277E-01 
    6.8149915764346825E-01 
    6.8135236970056956E-01 
    7.1959706341263729E-01 
    7.1955521318828886E-01 
    6.8122738206935318E-01 
    6.8112519017625328E-01 
    7.1951268979363470E-01 
    7.1946882488689567E-01 
    6.8104543496904779E-01 
    6.8098705230348178E-01 
    7.1942511877652104E-01 
    7.1938123531975229E-01 
    6.8094768858026700E-01 
    6.8092065122152690E-01 
    7.1933882855538600E-01 
    7.1929686119575853E-01 
    6.8091009185778795E-01 
    6.8091575006607186E-01 
    7.1925627089558364E-01 
    7.1921632252608347E-01 
    6.8093662368741670E-01 
    6.8097153855606207E-01 
    7.1917841646482461E-01 
    7.1914228322712603E-01 
    6.8101891646268597E-01 
    6.8107263388998596E-01 
    7.1910953180557424E-01 
    7.1907936314022003E-01 
    6.8113580590362688E-01 
    6.8120608113875813E-01 
    7.1905235091408126E-01 
    7.1902743211006381E-01 
    6.8128114852445443E-01 
    6.8135902244868962E-01 
    7.1900541963708486E-01 
    7.1898562673233746E-01 
    6.8143784836792731E-01 
    6.8151613198085603E-01 