# vtk DataFile Version 2.0
Pressure Field Data 
ASCII 
DATASET UNSTRUCTURED_GRID 

POINTS 1681 double 

    0.0000000000000000E+00     0.0000000000000000E+00     0.0000000000000000E+00 
    1.0000000000000000E+00     0.0000000000000000E+00     0.0000000000000000E+00 
    1.0000000000000000E+00     1.0000000000000000E+00     0.0000000000000000E+00 
    0.0000000000000000E+00     1.0000000000000000E+00     0.0000000000000000E+00 
    5.2499999999875258E-01     0.0000000000000000E+00     0.0000000000000000E+00 
    7.4999999999856765E-02     0.0000000000000000E+00     0.0000000000000000E+00 
    1.2499999999975850E-01     0.0000000000000000E+00     0.0000000000000000E+00 
    1.7499999999962990E-01     0.0000000000000000E+00     0.0000000000000000E+00 
    2.2499999999948389E-01     0.0000000000000000E+00     0.0000000000000000E+00 
    2.7499999999933789E-01     0.0000000000000000E+00     0.0000000000000000E+00 
    3.2499999999919210E-01     0.0000000000000000E+00     0.0000000000000000E+00 
    3.7499999999904610E-01     0.0000000000000000E+00     0.0000000000000000E+00 
    4.2499999999890020E-01     0.0000000000000000E+00     0.0000000000000000E+00 
    4.7499999999875958E-01     0.0000000000000000E+00     0.0000000000000000E+00 
    2.4999999999949701E-02     0.0000000000000000E+00     0.0000000000000000E+00 
    5.7499999999887907E-01     0.0000000000000000E+00     0.0000000000000000E+00 
    6.2499999999901101E-01     0.0000000000000000E+00     0.0000000000000000E+00 
    6.7499999999914273E-01     0.0000000000000000E+00     0.0000000000000000E+00 
    7.2499999999927467E-01     0.0000000000000000E+00     0.0000000000000000E+00 
    7.7499999999940661E-01     0.0000000000000000E+00     0.0000000000000000E+00 
    8.2499999999953844E-01     0.0000000000000000E+00     0.0000000000000000E+00 
    8.7499999999967026E-01     0.0000000000000000E+00     0.0000000000000000E+00 
    9.2499999999980220E-01     0.0000000000000000E+00     0.0000000000000000E+00 
    9.7499999999993414E-01     0.0000000000000000E+00     0.0000000000000000E+00 
    5.4999999999881310E-01     0.0000000000000000E+00     0.0000000000000000E+00 
    9.9999999999814140E-02     0.0000000000000000E+00     0.0000000000000000E+00 
    1.4999999999970290E-01     0.0000000000000000E+00     0.0000000000000000E+00 
    1.9999999999955689E-01     0.0000000000000000E+00     0.0000000000000000E+00 
    2.4999999999941089E-01     0.0000000000000000E+00     0.0000000000000000E+00 
    2.9999999999926502E-01     0.0000000000000000E+00     0.0000000000000000E+00 
    3.4999999999911913E-01     0.0000000000000000E+00     0.0000000000000000E+00 
    3.9999999999897312E-01     0.0000000000000000E+00     0.0000000000000000E+00 
    4.4999999999882723E-01     0.0000000000000000E+00     0.0000000000000000E+00 
    4.9999999999869210E-01     0.0000000000000000E+00     0.0000000000000000E+00 
    4.9999999999899403E-02     0.0000000000000000E+00     0.0000000000000000E+00 
    5.9999999999894504E-01     0.0000000000000000E+00     0.0000000000000000E+00 
    6.4999999999907687E-01     0.0000000000000000E+00     0.0000000000000000E+00 
    6.9999999999920870E-01     0.0000000000000000E+00     0.0000000000000000E+00 
    7.4999999999934064E-01     0.0000000000000000E+00     0.0000000000000000E+00 
    7.9999999999947247E-01     0.0000000000000000E+00     0.0000000000000000E+00 
    8.4999999999960441E-01     0.0000000000000000E+00     0.0000000000000000E+00 
    8.9999999999973623E-01     0.0000000000000000E+00     0.0000000000000000E+00 
    9.4999999999986817E-01     0.0000000000000000E+00     0.0000000000000000E+00 
    1.0000000000000000E+00     5.2499999999875258E-01     0.0000000000000000E+00 
    1.0000000000000000E+00     7.4999999999856765E-02     0.0000000000000000E+00 
    1.0000000000000000E+00     1.2499999999975850E-01     0.0000000000000000E+00 
    1.0000000000000000E+00     1.7499999999962990E-01     0.0000000000000000E+00 
    1.0000000000000000E+00     2.2499999999948389E-01     0.0000000000000000E+00 
    1.0000000000000000E+00     2.7499999999933789E-01     0.0000000000000000E+00 
    1.0000000000000000E+00     3.2499999999919210E-01     0.0000000000000000E+00 
    1.0000000000000000E+00     3.7499999999904610E-01     0.0000000000000000E+00 
    1.0000000000000000E+00     4.2499999999890020E-01     0.0000000000000000E+00 
    1.0000000000000000E+00     4.7499999999875958E-01     0.0000000000000000E+00 
    1.0000000000000000E+00     2.4999999999949701E-02     0.0000000000000000E+00 
    1.0000000000000000E+00     5.7499999999887907E-01     0.0000000000000000E+00 
    1.0000000000000000E+00     6.2499999999901101E-01     0.0000000000000000E+00 
    1.0000000000000000E+00     6.7499999999914273E-01     0.0000000000000000E+00 
    1.0000000000000000E+00     7.2499999999927467E-01     0.0000000000000000E+00 
    1.0000000000000000E+00     7.7499999999940661E-01     0.0000000000000000E+00 
    1.0000000000000000E+00     8.2499999999953844E-01     0.0000000000000000E+00 
    1.0000000000000000E+00     8.7499999999967026E-01     0.0000000000000000E+00 
    1.0000000000000000E+00     9.2499999999980220E-01     0.0000000000000000E+00 
    1.0000000000000000E+00     9.7499999999993414E-01     0.0000000000000000E+00 
    1.0000000000000000E+00     5.4999999999881310E-01     0.0000000000000000E+00 
    1.0000000000000000E+00     9.9999999999814140E-02     0.0000000000000000E+00 
    1.0000000000000000E+00     1.4999999999970290E-01     0.0000000000000000E+00 
    1.0000000000000000E+00     1.9999999999955689E-01     0.0000000000000000E+00 
    1.0000000000000000E+00     2.4999999999941089E-01     0.0000000000000000E+00 
    1.0000000000000000E+00     2.9999999999926502E-01     0.0000000000000000E+00 
    1.0000000000000000E+00     3.4999999999911913E-01     0.0000000000000000E+00 
    1.0000000000000000E+00     3.9999999999897312E-01     0.0000000000000000E+00 
    1.0000000000000000E+00     4.4999999999882723E-01     0.0000000000000000E+00 
    1.0000000000000000E+00     4.9999999999869210E-01     0.0000000000000000E+00 
    1.0000000000000000E+00     4.9999999999899403E-02     0.0000000000000000E+00 
    1.0000000000000000E+00     5.9999999999894504E-01     0.0000000000000000E+00 
    1.0000000000000000E+00     6.4999999999907687E-01     0.0000000000000000E+00 
    1.0000000000000000E+00     6.9999999999920870E-01     0.0000000000000000E+00 
    1.0000000000000000E+00     7.4999999999934064E-01     0.0000000000000000E+00 
    1.0000000000000000E+00     7.9999999999947247E-01     0.0000000000000000E+00 
    1.0000000000000000E+00     8.4999999999960441E-01     0.0000000000000000E+00 
    1.0000000000000000E+00     8.9999999999973623E-01     0.0000000000000000E+00 
    1.0000000000000000E+00     9.4999999999986817E-01     0.0000000000000000E+00 
    4.7500000000196618E-01     1.0000000000000000E+00     0.0000000000000000E+00 
    9.2499999999968763E-01     1.0000000000000000E+00     0.0000000000000000E+00 
    8.7499999999961831E-01     1.0000000000000000E+00     0.0000000000000000E+00 
    8.2499999999982654E-01     1.0000000000000000E+00     0.0000000000000000E+00 
    7.7500000000017355E-01     1.0000000000000000E+00     0.0000000000000000E+00 
    7.2500000000052045E-01     1.0000000000000000E+00     0.0000000000000000E+00 
    6.7500000000086724E-01     1.0000000000000000E+00     0.0000000000000000E+00 
    6.2500000000121403E-01     1.0000000000000000E+00     0.0000000000000000E+00 
    5.7500000000156093E-01     1.0000000000000000E+00     0.0000000000000000E+00 
    5.2500000000189684E-01     1.0000000000000000E+00     0.0000000000000000E+00 
    9.7499999999989595E-01     1.0000000000000000E+00     0.0000000000000000E+00 
    4.2500000000176902E-01     1.0000000000000000E+00     0.0000000000000000E+00 
    3.7500000000156092E-01     1.0000000000000000E+00     0.0000000000000000E+00 
    3.2500000000135282E-01     1.0000000000000000E+00     0.0000000000000000E+00 
    2.7500000000114472E-01     1.0000000000000000E+00     0.0000000000000000E+00 
    2.2500000000093659E-01     1.0000000000000000E+00     0.0000000000000000E+00 
    1.7500000000072849E-01     1.0000000000000000E+00     0.0000000000000000E+00 
    1.2500000000052039E-01     1.0000000000000000E+00     0.0000000000000000E+00 
    7.5000000000312261E-02     1.0000000000000000E+00     0.0000000000000000E+00 
    2.5000000000104109E-02     1.0000000000000000E+00     0.0000000000000000E+00 
    4.5000000000187301E-01     1.0000000000000000E+00     0.0000000000000000E+00 
    8.9999999999958358E-01     1.0000000000000000E+00     0.0000000000000000E+00 
    8.4999999999965303E-01     1.0000000000000000E+00     0.0000000000000000E+00 
    8.0000000000000004E-01     1.0000000000000000E+00     0.0000000000000000E+00 
    7.5000000000034706E-01     1.0000000000000000E+00     0.0000000000000000E+00 
    7.0000000000069384E-01     1.0000000000000000E+00     0.0000000000000000E+00 
    6.5000000000104063E-01     1.0000000000000000E+00     0.0000000000000000E+00 
    6.0000000000138742E-01     1.0000000000000000E+00     0.0000000000000000E+00 
    5.5000000000173432E-01     1.0000000000000000E+00     0.0000000000000000E+00 
    5.0000000000205946E-01     1.0000000000000000E+00     0.0000000000000000E+00 
    9.4999999999979179E-01     1.0000000000000000E+00     0.0000000000000000E+00 
    4.0000000000166491E-01     1.0000000000000000E+00     0.0000000000000000E+00 
    3.5000000000145681E-01     1.0000000000000000E+00     0.0000000000000000E+00 
    3.0000000000124871E-01     1.0000000000000000E+00     0.0000000000000000E+00 
    2.5000000000104061E-01     1.0000000000000000E+00     0.0000000000000000E+00 
    2.0000000000083251E-01     1.0000000000000000E+00     0.0000000000000000E+00 
    1.5000000000062441E-01     1.0000000000000000E+00     0.0000000000000000E+00 
    1.0000000000041630E-01     1.0000000000000000E+00     0.0000000000000000E+00 
[...]
CELL_DATA 1600 
SCALARS Pressure double 1 
LOOKUP_TABLE default 

    7.9802910663853388E-01 
    7.8072480565815006E-01 
    7.8064187521416950E-01 
    7.9618502622263854E-01 
    7.9451373668077330E-01 
    7.8049387691797201E-01 
    7.8029494173348912E-01 
    7.9299591663011204E-01 
    7.9161690333771462E-01 
    7.8005742605923989E-01 
    7.7979131853477146E-01 
    7.9036435780457703E-01 
    7.8922755041300341E-01 
    7.7950563394944528E-01 
    7.7920732627560751E-01 
    7.8819685767125358E-01 
    7.8726335178650031E-01 
    7.7890255092359972E-01 
    7.7859614209630812E-01 
    7.8641940893772233E-01 
    7.8565854515686495E-01 
    7.7829298006195824E-01 
    7.7799670297511869E-01 
    7.8497497804583716E-01 
    7.8436323716806944E-01 
    7.7771065477715806E-01 
    7.7743702307277707E-01 
    7.8381832134199803E-01 
    7.8333551626862541E-01 
    7.7717762804851909E-01 
    7.7693383665595306E-01 
    7.8291086903983031E-01 
    7.8253999388467121E-01 
    7.7670696351995094E-01 
    7.7649745474195375E-01 
    7.8221866882967339E-01 
    7.8194257027945790E-01 
    7.7630548539272159E-01 
    7.7613081204680090E-01 
    7.8170752113504094E-01 
    7.8150913585194615E-01 
    7.7597257702944966E-01 
    7.7582971575621251E-01 
    7.8134330817170350E-01 
    7.8120622085814539E-01 
    7.7570103414186498E-01 
    7.7558612906799174E-01 
    7.8109601854559307E-01 
    7.8101102557626045E-01 
    7.7548395549504701E-01 
    7.7539368794630215E-01 
    7.8094966434951341E-01 
    7.8091073658607646E-01 
    7.7531377034172411E-01 
    7.7524411459084763E-01 
    7.8089443225270394E-01 
    7.8090761882785298E-01 
    7.7518856714128259E-01 
    7.7515466111707432E-01 
    7.8094855137838792E-01 
    7.8100023294534615E-01 
    7.7514564773324579E-01 
    7.7515529828081575E-01 
    7.8105193366426395E-01 
    7.8109658244484403E-01 
    7.7516995624096441E-01 
    7.7517922480237655E-01 
    7.8113114671602868E-01 
    7.8115303463213182E-01 
    7.7517984302034970E-01 
    7.7517394880356749E-01 
    7.8115955228988487E-01 
    7.8114959144646889E-01 
    7.7516121628982226E-01 
    7.7514250066526791E-01 
    7.8112226195920154E-01 
    7.8107824175258722E-01 
    7.7511775761348289E-01 
    7.7508909060844922E-01 
    7.8101835024114552E-01 
    7.7126317837387393E-01 
    7.6254131406648118E-01 
    7.6252166290732171E-01 
    7.7123678822341435E-01 
    7.7118503012312312E-01 
    7.6248263265196348E-01 
    7.6242480315847749E-01 
    7.7110901134504539E-01 
    7.7101049941692612E-01 
    7.6234874108015371E-01 
    7.6225538452238217E-01 
    7.7089137592774915E-01 
    7.7075395787436929E-01 
    7.6214554738368068E-01 
    7.6202036773218418E-01 
    7.7060035121940040E-01 
    7.7043283148742336E-01 
    7.6188087779687541E-01 
    7.6172820973789723E-01 
    7.7025349277040356E-01 
    7.7006491187358550E-01 
    7.6156366772204820E-01 
    7.6138861523651946E-01 
    7.6986936522659910E-01 
    7.6966915290136839E-01 
    7.6120436937757496E-01 
    7.6101217044794334E-01 
    7.6946613484501580E-01 
    7.6926192233860868E-01 
    7.6081314956824675E-01 
    7.6060848405221315E-01 
    7.6905810537617481E-01 
    7.6885638027367609E-01 
    7.6039973936685334E-01 
    7.6018830210548982E-01 
    7.6865812072514372E-01 
    7.6846451831146523E-01 
    7.5997571052790891E-01 
    7.5976332044305439E-01 
    7.6827658841739699E-01 
    7.6809474059069116E-01 
    7.5955230891052994E-01 
    7.5934337824199016E-01 
    7.6791916113493019E-01 
    7.6775004519564205E-01 
    7.5913762008112284E-01 
    7.5893539658591525E-01 
    7.6758757154245294E-01 
    7.6743141267663195E-01 
    7.5873698384545596E-01 
    7.5854230935158173E-01 
    7.6728120220576068E-01 
    7.6713602859127650E-01 
    7.5835127671578750E-01 
    7.5816395785062907E-01 
    7.6699585851174279E-01 
    7.6686188799780985E-01 
    7.5798099215260939E-01 
    7.5780273923373020E-01 
    7.6673616087059770E-01 
    7.6662503059041998E-01 
    7.5762991264384527E-01 
    7.5746291361836582E-01 
    7.6653249226338671E-01 
    7.6645721338436568E-01 
    7.5730545091630663E-01 
    7.5716826941878712E-01 
    7.6640019524825431E-01 
    7.6635867959892456E-01 
    7.5706056025490853E-01 
    7.5698199852933112E-01 
    7.6632644025020658E-01 
    7.6629804284966929E-01 
    7.5692820616431000E-01 
    7.5689524673401209E-01 
    7.6627368386028927E-01 
    7.6625718766246254E-01 
    7.5688011845214520E-01 
    7.5688426127407948E-01 
    7.6625183109637218E-01 
    7.5348364205199791E-01 
    7.4388261044329362E-01 
    7.4387494769033091E-01 
    7.5346879616379825E-01 
    7.5343938158426516E-01 
    7.4385956163892475E-01 
    7.4383655880360222E-01 
    7.5339556375345140E-01 
    7.5333767201932167E-01 
    7.4380566517545466E-01 
    7.4376672144643341E-01 
    7.5326589730702576E-01 
    7.5318054846296756E-01 
    7.4371925765100177E-01 
    7.4366314286313173E-01 
    7.5308200378060541E-01 
    7.5297085055536006E-01 
    7.4359805458043660E-01 
    7.4352369916521899E-01 
    7.5284739407680112E-01 
    7.5271220534502747E-01 
    7.4343962740562963E-01 
    7.4334542039779017E-01 
    7.5256568126974677E-01 
    7.5240841018178617E-01 
    7.4324051126714274E-01 
    7.4312461005618435E-01 
    7.5224086937155432E-01 
    7.5206374911063401E-01 
    7.4299744901776998E-01 
    7.4285897987922478E-01 
    7.5187763533353069E-01 
    7.5168378377558198E-01 
    7.4270981605620456E-01 
    7.4255081440502291E-01 
    7.5148332046359045E-01 
    7.5127770779530056E-01 
    7.4238307015290650E-01 
    7.4220801561321148E-01 
    7.5106844398523298E-01 
    7.5085704040521850E-01 
    7.4202725003472148E-01 
    7.4184240670091361E-01 
    7.5064478265249890E-01 
    7.5043324198847883E-01 
    7.4165550911269973E-01 
    7.4146754434123396E-01 
    7.5022318238713803E-01 
    7.5001503213720888E-01 
    7.4127927662864512E-01 
    7.4109142422664376E-01 
    7.4980927885563142E-01 
    7.4960632916326886E-01 
    7.4090500487289390E-01 
    7.4072095048478614E-01 
    7.4940683173911105E-01 
    7.4921143182941907E-01 
    7.4054043571332340E-01 
    7.4036433921428213E-01 
    7.4902069182615916E-01 
    7.4883532237770445E-01 
    7.4019405243702963E-01 
    7.4003223815580166E-01 
    7.4865762380646972E-01 
    7.4848931616184233E-01 
    7.3988176956084017E-01 
    7.3974569405945068E-01 
    7.4833471971217880E-01 
    7.4820159810540920E-01 
    7.3962717366559227E-01 
    7.3952821313672124E-01 
    7.4809577841604225E-01 
    7.4801868156280382E-01 
    7.3945082414029872E-01 
    7.3939446467804304E-01 
    7.4796870211331512E-01 
    7.4794622768168340E-01 
    7.3936437387331888E-01 
    7.3936438114315917E-01 
    7.4795064415922397E-01 
    7.3367059592937678E-01 
    7.2277095024310867E-01 
    7.2277986232651614E-01 
    7.3367183338492392E-01 
    7.3367413124358061E-01 
    7.2279746342031670E-01 
    7.2282323298352136E-01 
    7.3367721031019406E-01 
    7.3368050080726543E-01 
    7.2285642999027255E-01 
    7.2289603322813090E-01 
    7.3368329105649566E-01 
    7.3368464064832850E-01 
    7.2294075449126538E-01 
    7.2298887580278115E-01 
    7.3368347889460739E-01 
    7.3367862824975549E-01 
    7.2303831916837458E-01 
    7.2308713567815008E-01 
    7.3366878362268773E-01 
    7.3365279095791247E-01 
    7.2313342262542579E-01 
    7.2317484905881158E-01 
    7.3362898469244409E-01 
    7.3359589854351048E-01 
    7.2320891620477679E-01 
    7.2323322114318744E-01 
    7.3355188828848861E-01 
    7.3349581985393064E-01 
    7.2324514987231980E-01 
    7.2324272650724331E-01 
    7.3342640362653067E-01 
    7.3334395068783431E-01 
    7.2322547842486484E-01 
    7.2319345209566410E-01 
    7.3324851870181285E-01 
    7.3314104891267995E-01 
    7.2314679189607067E-01 
    7.2308640419032588E-01 
    7.3302239499745270E-01 
    7.3289429874433309E-01 
    7.2301347478708611E-01 
    7.2292994813808742E-01 
    7.3275830080589244E-01 
    7.3261679844426775E-01 
    7.2283796796224620E-01 
    7.2273895305083680E-01 
    7.3247077720324361E-01 
    7.3232115448784862E-01 
    7.2263343894054233E-01 
    7.2252232140020856E-01 
    7.3216867751460246E-01 
    7.3201471784993632E-01 
    7.2240669728545392E-01 
    7.2228799155869083E-01 
    7.3186041424823089E-01 
    7.3170729498070508E-01 
    7.2216767291453576E-01 
    7.2204715102403072E-01 
    7.3155648576664489E-01 
    7.3140950196879873E-01 
    7.2192752332120369E-01 
    7.2181154993640051E-01 
    7.3126915243752910E-01 
    7.3113847354647266E-01 
    7.2170202309442799E-01 
    7.2160145378268659E-01 
    7.3102017843004408E-01 
    7.3091683726096102E-01 
    7.2151210068443294E-01 
    7.2143551738509726E-01 
    7.3083044328231606E-01 
    7.3076252300052236E-01 
    7.2137305679162866E-01 
    7.2132521088134960E-01 
    7.3071331072682311E-01 
    7.3068233191220244E-01 
    7.2128855481647058E-01 
    7.2126853585993922E-01 
    7.3067587471012185E-01 
    7.1074838150310804E-01 
    6.9652015599924255E-01 
    6.9651600084845433E-01 
    7.1075483261506611E-01 
    7.1076819127823343E-01 
    6.9650755232833161E-01 
    6.9649507680358602E-01 
    7.1078840608618932E-01 
    7.1081536199869966E-01 
    6.9647884701658047E-01 
    6.9645944415142880E-01 
    7.1084852231494033E-01 
    7.1088728934744438E-01 
    6.9643728612356326E-01 
    6.9641264591763108E-01 
    7.1093045409597477E-01 
    7.1097646240600965E-01 
    6.9638521604259485E-01 
    6.9635539600586427E-01 
    7.1102375036246501E-01 
    7.1107031087601646E-01 
    6.9632394203656134E-01 
    6.9629222009719716E-01 
    7.1111417590067805E-01 
    7.1115348632413899E-01 
    6.9626102436172677E-01 
    6.9623101791466635E-01 
    7.1118613480859239E-01 
    7.1120959448011123E-01 
    6.9620177484926227E-01 
    6.9617335212733100E-01 
    7.1122172656944893E-01 
    7.1122443434842719E-01 
    6.9614546657809440E-01 
    6.9611859252803843E-01 
    7.1121550001623257E-01 
    7.1119490804740515E-01 
    6.9609244644589197E-01 
    6.9606717883282021E-01 
    7.1116304856250989E-01 
    7.1112094784946045E-01 
    6.9604213971736950E-01 
    6.9601727095140731E-01 
    7.1107024148359310E-01 
    7.1101310452752087E-01 
    6.9599152233520301E-01 
    6.9596452535051379E-01 
    7.1095382817841279E-01 
    7.1089038562157936E-01 
    6.9593628568495558E-01 
    6.9590749771115823E-01 
    7.1082273703486409E-01 
    7.1075141189214042E-01 
    6.9587816174704709E-01 
    6.9584902383546499E-01 
    7.1067733236608555E-01 
    7.1060188231507293E-01 
    6.9582033483617511E-01 
    6.9579297360193870E-01 
    7.1052639555852526E-01 
    7.1044921253328341E-01 
    6.9576642178385451E-01 
    6.9574108085852959E-01 
    7.1037225771582868E-01 
    7.1029750491189914E-01 
    6.9571675758631690E-01 
    6.9569395833635050E-01 
    7.1022676719391598E-01 
    7.1016167143362474E-01 
    6.9567275142210960E-01 
    6.9565345839588277E-01 
    7.1010332507994423E-01 
    7.1005256691753815E-01 
    6.9563580306883999E-01 
    6.9561980205997664E-01 
    7.1000952462372435E-01 
    7.0997028164396458E-01 
    6.9560391443854097E-01 
    6.9559049519217708E-01 
    7.0993842600904422E-01 
    6.8094859787518924E-01 
    6.6645115390841136E-01 
    6.6644233478060022E-01 
    6.8093388359907048E-01 
    6.8090495728941725E-01 
    6.6642495501550214E-01 
    6.6639933092706438E-01 
    6.8086265290825854E-01 
    6.8080801240657529E-01 
    6.6636601464699241E-01 
    6.6632560886237990E-01 
    6.8074241167298466E-01 
    6.8066732858603274E-01 
    6.6627900315338928E-01 
    6.6622707057944774E-01 
    6.8058417591908238E-01 
    6.8049431627680634E-01 
    6.6617088607449781E-01 
    6.6611173582094685E-01 
    6.8039980896246544E-01 
    6.8030433891201769E-01 
    6.6605153153337360E-01 
    6.6599162716078775E-01 
    6.8021033936381148E-01 
    6.8012004078497235E-01 
    6.6593397109473351E-01 
    6.6587997206669092E-01 
    6.8003546002266435E-01 
    6.7995801894664776E-01 
    6.6583130329840379E-01 
    6.6578935437436548E-01 
    6.7988989298120905E-01 
    6.7983055953951244E-01 
    6.6575534048055152E-01 
    6.6572918266612446E-01 
    6.7978195976789213E-01 
    6.7974409418457626E-01 
    6.6571155043700092E-01 
    6.6570197045700541E-01 
    6.7971699075301073E-01 
    6.7969981199428853E-01 
    6.6570059017557148E-01 
    6.6570630941892306E-01 
    6.7969166806523085E-01 
    6.7969047799252946E-01 
    6.6571849641058611E-01 
    6.6573594621089482E-01 
    6.7969288233595715E-01 
    6.7969988802518833E-01 
    6.6575800355240877E-01 
    6.6578394579365963E-01 
    6.7971158550324351E-01 
    6.7972729522335162E-01 
    6.6581364148282052E-01 
    6.6584610454145798E-01 
    6.7974669625509709E-01 
    6.7976891152849672E-01 
    6.6588095764153377E-01 
    6.6591735030974242E-01 
    6.7979356157838589E-01 
    6.7982102243070952E-01 
    6.6595506395300152E-01 
    6.6599237834258029E-01 
    6.7984976270762632E-01 
    6.7987803894439025E-01 
    6.6602827908637396E-01 
    6.6606130136249275E-01 
    6.7990472966928683E-01 
    6.7992881820269846E-01 
    6.6609076072206019E-01 
    6.6611568845134417E-01 
    6.7994978388625060E-01 
    6.7996703503499445E-01 
    6.6613572359323681E-01 
    6.6614934610855725E-01 
    6.7998004269099521E-01 
    6.7999118396470004E-01 
    6.6615779574524792E-01 
    6.6616666348669917E-01 
    6.8000622375567921E-01 
    6.5248665893343172E-01 
    6.3828281344349014E-01 
    6.3830211510203960E-01 
    6.5249153830775097E-01 
    6.5250078552626511E-01 
    6.3833994150278917E-01 
    6.3839497665471023E-01 
    6.5251413253444113E-01 
    6.5253087563153656E-01 
    6.3846573633156256E-01 
    6.3855029673320807E-01 
    6.5255056427022418E-01 
    6.5257243027190281E-01 
    6.3864663770284791E-01 
    6.3875250948114737E-01 
    6.5259598335426805E-01 
    6.5262074939895343E-01 
    6.3886591492260492E-01 
    6.3898485442155328E-01 
    6.5264666109022218E-01 
    6.5267342901909231E-01 
    6.3910728576915421E-01 
    6.3923129734284589E-01 
    6.5270096276168732E-01 
    6.5272927884025134E-01 
    6.3935521015257024E-01 
    6.3947747440083624E-01 
    6.5275846479310140E-01 
    6.5278909763482440E-01 
    6.3959734044193428E-01 
    6.3971372679951966E-01 
    6.5282172123340798E-01 
    6.5285601782709635E-01 
    6.3982510921985380E-01 
    6.3993056877080667E-01 
    6.5289167033595685E-01 
    6.5292849838171596E-01 
    6.4002924470347899E-01 
    6.4012038939911975E-01 
    6.5296611471664334E-01 
    6.5300422918450562E-01 
    6.4020344383081773E-01 
    6.4027804642366382E-01 
    6.5304224445882797E-01 
    6.5307984657843121E-01 
    6.4034427749888334E-01 
    6.4040203137708318E-01 
    6.5311652041193080E-01 
    6.5315190113885124E-01 
    6.4045134840932028E-01 
    6.4049275517856397E-01 
    6.5318594325305090E-01 
    6.5321880441105462E-01 
    6.4052676058086377E-01 
    6.4055387109533912E-01 
    6.5325024696919021E-01 
    6.5328027987201154E-01 
    6.4057476384967005E-01 
    6.4059018555677727E-01 
    6.5330883770130799E-01 
    6.5333609716525665E-01 
    6.4060089923583075E-01 
    6.4060759096850173E-01 
    6.5336153337980152E-01 
    6.5338489863199278E-01 
    6.4061094123587292E-01 
    6.4061164981618091E-01 
    6.5340576662794259E-01 
    6.5342405103231560E-01 
    6.4061057367126195E-01 
    6.4060846777396496E-01 
    6.5343945069743448E-01 
    6.5345161914451255E-01 
    6.4060532989590446E-01 
    6.4059861631356085E-01 
    6.5345883605843769E-01 
    6.5345961413467635E-01 
    6.4058603707042139E-01 
    6.4057282336167420E-01 
    6.5345783414536340E-01 
    6.2348200483808969E-01 
    6.0717929407896354E-01 
    6.0720204436633674E-01 
    6.2351130203211247E-01 
    6.2356871661335156E-01 
    6.0724705453140970E-01 
    6.0731290828369966E-01 
    6.2365241207731525E-01 
    6.2376022035620626E-01 
    6.0739806671239138E-01 
    6.0750026628922638E-01 
    6.2388936292879493E-01 
    6.2403705849038116E-01 
    6.0761757701985675E-01 
    6.0774732683870869E-01 
    6.2420005513776666E-01 
    6.2437465076742182E-01 
    6.0788539448442169E-01 
    6.0802988978934869E-01 
    6.2455709534699588E-01 
    6.2474463579955974E-01 
    6.0817759318673881E-01 
    6.0832610620054639E-01 
    6.2493393321314272E-01 
    6.2512272214984899E-01 
    6.0847343110966590E-01 
    6.0861693278201434E-01 
    6.2530798784257746E-01 
    6.2548713990230764E-01 
    6.0875258641227759E-01 
    6.0887810637296014E-01 
    6.2565699230758498E-01 
    6.2581619938380251E-01 
    6.0899383699856935E-01 
    6.0909703465658571E-01 
    6.2596305670008856E-01 
    6.2609672531012761E-01 
    6.0918608769051508E-01 
    6.0926067631744996E-01 
    6.2621564121880624E-01 
    6.2631984283751463E-01 
    6.0932040499335238E-01 
    6.0936585872222160E-01 
    6.2640862086207227E-01 
    6.2648292093769875E-01 
    6.0939740946827503E-01 
    6.0941863181300238E-01 
    6.2654238616244051E-01 
    6.2658803967363463E-01 
    6.0942738793128903E-01 
    6.0942466063091116E-01 
    6.2662020132815566E-01 
    6.2664029047275682E-01 
    6.0941069514529156E-01 
    6.0938685700912332E-01 
    6.2664874497346468E-01 
    6.2664738075097248E-01 
    6.0935409405290353E-01 
    6.0931430561677347E-01 
    6.2663693203173410E-01 
    6.2661911782296487E-01 
    6.0926678655762323E-01 
    6.0921365904343283E-01 
    6.2659495553244959E-01 
    6.2656643697075987E-01 
    6.0915611965164684E-01 
    6.0909615783925986E-01 
    6.2653456258704388E-01 
    6.2650152835517070E-01 
    6.0903505370889510E-01 
    6.0897456879276013E-01 
    6.2646849968964469E-01 
    6.2643697109213148E-01 
    6.0891611967061066E-01 
    6.0885609805696728E-01 
    6.2640270013828092E-01 
    6.2636493458855391E-01 
    6.0879742006409643E-01 
    6.0874881207881149E-01 
    6.2633097832346363E-01 
    5.8745695085153649E-01 
    5.6603582306141897E-01 
    5.6600572864783616E-01 
    5.8745261251332792E-01 
    5.8744385041949432E-01 
    5.6594681716583095E-01 
    5.6586122609135658E-01 
    5.8743083094108761E-01 
    5.8741381871059817E-01 
    5.6575127616515886E-01 
    5.6562009637726696E-01 
    5.8739332106929831E-01 
    5.8736977383319566E-01 
    5.6547067753127311E-01 
    5.6530622343518044E-01 
    5.8734350532601187E-01 
    5.8731403610284905E-01 
    5.6513018161076378E-01 
    5.6494422623538132E-01 
    5.8728135923462710E-01 
    5.8724594927532936E-01 
    5.6475388761875789E-01 
    5.6456283642195582E-01 
    5.8720906181054333E-01 
    5.8717125223239230E-01 
    5.6437404274131808E-01 
    5.6419067542157808E-01 
    5.8713367552774332E-01 
    5.8709562499077528E-01 
    5.6401556442970668E-01 
    5.6385076161484171E-01 
    5.8705688655906185E-01 
    5.8701657677396768E-01 
    5.6369444911647359E-01 
    5.6355072578131005E-01 
    5.8697587449078958E-01 
    5.8693474682565749E-01 
    5.6342128776458666E-01 
    5.6330732243422921E-01 
    5.8689435007933255E-01 
    5.8685439869373535E-01 
    5.6320896266220533E-01 
    5.6312572641588465E-01 
    5.8681581068859279E-01 
    5.8677824627674491E-01 
    5.6305654909072267E-01 
    5.6299755729779644E-01 
    5.8674281736227096E-01 
    5.8670873044094241E-01 
    5.6295121705972795E-01 
    5.6291725195731435E-01 
    5.8667645360170262E-01 
    5.8664517066601540E-01 
    5.6289498236295710E-01 
    5.6288356796927386E-01 
    5.8661549964609438E-01 
    5.8658703854649996E-01 
    5.6288189568521230E-01 
    5.6288654903948254E-01 
    5.8656066707702503E-01 
    5.8653571597808596E-01 
    5.6289922630361211E-01 
    5.6291824471399909E-01 
    5.8651239305046143E-01 
    5.8648971449218901E-01 
    5.6294202910978153E-01 
    5.6296927757019888E-01 
    5.8646818381193599E-01 
    5.8644711857891041E-01 
    5.6299868418093324E-01 
    5.6302847694973446E-01 