# vtk DataFile Version 2.0
Pressure Field Data 
ASCII 
DATASET UNSTRUCTURED_GRID 

POINTS 1681 double 

    0.0000000000000000E+00     0.0000000000000000E+00     0.0000000000000000E+00 
    1.0000000000000000E+00     0.0000000000000000E+00     0.0000000000000000E+00 
    1.0000000000000000E+00     1.0000000000000000E+00     0.0000000000000000E+00 
    0.0000000000000000E+00     1.0000000000000000E+00     0.0000000000000000E+00 
    5.2499999999875258E-01     0.0000000000000000E+00     0.0000000000000000E+00 
    7.4999999999856765E-02     0.0000000000000000E+00     0.0000000000000000E+00 
    1.2499999999975850E-01     0.0000000000000000E+00     0.0000000000000000E+00 
    1.7499999999962990E-01     0.0000000000000000E+00     0.0000000000000000E+00 
    2.2499999999948389E-01     0.0000000000000000E+00     0.0000000000000000E+00 
    2.7499999999933789E-01     0.0000000000000000E+00     0.0000000000000000E+00 
    3.2499999999919210E-01     0.0000000000000000E+00     0.0000000000000000E+00 
    3.7499999999904610E-01     0.0000000000000000E+00     0.0000000000000000E+00 
    4.2499999999890020E-01     0.0000000000000000E+00     0.0000000000000000E+00 
    4.7499999999875958E-01     0.0000000000000000E+00     0.0000000000000000E+00 
    2.4999999999949701E-02     0.0000000000000000E+00     0.0000000000000000E+00 
    5.7499999999887907E-01     0.0000000000000000E+00     0.0000000000000000E+00 
    6.2499999999901101E-01     0.0000000000000000E+00     0.0000000000000000E+00 
    6.7499999999914273E-01     0.0000000000000000E+00     0.0000000000000000E+00 
    7.2499999999927467E-01     0.0000000000000000E+00     0.0000000000000000E+00 
    7.7499999999940661E-01     0.0000000000000000E+00     0.0000000000000000E+00 
    8.2499999999953844E-01     0.0000000000000000E+00     0.0000000000000000E+00 
    8.7499999999967026E-01     0.0000000000000000E+00     0.0000000000000000E+00 
    9.2499999999980220E-01     0.0000000000000000E+00     0.0000000000000000E+00 
    9.7499999999993414E-01     0.0000000000000000E+00     0.0000000000000000E+00 
    5.4999999999881310E-01     0.0000000000000000E+00     0.0000000000000000E+00 
    9.9999999999814140E-02     0.0000000000000000E+00     0.0000000000000000E+00 
    1.4999999999970290E-01     0.0000000000000000E+00     0.0000000000000000E+00 
    1.9999999999955689E-01     0.0000000000000000E+00     0.0000000000000000E+00 
    2.4999999999941089E-01     0.0000000000000000E+00     0.0000000000000000E+00 
    2.9999999999926502E-01     0.0000000000000000E+00     0.0000000000000000E+00 
    3.4999999999911913E-01     0.0000000000000000E+00     0.0000000000000000E+00 
    3.9999999999897312E-01     0.0000000000000000E+00     0.0000000000000000E+00 
    4.4999999999882723E-01     0.0000000000000000E+00     0.0000000000000000E+00 
    4.9999999999869210E-01     0.0000000000000000E+00     0.0000000000000000E+00 
    4.9999999999899403E-02     0.0000000000000000E+00     0.0000000000000000E+00 
    5.9999999999894504E-01     0.0000000000000000E+00     0.0000000000000000E+00 
    6.4999999999907687E-01     0.0000000000000000E+00     0.0000000000000000E+00 
    6.9999999999920870E-01     0.0000000000000000E+00     0.0000000000000000E+00 
    7.4999999999934064E-01     0.0000000000000000E+00     0.0000000000000000E+00 
    7.9999999999947247E-01     0.0000000000000000E+00     0.0000000000000000E+00 
    8.4999999999960441E-01     0.0000000000000000E+00     0.0000000000000000E+00 
    8.9999999999973623E-01     0.0000000000000000E+00     0.0000000000000000E+00 
    9.4999999999986817E-01     0.0000000000000000E+00     0.0000000000000000E+00 
    1.0000000000000000E+00     5.2499999999875258E-01     0.0000000000000000E+00 
    1.0000000000000000E+00     7.4999999999856765E-02     0.0000000000000000E+00 
    1.0000000000000000E+00     1.2499999999975850E-01     0.0000000000000000E+00 
    1.0000000000000000E+00     1.7499999999962990E-01     0.0000000000000000E+00 
    1.0000000000000000E+00     2.2499999999948389E-01     0.0000000000000000E+00 
    1.0000000000000000E+00     2.7499999999933789E-01     0.0000000000000000E+00 
    1.0000000000000000E+00     3.2499999999919210E-01     0.0000000000000000E+00 
    1.0000000000000000E+00     3.7499999999904610E-01     0.0000000000000000E+00 
    1.0000000000000000E+00     4.2499999999890020E-01     0.0000000000000000E+00 
    1.0000000000000000E+00     4.7499999999875958E-01     0.0000000000000000E+00 
    1.0000000000000000E+00     2.4999999999949701E-02     0.0000000000000000E+00 
    1.0000000000000000E+00     5.7499999999887907E-01     0.0000000000000000E+00 
    1.0000000000000000E+00     6.2499999999901101E-01     0.0000000000000000E+00 
    1.0000000000000000E+00     6.7499999999914273E-01     0.0000000000000000E+00 
    1.0000000000000000E+00     7.2499999999927467E-01     0.0000000000000000E+00 
    1.0000000000000000E+00     7.7499999999940661E-01     0.0000000000000000E+00 
    1.0000000000000000E+00     8.2499999999953844E-01     0.0000000000000000E+00 
    1.0000000000000000E+00     8.7499999999967026E-01     0.0000000000000000E+00 
    1.0000000000000000E+00     9.2499999999980220E-01     0.0000000000000000E+00 
    1.0000000000000000E+00     9.7499999999993414E-01     0.0000000000000000E+00 
    1.0000000000000000E+00     5.4999999999881310E-01     0.0000000000000000E+00 
    1.0000000000000000E+00     9.9999999999814140E-02     0.0000000000000000E+00 
    1.0000000000000000E+00     1.4999999999970290E-01     0.0000000000000000E+00 
    1.0000000000000000E+00     1.9999999999955689E-01     0.0000000000000000E+00 
    1.0000000000000000E+00     2.4999999999941089E-01     0.0000000000000000E+00 
    1.0000000000000000E+00     2.9999999999926502E-01     0.0000000000000000E+00 
    1.0000000000000000E+00     3.4999999999911913E-01     0.0000000000000000E+00 
    1.0000000000000000E+00     3.9999999999897312E-01     0.0000000000000000E+00 
    1.0000000000000000E+00     4.4999999999882723E-01     0.0000000000000000E+00 
    1.0000000000000000E+00     4.9999999999869210E-01     0.0000000000000000E+00 
    1.0000000000000000E+00     4.9999999999899403E-02     0.0000000000000000E+00 
    1.0000000000000000E+00     5.9999999999894504E-01     0.0000000000000000E+00 
    1.0000000000000000E+00     6.4999999999907687E-01     0.0000000000000000E+00 
    1.0000000000000000E+00     6.9999999999920870E-01     0.0000000000000000E+00 
    1.0000000000000000E+00     7.4999999999934064E-01     0.0000000000000000E+00 
    1.0000000000000000E+00     7.9999999999947247E-01     0.0000000000000000E+00 
    1.0000000000000000E+00     8.4999999999960441E-01     0.0000000000000000E+00 
    1.0000000000000000E+00     8.9999999999973623E-01     0.0000000000000000E+00 
    1.0000000000000000E+00     9.4999999999986817E-01     0.0000000000000000E+00 
    4.7500000000196618E-01     1.0000000000000000E+00     0.0000000000000000E+00 
    9.2499999999968763E-01     1.0000000000000000E+00     0.0000000000000000E+00 
    8.7499999999961831E-01     1.0000000000000000E+00     0.0000000000000000E+00 
    8.2499999999982654E-01     1.0000000000000000E+00     0.0000000000000000E+00 
    7.7500000000017355E-01     1.0000000000000000E+00     0.0000000000000000E+00 
    7.2500000000052045E-01     1.0000000000000000E+00     0.0000000000000000E+00 
    6.7500000000086724E-01     1.0000000000000000E+00     0.0000000000000000E+00 
    6.2500000000121403E-01     1.0000000000000000E+00     0.0000000000000000E+00 
    5.7500000000156093E-01     1.0000000000000000E+00     0.0000000000000000E+00 
    5.2500000000189684E-01     1.0000000000000000E+00     0.0000000000000000E+00 
    9.7499999999989595E-01     1.0000000000000000E+00     0.0000000000000000E+00 
    4.2500000000176902E-01     1.0000000000000000E+00     0.0000000000000000E+00 
    3.7500000000156092E-01     1.0000000000000000E+00     0.0000000000000000E+00 
    3.2500000000135282E-01     1.0000000000000000E+00     0.0000000000000000E+00 
    2.7500000000114472E-01     1.0000000000000000E+00     0.0000000000000000E+00 
    2.2500000000093659E-01     1.0000000000000000E+00     0.0000000000000000E+00 
    1.7500000000072849E-01     1.0000000000000000E+00     0.0000000000000000E+00 
    1.2500000000052039E-01     1.0000000000000000E+00     0.0000000000000000E+00 
    7.5000000000312261E-02     1.0000000000000000E+00     0.0000000000000000E+00 
    2.5000000000104109E-02     1.0000000000000000E+00     0.0000000000000000E+00 
    4.5000000000187301E-01     1.0000000000000000E+00     0.0000000000000000E+00 
    8.9999999999958358E-01     1.0000000000000000E+00     0.0000000000000000E+00 
    8.4999999999965303E-01     1.0000000000000000E+00     0.0000000000000000E+00 
    8.0000000000000004E-01     1.0000000000000000E+00     0.0000000000000000E+00 
    7.5000000000034706E-01     1.0000000000000000E+00     0.0000000000000000E+00 
    7.0000000000069384E-01     1.0000000000000000E+00     0.0000000000000000E+00 
    6.5000000000104063E-01     1.0000000000000000E+00     0.0000000000000000E+00 
    6.0000000000138742E-01     1.0000000000000000E+00     0.0000000000000000E+00 
    5.5000000000173432E-01     1.0000000000000000E+00     0.0000000000000000E+00 
    5.0000000000205946E-01     1.0000000000000000E+00     0.0000000000000000E+00 
    9.4999999999979179E-01     1.0000000000000000E+00     0.0000000000000000E+00 
    4.0000000000166491E-01     1.0000000000000000E+00     0.0000000000000000E+00 
    3.5000000000145681E-01     1.0000000000000000E+00     0.0000000000000000E+00 
    3.0000000000124871E-01     1.0000000000000000E+00     0.0000000000000000E+00 
    2.5000000000104061E-01     1.0000000000000000E+00     0.0000000000000000E+00 
    2.0000000000083251E-01     1.0000000000000000E+00     0.0000000000000000E+00 
    1.5000000000062441E-01     1.0000000000000000E+00     0.0000000000000000E+00 
    1.0000000000041630E-01     1.0000000000000000E+00     0.0000000000000000E+00 
[...]
CELL_DATA 1600 
SCALARS Pressure double 1 
LOOKUP_TABLE default 

    1.0973951032744096E+00 
    1.0774037671334507E+00 
    1.0773075264662300E+00 
    1.0955095309076393E+00 
    1.0937821585405918E+00 
    1.0771332707145982E+00 
    1.0768948075919917E+00 
    1.0921860907240859E+00 
    1.0907109693277943E+00 
    1.0766053850333455E+00 
    1.0762759295162816E+00 
    1.0893481754986181E+00 
    1.0880924474213853E+00 
    1.0759171046229741E+00 
    1.0755366809211302E+00 
    1.0869368403379622E+00 
    1.0858729915597194E+00 
    1.0751414002709649E+00 
    1.0747373184151026E+00 
    1.0848954428778395E+00 
    1.0840013669414876E+00 
    1.0743319488284835E+00 
    1.0739306702423550E+00 
    1.0831875333550425E+00 
    1.0824500960826982E+00 
    1.0735386821965149E+00 
    1.0731596934309480E+00 
    1.0817859249962429E+00 
    1.0811924096610830E+00 
    1.0727970653726071E+00 
    1.0724538498663951E+00 
    1.0806680217428350E+00 
    1.0802098103402993E+00 
    1.0721336832006918E+00 
    1.0718382099153314E+00 
    1.0798149861277071E+00 
    1.0794800574264647E+00 
    1.0715686451573203E+00 
    1.0713253065599913E+00 
    1.0792012821803774E+00 
    1.0789742672007421E+00 
    1.0711078613181924E+00 
    1.0709162119336257E+00 
    1.0787955623000998E+00 
    1.0786622414387181E+00 
    1.0707504016795677E+00 
    1.0706121555804888E+00 
    1.0785729900054455E+00 
    1.0785203640048802E+00 
    1.0704975941921961E+00 
    1.0704067608602166E+00 
    1.0785060049985229E+00 
    1.0785229428640779E+00 
    1.0703405324822997E+00 
    1.0702938222680929E+00 
    1.0785643028221839E+00 
    1.0786262444667396E+00 
    1.0702635331755770E+00 
    1.0702484067530960E+00 
    1.0786993521690191E+00 
    1.0787763022812284E+00 
    1.0702452407950278E+00 
    1.0702496616844523E+00 
    1.0788498817272481E+00 
    1.0789143523102378E+00 
    1.0702561560816004E+00 
    1.0702615861074454E+00 
    1.0789641062837851E+00 
    1.0789953931071181E+00 
    1.0702615690649708E+00 
    1.0702544823944768E+00 
    1.0790045445471967E+00 
    1.0789900311190030E+00 
    1.0702373598830182E+00 
    1.0702102341173947E+00 
    1.0789503550992130E+00 
    1.0788863144145544E+00 
    1.0701717268696682E+00 
    1.0701235343862190E+00 
    1.0787986866142705E+00 
    1.0646926449636562E+00 
    1.0518036036274769E+00 
    1.0517648982490713E+00 
    1.0646504508240888E+00 
    1.0645675007951985E+00 
    1.0516882149333238E+00 
    1.0515748968863152E+00 
    1.0644451720592374E+00 
    1.0642860019998457E+00 
    1.0514264120948713E+00 
    1.0512447348590241E+00 
    1.0640927311743575E+00 
    1.0638688739411659E+00 
    1.0510316784325713E+00 
    1.0507894450913162E+00 
    1.0636173913468032E+00 
    1.0633411513007194E+00 
    1.0505196973040314E+00 
    1.0502244627360497E+00 
    1.0630432019701048E+00 
    1.0627281473845691E+00 
    1.0499066266186272E+00 
    1.0495691393745661E+00 
    1.0623999730753551E+00 
    1.0620627685546393E+00 
    1.0492149545163265E+00 
    1.0488466640929772E+00 
    1.0617198733527637E+00 
    1.0613740154944769E+00 
    1.0484663368145426E+00 
    1.0480760036760592E+00 
    1.0610281684473724E+00 
    1.0606856076563436E+00 
    1.0476782299342091E+00 
    1.0472753342217633E+00 
    1.0603488892464992E+00 
    1.0600201167863672E+00 
    1.0468698658972038E+00 
    1.0464638874182921E+00 
    1.0597010184973841E+00 
    1.0593925873642549E+00 
    1.0460592349391002E+00 
    1.0456571142980584E+00 
    1.0590960187491585E+00 
    1.0588125957541048E+00 
    1.0452592978601760E+00 
    1.0448681233123804E+00 
    1.0585450025415395E+00 
    1.0582928325798509E+00 
    1.0444856082994547E+00 
    1.0441087973477718E+00 
    1.0580485568871150E+00 
    1.0578147249351204E+00 
    1.0437358090029680E+00 
    1.0433771739188455E+00 
    1.0576090410136265E+00 
    1.0574269108648147E+00 
    1.0430380777476804E+00 
    1.0427214611034610E+00 
    1.0572644484517482E+00 
    1.0571251298944875E+00 
    1.0424388237160267E+00 
    1.0421898902348179E+00 
    1.0570063612882077E+00 
    1.0569053895156162E+00 
    1.0419719979343873E+00 
    1.0417849487464599E+00 
    1.0568202618639064E+00 
    1.0567488054162646E+00 
    1.0416286108856214E+00 
    1.0415028617454836E+00 
    1.0566897505039878E+00 
    1.0566416899117896E+00 
    1.0414075393707112E+00 
    1.0413425845607889E+00 
    1.0566041745267700E+00 
    1.0565766593329704E+00 
    1.0413078526212485E+00 
    1.0413033507889113E+00 
    1.0565595659320659E+00 
    1.0375975403820685E+00 
    1.0217388452248601E+00 
    1.0217164729857318E+00 
    1.0375635167649762E+00 
    1.0374962385299527E+00 
    1.0216716600492677E+00 
    1.0216047401287522E+00 
    1.0373963179115326E+00 
    1.0372648513686968E+00 
    1.0215153754715620E+00 
    1.0214037457910714E+00 
    1.0371026795366047E+00 
    1.0369111697045212E+00 
    1.0212695970967782E+00 
    1.0211133210832586E+00 
    1.0366916753133759E+00 
    1.0364456591833886E+00 
    1.0209347649037459E+00 
    1.0207336782928147E+00 
    1.0361738926237487E+00 
    1.0358777857743633E+00 
    1.0205093285602731E+00 
    1.0202612637889934E+00 
    1.0355585603358701E+00 
    1.0352179836990325E+00 
    1.0199888459501045E+00 
    1.0196917834222936E+00 
    1.0348573833565586E+00 
    1.0344781129477005E+00 
    1.0193695990438429E+00 
    1.0190221698237003E+00 
    1.0340811359308204E+00 
    1.0336681690908827E+00 
    1.0186499611347197E+00 
    1.0182541348940284E+00 
    1.0332408635675634E+00 
    1.0328016329448786E+00 
    1.0178364220852933E+00 
    1.0173992569883881E+00 
    1.0323528060200515E+00 
    1.0318966244688073E+00 
    1.0169450664509931E+00 
    1.0164760566051398E+00 
    1.0314347077832886E+00 
    1.0309694475802074E+00 
    1.0159954449088020E+00 
    1.0155062696587589E+00 
    1.0305034855503046E+00 
    1.0300391991601656E+00 
    1.0150113557875049E+00 
    1.0145140482981565E+00 
    1.0295793595066285E+00 
    1.0291248510710074E+00 
    1.0140193268222144E+00 
    1.0135302815393799E+00 
    1.0286764759385305E+00 
    1.0282340039094067E+00 
    1.0130409525401953E+00 
    1.0125080013068848E+00 
    1.0277829598434998E+00 
    1.0273557364589845E+00 
    1.0119623596644423E+00 
    1.0114845236486776E+00 
    1.0269847199722910E+00 
    1.0266564166652346E+00 
    1.0110627041774651E+00 
    1.0106933056149567E+00 
    1.0263715394968602E+00 
    1.0261313994977097E+00 
    1.0103801991784864E+00 
    1.0101257320899490E+00 
    1.0259378281992273E+00 
    1.0257913008224657E+00 
    1.0099323124573809E+00 
    1.0098006734766962E+00 
    1.0256929147899607E+00 
    1.0256422943145298E+00 
    1.0097316121318034E+00 
    1.0097242066520122E+00 
    1.0256397494512706E+00 
    1.0039648411856421E+00 
    9.8399042562584549E-01 
    9.8400221949384326E-01 
    1.0039596284280583E+00 
    1.0039489676996969E+00 
    9.8402539377600173E-01 
    9.8405902380812926E-01 
    1.0039322874755070E+00 
    1.0039085438851958E+00 
    9.8410150428596199E-01 
    9.8415086272137320E-01 
    1.0038763455384916E+00 
    1.0038340518847781E+00 
    9.8420465686716219E-01 
    9.8425960205425600E-01 
    1.0037797162592743E+00 
    1.0037113522191781E+00 
    9.8431086282742219E-01 
    9.8435409512508509E-01 
    1.0036265937899813E+00 
    1.0035231990968132E+00 
    9.8438530665458768E-01 
    9.8440026570213024E-01 
    1.0033978763767848E+00 
    1.0032477341352051E+00 
    9.8439435826261601E-01 
    9.8436217232212819E-01 
    1.0030691775808884E+00 
    1.0028596689912244E+00 
    9.8429534039086108E-01 
    9.8418604144029209E-01 
    1.0026164364190056E+00 
    1.0023393463728210E+00 
    9.8403000457106193E-01 
    9.8382574023931491E-01 
    1.0020280701154511E+00 
    1.0016841332930875E+00 
    9.8357176742000829E-01 
    9.8326810885833327E-01 
    1.0013089002291147E+00 
    1.0009056168698924E+00 
    9.8291589258144807E-01 
    9.8251896613923562E-01 
    1.0004768599818965E+00 
    1.0000271799916345E+00 
    9.8208059414430537E-01 
    9.8160251797459119E-01 
    9.9955936396054379E-01 
    9.9907620458100221E-01 
    9.8108615780842623E-01 
    9.8053519996142080E-01 
    9.9857963005375538E-01 
    9.9807179225411646E-01 
    9.7995494044364606E-01 
    9.7934825920584856E-01 
    9.9755075755359068E-01 
    9.9700352230737332E-01 
    9.7870719530157058E-01 
    9.7805216538036044E-01 
    9.9639711688270893E-01 
    9.9578205667621245E-01 
    9.7744586763771923E-01 
    9.7690515213931484E-01 
    9.9523733294053673E-01 
    9.9475311019035684E-01 
    9.7641827840293649E-01 
    9.7598767333809511E-01 
    9.9432702712994026E-01 
    9.9396348809290602E-01 
    9.7561775348459667E-01 
    9.7531127477225077E-01 
    9.9366614147098709E-01 
    9.9343730146715159E-01 
    9.7507081901230841E-01 
    9.7489695630875473E-01 
    9.9327858539020941E-01 
    9.9319006114089259E-01 
    9.7479011468377930E-01 
    9.7474859158001714E-01 
    9.9317117674434341E-01 
    9.6068916032066165E-01 
    9.3035771776432652E-01 
    9.3032684776518559E-01 
    9.6069865592073200E-01 
    9.6071825689358759E-01 
    9.3026446906306137E-01 
    9.3017104991360877E-01 
    9.6074757473154837E-01 
    9.6078588461414960E-01 
    9.3004743335099838E-01 
    9.2989489613410803E-01 
    9.6083138177916172E-01 
    9.6088175866980852E-01 
    9.2971410179986025E-01 
    9.2950263396336641E-01 
    9.6093169064455519E-01 
    9.6096995408504304E-01 
    9.2926009694910805E-01 
    9.2899500826039372E-01 
    9.6098577498440840E-01 
    9.6097251547187479E-01 
    9.2871102247137749E-01 
    9.2840988235374111E-01 
    9.6092609559603104E-01 
    9.6084304653707930E-01 
    9.2809203976390775E-01 
    9.2776235381568939E-01 
    9.6072016958182027E-01 
    9.6055642669366081E-01 
    9.2743094269132498E-01 
    9.2710720319211370E-01 
    9.6035300334615725E-01 
    9.6011586588698961E-01 
    9.2679388066334323E-01 
    9.2649455164214267E-01 
    9.5984111847743880E-01 
    9.5952852549973366E-01 
    9.2621062219770534E-01 
    9.2594513903549180E-01 
    9.5917826013149854E-01 
    9.5879295363085637E-01 
    9.2569960701777221E-01 
    9.2547550286493152E-01 
    9.5837693790437339E-01 
    9.5793360334278033E-01 
    9.2527161480952136E-01 
    9.2508932130560784E-01 
    9.5747114050605231E-01 
    9.5698868809575111E-01 
    9.2493069974636455E-01 
    9.2479697135620242E-01 
    9.5649289890285394E-01 
    9.5599490902491968E-01 
    9.2468446971305918E-01 
    9.2458739686905389E-01 
    9.5550489955825402E-01 
    9.5503326563358615E-01 
    9.2449854746569138E-01 
    9.2441451264866614E-01 
    9.5459935510153904E-01 
    9.5420482844053855E-01 
    9.2433357459570276E-01 
    9.2425735002759757E-01 
    9.5384179678948477E-01 
    9.5350932642804187E-01 
    9.2418630299387194E-01 
    9.2412147425044799E-01 
    9.5321073213629004E-01 
    9.5294919449601789E-01 
    9.2406295196480459E-01 
    9.2401121224532301E-01 
    9.5272676249328037E-01 
    9.5254512256041324E-01 
    9.2396595523213298E-01 
    9.2392711591517673E-01 
    9.5240468665892808E-01 
    9.5230544194767686E-01 
    9.2389393963877853E-01 
    9.2386579497838706E-01 
    9.5224607068688094E-01 
    8.9450343030530099E-01 
    8.6324921097645024E-01 
    8.6323167145415014E-01 
    8.9444897757732611E-01 
    8.9434152722953242E-01 
    8.6319742698105639E-01 
    8.6314745456300324E-01 
    8.9418390245221580E-01 
    8.9398014895021638E-01 
    8.6308328765760756E-01 
    8.6300635914830259E-01 
    8.9373543967744173E-01 
    8.9345591397332591E-01 
    8.6291896176295746E-01 
    8.6282271014493439E-01 
    8.9315097041174563E-01 
    8.9283634376557519E-01 
    8.6271919021648258E-01 
    8.6261043140504789E-01 
    8.9252903841953235E-01 
    8.9224172210258668E-01 
    8.6250135270099881E-01 
    8.6239646801360270E-01 
    8.9198033197113713E-01 
    8.9174975526676525E-01 
    8.6230131473091209E-01 
    8.6221982140193487E-01 
    8.9155486799525507E-01 
    8.9139551510735160E-01 
    8.6215682753944034E-01 
    8.6211519632882461E-01 
    8.9126866587863152E-01 
    8.9116764111853508E-01 
    8.6209666772378835E-01 
    8.6210078669134593E-01 
    8.9109533959493137E-01 
    8.9105095718633864E-01 
    8.6212890564316413E-01 
    8.6217987966075960E-01 
    8.9103432165017282E-01 
    8.9104325202462975E-01 
    8.6225358584009937E-01 
    8.6234733732105373E-01 
    8.9107589046312297E-01 
    8.9112806177162895E-01 
    8.6245935711131383E-01 
    8.6258632678152325E-01 
    8.9119263240568514E-01 
    8.9127137969811709E-01 
    8.6272582528564112E-01 
    8.6287532983136050E-01 
    8.9136380042234487E-01 
    8.9146742095409759E-01 
    8.6303311644698466E-01 
    8.6319575576771268E-01 
    8.9157987709132569E-01 
    8.9169739696401795E-01 
    8.6336075429168591E-01 
    8.6352542831161094E-01 
    8.9181803506250090E-01 
    8.9194216135507065E-01 
    8.6368819931127772E-01 
    8.6384482390807937E-01 
    8.9206588044968937E-01 
    8.9218511368447906E-01 
    8.6399221169323170E-01 
    8.6412683855386119E-01 
    8.9229676712425066E-01 
    8.9239790330765223E-01 
    8.6424639336001696E-01 
    8.6434852508109594E-01 
    8.9248654099897406E-01 
    8.9256109975111675E-01 
    8.6443206223721392E-01 
    8.6449605471808944E-01 
    8.9262090466733823E-01 
    8.9266580770855930E-01 
    8.6454066932803164E-01 
    8.6456640278765406E-01 
    8.9269650654364707E-01 
    8.3589649329784355E-01 
    8.0936419346383237E-01 
    8.0939820009288199E-01 
    8.3590423027624416E-01 
    8.3591898593795688E-01 
    8.0946491282303357E-01 
    8.0956205536675552E-01 
    8.3594055773951770E-01 
    8.3596802997128983E-01 
    8.0968708202888207E-01 
    8.0983667908818069E-01 
    8.3600107438492133E-01 
    8.3603886910833014E-01 
    8.1000745736226953E-01 
    8.1019550183436573E-01 
    8.3608113705219200E-01 
    8.3612733953813090E-01 
    8.1039702912864287E-01 
    8.1060882122683131E-01 
    8.3617772216190711E-01 
    8.3623255079233139E-01 
    8.1082805895822363E-01 
    8.1105148594133503E-01 
    8.3629241417116396E-01 
    8.3635803280970400E-01 
    8.1127640983375349E-01 
    8.1150021931348160E-01 
    8.3643030077970848E-01 
    8.3651030669148918E-01 
    8.1172100697596516E-01 
    8.1193698196325381E-01 
    8.3659908525905413E-01 
    8.3669635238251094E-01 
    8.1214645840985411E-01 
    8.1234785755902406E-01 
    8.3680156054616506E-01 
    8.3691444860515030E-01 
    8.1253984117184885E-01 
    8.1272110422340194E-01 
    8.3703425607426030E-01 
    8.3716034084689706E-01 
    8.1289100407570247E-01 
    8.1304885577263786E-01 
    8.3729137864245895E-01 
    8.3742613673943911E-01 
    8.1319449262719157E-01 
    8.1332716125771920E-01 
    8.3756282671497917E-01 
    8.3769976246859545E-01 
    8.1344642914205390E-01 
    8.1355266303355955E-01 
    8.3783591784014744E-01 
    8.3797044692521461E-01 
    8.1364639273290595E-01 
    8.1372793191385773E-01 
    8.3810174598710752E-01 
    8.3822848481495560E-01 
    8.1379762146439816E-01 
    8.1385641240880735E-01 
    8.3834964417333135E-01 
    8.3846462608556860E-01 
    8.1390521271400695E-01 
    8.1394473706177217E-01 
    8.3857147265902854E-01 
    8.3866877716999511E-01 
    8.1397563577449117E-01 
    8.1399851422373704E-01 
    8.3875486522633380E-01 
    8.3882873628585441E-01 
    8.1401388481037884E-01 
    8.1402232787203277E-01 
    8.3888926847806677E-01 
    8.3893610105762251E-01 
    8.1402431381662466E-01 
    8.1402046610154466E-01 
    8.3896884811346828E-01 
    8.3898792014433476E-01 
    8.1401129511374481E-01 
    8.1399750655433711E-01 
    8.3899374261015780E-01 
    7.8283514477162264E-01 
    7.5448883020795998E-01 
    7.5452684540315007E-01 
    7.8288622349961146E-01 
    7.8298631160443388E-01 
    7.5460205907039823E-01 
    7.5471188844735992E-01 
    7.8313197434691850E-01 
    7.8331921878881616E-01 
    7.5485337058770585E-01 
    7.5502219534391701E-01 
    7.8354283588400797E-01 
    7.8379746760692104E-01 
    7.5521379630338614E-01 
    7.5542278750651959E-01 
    7.8407664660339971E-01 
    7.8437429420602012E-01 
    7.5564358924841124E-01 
    7.5587451795601379E-01 
    7.8468471148995045E-01 
    7.8500320218941722E-01 
    7.5610931304432460E-01 
    7.5634269358915562E-01 
    7.8532344119106323E-01 
    7.8564069758682975E-01 
    7.5656936004529929E-01 
    7.5678512932157582E-01 
    7.8594930962311227E-01 
    7.8624574480808229E-01 
    7.5698577865207839E-01 
    7.5716874445462257E-01 
    7.8652545827442821E-01 
    7.8678663312859354E-01 
    7.5733498079500738E-01 
    7.5747941191240065E-01 
    7.8702634134766514E-01 
    7.8724330942454857E-01 
    7.5759936436484998E-01 
    7.5769446066467483E-01 
    7.8743508723353395E-01 
    7.8760211330253760E-01 
    7.5776406610983527E-01 
    7.5780994093849774E-01 
    7.8774343257204671E-01 
    7.8786090859484226E-01 
    7.5783348394344352E-01 
    7.5784128749492274E-01 
    7.8795379482514250E-01 
    7.8802378724826350E-01 
    7.5782935457287148E-01 
    7.5779945520942482E-01 
    7.8807136223415719E-01 
    7.8809925021685967E-01 
    7.5775251485793860E-01 
    7.5769125869226495E-01 
    7.8810826819619795E-01 
    7.8810120009708307E-01 
    7.5761730284138618E-01 
    7.5753407565531306E-01 
    7.8807949382206655E-01 
    7.8804625300289943E-01 
    7.5744063482154356E-01 
    7.5734120963758733E-01 
    7.8800341956158171E-01 
    7.8795446486522192E-01 
    7.5723850846256113E-01 
    7.5713601146086595E-01 
    7.8790092121318223E-01 
    7.8784561208923742E-01 
    7.5703570811658982E-01 
    7.5694017896007637E-01 
    7.8778956636652786E-01 
    7.8773492659257549E-01 
    7.5685055045186245E-01 
    7.5676840653313782E-01 
    7.8768218647747579E-01 
    7.8763284762744112E-01 
    7.5669391415994081E-01 
    7.5662760742352109E-01 
    7.8758690127809550E-01 
    7.2077807500446134E-01 
    6.8502406062684562E-01 
    6.8497516363240707E-01 
    7.2076977571039280E-01 
    7.2075305256104749E-01 
    6.8487961749238568E-01 
    6.8474124140413428E-01 
    7.2072818459631571E-01 
    7.2069557786283189E-01 
    6.8456415751542343E-01 
    6.8435379348912662E-01 
    7.2065595529764537E-01 
    7.2060973618891744E-01 
    6.8411560078982403E-01 
    6.8385598538467263E-01 
    7.2055747131850167E-01 
    7.2049917621486637E-01 
    6.8358107167226878E-01 
    6.8329322431400907E-01 
    7.2043581254348144E-01 
    7.2036827925874736E-01 
    6.8300150782942370E-01 
    6.8271203795918622E-01 
    7.2029828005284513E-01 
    7.2022605863034539E-01 
    6.8242999493247292E-01 
    6.8216029927350563E-01 
    7.2015303307149825E-01 
    7.2007883740902312E-01 
    6.8190670713635648E-01 
    6.8167236460876768E-01 
    7.2000457873630819E-01 
    7.1992931246352565E-01 
    6.8145428488651316E-01 
    6.8125908699032889E-01 
    7.1985483787345383E-01 
    7.1978092002123184E-01 
    6.8108911124553717E-01 
    6.8094576260537665E-01 
    7.1970927334133095E-01 
    7.1963948865375904E-01 
    6.8082911269375390E-01 
    6.8073827202668125E-01 
    7.1957337051980630E-01 
    7.1951065589817853E-01 
    6.8067111185539653E-01 
    6.8062086292874002E-01 
    7.1945315560474810E-01 
    7.1939950856400492E-01 
    6.8059156981632840E-01 
    6.8058258309899666E-01 
    7.1935044820066385E-01 
    7.1930484081782708E-01 
    6.8059262818785904E-01 
    6.8062002507349961E-01 
    7.1926381556184305E-01 
    7.1922666594388873E-01 
    6.8066283586507992E-01 
    6.8071434087402005E-01 
    7.1919471635650700E-01 
    7.1916679853321352E-01 
    6.8077735283950247E-01 
    6.8084901051680213E-01 
    7.1914325601343354E-01 
    7.1912269072014301E-01 
    6.8092667597730105E-01 
    6.8100792170877189E-01 
    7.1910572434028852E-01 
    7.1909141272958554E-01 
    6.8109064700432942E-01 
    6.8117302679708036E-01 