# vtk DataFile Version 2.0
Pressure Field Data 
ASCII 
DATASET UNSTRUCTURED_GRID 

POINTS 1681 double 

    0.0000000000000000E+00     0.0000000000000000E+00     0.0000000000000000E+00 
    1.0000000000000000E+00     0.0000000000000000E+00     0.0000000000000000E+00 
    1.0000000000000000E+00     1.0000000000000000E+00     0.0000000000000000E+00 
    0.0000000000000000E+00     1.0000000000000000E+00     0.0000000000000000E+00 
    5.2499999999875258E-01     0.0000000000000000E+00     0.0000000000000000E+00 
    7.4999999999856765E-02     0.0000000000000000E+00     0.0000000000000000E+00 
    1.2499999999975850E-01     0.0000000000000000E+00     0.0000000000000000E+00 
    1.7499999999962990E-01     0.0000000000000000E+00     0.0000000000000000E+00 
    2.2499999999948389E-01     0.0000000000000000E+00     0.0000000000000000E+00 
    2.7499999999933789E-01     0.0000000000000000E+00     0.0000000000000000E+00 
    3.2499999999919210E-01     0.0000000000000000E+00     0.0000000000000000E+00 
    3.7499999999904610E-01     0.0000000000000000E+00     0.0000000000000000E+00 
    4.2499999999890020E-01     0.0000000000000000E+00     0.0000000000000000E+00 
    4.7499999999875958E-01     0.0000000000000000E+00     0.0000000000000000E+00 
    2.4999999999949701E-02     0.0000000000000000E+00     0.0000000000000000E+00 
    5.7499999999887907E-01     0.0000000000000000E+00     0.0000000000000000E+00 
    6.2499999999901101E-01     0.0000000000000000E+00     0.0000000000000000E+00 
    6.7499999999914273E-01     0.0000000000000000E+00     0.0000000000000000E+00 
    7.2499999999927467E-01     0.0000000000000000E+00     0.0000000000000000E+00 
    7.7499999999940661E-01     0.0000000000000000E+00     0.0000000000000000E+00 
    8.2499999999953844E-01     0.0000000000000000E+00     0.0000000000000000E+00 
    8.7499999999967026E-01     0.0000000000000000E+00     0.0000000000000000E+00 
    9.2499999999980220E-01     0.0000000000000000E+00     0.0000000000000000E+00 
    9.7499999999993414E-01     0.0000000000000000E+00     0.0000000000000000E+00 
    5.4999999999881310E-01     0.0000000000000000E+00     0.0000000000000000E+00 
    9.9999999999814140E-02     0.0000000000000000E+00     0.0000000000000000E+00 
    1.4999999999970290E-01     0.0000000000000000E+00     0.0000000000000000E+00 
    1.9999999999955689E-01     0.0000000000000000E+00     0.0000000000000000E+00 
    2.4999999999941089E-01     0.0000000000000000E+00     0.0000000000000000E+00 
    2.9999999999926502E-01     0.0000000000000000E+00     0.0000000000000000E+00 
    3.4999999999911913E-01     0.0000000000000000E+00     0.0000000000000000E+00 
    3.9999999999897312E-01     0.0000000000000000E+00     0.0000000000000000E+00 
    4.4999999999882723E-01     0.0000000000000000E+00     0.0000000000000000E+00 
    4.9999999999869210E-01     0.0000000000000000E+00     0.0000000000000000E+00 
    4.9999999999899403E-02     0.0000000000000000E+00     0.0000000000000000E+00 
    5.9999999999894504E-01     0.0000000000000000E+00     0.0000000000000000E+00 
    6.4999999999907687E-01     0.0000000000000000E+00     0.0000000000000000E+00 
    6.9999999999920870E-01     0.0000000000000000E+00     0.0000000000000000E+00 
    7.4999999999934064E-01     0.0000000000000000E+00     0.0000000000000000E+00 
    7.9999999999947247E-01     0.0000000000000000E+00     0.0000000000000000E+00 
    8.4999999999960441E-01     0.0000000000000000E+00     0.0000000000000000E+00 
    8.9999999999973623E-01     0.0000000000000000E+00     0.0000000000000000E+00 
    9.4999999999986817E-01     0.0000000000000000E+00     0.0000000000000000E+00 
    1.0000000000000000E+00     5.2499999999875258E-01     0.0000000000000000E+00 
    1.0000000000000000E+00     7.4999999999856765E-02     0.0000000000000000E+00 
    1.0000000000000000E+00     1.2499999999975850E-01     0.0000000000000000E+00 
    1.0000000000000000E+00     1.7499999999962990E-01     0.0000000000000000E+00 
    1.0000000000000000E+00     2.2499999999948389E-01     0.0000000000000000E+00 
    1.0000000000000000E+00     2.7499999999933789E-01     0.0000000000000000E+00 
    1.0000000000000000E+00     3.2499999999919210E-01     0.0000000000000000E+00 
    1.0000000000000000E+00     3.7499999999904610E-01     0.0000000000000000E+00 
    1.0000000000000000E+00     4.2499999999890020E-01     0.0000000000000000E+00 
    1.0000000000000000E+00     4.7499999999875958E-01     0.0000000000000000E+00 
    1.0000000000000000E+00     2.4999999999949701E-02     0.0000000000000000E+00 
    1.0000000000000000E+00     5.7499999999887907E-01     0.0000000000000000E+00 
    1.0000000000000000E+00     6.2499999999901101E-01     0.0000000000000000E+00 
    1.0000000000000000E+00     6.7499999999914273E-01     0.0000000000000000E+00 
    1.0000000000000000E+00     7.2499999999927467E-01     0.0000000000000000E+00 
    1.0000000000000000E+00     7.7499999999940661E-01     0.0000000000000000E+00 
    1.0000000000000000E+00     8.2499999999953844E-01     0.0000000000000000E+00 
    1.0000000000000000E+00     8.7499999999967026E-01     0.0000000000000000E+00 
    1.0000000000000000E+00     9.2499999999980220E-01     0.0000000000000000E+00 
    1.0000000000000000E+00     9.7499999999993414E-01     0.0000000000000000E+00 
    1.0000000000000000E+00     5.4999999999881310E-01     0.0000000000000000E+00 
    1.0000000000000000E+00     9.9999999999814140E-02     0.0000000000000000E+00 
    1.0000000000000000E+00     1.4999999999970290E-01     0.0000000000000000E+00 
    1.0000000000000000E+00     1.9999999999955689E-01     0.0000000000000000E+00 
    1.0000000000000000E+00     2.4999999999941089E-01     0.0000000000000000E+00 
    1.0000000000000000E+00     2.9999999999926502E-01     0.0000000000000000E+00 
    1.0000000000000000E+00     3.4999999999911913E-01     0.0000000000000000E+00 
    1.0000000000000000E+00     3.9999999999897312E-01     0.0000000000000000E+00 
    1.0000000000000000E+00     4.4999999999882723E-01     0.0000000000000000E+00 
    1.0000000000000000E+00     4.9999999999869210E-01     0.0000000000000000E+00 
    1.0000000000000000E+00     4.9999999999899403E-02     0.0000000000000000E+00 
    1.0000000000000000E+00     5.9999999999894504E-01     0.0000000000000000E+00 
    1.0000000000000000E+00     6.4999999999907687E-01     0.0000000000000000E+00 
    1.0000000000000000E+00     6.9999999999920870E-01     0.0000000000000000E+00 
    1.0000000000000000E+00     7.4999999999934064E-01     0.0000000000000000E+00 
    1.0000000000000000E+00     7.9999999999947247E-01     0.0000000000000000E+00 
    1.0000000000000000E+00     8.4999999999960441E-01     0.0000000000000000E+00 
    1.0000000000000000E+00     8.9999999999973623E-01     0.0000000000000000E+00 
    1.0000000000000000E+00     9.4999999999986817E-01     0.0000000000000000E+00 
    4.7500000000196618E-01     1.0000000000000000E+00     0.0000000000000000E+00 
    9.2499999999968763E-01     1.0000000000000000E+00     0.0000000000000000E+00 
    8.7499999999961831E-01     1.0000000000000000E+00     0.0000000000000000E+00 
    8.2499999999982654E-01     1.0000000000000000E+00     0.0000000000000000E+00 
    7.7500000000017355E-01     1.0000000000000000E+00     0.0000000000000000E+00 
    7.2500000000052045E-01     1.0000000000000000E+00     0.0000000000000000E+00 
    6.7500000000086724E-01     1.0000000000000000E+00     0.0000000000000000E+00 
    6.2500000000121403E-01     1.0000000000000000E+00     0.0000000000000000E+00 
    5.7500000000156093E-01     1.0000000000000000E+00     0.0000000000000000E+00 
    5.2500000000189684E-01     1.0000000000000000E+00     0.0000000000000000E+00 
    9.7499999999989595E-01     1.0000000000000000E+00     0.0000000000000000E+00 
    4.2500000000176902E-01     1.0000000000000000E+00     0.0000000000000000E+00 
    3.7500000000156092E-01     1.0000000000000000E+00     0.0000000000000000E+00 
    3.2500000000135282E-01     1.0000000000000000E+00     0.0000000000000000E+00 
    2.7500000000114472E-01     1.0000000000000000E+00     0.0000000000000000E+00 
    2.2500000000093659E-01     1.0000000000000000E+00     0.0000000000000000E+00 
    1.7500000000072849E-01     1.0000000000000000E+00     0.0000000000000000E+00 
    1.2500000000052039E-01     1.0000000000000000E+00     0.0000000000000000E+00 
    7.5000000000312261E-02     1.0000000000000000E+00     0.0000000000000000E+00 
    2.5000000000104109E-02     1.0000000000000000E+00     0.0000000000000000E+00 
    4.5000000000187301E-01     1.0000000000000000E+00     0.0000000000000000E+00 
    8.9999999999958358E-01     1.0000000000000000E+00     0.0000000000000000E+00 
    8.4999999999965303E-01     1.0000000000000000E+00     0.0000000000000000E+00 
    8.0000000000000004E-01     1.0000000000000000E+00     0.0000000000000000E+00 
    7.5000000000034706E-01     1.0000000000000000E+00     0.0000000000000000E+00 
    7.0000000000069384E-01     1.0000000000000000E+00     0.0000000000000000E+00 
    6.5000000000104063E-01     1.0000000000000000E+00     0.0000000000000000E+00 
    6.0000000000138742E-01     1.0000000000000000E+00     0.0000000000000000E+00 
    5.5000000000173432E-01     1.0000000000000000E+00     0.0000000000000000E+00 
    5.0000000000205946E-01     1.0000000000000000E+00     0.0000000000000000E+00 
    9.4999999999979179E-01     1.0000000000000000E+00     0.0000000000000000E+00 
    4.0000000000166491E-01     1.0000000000000000E+00     0.0000000000000000E+00 
    3.5000000000145681E-01     1.0000000000000000E+00     0.0000000000000000E+00 
    3.0000000000124871E-01     1.0000000000000000E+00     0.0000000000000000E+00 
    2.5000000000104061E-01     1.0000000000000000E+00     0.0000000000000000E+00 
    2.0000000000083251E-01     1.0000000000000000E+00     0.0000000000000000E+00 
    1.5000000000062441E-01     1.0000000000000000E+00     0.0000000000000000E+00 
    1.0000000000041630E-01     1.0000000000000000E+00     0.0000000000000000E+00 
[...]
CELL_DATA 1600 
SCALARS Pressure double 1 
LOOKUP_TABLE default 

    1.0338899542149169E+00 
    1.0151029407802103E+00 
    1.0150150760954606E+00 
    1.0320275421168801E+00 
    1.0303342413738961E+00 
    1.0148574068295155E+00 
    1.0146438365419359E+00 
    1.0287859988129351E+00 
    1.0273703033904875E+00 
    1.0143870642631077E+00 
    1.0140973131279871E+00 
    1.0260760836534115E+00 
    1.0248929707456411E+00 
    1.0137839400783835E+00 
    1.0134541245499000E+00 
    1.0238119757388744E+00 
    1.0228253849858377E+00 
    1.0131143801649560E+00 
    1.0127699294967849E+00 
    1.0219268356660027E+00 
    1.0211107026654096E+00 
    1.0124263657801265E+00 
    1.0120877961793191E+00 
    1.0203715707258376E+00 
    1.0197046648688060E+00 
    1.0117582493802308E+00 
    1.0114404361485221E+00 
    1.0191058999810285E+00 
    1.0185714138591038E+00 
    1.0111366896376308E+00 
    1.0108490058468274E+00 
    1.0180980631134950E+00 
    1.0176814920029540E+00 
    1.0105792603900097E+00 
    1.0103279503363125E+00 
    1.0173175943855977E+00 
    1.0170020502932378E+00 
    1.0100952442752182E+00 
    1.0098807861888612E+00 
    1.0167303917305746E+00 
    1.0164977855593322E+00 
    1.0096834941328643E+00 
    1.0095022016927482E+00 
    1.0162997444695119E+00 
    1.0161320831607072E+00 
    1.0093355978805574E+00 
    1.0091840624039461E+00 
    1.0159930031153446E+00 
    1.0158809232257566E+00 
    1.0090472602159453E+00 
    1.0089253265741647E+00 
    1.0157942291390041E+00 
    1.0157257383133733E+00 
    1.0088140288074883E+00 
    1.0087153935444200E+00 
    1.0156775959949946E+00 
    1.0156525296315568E+00 
    1.0086344712998767E+00 
    1.0085666148132599E+00 
    1.0156419462465316E+00 
    1.0156404697275261E+00 
    1.0085094048078429E+00 
    1.0084617398317188E+00 
    1.0156423747163057E+00 
    1.0156431902318599E+00 
    1.0084203383228620E+00 
    1.0083832347870296E+00 
    1.0156386738224421E+00 
    1.0156260211922941E+00 
    1.0083475152481649E+00 
    1.0083123664245972E+00 
    1.0156025515245972E+00 
    1.0155671403516831E+00 
    1.0082759066501845E+00 
    1.0082384858709224E+00 
    1.0155186993697753E+00 
    1.0154577451886662E+00 
    1.0081992971459566E+00 
    1.0081597903127686E+00 
    1.0153847656399069E+00 
    1.0037083406997733E+00 
    9.9248686402991559E-01 
    9.9245855774965686E-01 
    1.0036754831794039E+00 
    1.0036109043939008E+00 
    9.9240243339228529E-01 
    9.9231937000665604E-01 
    1.0035157731680060E+00 
    1.0033921190697725E+00 
    9.9221010708176827E-01 
    9.9207585908162810E-01 
    1.0032420026230029E+00 
    1.0030681731766755E+00 
    9.9191793090926672E-01 
    9.9173794034620222E-01 
    1.0028730764146638E+00 
    1.0026594022324753E+00 
    9.9153750330141377E-01 
    9.9131829072402822E-01 
    1.0024296441444853E+00 
    1.0021869576349980E+00 
    9.9108204134487388E-01 
    9.9083066894216631E-01 
    1.0019341574354328E+00 
    1.0016742237976821E+00 
    9.9056623256030829E-01 
    9.9029063442133980E-01 
    1.0014095305308457E+00 
    1.0011421773922162E+00 
    9.9000562360712108E-01 
    9.8971315227990719E-01 
    1.0008744980582893E+00 
    1.0006086123102498E+00 
    9.8941519276876022E-01 
    9.8911311201033314E-01 
    1.0003458623419983E+00 
    1.0000873444737615E+00 
    9.8880845603822309E-01 
    9.8850262844590486E-01 
    9.9983401821971496E-01 
    9.9958620461049652E-01 
    9.8819693441655432E-01 
    9.8789225536929348E-01 
    9.9934414456653564E-01 
    9.9910815348956461E-01 
    9.8758990679607972E-01 
    9.8729122540114300E-01 
    9.9887946296220298E-01 
    9.9865894479736195E-01 
    9.8699770170838252E-01 
    9.8671063527205838E-01 
    9.9844767018358860E-01 
    9.9824499565415603E-01 
    9.8643136459586545E-01 
    9.8616102177225473E-01 
    9.9805085177742070E-01 
    9.9787120875981616E-01 
    9.8590315451145216E-01 
    9.8566237302850013E-01 
    9.9771334829639136E-01 
    9.9757570719150834E-01 
    9.8544167083532608E-01 
    9.8523911351641469E-01 
    9.9744985163879218E-01 
    9.9733528248121206E-01 
    9.8505741032221406E-01 
    9.8489910762393607E-01 
    9.9723583111983161E-01 
    9.9715095215261507E-01 
    9.8476415607243339E-01 
    9.8465446573063953E-01 
    9.9708045832952830E-01 
    9.9702392795665606E-01 
    9.8457082921512729E-01 
    9.8451401000788108E-01 
    9.9698170544262565E-01 
    9.9695389183563865E-01 
    9.8448479728125315E-01 
    9.8448392998572132E-01 
    9.9694137635669566E-01 
    9.8036827879399635E-01 
    9.6710344982562801E-01 
    9.6708815474690435E-01 
    9.8034381158237627E-01 
    9.8029538645447090E-01 
    9.6705748548869530E-01 
    9.6701169924213959E-01 
    9.8022338255360331E-01 
    9.8012852956107954E-01 
    9.6695066696806531E-01 
    9.6687459196879577E-01 
    9.8001149218438355E-01 
    9.7987311498137608E-01 
    9.6678315240737556E-01 
    9.6667662849485558E-01 
    9.7971416867375083E-01 
    9.7953597549311922E-01 
    9.6655524148943350E-01 
    9.6641897895455087E-01 
    9.7933930424149762E-01 
    9.7912498622570321E-01 
    9.6626726910798966E-01 
    9.6609973618384504E-01 
    9.7889373822163106E-01 
    9.7864677179816784E-01 
    9.6591597734781554E-01 
    9.6571611202958729E-01 
    9.7838519605635088E-01 
    9.7811039233710395E-01 
    9.6550041619426918E-01 
    9.6526946446574469E-01 
    9.7782370703788213E-01 
    9.7752682695441395E-01 
    9.6502413122627739E-01 
    9.6476533119072994E-01 
    9.7722096666159797E-01 
    9.7690769399224942E-01 
    9.6449426983236586E-01 
    9.6421255128901340E-01 
    9.7658866484590023E-01 
    9.7626562696370911E-01 
    9.6392202445555031E-01 
    9.6362462936431781E-01 
    9.7594015502819387E-01 
    9.7561421247477098E-01 
    9.6332292590680202E-01 
    9.6301864800008130E-01 
    9.7528942122721085E-01 
    9.7496724235452359E-01 
    9.6271352703177682E-01 
    9.6240923545406809E-01 
    9.7464931421053291E-01 
    9.7433720624071374E-01 
    9.6210786086071920E-01 
    9.6181146498124193E-01 
    9.7403342259793002E-01 
    9.7374050132532874E-01 
    9.6152260503468578E-01 
    9.6124294985264436E-01 
    9.7345781238097184E-01 
    9.7318797530649370E-01 
    9.6097453994763493E-01 
    9.6072005224260359E-01 
    9.7293715833056027E-01 
    9.7270850140684983E-01 
    9.6048254479375594E-01 
    9.6026382881929939E-01 
    9.7250612771894873E-01 
    9.7233315469995141E-01 
    9.6006625305887616E-01 
    9.5990435542844177E-01 
    9.7219283527531875E-01 
    9.7208637765798855E-01 
    9.5978421255145807E-01 
    9.5970274839861980E-01 
    9.7201521774696342E-01 
    9.7197999769699062E-01 
    9.5966122307599466E-01 
    9.5965968398408452E-01 
    9.7198181570268383E-01 
    9.5258076110166234E-01 
    9.3668940533951517E-01 
    9.3670080768187269E-01 
    9.5257896550796384E-01 
    9.5257512653436349E-01 
    9.3672323126730761E-01 
    9.3675592229013049E-01 
    9.5256888342110591E-01 
    9.5255951500804570E-01 
    9.3679774028428653E-01 
    9.3684722337292181E-01 
    9.5254614244429792E-01 
    9.5252768673075217E-01 
    9.3690262075815389E-01 
    9.3696164529139203E-01 
    9.5250309980093273E-01 
    9.5247120202262270E-01 
    9.3702132004749050E-01 
    9.3707885767334731E-01 
    9.5243033296206270E-01 
    9.5237891915239514E-01 
    9.3713160842064791E-01 
    9.3717651242653366E-01 
    9.5231485658040427E-01 
    9.5223644585387734E-01 
    9.3721030740839506E-01 
    9.3722981347927692E-01 
    9.5214187898352309E-01 
    9.5203014067551306E-01 
    9.3723147542328722E-01 
    9.3721263189551640E-01 
    9.5189993051018318E-01 
    9.5175152945456654E-01 
    9.3717234508868941E-01 
    9.3711041330472433E-01 
    9.5158479080067460E-01 
    9.5140076311701460E-01 
    9.3702678167493536E-01 
    9.3692242143029003E-01 
    9.5120033753930278E-01 
    9.5098560760430584E-01 
    9.3679869781602620E-01 
    9.3665804890199622E-01 
    9.5075840240399423E-01 
    9.5052182595448842E-01 
    9.3650324056941159E-01 
    9.3633637868445596E-01 
    9.5027747661701067E-01 
    9.5002721723896799E-01 
    9.3615865880567095E-01 
    9.3597176756938527E-01 
    9.4977262464115297E-01 
    9.4951617473156835E-01 
    9.3577769592755078E-01 
    9.3557899011268275E-01 
    9.4926003093854738E-01 
    9.4900690620579042E-01 
    9.3537831328414123E-01 
    9.3517811630493575E-01 
    9.4875885114431024E-01 
    9.4851806606421241E-01 
    9.3498008832022450E-01 
    9.3478813072600764E-01 
    9.4828830278514742E-01 
    9.4807302038974084E-01 
    9.3460655878015131E-01 
    9.3443822611780769E-01 
    9.4787337077467826E-01 
    9.4768189146704995E-01 
    9.3427389302392894E-01 
    9.3412110676931981E-01 
    9.4751638801878191E-01 
    9.4739413171470466E-01 
    9.3400156709828286E-01 
    9.3391307215076069E-01 
    9.4730893783353731E-01 
    9.4726123562505993E-01 
    9.3385472060552288E-01 
    9.3382565189629674E-01 
    9.4725096695802025E-01 
    9.1885906488822566E-01 
    8.9763487522407892E-01 
    8.9763132074828578E-01 
    9.1886953112612979E-01 
    9.1889098447533846E-01 
    8.9762399154554517E-01 
    8.9761320123442467E-01 
    9.1892328911542498E-01 
    9.1896614716382097E-01 
    8.9759933034391060E-01 
    8.9758314919156945E-01 
    9.1901874854074828E-01 
    9.1908011757902108E-01 
    8.9756516974692890E-01 
    8.9754534898317495E-01 
    9.1914835882267021E-01 
    9.1922080673414941E-01 
    8.9752276498535866E-01 
    8.9749792796694006E-01 
    9.1929502803567398E-01 
    9.1936826012278239E-01 
    8.9747230487918694E-01 
    8.9744816417208628E-01 
    9.1943794046504124E-01 
    9.1950152864643653E-01 
    8.9742660321167533E-01 
    8.9740755311669440E-01 
    9.1955579450375780E-01 
    9.1959646698653030E-01 
    8.9738910000588945E-01 
    8.9737088918321062E-01 
    9.1962025218710031E-01 
    9.1962969075970891E-01 
    8.9735262061811671E-01 
    8.9733477001839090E-01 
    9.1962144526930856E-01 
    9.1959520028538100E-01 
    8.9731674740398371E-01 
    8.9729853819398742E-01 
    9.1955124252917764E-01 
    9.1949071028366969E-01 
    8.9727887687175778E-01 
    8.9725733394909168E-01 
    9.1941566396638086E-01 
    9.1932892412450828E-01 
    8.9723220094301281E-01 
    8.9720290615807152E-01 
    9.1923654914385522E-01 
    9.1913590617327789E-01 
    8.9716957633050431E-01 
    8.9713325127258015E-01 
    9.1902720586019249E-01 
    9.1891151382934577E-01 
    8.9709377951130076E-01 
    8.9705228181697771E-01 
    9.1879059967501520E-01 
    9.1866706223399730E-01 
    8.9700958417539134E-01 
    8.9696762613887215E-01 
    9.1854330117465821E-01 
    9.1841715826244485E-01 
    8.9692612685160333E-01 
    8.9688587121653018E-01 
    9.1829157998978594E-01 
    9.1816984169309390E-01 
    8.9684573954230074E-01 
    8.9680285527067960E-01 
    9.1805348419898603E-01 
    9.1793397572539281E-01 
    8.9674827725837447E-01 
    8.9668666010092446E-01 
    9.1781309306009995E-01 
    9.1771123776418562E-01 
    8.9663508229427114E-01 
    8.9659419201587975E-01 
    9.1762987950707497E-01 
    9.1756611209423389E-01 
    8.9656074704098887E-01 
    8.9653399741384765E-01 
    9.1751885887759155E-01 
    8.7431011148346516E-01 
    8.5235432419371104E-01 
    8.5234044900439054E-01 
    8.7429081352383475E-01 
    8.7425296496339622E-01 
    8.5231319759016710E-01 
    8.5227318396059704E-01 
    8.7419780648309320E-01 
    8.7412688064453326E-01 
    8.5222141776452354E-01 
    8.5215895633303818E-01 
    8.7404215438979882E-01 
    8.7394579425329089E-01 
    8.5208748895209729E-01 
    8.5200875809103427E-01 
    8.7383937535344447E-01 
    8.7372467269639842E-01 
    8.5192481487866301E-01 
    8.5183708781106571E-01 
    8.7360476880456439E-01 
    8.7348501902165709E-01 
    8.5174774344741744E-01 
    8.5165920134558959E-01 
    8.7336949106951622E-01 
    8.7326153852841271E-01 
    8.5157530561963757E-01 
    8.5149953167354586E-01 
    8.7316303062988387E-01 
    8.7307589252640239E-01 
    8.5143724990020020E-01 
    8.5139152679044838E-01 
    8.7300306956845120E-01 
    8.7294307616225575E-01 
    8.5136239428798177E-01 
    8.5134794950096682E-01 
    8.7289782976422792E-01 
    8.7286646905331255E-01 
    8.5134543627190640E-01 
    8.5134543606478819E-01 
    8.7284828244581636E-01 
    8.7284099139062143E-01 
    8.5133943372076826E-01 
    8.5132417388637383E-01 
    8.7284205765516620E-01 
    8.7284823589775806E-01 
    8.5130141634159084E-01 
    8.5127105205326581E-01 
    8.7285597042499397E-01 
    8.7286732514620613E-01 
    8.5123352490598758E-01 
    8.5118912895838394E-01 
    8.7288247855918299E-01 
    8.7289904486519065E-01 
    8.5114007666457048E-01 
    8.5108728582989090E-01 
    8.7291506400493701E-01 
    8.7292985559607694E-01 
    8.5103012927095556E-01 
    8.5096498723852521E-01 
    8.7294529815420174E-01 
    8.7296282769409583E-01 
    8.5089047539523366E-01 
    8.5080526211989504E-01 
    8.7297827800356975E-01 
    8.7298195817651958E-01 
    8.5071047111067277E-01 
    8.5061214821122344E-01 
    8.7296350524322708E-01 
    8.7292648189455269E-01 
    8.5052754937554709E-01 
    8.5046862565248427E-01 
    8.7289591645324727E-01 
    8.7288089623046006E-01 
    8.5043081088722239E-01 
    8.5040750606790749E-01 
    8.7287558236170448E-01 
    8.7287876380611951E-01 
    8.5039812472719356E-01 
    8.5040217609418478E-01 
    8.7289043356742513E-01 
    8.3077432048992061E-01 
    8.0836519549772357E-01 
    8.0837886037817319E-01 
    8.3077348617164570E-01 
    8.3077128221536967E-01 
    8.0840511986428409E-01 
    8.0844239300785137E-01 
    8.3076735444745031E-01 
    8.3076104359044733E-01 
    8.0848885169660345E-01 
    8.0854226594504996E-01 
    8.3075195377383015E-01 
    8.3073953667333378E-01 
    8.0860011162316281E-01 
    8.0865940392327551E-01 
    8.3072385273449134E-01 
    8.3070550665752318E-01 
    8.0871776333445389E-01 
    8.0877398714055171E-01 
    8.3068471539646205E-01 
    8.3066017363130540E-01 
    8.0882505645972103E-01 
    8.0886475218940379E-01 
    8.3063032496059819E-01 
    8.3059468472405018E-01 
    8.0888488720800167E-01 
    8.0887578154548578E-01 
    8.3055395512831975E-01 
    8.3051053887406268E-01 
    8.0882851955776192E-01 
    8.0873898880058237E-01 
    8.3046600462558406E-01 
    8.3041804223794613E-01 
    8.0860793589198043E-01 
    8.0843961954533183E-01 
    8.3035978347162520E-01 
    8.3028123748281191E-01 
    8.0824190501108262E-01 
    8.0803729821394354E-01 
    8.3017893628070194E-01 
    8.3006318724643324E-01 
    8.0784440289159065E-01 
    8.0766378856484589E-01 
    8.2994300800851151E-01 
    8.2982043161007002E-01 
    8.0749390965443490E-01 
    8.0733349433466750E-01 
    8.2969495974223384E-01 
    8.2956640447771535E-01 
    8.0718246342912814E-01 
    8.0704098323310969E-01 
    8.2943619872366703E-01 
    8.2930793147049331E-01 
    8.0690836720928893E-01 
    8.0678293632029108E-01 
    8.2918362711414861E-01 
    8.2906199078946896E-01 
    8.0666556159105052E-01 
    8.0656005672120346E-01 
    8.2894072700954180E-01 
    8.2881997846982014E-01 
    8.0646893494602645E-01 
    8.0639126854385601E-01 
    8.2870328418881811E-01 
    8.2859900909559225E-01 
    8.0632383632042115E-01 
    8.0626297873262420E-01 
    8.2851672344119220E-01 
    8.2845804171926896E-01 
    8.0620786090534646E-01 
    8.0615934782477283E-01 
    8.2841468447253397E-01 
    8.2838163056892999E-01 
    8.0611847214796495E-01 
    8.0608595707711916E-01 
    8.2835866326527063E-01 
    8.2834590872964786E-01 
    8.0606255758628187E-01 
    8.0604874033965290E-01 
    8.2834352357093477E-01 
    7.8444819485836581E-01 
    7.5619188854894703E-01 
    7.5619791521518909E-01 
    7.8447267528380871E-01 
    7.8451995243683881E-01 
    7.5620935915092846E-01 
    7.5622436509039748E-01 
    7.8458709984746378E-01 
    7.8467063491577194E-01 
    7.5624089074821088E-01 
    7.5625624493301635E-01 
    7.8476589309720479E-01 
    7.8486756516540934E-01 
    7.5626758834935615E-01 
    7.5627249801685992E-01 
    7.8496716867055738E-01 
    7.8505287231402843E-01 
    7.5626799750578266E-01 
    7.5625358837466750E-01 
    7.8511667295825516E-01 
    7.8515732732771437E-01 
    7.5622753303125634E-01 
    7.5619227663963362E-01 
    7.8517368965394707E-01 
    7.8516711191506972E-01 
    7.5615296925840669E-01 
    7.5611784723727871E-01 
    7.8513768949354013E-01 
    7.8508514771393934E-01 
    7.5609444015349281E-01 
    7.5608563335562906E-01 
    7.8500895139189419E-01 
    7.8491465228270296E-01 
    7.5608889775436472E-01 
    7.5609153777247395E-01 
    7.8481163604606297E-01 
    7.8471177715630236E-01 
    7.5608187745093214E-01 
    7.5605540257869353E-01 
    7.8461674370495282E-01 
    7.8451960743415139E-01 
    7.5601115699743870E-01 
    7.5595087900679725E-01 
    7.8441381200106064E-01 
    7.8430110897297678E-01 
    7.5587592808246773E-01 
    7.5579150219141333E-01 
    7.8418079276327890E-01 
    7.8405431452212049E-01 
    7.5569497728593216E-01 
    7.5558782918369904E-01 
    7.8392183185102104E-01 
    7.8378566572152797E-01 
    7.5547074093555322E-01 
    7.5534581572217474E-01 
    7.8364624824081686E-01 
    7.8350582324464157E-01 
    7.5521416077732306E-01 
    7.5507823649559269E-01 
    7.8336530592371867E-01 
    7.8322725267470894E-01 
    7.5493805677414905E-01 
    7.5479724788155678E-01 
    7.8309298666687444E-01 
    7.8296527414692030E-01 
    7.5465817182290074E-01 
    7.5452382903422510E-01 
    7.8284498029695204E-01 
    7.8273438555682040E-01 
    7.5439602473853429E-01 
    7.5427708776089974E-01 
    7.8263410209635143E-01 
    7.8254597470675469E-01 
    7.5416822122073757E-01 
    7.5407107446875554E-01 
    7.8247028439208288E-01 
    7.8240843238676139E-01 
    7.5398624065284114E-01 
    7.5391471847532676E-01 
    7.8236037886235743E-01 
    7.2065235579495546E-01 
    6.8427154734496776E-01 
    6.8423185108571272E-01 
    7.2062892327149242E-01 
    7.2058226638900391E-01 
    6.8415446510615585E-01 
    6.8404275558830052E-01 
    7.2051380750704386E-01 
    7.2042561541620831E-01 
    6.8390021994930794E-01 
    6.8373123225002719E-01 
    7.2032069315616931E-01 
    7.2020259128675168E-01 
    6.8354002706279371E-01 
    6.8333139859954817E-01 
    7.2007963052640389E-01 
    7.1996419914439103E-01 
    6.8310917756466671E-01 
    6.8287434817147363E-01 
    7.1986428175958894E-01 
    7.1978027776598430E-01 
    6.8263606491752593E-01 
    6.8240012892774204E-01 
    7.1970997442670326E-01 
    7.1964622956316515E-01 
    6.8217118738805804E-01 
    6.8195354480799519E-01 
    7.1958290128283275E-01 
    7.1951582828626659E-01 
    6.8175038190609527E-01 
    6.8156439980701533E-01 
    7.1944602664603463E-01 
    7.1937334780412909E-01 
    6.8139223649007530E-01 
    6.8124008256674673E-01 
    7.1929970218863193E-01 
    7.1922485485168008E-01 
    6.8110987742840901E-01 
    6.8100281816544050E-01 
    7.1915055397564576E-01 
    7.1907672980466331E-01 
    6.8091879677045630E-01 
    6.8085697352151475E-01 
    7.1900549817702586E-01 
    7.1893719741901208E-01 
    6.8081526588978736E-01 
    6.8078718712270814E-01 
    7.1887399423154907E-01 
    7.1881447776760887E-01 
    6.8077672023064528E-01 
    6.8078336418133623E-01 
    7.1875908494824969E-01 
    7.1870666651821336E-01 
    6.8080591107135768E-01 
    6.8084296137333078E-01 
    7.1865824246284138E-01 
    7.1861325521122921E-01 
    6.8089271492869374E-01 
    6.8094886132810561E-01 
    7.1857294868520516E-01 
    7.1853634407276623E-01 
    6.8101438762626010E-01 
    6.8108685561714488E-01 
    7.1850376287983309E-01 
    7.1847398697596909E-01 
    6.8116382257670338E-01 
    6.8124322410440297E-01 
    7.1844759835897476E-01 
    7.1842375547253712E-01 
    6.8132306136638265E-01 
    6.8140176561861021E-01 