# vtk DataFile Version 2.0
Pressure Field Data 
ASCII 
DATASET UNSTRUCTURED_GRID 

POINTS 1681 double 

    0.0000000000000000E+00     0.0000000000000000E+00     0.0000000000000000E+00 
    1.0000000000000000E+00     0.0000000000000000E+00     0.0000000000000000E+00 
    1.0000000000000000E+00     1.0000000000000000E+00     0.0000000000000000E+00 
    0.0000000000000000E+00     1.0000000000000000E+00     0.0000000000000000E+00 
    5.2499999999875258E-01     0.0000000000000000E+00     0.0000000000000000E+00 
    7.4999999999856765E-02     0.0000000000000000E+00     0.0000000000000000E+00 
    1.2499999999975850E-01     0.0000000000000000E+00     0.0000000000000000E+00 
    1.7499999999962990E-01     0.0000000000000000E+00     0.0000000000000000E+00 
    2.2499999999948389E-01     0.0000000000000000E+00     0.0000000000000000E+00 
    2.7499999999933789E-01     0.0000000000000000E+00     0.0000000000000000E+00 
    3.2499999999919210E-01     0.0000000000000000E+00     0.0000000000000000E+00 
    3.7499999999904610E-01     0.0000000000000000E+00     0.0000000000000000E+00 
    4.2499999999890020E-01     0.0000000000000000E+00     0.0000000000000000E+00 
    4.7499999999875958E-01     0.0000000000000000E+00     0.0000000000000000E+00 
    2.4999999999949701E-02     0.0000000000000000E+00     0.0000000000000000E+00 
    5.7499999999887907E-01     0.0000000000000000E+00     0.0000000000000000E+00 
    6.2499999999901101E-01     0.0000000000000000E+00     0.0000000000000000E+00 
    6.7499999999914273E-01     0.0000000000000000E+00     0.0000000000000000E+00 
    7.2499999999927467E-01     0.0000000000000000E+00     0.0000000000000000E+00 
    7.7499999999940661E-01     0.0000000000000000E+00     0.0000000000000000E+00 
    8.2499999999953844E-01     0.0000000000000000E+00     0.0000000000000000E+00 
    8.7499999999967026E-01     0.0000000000000000E+00     0.0000000000000000E+00 
    9.2499999999980220E-01     0.0000000000000000E+00     0.0000000000000000E+00 
    9.7499999999993414E-01     0.0000000000000000E+00     0.0000000000000000E+00 
    5.4999999999881310E-01     0.0000000000000000E+00     0.0000000000000000E+00 
    9.9999999999814140E-02     0.0000000000000000E+00     0.0000000000000000E+00 
    1.4999999999970290E-01     0.0000000000000000E+00     0.0000000000000000E+00 
    1.9999999999955689E-01     0.0000000000000000E+00     0.0000000000000000E+00 
    2.4999999999941089E-01     0.0000000000000000E+00     0.0000000000000000E+00 
    2.9999999999926502E-01     0.0000000000000000E+00     0.0000000000000000E+00 
    3.4999999999911913E-01     0.0000000000000000E+00     0.0000000000000000E+00 
    3.9999999999897312E-01     0.0000000000000000E+00     0.0000000000000000E+00 
    4.4999999999882723E-01     0.0000000000000000E+00     0.0000000000000000E+00 
    4.9999999999869210E-01     0.0000000000000000E+00     0.0000000000000000E+00 
    4.9999999999899403E-02     0.0000000000000000E+00     0.0000000000000000E+00 
    5.9999999999894504E-01     0.0000000000000000E+00     0.0000000000000000E+00 
    6.4999999999907687E-01     0.0000000000000000E+00     0.0000000000000000E+00 
    6.9999999999920870E-01     0.0000000000000000E+00     0.0000000000000000E+00 
    7.4999999999934064E-01     0.0000000000000000E+00     0.0000000000000000E+00 
    7.9999999999947247E-01     0.0000000000000000E+00     0.0000000000000000E+00 
    8.4999999999960441E-01     0.0000000000000000E+00     0.0000000000000000E+00 
    8.9999999999973623E-01     0.0000000000000000E+00     0.0000000000000000E+00 
    9.4999999999986817E-01     0.0000000000000000E+00     0.0000000000000000E+00 
    1.0000000000000000E+00     5.2499999999875258E-01     0.0000000000000000E+00 
    1.0000000000000000E+00     7.4999999999856765E-02     0.0000000000000000E+00 
    1.0000000000000000E+00     1.2499999999975850E-01     0.0000000000000000E+00 
    1.0000000000000000E+00     1.7499999999962990E-01     0.0000000000000000E+00 
    1.0000000000000000E+00     2.2499999999948389E-01     0.0000000000000000E+00 
    1.0000000000000000E+00     2.7499999999933789E-01     0.0000000000000000E+00 
    1.0000000000000000E+00     3.2499999999919210E-01     0.0000000000000000E+00 
    1.0000000000000000E+00     3.7499999999904610E-01     0.0000000000000000E+00 
    1.0000000000000000E+00     4.2499999999890020E-01     0.0000000000000000E+00 
    1.0000000000000000E+00     4.7499999999875958E-01     0.0000000000000000E+00 
    1.0000000000000000E+00     2.4999999999949701E-02     0.0000000000000000E+00 
    1.0000000000000000E+00     5.7499999999887907E-01     0.0000000000000000E+00 
    1.0000000000000000E+00     6.2499999999901101E-01     0.0000000000000000E+00 
    1.0000000000000000E+00     6.7499999999914273E-01     0.0000000000000000E+00 
    1.0000000000000000E+00     7.2499999999927467E-01     0.0000000000000000E+00 
    1.0000000000000000E+00     7.7499999999940661E-01     0.0000000000000000E+00 
    1.0000000000000000E+00     8.2499999999953844E-01     0.0000000000000000E+00 
    1.0000000000000000E+00     8.7499999999967026E-01     0.0000000000000000E+00 
    1.0000000000000000E+00     9.2499999999980220E-01     0.0000000000000000E+00 
    1.0000000000000000E+00     9.7499999999993414E-01     0.0000000000000000E+00 
    1.0000000000000000E+00     5.4999999999881310E-01     0.0000000000000000E+00 
    1.0000000000000000E+00     9.9999999999814140E-02     0.0000000000000000E+00 
    1.0000000000000000E+00     1.4999999999970290E-01     0.0000000000000000E+00 
    1.0000000000000000E+00     1.9999999999955689E-01     0.0000000000000000E+00 
    1.0000000000000000E+00     2.4999999999941089E-01     0.0000000000000000E+00 
    1.0000000000000000E+00     2.9999999999926502E-01     0.0000000000000000E+00 
    1.0000000000000000E+00     3.4999999999911913E-01     0.0000000000000000E+00 
    1.0000000000000000E+00     3.9999999999897312E-01     0.0000000000000000E+00 
    1.0000000000000000E+00     4.4999999999882723E-01     0.0000000000000000E+00 
    1.0000000000000000E+00     4.9999999999869210E-01     0.0000000000000000E+00 
    1.0000000000000000E+00     4.9999999999899403E-02     0.0000000000000000E+00 
    1.0000000000000000E+00     5.9999999999894504E-01     0.0000000000000000E+00 
    1.0000000000000000E+00     6.4999999999907687E-01     0.0000000000000000E+00 
    1.0000000000000000E+00     6.9999999999920870E-01     0.0000000000000000E+00 
    1.0000000000000000E+00     7.4999999999934064E-01     0.0000000000000000E+00 
    1.0000000000000000E+00     7.9999999999947247E-01     0.0000000000000000E+00 
    1.0000000000000000E+00     8.4999999999960441E-01     0.0000000000000000E+00 
    1.0000000000000000E+00     8.9999999999973623E-01     0.0000000000000000E+00 
    1.0000000000000000E+00     9.4999999999986817E-01     0.0000000000000000E+00 
    4.7500000000196618E-01     1.0000000000000000E+00     0.0000000000000000E+00 
    9.2499999999968763E-01     1.0000000000000000E+00     0.0000000000000000E+00 
    8.7499999999961831E-01     1.0000000000000000E+00     0.0000000000000000E+00 
    8.2499999999982654E-01     1.0000000000000000E+00     0.0000000000000000E+00 
    7.7500000000017355E-01     1.0000000000000000E+00     0.0000000000000000E+00 
    7.2500000000052045E-01     1.0000000000000000E+00     0.0000000000000000E+00 
    6.7500000000086724E-01     1.0000000000000000E+00     0.0000000000000000E+00 
    6.2500000000121403E-01     1.0000000000000000E+00     0.0000000000000000E+00 
    5.7500000000156093E-01     1.0000000000000000E+00     0.0000000000000000E+00 
    5.2500000000189684E-01     1.0000000000000000E+00     0.0000000000000000E+00 
    9.7499999999989595E-01     1.0000000000000000E+00     0.0000000000000000E+00 
    4.2500000000176902E-01     1.0000000000000000E+00     0.0000000000000000E+00 
    3.7500000000156092E-01     1.0000000000000000E+00     0.0000000000000000E+00 
    3.2500000000135282E-01     1.0000000000000000E+00     0.0000000000000000E+00 
    2.7500000000114472E-01     1.0000000000000000E+00     0.0000000000000000E+00 
    2.2500000000093659E-01     1.0000000000000000E+00     0.0000000000000000E+00 
    1.7500000000072849E-01     1.0000000000000000E+00     0.0000000000000000E+00 
    1.2500000000052039E-01     1.0000000000000000E+00     0.0000000000000000E+00 
    7.5000000000312261E-02     1.0000000000000000E+00     0.0000000000000000E+00 
    2.5000000000104109E-02     1.0000000000000000E+00     0.0000000000000000E+00 
    4.5000000000187301E-01     1.0000000000000000E+00     0.0000000000000000E+00 
    8.9999999999958358E-01     1.0000000000000000E+00     0.0000000000000000E+00 
    8.4999999999965303E-01     1.0000000000000000E+00     0.0000000000000000E+00 
    8.0000000000000004E-01     1.0000000000000000E+00     0.0000000000000000E+00 
    7.5000000000034706E-01     1.0000000000000000E+00     0.0000000000000000E+00 
    7.0000000000069384E-01     1.0000000000000000E+00     0.0000000000000000E+00 
    6.5000000000104063E-01     1.0000000000000000E+00     0.0000000000000000E+00 
    6.0000000000138742E-01     1.0000000000000000E+00     0.0000000000000000E+00 
    5.5000000000173432E-01     1.0000000000000000E+00     0.0000000000000000E+00 
    5.0000000000205946E-01     1.0000000000000000E+00     0.0000000000000000E+00 
    9.4999999999979179E-01     1.0000000000000000E+00     0.0000000000000000E+00 
    4.0000000000166491E-01     1.0000000000000000E+00     0.0000000000000000E+00 
    3.5000000000145681E-01     1.0000000000000000E+00     0.0000000000000000E+00 
    3.0000000000124871E-01     1.0000000000000000E+00     0.0000000000000000E+00 
    2.5000000000104061E-01     1.0000000000000000E+00     0.0000000000000000E+00 
    2.0000000000083251E-01     1.0000000000000000E+00     0.0000000000000000E+00 
    1.5000000000062441E-01     1.0000000000000000E+00     0.0000000000000000E+00 
    1.0000000000041630E-01     1.0000000000000000E+00     0.0000000000000000E+00 
[...]
CELL_DATA 1600 
SCALARS Pressure double 1 
LOOKUP_TABLE default 

    1.0807033409954758E+00 
    1.0610988684579497E+00 
    1.0610028202507042E+00 
    1.0788232554099462E+00 
    1.0771018003560193E+00 
    1.0608288357569260E+00 
    1.0605908565186877E+00 
    1.0755133809717303E+00 
    1.0740472023693148E+00 
    1.0603019161532068E+00 
    1.0599726706605557E+00 
    1.0726925629863855E+00 
    1.0714417591132772E+00 
    1.0596133825963576E+00 
    1.0592320782239244E+00 
    1.0702886678489327E+00 
    1.0692261202852467E+00 
    1.0588356405419326E+00 
    1.0584297935859508E+00 
    1.0682472757500077E+00 
    1.0673481630988455E+00 
    1.0580215224647758E+00 
    1.0576162530682518E+00 
    1.0665258873408412E+00 
    1.0657772863866879E+00 
    1.0572191374484552E+00 
    1.0568338117801221E+00 
    1.0650989977661758E+00 
    1.0644878987099098E+00 
    1.0564635332495147E+00 
    1.0561111726502312E+00 
    1.0639423155394019E+00 
    1.0634592282225215E+00 
    1.0557798713851401E+00 
    1.0554710490842016E+00 
    1.0630356230299307E+00 
    1.0626679181029903E+00 
    1.0551857863902174E+00 
    1.0549242234598981E+00 
    1.0623522230337978E+00 
    1.0620837382059385E+00 
    1.0546856825447049E+00 
    1.0544693175363771E+00 
    1.0618581299278742E+00 
    1.0616715911704571E+00 
    1.0542745553499369E+00 
    1.0541032428911383E+00 
    1.0615236194497435E+00 
    1.0614107158487387E+00 
    1.0539549219423179E+00 
    1.0538202870855564E+00 
    1.0613216838443029E+00 
    1.0612637555709548E+00 
    1.0537046090711311E+00 
    1.0536149774332002E+00 
    1.0612390365013442E+00 
    1.0612418312658294E+00 
    1.0535440721094345E+00 
    1.0534914135255629E+00 
    1.0612625817131007E+00 
    1.0612937004994816E+00 
    1.0534550424198585E+00 
    1.0534303968251357E+00 
    1.0613278534365536E+00 
    1.0613590497152923E+00 
    1.0534120257130373E+00 
    1.0533966049059948E+00 
    1.0613816025121365E+00 
    1.0613915576965234E+00 
    1.0533798528861460E+00 
    1.0533600071500400E+00 
    1.0613852236147898E+00 
    1.0613609220350451E+00 
    1.0533342482296673E+00 
    1.0533025157151432E+00 
    1.0613171871210820E+00 
    1.0612547156860832E+00 
    1.0532636194017495E+00 
    1.0532191992772746E+00 
    1.0611743605219948E+00 
    1.0487266538020572E+00 
    1.0362649117564775E+00 
    1.0362310802288743E+00 
    1.0486866429139026E+00 
    1.0486079408602675E+00 
    1.0361639956929245E+00 
    1.0360647429262804E+00 
    1.0484918687823954E+00 
    1.0483407209036593E+00 
    1.0359343975028652E+00 
    1.0357746372934564E+00 
    1.0481570014066506E+00 
    1.0479440177873809E+00 
    1.0355869274538341E+00 
    1.0353732261320128E+00 
    1.0477047194782769E+00 
    1.0474420228342731E+00 
    1.0351350791549607E+00 
    1.0348740535900194E+00 
    1.0471586905570904E+00 
    1.0468588208479395E+00 
    1.0345924301022076E+00 
    1.0342926740986440E+00 
    1.0465461240284046E+00 
    1.0462244239543457E+00 
    1.0339772712494459E+00 
    1.0336486028206924E+00 
    1.0458969577249806E+00 
    1.0455664399137117E+00 
    1.0333086815881649E+00 
    1.0329592572473623E+00 
    1.0452355361915810E+00 
    1.0449070159159783E+00 
    1.0326024629402255E+00 
    1.0322400700687502E+00 
    1.0445830149862423E+00 
    1.0442653652597469E+00 
    1.0318741756823391E+00 
    1.0315065893440221E+00 
    1.0439555630122781E+00 
    1.0436542999754466E+00 
    1.0311389864534739E+00 
    1.0307725112165569E+00 
    1.0433622848095456E+00 
    1.0430804189761189E+00 
    1.0304088708365440E+00 
    1.0300503903432747E+00 
    1.0428113652491098E+00 
    1.0425569707408950E+00 
    1.0296995866813388E+00 
    1.0293571321268586E+00 
    1.0423130599760257E+00 
    1.0420762765663423E+00 
    1.0290186082033255E+00 
    1.0286920205949250E+00 
    1.0418602210129908E+00 
    1.0416743529140806E+00 
    1.0283926563027119E+00 
    1.0281139849285466E+00 
    1.0415085650924067E+00 
    1.0413610972989467E+00 
    1.0278602034382185E+00 
    1.0276342913612893E+00 
    1.0412349344253409E+00 
    1.0411272893978156E+00 
    1.0274338115426254E+00 
    1.0272618009558570E+00 
    1.0410363084408103E+00 
    1.0409599475345579E+00 
    1.0271177264648246E+00 
    1.0270016752015239E+00 
    1.0408970569140750E+00 
    1.0408463810559745E+00 
    1.0269137669875514E+00 
    1.0268541747017503E+00 
    1.0408076251310010E+00 
    1.0407804160987100E+00 
    1.0268230589164262E+00 
    1.0268206727859082E+00 
    1.0407653570874749E+00 
    1.0226282743528263E+00 
    1.0075239944723355E+00 
    1.0075109911962941E+00 
    1.0226014738624141E+00 
    1.0225483514421152E+00 
    1.0074847719927815E+00 
    1.0074453670699153E+00 
    1.0224693441622417E+00 
    1.0223652339341898E+00 
    1.0073922035784868E+00 
    1.0073249409754419E+00 
    1.0222366151640672E+00 
    1.0220841776991290E+00 
    1.0072428130148394E+00 
    1.0071456205129123E+00 
    1.0219088451634397E+00 
    1.0217116558325863E+00 
    1.0070326747781706E+00 
    1.0069030501596012E+00 
    1.0214929174622891E+00 
    1.0212534752102875E+00 
    1.0067555722590829E+00 
    1.0065890926850167E+00 
    1.0209939166114379E+00 
    1.0207153133842302E+00 
    1.0064023830427804E+00 
    1.0061948426265264E+00 
    1.0204187299162675E+00 
    1.0201054268451353E+00 
    1.0059657864646141E+00 
    1.0057145833485508E+00 
    1.0197760432683289E+00 
    1.0194320180037602E+00 
    1.0054415016979945E+00 
    1.0051472148061882E+00 
    1.0190745242377917E+00 
    1.0187054163245015E+00 
    1.0048328078455213E+00 
    1.0045001069516502E+00 
    1.0183266363899133E+00 
    1.0179403570208820E+00 
    1.0041513102081929E+00 
    1.0037887949860103E+00 
    1.0175483330465429E+00 
    1.0171529194152673E+00 
    1.0034156402792926E+00 
    1.0030343698474466E+00 
    1.0167564749574936E+00 
    1.0163612794459349E+00 
    1.0026474925265527E+00 
    1.0022576933344260E+00 
    1.0159696723605347E+00 
    1.0155828864821004E+00 
    1.0018680151247883E+00 
    1.0014819330312521E+00 
    1.0152030079235490E+00 
    1.0148364035063782E+00 
    1.0011041890429135E+00 
    1.0007361422181078E+00 
    1.0144858444863998E+00 
    1.0141516178040619E+00 
    1.0003755923656712E+00 
    1.0000118622375580E+00 
    1.0138328620433272E+00 
    1.0135455006564982E+00 
    9.9966037630027416E-01 
    9.9935667836600939E-01 
    1.0133016648139110E+00 
    1.0130959687256449E+00 
    9.9910262778524050E-01 
    9.9889574397890935E-01 
    1.0129299282769819E+00 
    1.0128043811056078E+00 
    9.9873856648519388E-01 
    9.9863204040385944E-01 
    1.0127206295165079E+00 
    1.0126786685832900E+00 
    9.9857709629245417E-01 
    9.9857300599627397E-01 
    1.0126790284012570E+00 
    9.9075736896768130E-01 
    9.7211652951586935E-01 
    9.7214131707509377E-01 
    9.9076377331272836E-01 
    9.9077590573800001E-01 
    9.7219023869442955E-01 
    9.7226185057063519E-01 
    9.9079293563922510E-01 
    9.9081325851110180E-01 
    9.7235417437676419E-01 
    9.7246441717757537E-01 
    9.9083516087122192E-01 
    9.9085636912661845E-01 
    9.7258923808722075E-01 
    9.7272420201281107E-01 
    9.9087433991272311E-01 
    9.9088614345602588E-01 
    9.7286404691840911E-01 
    9.7300399162819573E-01 
    9.9088877986220469E-01 
    9.9087956030981661E-01 
    9.7313983809839188E-01 
    9.7326633910760518E-01 
    9.9085482738976771E-01 
    9.9081127346642162E-01 
    9.7337771674831264E-01 
    9.7346801174896269E-01 
    9.9074516428209358E-01 
    9.9065358305328810E-01 
    9.7353014916092973E-01 
    9.7355857939325197E-01 
    9.9053333070474237E-01 
    9.9038406782067345E-01 
    9.7355096838200139E-01 
    9.7350601695454886E-01 
    9.9020487171969629E-01 
    9.8999658527016221E-01 
    9.7342267774510882E-01 
    9.7330167622827013E-01 
    9.8975987551250755E-01 
    9.8949739467696840E-01 
    9.7314443100363801E-01 
    9.7295445772203826E-01 
    9.8921144611059619E-01 
    9.8890624660640047E-01 
    9.7273585922557582E-01 
    9.7249185830343809E-01 
    9.8858395204603333E-01 
    9.8824736127679480E-01 
    9.7222431544806176E-01 
    9.7193607076969457E-01 
    9.8789903517705957E-01 
    9.8754287293474363E-01 
    9.7162992888150812E-01 
    9.7130986918595508E-01 
    9.8718246194616532E-01 
    9.8682292230257840E-01 
    9.7098058606191273E-01 
    9.7064537846990206E-01 
    9.8646849765061428E-01 
    9.8611987599079398E-01 
    9.7030021027607516E-01 
    9.6992775841091261E-01 
    9.8576346660694281E-01 
    9.8538768405297250E-01 
    9.6952511769597849E-01 
    9.6915888183056653E-01 
    9.8504490623029883E-01 
    9.8476342195459299E-01 
    9.6885637209354047E-01 
    9.6860298529500910E-01 
    9.8453185158197198E-01 
    9.8435291836619121E-01 
    9.6840170503104750E-01 
    9.6825353420504590E-01 
    9.8422828835815734E-01 
    9.8415826690532715E-01 
    9.6815884732127244E-01 
    9.6811591478787717E-01 
    9.8414215192485177E-01 
    9.5086819249689225E-01 
    9.2518041879160118E-01 
    9.2517635196034287E-01 
    9.5089106477007368E-01 
    9.5093745447775602E-01 
    9.2516830107087489E-01 
    9.2515682325535920E-01 
    9.5100722559952711E-01 
    9.5109975009770942E-01 
    9.2514282937539605E-01 
    9.2512773029184470E-01 
    9.5121364197100033E-01 
    9.5134730210967711E-01 
    9.2511324574278064E-01 
    9.2510086236017353E-01 
    9.5149805401880927E-01 
    9.5166091766820549E-01 
    9.2508940037370657E-01 
    9.2507554253649416E-01 
    9.5183068595081544E-01 
    9.5200269187633113E-01 
    9.2505406264436141E-01 
    9.2501993446034725E-01 
    9.5217299902393671E-01 
    9.5233824524143917E-01 
    9.2497006044607177E-01 
    9.2490271719868067E-01 
    9.5249539139462414E-01 
    9.5263740598059909E-01 
    9.2481106850298023E-01 
    9.2469452676833508E-01 
    9.5275328418380489E-01 
    9.5283897179621668E-01 
    9.2455989794769944E-01 
    9.2441404356115464E-01 
    9.5288402967045427E-01 
    9.5288473464046386E-01 
    9.2425893026146633E-01 
    9.2409567978668750E-01 
    9.5283977901501582E-01 
    9.5274986707998066E-01 
    9.2392393381484916E-01 
    9.2374469906563972E-01 
    9.5261883263294134E-01 
    9.5245270869153997E-01 
    9.2355548780120189E-01 
    9.2335435148673506E-01 
    9.5226086248087860E-01 
    9.5203824138124027E-01 
    9.2313941713686332E-01 
    9.2291165570972011E-01 
    9.5178315927700219E-01 
    9.5149586688401366E-01 
    9.2267241379277587E-01 
    9.2242526220748255E-01 
    9.5117896443210748E-01 
    9.5083699008690037E-01 
    9.2217190845615826E-01 
    9.2191730848496189E-01 
    9.5047382248380707E-01 
    9.5008656215721521E-01 
    9.2167117582279190E-01 
    9.2144841423313573E-01 
    9.4967363596880849E-01 
    9.4927313227080445E-01 
    9.2126282804110016E-01 
    9.2110995245029581E-01 
    9.4893016043125022E-01 
    9.4863852611637933E-01 
    9.2097882927109342E-01 
    9.2086854538172258E-01 
    9.4839116856017736E-01 
    9.4818904958045602E-01 
    9.2077794281903214E-01 
    9.2070636775302184E-01 
    9.4803195044265109E-01 
    9.4791918367029182E-01 
    9.2065244577756411E-01 
    9.2061520385041018E-01 
    9.4784881487122752E-01 
    8.9666710818755313E-01 
    8.6720470083645551E-01 
    8.6714589908250372E-01 
    8.9661573840898168E-01 
    8.9651415002906309E-01 
    8.6702916062287827E-01 
    8.6685585036420409E-01 
    8.9636348715264191E-01 
    8.9616548986752786E-01 
    8.6662786450872453E-01 
    8.6634749342893203E-01 
    8.9592211486156237E-01 
    8.9563552659819357E-01 
    8.6601743008742549E-01 
    8.6563757967643207E-01 
    8.9530417390550754E-01 
    8.9492315520899457E-01 
    8.6520900058400962E-01 
    8.6474833258390160E-01 
    8.9449502700163652E-01 
    8.9403101497130943E-01 
    8.6428084007771067E-01 
    8.6382026679993495E-01 
    8.9354090768673478E-01 
    8.9303744596993861E-01 
    8.6337608995411408E-01 
    8.6295506132978372E-01 
    8.9251959145450410E-01 
    8.9198692722491524E-01 
    8.6256892160123300E-01 
    8.6223271586626993E-01 
    8.9147821095544977E-01 
    8.9101464549475085E-01 
    8.6194473016894857E-01 
    8.6169457638215663E-01 
    8.9059821825670327E-01 
    8.9023161077546176E-01 
    8.6148212960311343E-01 
    8.6130672412063736E-01 
    8.8991702959007446E-01 
    8.8965388912041543E-01 
    8.6116890409596258E-01 
    8.6106664138001077E-01 
    8.8943980307475889E-01 
    8.8926724083788811E-01 
    8.6099890845424454E-01 
    8.6096217358951233E-01 
    8.8912679499145597E-01 
    8.8902073820046179E-01 
    8.6095356174761450E-01 
    8.6097009453963935E-01 
    8.8895135233020928E-01 
    8.8891843341711729E-01 
    8.6100973024855909E-01 
    8.6106828069727859E-01 
    8.8892046724252449E-01 
    8.8895305629678711E-01 
    8.6114249397655129E-01 
    8.6122855339456839E-01 
    8.8901239530939047E-01 
    8.8909285026417784E-01 
    8.6132380507516637E-01 
    8.6142296699073351E-01 
    8.8918211349526288E-01 
    8.8927113124251445E-01 
    8.6152212424947827E-01 
    8.6161687116661201E-01 
    8.8935614521975737E-01 
    8.8943455397196269E-01 
    8.6170429720984321E-01 
    8.6178142324455775E-01 
    8.8950486120449856E-01 
    8.8956571830502240E-01 
    8.6184672991379363E-01 
    8.6189890215325637E-01 
    8.8961676782853472E-01 
    8.8965798482214142E-01 
    8.6193801516044699E-01 
    8.6196445779297726E-01 
    8.8969029860426130E-01 
    8.3741869088765486E-01 
    8.0998821928644293E-01 
    8.1000942780947882E-01 
    8.3740022692910077E-01 
    8.3736350299989226E-01 
    8.1005059760820763E-01 
    8.1011004378718632E-01 
    8.3730962670504261E-01 
    8.3723984910999916E-01 
    8.1018566937150049E-01 
    8.1027509624905969E-01 
    8.3715645231129054E-01 
    8.3706197133357019E-01 
    8.1037572808982639E-01 
    8.1048488780466432E-01 
    8.3696046500055299E-01 
    8.3685814190760122E-01 
    8.1059994544338032E-01 
    8.1071897883965782E-01 
    8.3676119369363899E-01 
    8.3666970467482848E-01 
    8.1084019504141125E-01 
    8.1096163994279802E-01 
    8.3657971232000949E-01 
    8.3649004587250031E-01 
    8.1108189239253869E-01 
    8.1119973066801432E-01 
    8.3640309773269805E-01 
    8.3632193643014618E-01 
    8.1131457506410343E-01 
    8.1142591927331265E-01 
    8.3624956431158526E-01 
    8.3618750390419028E-01 
    8.1153308338703123E-01 
    8.1163532353524492E-01 
    8.3613693024481817E-01 
    8.3609928144903967E-01 
    8.1173230596229828E-01 
    8.1182347365882801E-01 
    8.3607531884821640E-01 
    8.3606554061750826E-01 
    8.1190892676217041E-01 
    8.1198839593515126E-01 
    8.3606961819784509E-01 
    8.3608691445449979E-01 
    8.1206215346356814E-01 
    8.1212929952575019E-01 
    8.3611583032207160E-01 
    8.3615448720370888E-01 
    8.1218931279541406E-01 
    8.1224238399243487E-01 
    8.3620191209503336E-01 
    8.3625698864793618E-01 
    8.1228895765655051E-01 
    8.1232896246076924E-01 
    8.3631782335863547E-01 
    8.3638253914985894E-01 
    8.1236247142025297E-01 
    8.1238988561416781E-01 
    8.3644956520506131E-01 
    8.3651758058251824E-01 
    8.1241170824413556E-01 
    8.1242823246736429E-01 
    8.3658419469657441E-01 
    8.3664747326630184E-01 
    8.1243984575257155E-01 
    8.1244676906804014E-01 
    8.3670532718457336E-01 
    8.3675630749316199E-01 
    8.1244929653658904E-01 
    8.1244771243317371E-01 
    8.3679898120921314E-01 
    8.3683268695729540E-01 
    8.1244236122288982E-01 
    8.1243369248290331E-01 
    8.3685688702633232E-01 
    8.3687187429510479E-01 
    8.1242221071105680E-01 
    8.1240858011269523E-01 
    8.3687810488233605E-01 
    7.8291913029818649E-01 
    7.5425330183983674E-01 
    7.5429013264771805E-01 
    7.8296348726218401E-01 
    7.8305024431360504E-01 
    7.5436292151661244E-01 
    7.5446913462325382E-01 
    7.8317620224921747E-01 
    7.8333767219619477E-01 
    7.5460578795179445E-01 
    7.5476865322004494E-01 
    7.8352986378446521E-01 
    7.8374789683644253E-01 
    7.5495318921540377E-01 
    7.5515412644279523E-01 
    7.8398588316835505E-01 
    7.8423836638405764E-01 
    7.5536596233208986E-01 
    7.5558719517631223E-01 
    7.8450022858634572E-01 
    7.8476736896596810E-01 
    7.5581162930195456E-01 
    7.5603410569581619E-01 
    7.8503421947657004E-01 
    7.8529679379536621E-01 
    7.5624944694739415E-01 
    7.5645360835495046E-01 
    7.8555020089152650E-01 
    7.8579163839396471E-01 
    7.5664252520423370E-01 
    7.5681377345573697E-01 
    7.8601728970434959E-01 
    7.8622581450366735E-01 
    7.5696846758467762E-01 
    7.5710158536838978E-01 
    7.8641473009029350E-01 
    7.8658325455409939E-01 
    7.5721059342610642E-01 
    7.5729518000268070E-01 
    7.8672937759056016E-01 
    7.8685386660843970E-01 
    7.5735483637830936E-01 
    7.5739135222961707E-01 
    7.8695603089378607E-01 
    7.8703788299357824E-01 
    7.5740622196718232E-01 
    7.5740592188298839E-01 
    7.8709859003088056E-01 
    7.8713965946265374E-01 
    7.5738641926603956E-01 
    7.5734946371349599E-01 
    7.8716151791297195E-01 
    7.8716676878389125E-01 
    7.5729602458633516E-01 
    7.5722877589436732E-01 
    7.8715605851168802E-01 
    7.8713195044938256E-01 
    7.5714933987763899E-01 
    7.5706105758569098E-01 
    7.8709561045725396E-01 
    7.8704984220799123E-01 
    7.5696298053867839E-01 
    7.5685931697406528E-01 
    7.8699640017777195E-01 
    7.8693857412192336E-01 
    7.5675279916406013E-01 
    7.5664688572878658E-01 
    7.8687772293382330E-01 
    7.8681652111163314E-01 
    7.5654358255736187E-01 
    7.5644545386261963E-01 
    7.8675586779743556E-01 
    7.8669781317674492E-01 
    7.5635364227643231E-01 
    7.5626972476489895E-01 
    7.8664278364950091E-01 
    7.8659225671407218E-01 
    7.5619388962566192E-01 
    7.5612667477835693E-01 
    7.8654622445126188E-01 
    7.2046747503746289E-01 
    6.8474031323247253E-01 
    6.8469540237206761E-01 
    7.2046228826902925E-01 
    7.2045157677776861E-01 
    6.8460771143043841E-01 
    6.8448081384467407E-01 
    7.2043546259776381E-01 
    7.2041408555412512E-01 
    6.8431861782138048E-01 
    6.8412622215067664E-01 
    7.2038795351978391E-01 
    7.2035717525085319E-01 
    6.8390877496424463E-01 
    6.8367228440112826E-01 
    7.2032203161559050E-01 
    7.2028219440938190E-01 
    6.8342249457506210E-01 
    6.8316130103834660E-01 
    7.2023831928346138E-01 
    7.2019090402191788E-01 
    6.8289731622569483E-01 
    6.8263615221880192E-01 
    7.2014127909916392E-01 
    7.2008930204428234E-01 
    6.8238249552693730E-01 
    6.8214078876364392E-01 
    7.2003601838218811E-01 
    7.1998071262072239E-01 
    6.8191431429587090E-01 
    6.8170580331195274E-01 
    7.1992414414935035E-01 
    7.1986508838083241E-01 
    6.8151186050208878E-01 
    6.8133885553650497E-01 
    7.1980514009611563E-01 
    7.1974395662911694E-01 
    6.8118886893516239E-01 
    6.8106317341088674E-01 
    7.1968312176134108E-01 
    7.1962219815555117E-01 
    6.8096169396906781E-01 
    6.8088353776816246E-01 
    7.1956293260275284E-01 
    7.1950511867449485E-01 
    6.8082655115228052E-01 
    6.8078410263064937E-01 
    7.1945059396066513E-01 
    7.1939820569455426E-01 
    6.8076033431699312E-01 
    6.8075484390677643E-01 
    7.1934885453454545E-01 
    7.1930167040643378E-01 
    6.8076655460672431E-01 
    6.8079409660797008E-01 
    7.1925799082629971E-01 
    7.1921739257646711E-01 
    6.8083577846593479E-01 
    6.8088522955056363E-01 
    7.1918141427577909E-01 
    7.1914910027422363E-01 
    6.8094545405470586E-01 
    6.8101386525344509E-01 
    7.1912094472666477E-01 
    7.1909573494385504E-01 
    6.8108801953550324E-01 
    6.8116571884550670E-01 
    7.1907421304110708E-01 
    7.1905556846601448E-01 
    6.8124500590954018E-01 
    6.8132421669806942E-01 