# vtk DataFile Version 2.0
Pressure Field Data 
ASCII 
DATASET UNSTRUCTURED_GRID 

POINTS 1681 double 

    0.0000000000000000E+00     0.0000000000000000E+00     0.0000000000000000E+00 
    1.0000000000000000E+00     0.0000000000000000E+00     0.0000000000000000E+00 
    1.0000000000000000E+00     1.0000000000000000E+00     0.0000000000000000E+00 
    0.0000000000000000E+00     1.0000000000000000E+00     0.0000000000000000E+00 
    5.2499999999875258E-01     0.0000000000000000E+00     0.0000000000000000E+00 
    7.4999999999856765E-02     0.0000000000000000E+00     0.0000000000000000E+00 
    1.2499999999975850E-01     0.0000000000000000E+00     0.0000000000000000E+00 
    1.7499999999962990E-01     0.0000000000000000E+00     0.0000000000000000E+00 
    2.2499999999948389E-01     0.0000000000000000E+00     0.0000000000000000E+00 
    2.7499999999933789E-01     0.0000000000000000E+00     0.0000000000000000E+00 
    3.2499999999919210E-01     0.0000000000000000E+00     0.0000000000000000E+00 
    3.7499999999904610E-01     0.0000000000000000E+00     0.0000000000000000E+00 
    4.2499999999890020E-01     0.0000000000000000E+00     0.0000000000000000E+00 
    4.7499999999875958E-01     0.0000000000000000E+00     0.0000000000000000E+00 
    2.4999999999949701E-02     0.0000000000000000E+00     0.0000000000000000E+00 
    5.7499999999887907E-01     0.0000000000000000E+00     0.0000000000000000E+00 
    6.2499999999901101E-01     0.0000000000000000E+00     0.0000000000000000E+00 
    6.7499999999914273E-01     0.0000000000000000E+00     0.0000000000000000E+00 
    7.2499999999927467E-01     0.0000000000000000E+00     0.0000000000000000E+00 
    7.7499999999940661E-01     0.0000000000000000E+00     0.0000000000000000E+00 
    8.2499999999953844E-01     0.0000000000000000E+00     0.0000000000000000E+00 
    8.7499999999967026E-01     0.0000000000000000E+00     0.0000000000000000E+00 
    9.2499999999980220E-01     0.0000000000000000E+00     0.0000000000000000E+00 
    9.7499999999993414E-01     0.0000000000000000E+00     0.0000000000000000E+00 
    5.4999999999881310E-01     0.0000000000000000E+00     0.0000000000000000E+00 
    9.9999999999814140E-02     0.0000000000000000E+00     0.0000000000000000E+00 
    1.4999999999970290E-01     0.0000000000000000E+00     0.0000000000000000E+00 
    1.9999999999955689E-01     0.0000000000000000E+00     0.0000000000000000E+00 
    2.4999999999941089E-01     0.0000000000000000E+00     0.0000000000000000E+00 
    2.9999999999926502E-01     0.0000000000000000E+00     0.0000000000000000E+00 
    3.4999999999911913E-01     0.0000000000000000E+00     0.0000000000000000E+00 
    3.9999999999897312E-01     0.0000000000000000E+00     0.0000000000000000E+00 
    4.4999999999882723E-01     0.0000000000000000E+00     0.0000000000000000E+00 
    4.9999999999869210E-01     0.0000000000000000E+00     0.0000000000000000E+00 
    4.9999999999899403E-02     0.0000000000000000E+00     0.0000000000000000E+00 
    5.9999999999894504E-01     0.0000000000000000E+00     0.0000000000000000E+00 
    6.4999999999907687E-01     0.0000000000000000E+00     0.0000000000000000E+00 
    6.9999999999920870E-01     0.0000000000000000E+00     0.0000000000000000E+00 
    7.4999999999934064E-01     0.0000000000000000E+00     0.0000000000000000E+00 
    7.9999999999947247E-01     0.0000000000000000E+00     0.0000000000000000E+00 
    8.4999999999960441E-01     0.0000000000000000E+00     0.0000000000000000E+00 
    8.9999999999973623E-01     0.0000000000000000E+00     0.0000000000000000E+00 
    9.4999999999986817E-01     0.0000000000000000E+00     0.0000000000000000E+00 
    1.0000000000000000E+00     5.2499999999875258E-01     0.0000000000000000E+00 
    1.0000000000000000E+00     7.4999999999856765E-02     0.0000000000000000E+00 
    1.0000000000000000E+00     1.2499999999975850E-01     0.0000000000000000E+00 
    1.0000000000000000E+00     1.7499999999962990E-01     0.0000000000000000E+00 
    1.0000000000000000E+00     2.2499999999948389E-01     0.0000000000000000E+00 
    1.0000000000000000E+00     2.7499999999933789E-01     0.0000000000000000E+00 
    1.0000000000000000E+00     3.2499999999919210E-01     0.0000000000000000E+00 
    1.0000000000000000E+00     3.7499999999904610E-01     0.0000000000000000E+00 
    1.0000000000000000E+00     4.2499999999890020E-01     0.0000000000000000E+00 
    1.0000000000000000E+00     4.7499999999875958E-01     0.0000000000000000E+00 
    1.0000000000000000E+00     2.4999999999949701E-02     0.0000000000000000E+00 
    1.0000000000000000E+00     5.7499999999887907E-01     0.0000000000000000E+00 
    1.0000000000000000E+00     6.2499999999901101E-01     0.0000000000000000E+00 
    1.0000000000000000E+00     6.7499999999914273E-01     0.0000000000000000E+00 
    1.0000000000000000E+00     7.2499999999927467E-01     0.0000000000000000E+00 
    1.0000000000000000E+00     7.7499999999940661E-01     0.0000000000000000E+00 
    1.0000000000000000E+00     8.2499999999953844E-01     0.0000000000000000E+00 
    1.0000000000000000E+00     8.7499999999967026E-01     0.0000000000000000E+00 
    1.0000000000000000E+00     9.2499999999980220E-01     0.0000000000000000E+00 
    1.0000000000000000E+00     9.7499999999993414E-01     0.0000000000000000E+00 
    1.0000000000000000E+00     5.4999999999881310E-01     0.0000000000000000E+00 
    1.0000000000000000E+00     9.9999999999814140E-02     0.0000000000000000E+00 
    1.0000000000000000E+00     1.4999999999970290E-01     0.0000000000000000E+00 
    1.0000000000000000E+00     1.9999999999955689E-01     0.0000000000000000E+00 
    1.0000000000000000E+00     2.4999999999941089E-01     0.0000000000000000E+00 
    1.0000000000000000E+00     2.9999999999926502E-01     0.0000000000000000E+00 
    1.0000000000000000E+00     3.4999999999911913E-01     0.0000000000000000E+00 
    1.0000000000000000E+00     3.9999999999897312E-01     0.0000000000000000E+00 
    1.0000000000000000E+00     4.4999999999882723E-01     0.0000000000000000E+00 
    1.0000000000000000E+00     4.9999999999869210E-01     0.0000000000000000E+00 
    1.0000000000000000E+00     4.9999999999899403E-02     0.0000000000000000E+00 
    1.0000000000000000E+00     5.9999999999894504E-01     0.0000000000000000E+00 
    1.0000000000000000E+00     6.4999999999907687E-01     0.0000000000000000E+00 
    1.0000000000000000E+00     6.9999999999920870E-01     0.0000000000000000E+00 
    1.0000000000000000E+00     7.4999999999934064E-01     0.0000000000000000E+00 
    1.0000000000000000E+00     7.9999999999947247E-01     0.0000000000000000E+00 
    1.0000000000000000E+00     8.4999999999960441E-01     0.0000000000000000E+00 
    1.0000000000000000E+00     8.9999999999973623E-01     0.0000000000000000E+00 
    1.0000000000000000E+00     9.4999999999986817E-01     0.0000000000000000E+00 
    4.7500000000196618E-01     1.0000000000000000E+00     0.0000000000000000E+00 
    9.2499999999968763E-01     1.0000000000000000E+00     0.0000000000000000E+00 
    8.7499999999961831E-01     1.0000000000000000E+00     0.0000000000000000E+00 
    8.2499999999982654E-01     1.0000000000000000E+00     0.0000000000000000E+00 
    7.7500000000017355E-01     1.0000000000000000E+00     0.0000000000000000E+00 
    7.2500000000052045E-01     1.0000000000000000E+00     0.0000000000000000E+00 
    6.7500000000086724E-01     1.0000000000000000E+00     0.0000000000000000E+00 
    6.2500000000121403E-01     1.0000000000000000E+00     0.0000000000000000E+00 
    5.7500000000156093E-01     1.0000000000000000E+00     0.0000000000000000E+00 
    5.2500000000189684E-01     1.0000000000000000E+00     0.0000000000000000E+00 
    9.7499999999989595E-01     1.0000000000000000E+00     0.0000000000000000E+00 
    4.2500000000176902E-01     1.0000000000000000E+00     0.0000000000000000E+00 
    3.7500000000156092E-01     1.0000000000000000E+00     0.0000000000000000E+00 
    3.2500000000135282E-01     1.0000000000000000E+00     0.0000000000000000E+00 
    2.7500000000114472E-01     1.0000000000000000E+00     0.0000000000000000E+00 
    2.2500000000093659E-01     1.0000000000000000E+00     0.0000000000000000E+00 
    1.7500000000072849E-01     1.0000000000000000E+00     0.0000000000000000E+00 
    1.2500000000052039E-01     1.0000000000000000E+00     0.0000000000000000E+00 
    7.5000000000312261E-02     1.0000000000000000E+00     0.0000000000000000E+00 
    2.5000000000104109E-02     1.0000000000000000E+00     0.0000000000000000E+00 
    4.5000000000187301E-01     1.0000000000000000E+00     0.0000000000000000E+00 
    8.9999999999958358E-01     1.0000000000000000E+00     0.0000000000000000E+00 
    8.4999999999965303E-01     1.0000000000000000E+00     0.0000000000000000E+00 
    8.0000000000000004E-01     1.0000000000000000E+00     0.0000000000000000E+00 
    7.5000000000034706E-01     1.0000000000000000E+00     0.0000000000000000E+00 
    7.0000000000069384E-01     1.0000000000000000E+00     0.0000000000000000E+00 
    6.5000000000104063E-01     1.0000000000000000E+00     0.0000000000000000E+00 
    6.0000000000138742E-01     1.0000000000000000E+00     0.0000000000000000E+00 
    5.5000000000173432E-01     1.0000000000000000E+00     0.0000000000000000E+00 
    5.0000000000205946E-01     1.0000000000000000E+00     0.0000000000000000E+00 
    9.4999999999979179E-01     1.0000000000000000E+00     0.0000000000000000E+00 
    4.0000000000166491E-01     1.0000000000000000E+00     0.0000000000000000E+00 
    3.5000000000145681E-01     1.0000000000000000E+00     0.0000000000000000E+00 
    3.0000000000124871E-01     1.0000000000000000E+00     0.0000000000000000E+00 
    2.5000000000104061E-01     1.0000000000000000E+00     0.0000000000000000E+00 
    2.0000000000083251E-01     1.0000000000000000E+00     0.0000000000000000E+00 
    1.5000000000062441E-01     1.0000000000000000E+00     0.0000000000000000E+00 
    1.0000000000041630E-01     1.0000000000000000E+00     0.0000000000000000E+00 
[...]
CELL_DATA 1600 
SCALARS Pressure double 1 
LOOKUP_TABLE default 

    1.1715843236982955E+00 
    1.1441315937635788E+00 
    1.1439554949581940E+00 
    1.1694478050476882E+00 
    1.1673179815463743E+00 
    1.1436205665117078E+00 
    1.1431458297604231E+00 
    1.1651887389887832E+00 
    1.1631079613962987E+00 
    1.1425562595036416E+00 
    1.1418719563657365E+00 
    1.1610953929638392E+00 
    1.1591604187381233E+00 
    1.1411104992848964E+00 
    1.1402852490762254E+00 
    1.1573059555302954E+00 
    1.1555324354192191E+00 
    1.1394081927597202E+00 
    1.1384902673082486E+00 
    1.1538388050779596E+00 
    1.1522250342053657E+00 
    1.1375439978929631E+00 
    1.1365750275443827E+00 
    1.1506895285488994E+00 
    1.1492302804808843E+00 
    1.1355851357184064E+00 
    1.1345675917977878E+00 
    1.1478456946249147E+00 
    1.1465333014635108E+00 
    1.1335108618701859E+00 
    1.1324193386013717E+00 
    1.1452895708603419E+00 
    1.1440945035160468E+00 
    1.1312974544100047E+00 
    1.1301074296721516E+00 
    1.1429031129285809E+00 
    1.1416332599622498E+00 
    1.1288931764310708E+00 
    1.1277710684052633E+00 
    1.1403905142374793E+00 
    1.1392959799876559E+00 
    1.1267457799185021E+00 
    1.1257955366019066E+00 
    1.1382990495167189E+00 
    1.1373893778054018E+00 
    1.1249161480178222E+00 
    1.1241054236594075E+00 
    1.1365620434111821E+00 
    1.1358120982466815E+00 
    1.1233611406725956E+00 
    1.1226815027523569E+00 
    1.1351345397489772E+00 
    1.1345244658017897E+00 
    1.1220633618881939E+00 
    1.1215043503043212E+00 
    1.1339769321845479E+00 
    1.1334873312625000E+00 
    1.1210007368847548E+00 
    1.1205499653133408E+00 
    1.1330487646202685E+00 
    1.1326559881426972E+00 
    1.1201488850081853E+00 
    1.1197944155510313E+00 
    1.1323038280098090E+00 
    1.1319880298572786E+00 
    1.1194821733562550E+00 
    1.1192098945227185E+00 
    1.1317045098074203E+00 
    1.1314504494350859E+00 
    1.1189740108353501E+00 
    1.1187733903230639E+00 
    1.1312232464808376E+00 
    1.1310218242798935E+00 
    1.1186055863740667E+00 
    1.1184707774731144E+00 
    1.1308453351643739E+00 
    1.1306945970868290E+00 
    1.1183678158197594E+00 
    1.1182982172789242E+00 
    1.1305706332887495E+00 
    1.1232766482955001E+00 
    1.0983655425770875E+00 
    1.0982644579820122E+00 
    1.1231734466856691E+00 
    1.1229688182846524E+00 
    1.0980632875524818E+00 
    1.0977643852876571E+00 
    1.1226648890671700E+00 
    1.1222667542248068E+00 
    1.0973693792943477E+00 
    1.0968791583290518E+00 
    1.1217773332559668E+00 
    1.1211995518919768E+00 
    1.0962960251047431E+00 
    1.0956248394107619E+00 
    1.1205360339299184E+00 
    1.1197893899775888E+00 
    1.0948695599850877E+00 
    1.0940427438211955E+00 
    1.1189656243737955E+00 
    1.1180751299379417E+00 
    1.0931602421787261E+00 
    1.0922376113137304E+00 
    1.1171237540793075E+00 
    1.1161127227701801E+00 
    1.0912875623342360E+00 
    1.0903244406781500E+00 
    1.1150335778733693E+00 
    1.1138705226246099E+00 
    1.0893554629573166E+00 
    1.0884001308851297E+00 
    1.1126523251550202E+00 
    1.1114477656721942E+00 
    1.0874923462292612E+00 
    1.0866338002282878E+00 
    1.1102738155836389E+00 
    1.1091656644491130E+00 
    1.0858099078264329E+00 
    1.0850162066027080E+00 
    1.1081450146978498E+00 
    1.1071869327714963E+00 
    1.0842552243826735E+00 
    1.0835287543059970E+00 
    1.1062881687358932E+00 
    1.1054476511555638E+00 
    1.0828387503013999E+00 
    1.0821866186627840E+00 
    1.1046651738454092E+00 
    1.1039400534465520E+00 
    1.0815735494423409E+00 
    1.0809999903974981E+00 
    1.1032718012765761E+00 
    1.1026590174074862E+00 
    1.0804667359366567E+00 
    1.0799738971891051E+00 
    1.1021006755385796E+00 
    1.1015949354263528E+00 
    1.0795219889329148E+00 
    1.0791109124308622E+00 
    1.1011405080819234E+00 
    1.1007357865440996E+00 
    1.0787410024576174E+00 
    1.0784118975285366E+00 
    1.1003789674822295E+00 
    1.1000676933143305E+00 
    1.0781236631401896E+00 
    1.0778759210541520E+00 
    1.0998004745694292E+00 
    1.0995753871263430E+00 
    1.0776686848516974E+00 
    1.0775016148369629E+00 
    1.0993914764068071E+00 
    1.0992474388690086E+00 
    1.0773747221564729E+00 
    1.0772877317244722E+00 
    1.0991429961451398E+00 
    1.0990775633666177E+00 
    1.0772406851257346E+00 
    1.0772333746345681E+00 
    1.0990515877743352E+00 
    1.0687382622913348E+00 
    1.0402355709340381E+00 
    1.0402164162324758E+00 
    1.0686598465894657E+00 
    1.0685061051081914E+00 
    1.0401779410280050E+00 
    1.0401205682358949E+00 
    1.0682818677404897E+00 
    1.0679935857733607E+00 
    1.0400442797676162E+00 
    1.0399499303814854E+00 
    1.0676491248246953E+00 
    1.0672582172101752E+00 
    1.0398378148775000E+00 
    1.0397090777092164E+00 
    1.0668305435705212E+00 
    1.0663756869546202E+00 
    1.0395643943196673E+00 
    1.0394046644469475E+00 
    1.0659039195298186E+00 
    1.0654230406679051E+00 
    1.0392300313167249E+00 
    1.0390402926352262E+00 
    1.0649375101189895E+00 
    1.0644486363166936E+00 
    1.0388345915952049E+00 
    1.0386120477609126E+00 
    1.0639558939498608E+00 
    1.0634549165199045E+00 
    1.0383714062523048E+00 
    1.0381116692287695E+00 
    1.0629418694045039E+00 
    1.0624205704092100E+00 
    1.0378340770542365E+00 
    1.0375399102333984E+00 
    1.0618947733311630E+00 
    1.0613681799452828E+00 
    1.0372307567938284E+00 
    1.0369086245754811E+00 
    1.0608440852179932E+00 
    1.0603259879322509E+00 
    1.0365760804402362E+00 
    1.0362361082190064E+00 
    1.0598171275207007E+00 
    1.0593209416828129E+00 
    1.0358924213673311E+00 
    1.0355480687155372E+00 
    1.0588403965873241E+00 
    1.0583773438502231E+00 
    1.0352049727678276E+00 
    1.0348651681876813E+00 
    1.0579336614965162E+00 
    1.0575112556618396E+00 
    1.0345314595147186E+00 
    1.0342065679801484E+00 
    1.0571121152787668E+00 
    1.0567381216583183E+00 
    1.0338938551294199E+00 
    1.0335963158352139E+00 
    1.0563912724934523E+00 
    1.0560729177214163E+00 
    1.0333167105153376E+00 
    1.0330584406743883E+00 
    1.0557851340537314E+00 
    1.0555295098341326E+00 
    1.0328252348893918E+00 
    1.0326198661967316E+00 
    1.0553078142523340E+00 
    1.0551211151172351E+00 
    1.0324452732388565E+00 
    1.0323032052364447E+00 
    1.0549707154873897E+00 
    1.0548570540192785E+00 
    1.0321954878509660E+00 
    1.0321226126242860E+00 
    1.0547808520387434E+00 
    1.0547418761568372E+00 
    1.0320851154415565E+00 
    1.0320821577358259E+00 
    1.0547402106128292E+00 
    1.0130568632152450E+00 
    9.8618374704951373E-01 
    9.8621472626110418E-01 
    1.0130676476667084E+00 
    1.0130888093012878E+00 
    9.8627613696859540E-01 
    9.8636647630917818E-01 
    1.0131199928233077E+00 
    1.0131600450568774E+00 
    9.8648380088923082E-01 
    9.8662521023306093E-01 
    1.0132077503360828E+00 
    1.0132611454178950E+00 
    9.8678732905512789E-01 
    9.8696592851132803E-01 
    1.0133180484009217E+00 
    1.0133757064028384E+00 
    9.8715630865662496E-01 
    9.8735314866927237E-01 
    1.0134309873156684E+00 
    1.0134806008504798E+00 
    9.8755078334222535E-01 
    9.8774242530789513E-01 
    1.0135201277265160E+00 
    1.0135453864091848E+00 
    9.8792104362924993E-01 
    9.8807991143866059E-01 
    1.0135516282235317E+00 
    1.0135349639501141E+00 
    9.8821221451744901E-01 
    9.8831201125080381E-01 
    1.0134908964364964E+00 
    1.0134193757600898E+00 
    9.8837720171220833E-01 
    9.8840668793241904E-01 
    1.0133193136803931E+00 
    1.0131916332760611E+00 
    9.8839958962285690E-01 
    9.8835687073319511E-01 
    1.0130367633078432E+00 
    1.0128574307857408E+00 
    9.8828005291591603E-01 
    9.8817263715946946E-01 
    1.0126559637364043E+00 
    1.0124370473033619E+00 
    9.8803880379086972E-01 
    9.8788258013521113E-01 
    1.0122034344987827E+00 
    1.0119574371321314E+00 
    9.8770533422423390E-01 
    9.8750973618966376E-01 
    1.0117009783744475E+00 
    1.0114378277232390E+00 
    9.8729891749399123E-01 
    9.8707707646840492E-01 
    1.0111711969465800E+00 
    1.0109057176026093E+00 
    9.8684853234379211E-01 
    9.8661808521283301E-01 
    1.0106452644311736E+00 
    1.0103935259885666E+00 
    9.8638888007957259E-01 
    9.8616680815305779E-01 
    1.0101553065091589E+00 
    1.0099357658286905E+00 
    9.8595742538824693E-01 
    9.8576563662715500E-01 
    1.0097389853972087E+00 
    1.0095688527787319E+00 
    9.8559572940631968E-01 
    9.8545084447622000E-01 
    1.0094281373998641E+00 
    1.0093190075956737E+00 
    9.8533340779435397E-01 
    9.8524438967254069E-01 
    1.0092425214581946E+00 
    1.0091989220237847E+00 
    9.8518403532312726E-01 
    9.8515104538682308E-01 
    1.0091873909254951E+00 
    9.5834971413436310E-01 
    9.2686126070343011E-01 
    9.2685441558369874E-01 
    9.5837260276740743E-01 
    9.5841910194506086E-01 
    9.2684036919299317E-01 
    9.2681943366892416E-01 
    9.5848859551989085E-01 
    9.5858017603398349E-01 
    9.2679190452411675E-01 
    9.2675851866321757E-01 
    9.5869173774964667E-01 
    9.5882101469640713E-01 
    9.2671970455645092E-01 
    9.2667618244738437E-01 
    9.5896473266568061E-01 
    9.5911962062083833E-01 
    9.2662799077127234E-01 
    9.2657614498313645E-01 
    9.5928166859037300E-01 
    9.5944491024351286E-01 
    9.2652172167817037E-01 
    9.2646696583044130E-01 
    9.5960335915468953E-01 
    9.5975139775150287E-01 
    9.2641284698453386E-01 
    9.2636105177461325E-01 
    9.5988325532052610E-01 
    9.5999372240740333E-01 
    9.2631168366661476E-01 
    9.2626583823130404E-01 
    9.6007782283855692E-01 
    9.6013901982263417E-01 
    9.2622291697390613E-01 
    9.2618378904644427E-01 
    9.6017171503015908E-01 
    9.6017522571420444E-01 
    9.2614755826006423E-01 
    9.2611465560671791E-01 
    9.6014987204210134E-01 
    9.6009743326981933E-01 
    9.2608344347688765E-01 
    9.2605372091873772E-01 
    9.6002093455255844E-01 
    9.5992510002232367E-01 
    9.2602330374558817E-01 
    9.2599198721819653E-01 
    9.5982075510910192E-01 
    9.5970362611957760E-01 
    9.2595957236581272E-01 
    9.2592748026117133E-01 
    9.5957404606077024E-01 
    9.5943384151805988E-01 
    9.2589546887471230E-01 
    9.2586447025230367E-01 
    9.5928563666359290E-01 
    9.5913303716996590E-01 
    9.2583386411900404E-01 
    9.2580488438456643E-01 
    9.5898000938359285E-01 
    9.5882321135280324E-01 
    9.2577697325479347E-01 
    9.2575151659475174E-01 
    9.5866718652620253E-01 
    9.5851634756840676E-01 
    9.2572846158609279E-01 
    9.2570861151087025E-01 
    9.5837447144691257E-01 
    9.5824483898486834E-01 
    9.2569155095751920E-01 
    9.2567755767922510E-01 
    9.5812984384713151E-01 
    9.5803116137227884E-01 
    9.2566586287578612E-01 
    9.2565623777092887E-01 
    9.5794943678139066E-01 
    9.5788452630893561E-01 
    9.2564748848855127E-01 
    9.2563884533858176E-01 
    9.5783522767629692E-01 
    8.9361640797404429E-01 
    8.6385169053132649E-01 
    8.6382960695597477E-01 
    8.9358315415298561E-01 
    8.9351792794525964E-01 
    8.6378614890122285E-01 
    8.6372229268581846E-01 
    8.9342262470094902E-01 
    8.9329964374864657E-01 
    8.6363944027095485E-01 
    8.6353924434497942E-01 
    8.9315197513511191E-01 
    8.9298295274450912E-01 
    8.6342396104101693E-01 
    8.6329598014082776E-01 
    8.9279645395767859E-01 
    8.9259643359027863E-01 
    8.6315849242824483E-01 
    8.6301481739503028E-01 
    8.9238736169703370E-01 
    8.9217731712247728E-01 
    8.6286929206539731E-01 
    8.6272561549383242E-01 
    8.9197186449216426E-01 
    8.9177599910083749E-01 
    8.6258858042277498E-01 
    8.6246194897591544E-01 
    8.9159520039546880E-01 
    8.9143388145472868E-01 
    8.6235069084632499E-01 
    8.6225822748489944E-01 
    8.9129685843496531E-01 
    8.9118282084651723E-01 
    8.6218697659579802E-01 
    8.6213733049468211E-01 
    8.9109626362944072E-01 
    8.9103737263412064E-01 
    8.6211110914517586E-01 
    8.6210770749351551E-01 
    8.9100647997310467E-01 
    8.9100164216449285E-01 
    8.6212753965149203E-01 
    8.6216842207591282E-01 
    8.9102094638925800E-01 
    8.9106005347678130E-01 
    8.6222909890939992E-01 
    8.6230671788872226E-01 
    8.9111170192652078E-01 
    8.9117768937087993E-01 
    8.6239936858928889E-01 
    8.6250476294128209E-01 
    8.9125769104171104E-01 
    8.9134941865414530E-01 
    8.6262150302001217E-01 
    8.6274623182204491E-01 
    8.9145085841864669E-01 
    8.9155847543450550E-01 
    8.6287666874494739E-01 
    8.6301022230139157E-01 
    8.9167084543395947E-01 
    8.9178863726701874E-01 
    8.6314559765480536E-01 
    8.6327843013244920E-01 
    8.9190817747147577E-01 
    8.9202539469882147E-01 
    8.6340575309086487E-01 
    8.6352386677635395E-01 
    8.9213731183556177E-01 
    8.9224092108963970E-01 
    8.6363057670813059E-01 
    8.6372335589700733E-01 
    8.9233431969822097E-01 
    8.9241583984966211E-01 
    8.6380118184681720E-01 
    8.6386296463892431E-01 
    8.9248489500154393E-01 
    8.9254127037196374E-01 
    8.6390907386563942E-01 
    8.6393991675856729E-01 
    8.9258578741501271E-01 
    8.3642214697734163E-01 
    8.0973531400605381E-01 
    8.0976727265584514E-01 
    8.3642697281897349E-01 
    8.3643586128694303E-01 
    8.0982977883499230E-01 
    8.0992046808677942E-01 
    8.3644847396113087E-01 
    8.3646375677711182E-01 
    8.1003659624807500E-01 
    8.1017470866953123E-01 
    8.3648115219257047E-01 
    8.3649965066427845E-01 
    8.1033119153472211E-01 
    8.1050200658450844E-01 
    8.3651875584889479E-01 
    8.3653780704523695E-01 
    8.1068318852654175E-01 
    8.1087169230435496E-01 
    8.3655723750816380E-01 
    8.3657761112216478E-01 
    8.1106483196539370E-01 
    8.1125951467163915E-01 
    8.3659957603789714E-01 
    8.3662405442491827E-01 
    8.1145318837458846E-01 
    8.1164353634976749E-01 
    8.3665218468822877E-01 
    8.3668544983532989E-01 
    8.1182893439870385E-01 
    8.1200801122255728E-01 
    8.3672532995362170E-01 
    8.3677221496814724E-01 
    8.1217956240960121E-01 
    8.1234257763146334E-01 
    8.3682625783005260E-01 
    8.3688765955671374E-01 
    8.1249606937906227E-01 
    8.1263911287442958E-01 
    8.3695613301108562E-01 
    8.3703151423887978E-01 
    8.1277143248663686E-01 
    8.1289269296713984E-01 
    8.3711294971902095E-01 
    8.3719963340836046E-01 
    8.1300306283962964E-01 
    8.1310207933658862E-01 
    8.3729022883766158E-01 
    8.3738341135420025E-01 
    8.1318958534082963E-01 
    8.1326609730789212E-01 
    8.3747843166822611E-01 
    8.3757461440543679E-01 
    8.1333229679118313E-01 
    8.1338853840790315E-01 
    8.3767050506454599E-01 
    8.3776481730678798E-01 
    8.1343522611395758E-01 
    8.1347330558682085E-01 
    8.3785667503915584E-01 
    8.3794553164360930E-01 
    8.1350372316458275E-01 
    8.1352710903811121E-01 
    8.3802943335815183E-01 
    8.3810690801175070E-01 
    8.1354409609902412E-01 
    8.1355518496865908E-01 
    8.3817625643238780E-01 
    8.3823640741603733E-01 
    8.1356086896969060E-01 
    8.1356163609463328E-01 
    8.3828622703612921E-01 
    8.3832531498331930E-01 
    8.1355796297798155E-01 
    8.1355041482423718E-01 
    8.3835331497905730E-01 
    8.3837064854958454E-01 
    8.1353954932404604E-01 
    8.1352605579172510E-01 
    8.3837782355399981E-01 
    7.8303444509600306E-01 
    7.5451417462580317E-01 
    7.5455205173655848E-01 
    7.8308428056987978E-01 
    7.8318181019394517E-01 
    7.5462686456682326E-01 
    7.5473594826860924E-01 
    7.8332350922087413E-01 
    7.8350527787697100E-01 
    7.5487624480107340E-01 
    7.5504338937217119E-01 
    7.8372179492333272E-01 
    7.8396759571306507E-01 
    7.5523274010988084E-01 
    7.5543887612813598E-01 
    7.8423611626204437E-01 
    7.8452120864231856E-01 
    7.5565615455258450E-01 
    7.5588289318580459E-01 
    7.8481722674857901E-01 
    7.8511956861354115E-01 
    7.5611288784861652E-01 
    7.5634092640417649E-01 
    7.8542201161823222E-01 
    7.8571997240028457E-01 
    7.5656174917602015E-01 
    7.5677125031341785E-01 
    7.8600797103046960E-01 
    7.8628269983834398E-01 
    7.5696526326242752E-01 
    7.5714131185228473E-01 
    7.8653987247935242E-01 
    7.8677799683150706E-01 
    7.5730050479719335E-01 
    7.5743795669421832E-01 
    7.8699448830208085E-01 
    7.8718831356951546E-01 
    7.5755106182766951E-01 
    7.5763951269392948E-01 
    7.8735727036443637E-01 
    7.8750202998822683E-01 
    7.5770275042620283E-01 
    7.5774260117140280E-01 
    7.8762186752523433E-01 
    7.8771884516391089E-01 
    7.5776054368391621E-01 
    7.5776331180965228E-01 
    7.8779238936720308E-01 
    7.8784431989992665E-01 
    7.5774690027937697E-01 
    7.5771306917621217E-01 
    7.8787521386674830E-01 
    7.8788785285238350E-01 
    7.5766276102073660E-01 
    7.5759868404264641E-01 
    7.8788308959520381E-01 
    7.8786370079279777E-01 
    7.5752246732034179E-01 
    7.5743753592835339E-01 
    7.8783109965634135E-01 
    7.8778832095906570E-01 
    7.5734280824786382E-01 
    7.5724244779010330E-01 
    7.8773725747419654E-01 
    7.8768131366552330E-01 
    7.5713912612597711E-01 
    7.5703625419194631E-01 
    7.8762195763581588E-01 
    7.8756194494680365E-01 
    7.5693577657681221E-01 
    7.5684019712939643E-01 
    7.8750224408462000E-01 
    7.8744494526047926E-01 
    7.5675058473097012E-01 
    7.5666843377446558E-01 
    7.8739049923879600E-01 
    7.8734038142158425E-01 
    7.5659383500392530E-01 
    7.5652721224784569E-01 
    7.8729456464128300E-01 
    7.2066571047418027E-01 
    6.8487787404742184E-01 
    6.8482951644341417E-01 
    7.2065776059857911E-01 
    7.2064176373291888E-01 
    6.8473512073595111E-01 
    6.8459857201275665E-01 
    7.2061806947434004E-01 
    7.2058714998031848E-01 
    6.8442410261190356E-01 
    6.8421722922739592E-01 
    7.2054983139561757E-01 
    7.2050661950614292E-01 
    6.8398352411166896E-01 
    6.8372947515305615E-01 
    7.2045818137082185E-01 
    7.2040462183851761E-01 
    6.8346130819965289E-01 
    6.8318140720328402E-01 
    7.2034699703041472E-01 
    7.2028611992012015E-01 
    6.8289881518385420E-01 
    6.8261954341092979E-01 
    7.2022361170392879E-01 
    7.2015959333114943E-01 
    6.8234867383672204E-01 
    6.8209097232037719E-01 
    7.2009537467184370E-01 
    7.2003044192211729E-01 
    6.8185003924434151E-01 
    6.8162882028782124E-01 
    7.1996575899246162E-01 
    7.1990020870052529E-01 
    6.8142412663168495E-01 
    6.8124240267356451E-01 
    7.1983546888717920E-01 
    7.1977117052533968E-01 
    6.8108580998233303E-01 
    6.8095557737140500E-01 
    7.1970888973432179E-01 
    7.1964807920332308E-01 
    6.8085160138077550E-01 
    6.8077284260822390E-01 
    7.1959040142343911E-01 
    7.1953546825702952E-01 
    6.8071702524366584E-01 
    6.8067729615107275E-01 
    7.1948497986111715E-01 
    7.1943757303327893E-01 
    6.8065759610831877E-01 
    6.8065724535280703E-01 
    7.1939398084125827E-01 
    7.1935309629613142E-01 
    6.8067493236617294E-01 
    6.8070899663821971E-01 
    7.1931605153625056E-01 
    7.1928216995697958E-01 
    6.8075750487129805E-01 
    6.8081382200252760E-01 
    7.1925279120031704E-01 
    7.1922683069577076E-01 
    6.8088077919367651E-01 
    6.8095561429579343E-01 
    7.1920469509368601E-01 
    7.1918506786700653E-01 
    6.8103575664128768E-01 
    6.8111887821620809E-01 
    7.1916862424085248E-01 
    7.1915449032082235E-01 
    6.8120293952313737E-01 
    6.8128619868485418E-01 