# vtk DataFile Version 2.0
Pressure Field Data 
ASCII 
DATASET UNSTRUCTURED_GRID 

POINTS 1681 double 

    0.0000000000000000E+00     0.0000000000000000E+00     0.0000000000000000E+00 
    1.0000000000000000E+00     0.0000000000000000E+00     0.0000000000000000E+00 
    1.0000000000000000E+00     1.0000000000000000E+00     0.0000000000000000E+00 
    0.0000000000000000E+00     1.0000000000000000E+00     0.0000000000000000E+00 
    5.2499999999875258E-01     0.0000000000000000E+00     0.0000000000000000E+00 
    7.4999999999856765E-02     0.0000000000000000E+00     0.0000000000000000E+00 
    1.2499999999975850E-01     0.0000000000000000E+00     0.0000000000000000E+00 
    1.7499999999962990E-01     0.0000000000000000E+00     0.0000000000000000E+00 
    2.2499999999948389E-01     0.0000000000000000E+00     0.0000000000000000E+00 
    2.7499999999933789E-01     0.0000000000000000E+00     0.0000000000000000E+00 
    3.2499999999919210E-01     0.0000000000000000E+00     0.0000000000000000E+00 
    3.7499999999904610E-01     0.0000000000000000E+00     0.0000000000000000E+00 
    4.2499999999890020E-01     0.0000000000000000E+00     0.0000000000000000E+00 
    4.7499999999875958E-01     0.0000000000000000E+00     0.0000000000000000E+00 
    2.4999999999949701E-02     0.0000000000000000E+00     0.0000000000000000E+00 
    5.7499999999887907E-01     0.0000000000000000E+00     0.0000000000000000E+00 
    6.2499999999901101E-01     0.0000000000000000E+00     0.0000000000000000E+00 
    6.7499999999914273E-01     0.0000000000000000E+00     0.0000000000000000E+00 
    7.2499999999927467E-01     0.0000000000000000E+00     0.0000000000000000E+00 
    7.7499999999940661E-01     0.0000000000000000E+00     0.0000000000000000E+00 
    8.2499999999953844E-01     0.0000000000000000E+00     0.0000000000000000E+00 
    8.7499999999967026E-01     0.0000000000000000E+00     0.0000000000000000E+00 
    9.2499999999980220E-01     0.0000000000000000E+00     0.0000000000000000E+00 
    9.7499999999993414E-01     0.0000000000000000E+00     0.0000000000000000E+00 
    5.4999999999881310E-01     0.0000000000000000E+00     0.0000000000000000E+00 
    9.9999999999814140E-02     0.0000000000000000E+00     0.0000000000000000E+00 
    1.4999999999970290E-01     0.0000000000000000E+00     0.0000000000000000E+00 
    1.9999999999955689E-01     0.0000000000000000E+00     0.0000000000000000E+00 
    2.4999999999941089E-01     0.0000000000000000E+00     0.0000000000000000E+00 
    2.9999999999926502E-01     0.0000000000000000E+00     0.0000000000000000E+00 
    3.4999999999911913E-01     0.0000000000000000E+00     0.0000000000000000E+00 
    3.9999999999897312E-01     0.0000000000000000E+00     0.0000000000000000E+00 
    4.4999999999882723E-01     0.0000000000000000E+00     0.0000000000000000E+00 
    4.9999999999869210E-01     0.0000000000000000E+00     0.0000000000000000E+00 
    4.9999999999899403E-02     0.0000000000000000E+00     0.0000000000000000E+00 
    5.9999999999894504E-01     0.0000000000000000E+00     0.0000000000000000E+00 
    6.4999999999907687E-01     0.0000000000000000E+00     0.0000000000000000E+00 
    6.9999999999920870E-01     0.0000000000000000E+00     0.0000000000000000E+00 
    7.4999999999934064E-01     0.0000000000000000E+00     0.0000000000000000E+00 
    7.9999999999947247E-01     0.0000000000000000E+00     0.0000000000000000E+00 
    8.4999999999960441E-01     0.0000000000000000E+00     0.0000000000000000E+00 
    8.9999999999973623E-01     0.0000000000000000E+00     0.0000000000000000E+00 
    9.4999999999986817E-01     0.0000000000000000E+00     0.0000000000000000E+00 
    1.0000000000000000E+00     5.2499999999875258E-01     0.0000000000000000E+00 
    1.0000000000000000E+00     7.4999999999856765E-02     0.0000000000000000E+00 
    1.0000000000000000E+00     1.2499999999975850E-01     0.0000000000000000E+00 
    1.0000000000000000E+00     1.7499999999962990E-01     0.0000000000000000E+00 
    1.0000000000000000E+00     2.2499999999948389E-01     0.0000000000000000E+00 
    1.0000000000000000E+00     2.7499999999933789E-01     0.0000000000000000E+00 
    1.0000000000000000E+00     3.2499999999919210E-01     0.0000000000000000E+00 
    1.0000000000000000E+00     3.7499999999904610E-01     0.0000000000000000E+00 
    1.0000000000000000E+00     4.2499999999890020E-01     0.0000000000000000E+00 
    1.0000000000000000E+00     4.7499999999875958E-01     0.0000000000000000E+00 
    1.0000000000000000E+00     2.4999999999949701E-02     0.0000000000000000E+00 
    1.0000000000000000E+00     5.7499999999887907E-01     0.0000000000000000E+00 
    1.0000000000000000E+00     6.2499999999901101E-01     0.0000000000000000E+00 
    1.0000000000000000E+00     6.7499999999914273E-01     0.0000000000000000E+00 
    1.0000000000000000E+00     7.2499999999927467E-01     0.0000000000000000E+00 
    1.0000000000000000E+00     7.7499999999940661E-01     0.0000000000000000E+00 
    1.0000000000000000E+00     8.2499999999953844E-01     0.0000000000000000E+00 
    1.0000000000000000E+00     8.7499999999967026E-01     0.0000000000000000E+00 
    1.0000000000000000E+00     9.2499999999980220E-01     0.0000000000000000E+00 
    1.0000000000000000E+00     9.7499999999993414E-01     0.0000000000000000E+00 
    1.0000000000000000E+00     5.4999999999881310E-01     0.0000000000000000E+00 
    1.0000000000000000E+00     9.9999999999814140E-02     0.0000000000000000E+00 
    1.0000000000000000E+00     1.4999999999970290E-01     0.0000000000000000E+00 
    1.0000000000000000E+00     1.9999999999955689E-01     0.0000000000000000E+00 
    1.0000000000000000E+00     2.4999999999941089E-01     0.0000000000000000E+00 
    1.0000000000000000E+00     2.9999999999926502E-01     0.0000000000000000E+00 
    1.0000000000000000E+00     3.4999999999911913E-01     0.0000000000000000E+00 
    1.0000000000000000E+00     3.9999999999897312E-01     0.0000000000000000E+00 
    1.0000000000000000E+00     4.4999999999882723E-01     0.0000000000000000E+00 
    1.0000000000000000E+00     4.9999999999869210E-01     0.0000000000000000E+00 
    1.0000000000000000E+00     4.9999999999899403E-02     0.0000000000000000E+00 
    1.0000000000000000E+00     5.9999999999894504E-01     0.0000000000000000E+00 
    1.0000000000000000E+00     6.4999999999907687E-01     0.0000000000000000E+00 
    1.0000000000000000E+00     6.9999999999920870E-01     0.0000000000000000E+00 
    1.0000000000000000E+00     7.4999999999934064E-01     0.0000000000000000E+00 
    1.0000000000000000E+00     7.9999999999947247E-01     0.0000000000000000E+00 
    1.0000000000000000E+00     8.4999999999960441E-01     0.0000000000000000E+00 
    1.0000000000000000E+00     8.9999999999973623E-01     0.0000000000000000E+00 
    1.0000000000000000E+00     9.4999999999986817E-01     0.0000000000000000E+00 
    4.7500000000196618E-01     1.0000000000000000E+00     0.0000000000000000E+00 
    9.2499999999968763E-01     1.0000000000000000E+00     0.0000000000000000E+00 
    8.7499999999961831E-01     1.0000000000000000E+00     0.0000000000000000E+00 
    8.2499999999982654E-01     1.0000000000000000E+00     0.0000000000000000E+00 
    7.7500000000017355E-01     1.0000000000000000E+00     0.0000000000000000E+00 
    7.2500000000052045E-01     1.0000000000000000E+00     0.0000000000000000E+00 
    6.7500000000086724E-01     1.0000000000000000E+00     0.0000000000000000E+00 
    6.2500000000121403E-01     1.0000000000000000E+00     0.0000000000000000E+00 
    5.7500000000156093E-01     1.0000000000000000E+00     0.0000000000000000E+00 
    5.2500000000189684E-01     1.0000000000000000E+00     0.0000000000000000E+00 
    9.7499999999989595E-01     1.0000000000000000E+00     0.0000000000000000E+00 
    4.2500000000176902E-01     1.0000000000000000E+00     0.0000000000000000E+00 
    3.7500000000156092E-01     1.0000000000000000E+00     0.0000000000000000E+00 
    3.2500000000135282E-01     1.0000000000000000E+00     0.0000000000000000E+00 
    2.7500000000114472E-01     1.0000000000000000E+00     0.0000000000000000E+00 
    2.2500000000093659E-01     1.0000000000000000E+00     0.0000000000000000E+00 
    1.7500000000072849E-01     1.0000000000000000E+00     0.0000000000000000E+00 
    1.2500000000052039E-01     1.0000000000000000E+00     0.0000000000000000E+00 
    7.5000000000312261E-02     1.0000000000000000E+00     0.0000000000000000E+00 
    2.5000000000104109E-02     1.0000000000000000E+00     0.0000000000000000E+00 
    4.5000000000187301E-01     1.0000000000000000E+00     0.0000000000000000E+00 
    8.9999999999958358E-01     1.0000000000000000E+00     0.0000000000000000E+00 
    8.4999999999965303E-01     1.0000000000000000E+00     0.0000000000000000E+00 
    8.0000000000000004E-01     1.0000000000000000E+00     0.0000000000000000E+00 
    7.5000000000034706E-01     1.0000000000000000E+00     0.0000000000000000E+00 
    7.0000000000069384E-01     1.0000000000000000E+00     0.0000000000000000E+00 
    6.5000000000104063E-01     1.0000000000000000E+00     0.0000000000000000E+00 
    6.0000000000138742E-01     1.0000000000000000E+00     0.0000000000000000E+00 
    5.5000000000173432E-01     1.0000000000000000E+00     0.0000000000000000E+00 
    5.0000000000205946E-01     1.0000000000000000E+00     0.0000000000000000E+00 
    9.4999999999979179E-01     1.0000000000000000E+00     0.0000000000000000E+00 
    4.0000000000166491E-01     1.0000000000000000E+00     0.0000000000000000E+00 
    3.5000000000145681E-01     1.0000000000000000E+00     0.0000000000000000E+00 
    3.0000000000124871E-01     1.0000000000000000E+00     0.0000000000000000E+00 
    2.5000000000104061E-01     1.0000000000000000E+00     0.0000000000000000E+00 
    2.0000000000083251E-01     1.0000000000000000E+00     0.0000000000000000E+00 
    1.5000000000062441E-01     1.0000000000000000E+00     0.0000000000000000E+00 
    1.0000000000041630E-01     1.0000000000000000E+00     0.0000000000000000E+00 
[...]
CELL_DATA 1600 
SCALARS Pressure double 1 
LOOKUP_TABLE default 

    1.0507173903346374E+00 
    1.0316806273681955E+00 
    1.0315897557041787E+00 
    1.0488485997827455E+00 
    1.0471450104155851E+00 
    1.0314261006199632E+00 
    1.0312036088888950E+00 
    1.0455821592301846E+00 
    1.0441481617288917E+00 
    1.0309350897494185E+00 
    1.0306308843706067E+00 
    1.0428319554306533E+00 
    1.0416237846487388E+00 
    1.0303006186276749E+00 
    1.0299518099872600E+00 
    1.0405155457558539E+00 
    1.0395003560359661E+00 
    1.0295912097344346E+00 
    1.0292241561510105E+00 
    1.0385717652271396E+00 
    1.0377239445623063E+00 
    1.0288565030544681E+00 
    1.0284927126266354E+00 
    1.0369520528518794E+00 
    1.0362520285552341E+00 
    1.0281371733142439E+00 
    1.0277928691866243E+00 
    1.0356201405382470E+00 
    1.0350525899721315E+00 
    1.0274623803451051E+00 
    1.0271478621029932E+00 
    1.0345462993119070E+00 
    1.0340974145785795E+00 
    1.0268514922712837E+00 
    1.0265741157233101E+00 
    1.0337023498504867E+00 
    1.0333570428235439E+00 
    1.0263162280801545E+00 
    1.0260777244990531E+00 
    1.0330573109693806E+00 
    1.0327984705069848E+00 
    1.0258577448669481E+00 
    1.0256552227613138E+00 
    1.0325761060502729E+00 
    1.0323860714181019E+00 
    1.0254690200656453E+00 
    1.0252998016591397E+00 
    1.0322266653467720E+00 
    1.0320964192351256E+00 
    1.0251476650139439E+00 
    1.0250120952339918E+00 
    1.0319915786356089E+00 
    1.0319013193703079E+00 
    1.0248819463407017E+00 
    1.0247633600908996E+00 
    1.0318324547273698E+00 
    1.0317903728500251E+00 
    1.0246651293308240E+00 
    1.0245808589169560E+00 
    1.0317649195470049E+00 
    1.0317500640650741E+00 
    1.0245112868574173E+00 
    1.0244536157272826E+00 
    1.0317400227285991E+00 
    1.0317302244208457E+00 
    1.0244037916599840E+00 
    1.0243596155132468E+00 
    1.0317163385518524E+00 
    1.0316954934132974E+00 
    1.0243179791397572E+00 
    1.0242779126982524E+00 
    1.0316649932177631E+00 
    1.0316237691458179E+00 
    1.0242374376676846E+00 
    1.0241968704220332E+00 
    1.0315708693121464E+00 
    1.0315070477119190E+00 
    1.0241554509781843E+00 
    1.0241147462178588E+00 
    1.0314331246969781E+00 
    1.0199830593133969E+00 
    1.0083597832715077E+00 
    1.0083298378649921E+00 
    1.0199477965406336E+00 
    1.0198784731290165E+00 
    1.0082704656195183E+00 
    1.0081825990464850E+00 
    1.0197763143952425E+00 
    1.0196434175856139E+00 
    1.0080670497674640E+00 
    1.0079251940312810E+00 
    1.0194819647589339E+00 
    1.0192948955122767E+00 
    1.0077583993489061E+00 
    1.0075684389661237E+00 
    1.0190848807370290E+00 
    1.0188547528522838E+00 
    1.0073569670833247E+00 
    1.0071255213121277E+00 
    1.0186070375320038E+00 
    1.0183451003945163E+00 
    1.0068759197768680E+00 
    1.0066102550061604E+00 
    1.0180719937704477E+00 
    1.0177909331012591E+00 
    1.0063307295357611E+00 
    1.0060394087087479E+00 
    1.0175045474458217E+00 
    1.0172151964800753E+00 
    1.0057382194648909E+00 
    1.0054290101721886E+00 
    1.0169252629716155E+00 
    1.0166369155187529E+00 
    1.0051136192421055E+00 
    1.0047934513329475E+00 
    1.0163517097187738E+00 
    1.0160709789053837E+00 
    1.0044701361199992E+00 
    1.0041451288673304E+00 
    1.0157958758050976E+00 
    1.0155268628015715E+00 
    1.0038198078358254E+00 
    1.0034950834274130E+00 
    1.0152643002691544E+00 
    1.0150086002951768E+00 
    1.0031722738398956E+00 
    1.0028530023320259E+00 
    1.0147613772037147E+00 
    1.0145239898888287E+00 
    1.0025390966275460E+00 
    1.0022321383945034E+00 
    1.0142976898286851E+00 
    1.0140759069759393E+00 
    1.0019322027602684E+00 
    1.0016400209332070E+00 
    1.0138610534986929E+00 
    1.0136680557655739E+00 
    1.0013652851478561E+00 
    1.0011134635848267E+00 
    1.0135001416150073E+00 
    1.0133497773762861E+00 
    1.0008832959702927E+00 
    1.0006770030186229E+00 
    1.0132129285586533E+00 
    1.0130927330255033E+00 
    1.0004924166339297E+00 
    1.0003302216828172E+00 
    1.0129893007322084E+00 
    1.0129014622733685E+00 
    1.0001938218227877E+00 
    1.0000833491268852E+00 
    1.0128287517544552E+00 
    1.0127705210218840E+00 
    9.9999933221547044E-01 
    9.9994227154293924E-01 
    1.0127269319188090E+00 
    1.0126979555802191E+00 
    9.9991269714962505E-01 
    9.9991111527559084E-01 
    1.0126843907320264E+00 
    9.9572770422210966E-01 
    9.8182032649545115E-01 
    9.8180636571894842E-01 
    9.9570283647613622E-01 
    9.9565357855037162E-01 
    9.8177829517885007E-01 
    9.8173628528806711E-01 
    9.9558032108079642E-01 
    9.9548383236230786E-01 
    9.8168006453360457E-01 
    9.8160962289545783E-01 
    9.9536479005959366E-01 
    9.9522393451930768E-01 
    9.8152445498803165E-01 
    9.8142475539178731E-01 
    9.9506211660788524E-01 
    9.9488061310398845E-01 
    9.8131045189560917E-01 
    9.8118110220262600E-01 
    9.9467992426086216E-01 
    9.9446086338931106E-01 
    9.8103600127890689E-01 
    9.8087462910723378E-01 
    9.9422417082943948E-01 
    9.9397103479600524E-01 
    9.8069639474306269E-01 
    9.8050130281708059E-01 
    9.9370257530471617E-01 
    9.9342027771460739E-01 
    9.8028952660492163E-01 
    9.8006129452701152E-01 
    9.9312530093742424E-01 
    9.9281909514226574E-01 
    9.7981715529689650E-01 
    9.7955778640095847E-01 
    9.9250272472410417E-01 
    9.9217771559831036E-01 
    9.7928421576327962E-01 
    9.7899793636865184E-01 
    9.9184568365590797E-01 
    9.9150843781447695E-01 
    9.7870074306829968E-01 
    9.7839457776366667E-01 
    9.9116754217918790E-01 
    9.9082497953824122E-01 
    9.7808198701041604E-01 
    9.7776500940835298E-01 
    9.9048265409130809E-01 
    9.9014236237272180E-01 
    9.7744563435906517E-01 
    9.7712591384579262E-01 
    9.8980608712342477E-01 
    9.8947588560616651E-01 
    9.7680839116086737E-01 
    9.7649563685934559E-01 
    9.8915419993961706E-01 
    9.8884315156879665E-01 
    9.7619065833916752E-01 
    9.7589588249056536E-01 
    9.8854470749063195E-01 
    9.8826597912516534E-01 
    9.7561362849954791E-01 
    9.7534492322104938E-01 
    9.8800971710155094E-01 
    9.8777106097237832E-01 
    9.7508980362122333E-01 
    9.7484913285298236E-01 
    9.8755832499804619E-01 
    9.8738013885184406E-01 
    9.7464244541764333E-01 
    9.7447935471285041E-01 
    9.8723685639903935E-01 
    9.8712832633847059E-01 
    9.7435573390878749E-01 
    9.7427197169704027E-01 
    9.8705585482846869E-01 
    9.8701973520762631E-01 
    9.7422903431264907E-01 
    9.7422654745289594E-01 
    9.8702070740873904E-01 
    9.6650780971526928E-01 
    9.4966430174514516E-01 
    9.4968113987320546E-01 
    9.6650945793568777E-01 
    9.6651231654194514E-01 
    9.4971424493003431E-01 
    9.4976250936392637E-01 
    9.6651585921910033E-01 
    9.6651902574172710E-01 
    9.4982444504122754E-01 
    9.4989811235335742E-01 
    9.6652065040732993E-01 
    9.6651928149008959E-01 
    9.4998119166437145E-01 
    9.5007053446953793E-01 
    9.6651339482165066E-01 
    9.6650113921721204E-01 
    9.5016229842925282E-01 
    9.5025301614162494E-01 
    9.6648033448138004E-01 
    9.6644915675860166E-01 
    9.5033971253736316E-01 
    9.5041887216956977E-01 
    9.6640519420631910E-01 
    9.6634640559449747E-01 
    9.5048667630485251E-01 
    9.5053919593393066E-01 
    9.6627058911835972E-01 
    9.6617627017669483E-01 
    9.5057198991288872E-01 
    9.5058175637303810E-01 
    9.6606158159460098E-01 
    9.6592655791957793E-01 
    9.5056731015156970E-01 
    9.5052800232546242E-01 
    9.6577067210672451E-01 
    9.6559470868388986E-01 
    9.5046332484746265E-01 
    9.5037394831384747E-01 
    9.6539926958216160E-01 
    9.6518635489023408E-01 
    9.5026098781402957E-01 
    9.5012685351038484E-01 
    9.6495769745814364E-01 
    9.6471647149353523E-01 
    9.4997432179435282E-01 
    9.4980584058895212E-01 
    9.6446449544810264E-01 
    9.6420392555682644E-01 
    9.4962280549420675E-01 
    9.4942732426173437E-01 
    9.6393665839195941E-01 
    9.6366573290861557E-01 
    9.4922189970503068E-01 
    9.4900976978064611E-01 
    9.6339386528335247E-01 
    9.6312439054526799E-01 
    9.4879428803322974E-01 
    9.4857874619557014E-01 
    9.6285999170440983E-01 
    9.6260363590968256E-01 
    9.4836558114872838E-01 
    9.4815939589142950E-01 
    9.6235941197779207E-01 
    9.6212911674846058E-01 
    9.4796378285420257E-01 
    9.4777363565164141E-01 
    9.6190594209687208E-01 
    9.6169838435272059E-01 
    9.4758245150909193E-01 
    9.4741587269708316E-01 
    9.6152985563509408E-01 
    9.6140198298985691E-01 
    9.4728813561623049E-01 
    9.4719257197774720E-01 
    9.6131274605500283E-01 
    9.6126244389639381E-01 
    9.4712932289624541E-01 
    9.4709706870671284E-01 
    9.6125055011783422E-01 
    9.3071829797778050E-01 
    9.0817925519503595E-01 
    9.0817932971273108E-01 
    9.3073469527472619E-01 
    9.3076780288462491E-01 
    9.0817922670778539E-01 
    9.0817915317724629E-01 
    9.3081727132705527E-01 
    9.3088241693226870E-01 
    9.0817938975929624E-01 
    9.0818042123425524E-01 
    9.3096198110155781E-01 
    9.3105434690250943E-01 
    9.0818259325009698E-01 
    9.0818574662561535E-01 
    9.3115691583489923E-01 
    9.3126616583091315E-01 
    9.0818848759473458E-01 
    9.0819054654844367E-01 
    9.3137897719929930E-01 
    9.3149230499077240E-01 
    9.0819357646603649E-01 
    9.0820021729699807E-01 
    9.3160317306385965E-01 
    9.3170854790235602E-01 
    9.0821212966141107E-01 
    9.0823022623066441E-01 
    9.3180428587870090E-01 
    9.3188481738107110E-01 
    9.0825224296151608E-01 
    9.0827602618948988E-01 
    9.3194598393398620E-01 
    9.3199001540505555E-01 
    9.0829988781303661E-01 
    9.0832291025167911E-01 
    9.3201289524278652E-01 
    9.3201380951174195E-01 
    9.0834273107867891E-01 
    9.0835796447916040E-01 
    9.3199260519850868E-01 
    9.3195004307548568E-01 
    9.0836607705354244E-01 
    9.0836562948698441E-01 
    9.3188802647117985E-01 
    9.3180952205689493E-01 
    9.0835503448198573E-01 
    9.0833514653420921E-01 
    9.3172101297867571E-01 
    9.3161996602855068E-01 
    9.0830657813204552E-01 
    9.0826971325426276E-01 
    9.3150677609185051E-01 
    9.3138275212840949E-01 
    9.0822203143009361E-01 
    9.0816307217330061E-01 
    9.3125008541018250E-01 
    9.3111224488469879E-01 
    9.0809550441144593E-01 
    9.0802360227551160E-01 
    9.3097271068817267E-01 
    9.3082984176796890E-01 
    9.0794522804392508E-01 
    9.0785451777484261E-01 
    9.3068648767726525E-01 
    9.3054372824663723E-01 
    9.0774201207606275E-01 
    9.0760363049625237E-01 
    9.3039249929138834E-01 
    9.3022845965645051E-01 
    9.0746084477905509E-01 
    9.0734531121163264E-01 
    9.3008185916242703E-01 
    9.2996522268499082E-01 
    9.0725555359814436E-01 
    9.0718488120648377E-01 
    9.2987032150042215E-01 
    9.2979685687819569E-01 
    9.0713137823666035E-01 
    9.0709374001753851E-01 
    9.2974336276893976E-01 
    8.8340738958701071E-01 
    8.5996281751111281E-01 
    8.5993812925589130E-01 
    8.8338563797864789E-01 
    8.8334301640707991E-01 
    8.5988932278358832E-01 
    8.5981711629417623E-01 
    8.8328080635022066E-01 
    8.8320077827942145E-01 
    8.5972276404857273E-01 
    8.5960777901440888E-01 
    8.8310512049662582E-01 
    8.8299656521176106E-01 
    8.5947437465959875E-01 
    8.5932478311184701E-01 
    8.8287751859172636E-01 
    8.8275017570873116E-01 
    8.5916160401315833E-01 
    8.5898734570317670E-01 
    8.8261718619207830E-01 
    8.8248395732951401E-01 
    8.5880469904123280E-01 
    8.5861545003363782E-01 
    8.8235510459028177E-01 
    8.8223532726165688E-01 
    8.5842212356099412E-01 
    8.5822530778539075E-01 
    8.8212960907136417E-01 
    8.8204286872657234E-01 
    8.5802443621531288E-01 
    8.5781525189191643E-01 
    8.8197860362667779E-01 
    8.8193321360579269E-01 
    8.5759132507148095E-01 
    8.5734611349174450E-01 
    8.8190019080433057E-01 
    8.8186662024104268E-01 
    8.5709187013990829E-01 
    8.5684868909408007E-01 
    8.8182768808858247E-01 
    8.8178449998564801E-01 
    8.5662471846760480E-01 
    8.5642017510681090E-01 
    8.8173902658155701E-01 
    8.8169022866131452E-01 
    8.5623448299753180E-01 
    8.5606486307012408E-01 
    8.8163413503429067E-01 
    8.8157264912442301E-01 
    8.5591003883575378E-01 
    8.5577085856068236E-01 
    8.8150763398221166E-01 
    8.8144012793006288E-01 
    8.5565015774497233E-01 
    8.5554776941454946E-01 
    8.8137180649081559E-01 
    8.8130066078812652E-01 
    8.5546035697941414E-01 
    8.5538256455042272E-01 
    8.8122269332461367E-01 
    8.8113708213288122E-01 
    8.5531500174160058E-01 
    8.5526185505296193E-01 
    8.8104313844443660E-01 
    8.8094273157654690E-01 
    8.5523067447340062E-01 
    8.5522218008515594E-01 
    8.8084963142968664E-01 
    8.8078178013434560E-01 
    8.5522745385924348E-01 
    8.5523764059305962E-01 
    8.8073874912248729E-01 
    8.8071173202254927E-01 
    8.5525028935281888E-01 
    8.5526440159157546E-01 
    8.8069797848073450E-01 
    8.8069616459669786E-01 
    8.5527997025516334E-01 
    8.5529697534477511E-01 
    8.8070604960822751E-01 
    8.3685493088502616E-01 
    8.1208652465527387E-01 
    8.1207786621069000E-01 
    8.3683903350101541E-01 
    8.3680690831733262E-01 
    8.1205952212220289E-01 
    8.1203026333782657E-01 
    8.3675845414930705E-01 
    8.3669328429297973E-01 
    8.1198841861428817E-01 
    8.1193216827156733E-01 
    8.3661113110152474E-01 
    8.3651156495293388E-01 
    8.1185949761063558E-01 
    8.1176841836986102E-01 
    8.3639386067193811E-01 
    8.3625667527356551E-01 
    8.1165750841505524E-01 
    8.1152653777610739E-01 
    8.3609815449809755E-01 
    8.3591414906480033E-01 
    8.1137561700843586E-01 
    8.1120563678878965E-01 
    8.3569901796111912E-01 
    8.3544969894530241E-01 
    8.1101981538026713E-01 
    8.1082412136524940E-01 
    8.3516705800647395E-01 
    8.3485197773021846E-01 
    8.1062533863001029E-01 
    8.1043262560156371E-01 
    8.3450695043850975E-01 
    8.3413934484969143E-01 
    8.1025609149467737E-01 
    8.1010163584136463E-01 
    8.3377332090820844E-01 
    8.3343704785046502E-01 
    8.0996348816486852E-01 
    8.0983275391157494E-01 
    8.3313769052706088E-01 
    8.3287350228636881E-01 
    8.0970782386243167E-01 
    8.0958872150896899E-01 
    8.3264078818009102E-01 
    8.3243697995895649E-01 
    8.0947587162766566E-01 
    8.0936865732830077E-01 
    8.3226087872782006E-01 
    8.3211110314634118E-01 
    8.0926686522511826E-01 
    8.0917051412053997E-01 
    8.3198593356626926E-01 
    8.3188201973456677E-01 
    8.0907991320833061E-01 
    8.0899483176238984E-01 
    8.3179591768034622E-01 
    8.3172733260116716E-01 
    8.0891527940120889E-01 
    8.0884123735662872E-01 
    8.3167739080813963E-01 
    8.3164456511841245E-01 
    8.0877289026024157E-01 
    8.0871017980106397E-01 
    8.3162375492017859E-01 
    8.3161009236925365E-01 
    8.0865328177731688E-01 
    8.0860207390263539E-01 
    8.3160094329635126E-01 
    8.3159531753742755E-01 
    8.0855671567906762E-01 
    8.0851718302087905E-01 
    8.3159234295280693E-01 
    8.3159154186167217E-01 
    8.0848371936557129E-01 
    8.0845646930679360E-01 
    8.3159258254458235E-01 
    8.3159557809292950E-01 
    8.0843583913824824E-01 
    8.0842218153415613E-01 
    8.3160080582251616E-01 
    7.8366850900321428E-01 
    7.5321609508386123E-01 
    7.5325469623739139E-01 
    7.8368738474790456E-01 
    7.8372334183200876E-01 
    7.5333082838682230E-01 
    7.5344190447691239E-01 
    7.8377361129497491E-01 
    7.8383542119632099E-01 
    7.5358490301115211E-01 
    7.5375575144281948E-01 
    7.8390534475662699E-01 
    7.8397999736897550E-01 
    7.5394985975121276E-01 
    7.5416131003404063E-01 
    7.8405579809638870E-01 
    7.8413107217915390E-01 
    7.5438280422240878E-01 
    7.5460954775139089E-01 
    7.8420649836174627E-01 
    7.8428683879085970E-01 
    7.5483358500084141E-01 
    7.5504948837408736E-01 
    7.8437725970763283E-01 
    7.8448093056979651E-01 
    7.5525321169773341E-01 
    7.5544206198571973E-01 
    7.8459277343497846E-01 
    7.8470510277477179E-01 
    7.5561299510948099E-01 
    7.5576426513270700E-01 
    7.8480829392337914E-01 
    7.8489716855719194E-01 
    7.5589671881583742E-01 
    7.5600679560787176E-01 
    7.8496853936352018E-01 
    7.8502243593564724E-01 
    7.5609266862880264E-01 
    7.5615446329907354E-01 
    7.8505776467652200E-01 
    7.8507598767266029E-01 
    7.5619205055715011E-01 
    7.5620731043301814E-01 
    7.8507702735567764E-01 
    7.8506331804915930E-01 
    7.5620178963446927E-01 
    7.5618114355117261E-01 
    7.8503455144822976E-01 
    7.8499263623587145E-01 
    7.5614266886276293E-01 
    7.5608812014618620E-01 
    7.8493805525606453E-01 
    7.8487336080418890E-01 
    7.5601850426321848E-01 
    7.5593627517740536E-01 
    7.8479912476094371E-01 
    7.8471777163385048E-01 
    7.5584290366704576E-01 
    7.5574126509069695E-01 
    7.8463031464703581E-01 
    7.8453940288143731E-01 
    7.5563127502206917E-01 
    7.5551689137565770E-01 
    7.8444652797696812E-01 
    7.8435472466648959E-01 
    7.5540074708878135E-01 
    7.5528611121460210E-01 
    7.8426511943802635E-01 
    7.8418019364438463E-01 
    7.5517496777943693E-01 
    7.5506981204780788E-01 
    7.8410067852801413E-01 
    7.8402851572714982E-01 
    7.5497190258607516E-01 
    7.5488292525658773E-01 
    7.8396404963768329E-01 
    7.8390874046482217E-01 
    7.5480338386827750E-01 
    7.5473416321292242E-01 
    7.8386259060156460E-01 
    7.1976792857342609E-01 
    6.8428364909312811E-01 
    6.8424333527171954E-01 
    7.1976560165029069E-01 
    7.1976063766864939E-01 
    6.8416483486864155E-01 
    6.8405155890233837E-01 
    7.1975311076686521E-01 
    7.1974291865552886E-01 
    6.8390717363887099E-01 
    6.8373640991517837E-01 
    7.1973034030012528E-01 
    7.1971515270056741E-01 
    6.8354400326318931E-01 
    6.8333546947900492E-01 
    7.1969729547462180E-01 
    7.1967606989512711E-01 
    6.8311604821083816E-01 
    6.8288710036712019E-01 
    7.1965173525939274E-01 
    7.1962436899016446E-01 
    6.8265674226790884E-01 
    6.8243010405575300E-01 
    7.1959490363938816E-01 
    7.1956295796303626E-01 
    6.8221142145874125E-01 
    6.8200475732702348E-01 
    7.1952947797357159E-01 
    7.1949384492893664E-01 
    6.8181306312951218E-01 
    6.8163884450466172E-01 
    7.1945704636306840E-01 
    7.1941811609446293E-01 
    6.8147846340121832E-01 
    6.8133782986450420E-01 
    7.1937810964406401E-01 
    7.1933618647202868E-01 
    6.8121856522697022E-01 
    6.8112161460937515E-01 
    7.1929351782266993E-01 
    7.1924949920783288E-01 
    6.8104660334537936E-01 
    6.8099249731494405E-01 
    7.1920574921427138E-01 
    7.1916218261957554E-01 
    6.8095699414908983E-01 
    6.8093345492776480E-01 
    7.1912060763155561E-01 
    7.1907982244735058E-01 
    6.8092602580064154E-01 
    6.8093441834196677E-01 
    7.1904051477165321E-01 
    7.1900181195908519E-01 
    6.8095760391781157E-01 
    6.8099441122067161E-01 
    7.1896499546463166E-01 
    7.1892977135766267E-01 
    6.8104324418855322E-01 
    6.8109800048068414E-01 
    7.1889766160525215E-01 
    7.1886791874300637E-01 
    6.8116185429117804E-01 
    6.8123253441011544E-01 
    7.1884110383079836E-01 
    7.1881619780854877E-01 
    6.8130775991892711E-01 
    6.8138560090468792E-01 
    7.1879398920464133E-01 
    7.1877379278091424E-01 
    6.8146419598942887E-01 
    6.8154206739225209E-01 