# vtk DataFile Version 2.0
Pressure Field Data 
ASCII 
DATASET UNSTRUCTURED_GRID 

POINTS 1681 double 

    0.0000000000000000E+00     0.0000000000000000E+00     0.0000000000000000E+00 
    1.0000000000000000E+00     0.0000000000000000E+00     0.0000000000000000E+00 
    1.0000000000000000E+00     1.0000000000000000E+00     0.0000000000000000E+00 
    0.0000000000000000E+00     1.0000000000000000E+00     0.0000000000000000E+00 
    5.2499999999875258E-01     0.0000000000000000E+00     0.0000000000000000E+00 
    7.4999999999856765E-02     0.0000000000000000E+00     0.0000000000000000E+00 
    1.2499999999975850E-01     0.0000000000000000E+00     0.0000000000000000E+00 
    1.7499999999962990E-01     0.0000000000000000E+00     0.0000000000000000E+00 
    2.2499999999948389E-01     0.0000000000000000E+00     0.0000000000000000E+00 
    2.7499999999933789E-01     0.0000000000000000E+00     0.0000000000000000E+00 
    3.2499999999919210E-01     0.0000000000000000E+00     0.0000000000000000E+00 
    3.7499999999904610E-01     0.0000000000000000E+00     0.0000000000000000E+00 
    4.2499999999890020E-01     0.0000000000000000E+00     0.0000000000000000E+00 
    4.7499999999875958E-01     0.0000000000000000E+00     0.0000000000000000E+00 
    2.4999999999949701E-02     0.0000000000000000E+00     0.0000000000000000E+00 
    5.7499999999887907E-01     0.0000000000000000E+00     0.0000000000000000E+00 
    6.2499999999901101E-01     0.0000000000000000E+00     0.0000000000000000E+00 
    6.7499999999914273E-01     0.0000000000000000E+00     0.0000000000000000E+00 
    7.2499999999927467E-01     0.0000000000000000E+00     0.0000000000000000E+00 
    7.7499999999940661E-01     0.0000000000000000E+00     0.0000000000000000E+00 
    8.2499999999953844E-01     0.0000000000000000E+00     0.0000000000000000E+00 
    8.7499999999967026E-01     0.0000000000000000E+00     0.0000000000000000E+00 
    9.2499999999980220E-01     0.0000000000000000E+00     0.0000000000000000E+00 
    9.7499999999993414E-01     0.0000000000000000E+00     0.0000000000000000E+00 
    5.4999999999881310E-01     0.0000000000000000E+00     0.0000000000000000E+00 
    9.9999999999814140E-02     0.0000000000000000E+00     0.0000000000000000E+00 
    1.4999999999970290E-01     0.0000000000000000E+00     0.0000000000000000E+00 
    1.9999999999955689E-01     0.0000000000000000E+00     0.0000000000000000E+00 
    2.4999999999941089E-01     0.0000000000000000E+00     0.0000000000000000E+00 
    2.9999999999926502E-01     0.0000000000000000E+00     0.0000000000000000E+00 
    3.4999999999911913E-01     0.0000000000000000E+00     0.0000000000000000E+00 
    3.9999999999897312E-01     0.0000000000000000E+00     0.0000000000000000E+00 
    4.4999999999882723E-01     0.0000000000000000E+00     0.0000000000000000E+00 
    4.9999999999869210E-01     0.0000000000000000E+00     0.0000000000000000E+00 
    4.9999999999899403E-02     0.0000000000000000E+00     0.0000000000000000E+00 
    5.9999999999894504E-01     0.0000000000000000E+00     0.0000000000000000E+00 
    6.4999999999907687E-01     0.0000000000000000E+00     0.0000000000000000E+00 
    6.9999999999920870E-01     0.0000000000000000E+00     0.0000000000000000E+00 
    7.4999999999934064E-01     0.0000000000000000E+00     0.0000000000000000E+00 
    7.9999999999947247E-01     0.0000000000000000E+00     0.0000000000000000E+00 
    8.4999999999960441E-01     0.0000000000000000E+00     0.0000000000000000E+00 
    8.9999999999973623E-01     0.0000000000000000E+00     0.0000000000000000E+00 
    9.4999999999986817E-01     0.0000000000000000E+00     0.0000000000000000E+00 
    1.0000000000000000E+00     5.2499999999875258E-01     0.0000000000000000E+00 
    1.0000000000000000E+00     7.4999999999856765E-02     0.0000000000000000E+00 
    1.0000000000000000E+00     1.2499999999975850E-01     0.0000000000000000E+00 
    1.0000000000000000E+00     1.7499999999962990E-01     0.0000000000000000E+00 
    1.0000000000000000E+00     2.2499999999948389E-01     0.0000000000000000E+00 
    1.0000000000000000E+00     2.7499999999933789E-01     0.0000000000000000E+00 
    1.0000000000000000E+00     3.2499999999919210E-01     0.0000000000000000E+00 
    1.0000000000000000E+00     3.7499999999904610E-01     0.0000000000000000E+00 
    1.0000000000000000E+00     4.2499999999890020E-01     0.0000000000000000E+00 
    1.0000000000000000E+00     4.7499999999875958E-01     0.0000000000000000E+00 
    1.0000000000000000E+00     2.4999999999949701E-02     0.0000000000000000E+00 
    1.0000000000000000E+00     5.7499999999887907E-01     0.0000000000000000E+00 
    1.0000000000000000E+00     6.2499999999901101E-01     0.0000000000000000E+00 
    1.0000000000000000E+00     6.7499999999914273E-01     0.0000000000000000E+00 
    1.0000000000000000E+00     7.2499999999927467E-01     0.0000000000000000E+00 
    1.0000000000000000E+00     7.7499999999940661E-01     0.0000000000000000E+00 
    1.0000000000000000E+00     8.2499999999953844E-01     0.0000000000000000E+00 
    1.0000000000000000E+00     8.7499999999967026E-01     0.0000000000000000E+00 
    1.0000000000000000E+00     9.2499999999980220E-01     0.0000000000000000E+00 
    1.0000000000000000E+00     9.7499999999993414E-01     0.0000000000000000E+00 
    1.0000000000000000E+00     5.4999999999881310E-01     0.0000000000000000E+00 
    1.0000000000000000E+00     9.9999999999814140E-02     0.0000000000000000E+00 
    1.0000000000000000E+00     1.4999999999970290E-01     0.0000000000000000E+00 
    1.0000000000000000E+00     1.9999999999955689E-01     0.0000000000000000E+00 
    1.0000000000000000E+00     2.4999999999941089E-01     0.0000000000000000E+00 
    1.0000000000000000E+00     2.9999999999926502E-01     0.0000000000000000E+00 
    1.0000000000000000E+00     3.4999999999911913E-01     0.0000000000000000E+00 
    1.0000000000000000E+00     3.9999999999897312E-01     0.0000000000000000E+00 
    1.0000000000000000E+00     4.4999999999882723E-01     0.0000000000000000E+00 
    1.0000000000000000E+00     4.9999999999869210E-01     0.0000000000000000E+00 
    1.0000000000000000E+00     4.9999999999899403E-02     0.0000000000000000E+00 
    1.0000000000000000E+00     5.9999999999894504E-01     0.0000000000000000E+00 
    1.0000000000000000E+00     6.4999999999907687E-01     0.0000000000000000E+00 
    1.0000000000000000E+00     6.9999999999920870E-01     0.0000000000000000E+00 
    1.0000000000000000E+00     7.4999999999934064E-01     0.0000000000000000E+00 
    1.0000000000000000E+00     7.9999999999947247E-01     0.0000000000000000E+00 
    1.0000000000000000E+00     8.4999999999960441E-01     0.0000000000000000E+00 
    1.0000000000000000E+00     8.9999999999973623E-01     0.0000000000000000E+00 
    1.0000000000000000E+00     9.4999999999986817E-01     0.0000000000000000E+00 
    4.7500000000196618E-01     1.0000000000000000E+00     0.0000000000000000E+00 
    9.2499999999968763E-01     1.0000000000000000E+00     0.0000000000000000E+00 
    8.7499999999961831E-01     1.0000000000000000E+00     0.0000000000000000E+00 
    8.2499999999982654E-01     1.0000000000000000E+00     0.0000000000000000E+00 
    7.7500000000017355E-01     1.0000000000000000E+00     0.0000000000000000E+00 
    7.2500000000052045E-01     1.0000000000000000E+00     0.0000000000000000E+00 
    6.7500000000086724E-01     1.0000000000000000E+00     0.0000000000000000E+00 
    6.2500000000121403E-01     1.0000000000000000E+00     0.0000000000000000E+00 
    5.7500000000156093E-01     1.0000000000000000E+00     0.0000000000000000E+00 
    5.2500000000189684E-01     1.0000000000000000E+00     0.0000000000000000E+00 
    9.7499999999989595E-01     1.0000000000000000E+00     0.0000000000000000E+00 
    4.2500000000176902E-01     1.0000000000000000E+00     0.0000000000000000E+00 
    3.7500000000156092E-01     1.0000000000000000E+00     0.0000000000000000E+00 
    3.2500000000135282E-01     1.0000000000000000E+00     0.0000000000000000E+00 
    2.7500000000114472E-01     1.0000000000000000E+00     0.0000000000000000E+00 
    2.2500000000093659E-01     1.0000000000000000E+00     0.0000000000000000E+00 
    1.7500000000072849E-01     1.0000000000000000E+00     0.0000000000000000E+00 
    1.2500000000052039E-01     1.0000000000000000E+00     0.0000000000000000E+00 
    7.5000000000312261E-02     1.0000000000000000E+00     0.0000000000000000E+00 
    2.5000000000104109E-02     1.0000000000000000E+00     0.0000000000000000E+00 
    4.5000000000187301E-01     1.0000000000000000E+00     0.0000000000000000E+00 
    8.9999999999958358E-01     1.0000000000000000E+00     0.0000000000000000E+00 
    8.4999999999965303E-01     1.0000000000000000E+00     0.0000000000000000E+00 
    8.0000000000000004E-01     1.0000000000000000E+00     0.0000000000000000E+00 
    7.5000000000034706E-01     1.0000000000000000E+00     0.0000000000000000E+00 
    7.0000000000069384E-01     1.0000000000000000E+00     0.0000000000000000E+00 
    6.5000000000104063E-01     1.0000000000000000E+00     0.0000000000000000E+00 
    6.0000000000138742E-01     1.0000000000000000E+00     0.0000000000000000E+00 
    5.5000000000173432E-01     1.0000000000000000E+00     0.0000000000000000E+00 
    5.0000000000205946E-01     1.0000000000000000E+00     0.0000000000000000E+00 
    9.4999999999979179E-01     1.0000000000000000E+00     0.0000000000000000E+00 
    4.0000000000166491E-01     1.0000000000000000E+00     0.0000000000000000E+00 
    3.5000000000145681E-01     1.0000000000000000E+00     0.0000000000000000E+00 
    3.0000000000124871E-01     1.0000000000000000E+00     0.0000000000000000E+00 
    2.5000000000104061E-01     1.0000000000000000E+00     0.0000000000000000E+00 
    2.0000000000083251E-01     1.0000000000000000E+00     0.0000000000000000E+00 
    1.5000000000062441E-01     1.0000000000000000E+00     0.0000000000000000E+00 
    1.0000000000041630E-01     1.0000000000000000E+00     0.0000000000000000E+00 
[...]
CELL_DATA 1600 
SCALARS Pressure double 1 
LOOKUP_TABLE default 

    7.8459068870484416E-01 
    7.6733340267161232E-01 
    7.6725060053069405E-01 
    7.8274713989063338E-01 
    7.8107640186114202E-01 
    7.6710284277343732E-01 
    7.6690426983581694E-01 
    7.7955931006135981E-01 
    7.7818119863992985E-01 
    7.6666723674455795E-01 
    7.6640171535435142E-01 
    7.7692968416376396E-01 
    7.7579398670319177E-01 
    7.6611670882024896E-01 
    7.6581916484647194E-01 
    7.7476446262992082E-01 
    7.7383220489457405E-01 
    7.6551524455872477E-01 
    7.6520977499612786E-01 
    7.7298958375022020E-01 
    7.7223007141734601E-01 
    7.6490759760318061E-01 
    7.6461232911692512E-01 
    7.7154785797513381E-01 
    7.7093744709473710E-01 
    7.6432729296905078E-01 
    7.6405466280311685E-01 
    7.7039380188013640E-01 
    7.6991217366003528E-01 
    7.6379625194667777E-01 
    7.6355342638038093E-01 
    7.6948858301111633E-01 
    7.6911865923527778E-01 
    7.6332749314561010E-01 
    7.6311889181463866E-01 
    7.6879819098685542E-01 
    7.6852284100415247E-01 
    7.6292778377213644E-01 
    7.6275392333217751E-01 
    7.6828841987818219E-01 
    7.6809055645403757E-01 
    7.6259646904828460E-01 
    7.6245438016575229E-01 
    7.6792517102657776E-01 
    7.6778846597653660E-01 
    7.6232647444788237E-01 
    7.6221232019856100E-01 
    7.6767857223381664E-01 
    7.6759380102135988E-01 
    7.6211084962392361E-01 
    7.6202121832928227E-01 
    7.6753257833475952E-01 
    7.6749372629461654E-01 
    7.6194187207534592E-01 
    7.6187266336908488E-01 
    7.6747744195412282E-01 
    7.6749078305184126E-01 
    7.6181706905951474E-01 
    7.6178304629808025E-01 
    7.6753361842072865E-01 
    7.6758721326987434E-01 
    7.6177443354348973E-01 
    7.6178512201370818E-01 
    7.6764115264549315E-01 
    7.6768772418829800E-01 
    7.6180150052277096E-01 
    7.6181269815624342E-01 
    7.6772374390933107E-01 
    7.6774694142890643E-01 
    7.6181479754476245E-01 
    7.6180993554655008E-01 
    7.6775460263282969E-01 
    7.6774560752172460E-01 
    7.6179806159175900E-01 
    7.6178003044763731E-01 
    7.6771905946345931E-01 
    7.6767563281623552E-01 
    7.6175578631513474E-01 
    7.6172743119656172E-01 
    7.6761615080003842E-01 
    7.5793721619261922E-01 
    7.4930178129912162E-01 
    7.4928236482333010E-01 
    7.5791100222614438E-01 
    7.5785959248035406E-01 
    7.4924380335232654E-01 
    7.4918667093735314E-01 
    7.5778409778340405E-01 
    7.5768627302009173E-01 
    7.4911151909612406E-01 
    7.4901927846734462E-01 
    7.5756798270057069E-01 
    7.5743153387989559E-01 
    7.4891075946016350E-01 
    7.4878708416418127E-01 
    7.5727901974042455E-01 
    7.5711271451427120E-01 
    7.4864928376930762E-01 
    7.4849848434594335E-01 
    7.5693470446995181E-01 
    7.5674753180323395E-01 
    7.4833595662678820E-01 
    7.4816304065932271E-01 
    7.5655345294213949E-01 
    7.5635475449642908E-01 
    7.4798103962147056E-01 
    7.4779117586410870E-01 
    7.5615328513032642E-01 
    7.5595065126778793E-01 
    7.4759456329953522E-01 
    7.4739236954190069E-01 
    7.5574843780135370E-01 
    7.5554833063654603E-01 
    7.4718615199375660E-01 
    7.4697727926354729E-01 
    7.5535168398426977E-01 
    7.5515967414531415E-01 
    7.4676726674041571E-01 
    7.4655746482981122E-01 
    7.5497331635581100E-01 
    7.5479303665353392E-01 
    7.4634905756198378E-01 
    7.4614275008637443E-01 
    7.5461903471325387E-01 
    7.5445149775553499E-01 
    7.4593961691498001E-01 
    7.4573998016014187E-01 
    7.5429055752559382E-01 
    7.5413584414282875E-01 
    7.4554408046689913E-01 
    7.4535180678047075E-01 
    7.5398694558954327E-01 
    7.5384291204603948E-01 
    7.4516301686227504E-01 
    7.4497770444078470E-01 
    7.5370361148062992E-01 
    7.5357006587635711E-01 
    7.4479639393829522E-01 
    7.4461934238769201E-01 
    7.5344389754702579E-01 
    7.5333104768153092E-01 
    7.4444707219271833E-01 
    7.4428050551186353E-01 
    7.5323654215263702E-01 
    7.5316022749276013E-01 
    7.4412352283041061E-01 
    7.4398548862255998E-01 
    7.5310244559564965E-01 
    7.5306074423454827E-01 
    7.4387672831219065E-01 
    7.4379805358046724E-01 
    7.5302965383652976E-01 
    7.5300382731799209E-01 
    7.4374504052231427E-01 
    7.4371292899150088E-01 
    7.5298202300798833E-01 
    7.5296678449932519E-01 
    7.4369859884426082E-01 
    7.4370314668829252E-01 
    7.5296180537805224E-01 
    7.4035011846851961E-01 
    7.3087420398709602E-01 
    7.3086669932958748E-01 
    7.4033550952081295E-01 
    7.4030656379813742E-01 
    7.3085163300515688E-01 
    7.3082911257163274E-01 
    7.4026344073829087E-01 
    7.4020646894749353E-01 
    7.3079887430583845E-01 
    7.3076076705435566E-01 
    7.4013585055005271E-01 
    7.4005189452704456E-01 
    7.3071432997934682E-01 
    7.3065943583910931E-01 
    7.3995497127265375E-01 
    7.3984566717880351E-01 
    7.3059577490250260E-01 
    7.3052306355296170E-01 
    7.3972428834592119E-01 
    7.3959137644057704E-01 
    7.3044084525321618E-01 
    7.3034869571402439E-01 
    7.3944730596306230E-01 
    7.3929265491958585E-01 
    7.3024605919582974E-01 
    7.3013265009671557E-01 
    7.3912788870867574E-01 
    7.3895368089204805E-01 
    7.3000819835809871E-01 
    7.2987265832699288E-01 
    7.3877061341335659E-01 
    7.3857994217573919E-01 
    7.2972664676560217E-01 
    7.2957101011840786E-01 
    7.3838278182942763E-01 
    7.3818056739075166E-01 
    7.2940681766996796E-01 
    7.2923547148700441E-01 
    7.3797477776482256E-01 
    7.3776691449055909E-01 
    7.2905854518106183E-01 
    7.2887765204082167E-01 
    7.3755825543551978E-01 
    7.3735035529696658E-01 
    7.2869479236516588E-01 
    7.2851093392530208E-01 
    7.3714395546544287E-01 
    7.3693946415941902E-01 
    7.2832681509647590E-01 
    7.2814312571795869E-01 
    7.3673734571392002E-01 
    7.3653797495489837E-01 
    7.2796084533641514E-01 
    7.2778085983162277E-01 
    7.3634194944022302E-01 
    7.3614985812955092E-01 
    7.2760429090211642E-01 
    7.2743197984424890E-01 
    7.3596223218281709E-01 
    7.3577974864209605E-01 
    7.2726527256748574E-01 
    7.2710678350923874E-01 
    7.3560472824453693E-01 
    7.3543890516355404E-01 
    7.2695933056509476E-01 
    7.2682590349968068E-01 
    7.3528616364439492E-01 
    7.3515419434624552E-01 
    7.2670959281396785E-01 
    7.2661235848569694E-01 
    7.3504881669512190E-01 
    7.3497187623551330E-01 
    7.2653657644754477E-01 
    7.2648273093963400E-01 
    7.3492219090809785E-01 
    7.3490036095910871E-01 
    7.2645380245344382E-01 
    7.2645385606133173E-01 
    7.3490523346821501E-01 
    7.2080822954775903E-01 
    7.1007650603025363E-01 
    7.1008518879346638E-01 
    7.2080945038824606E-01 
    7.2081173049781688E-01 
    7.1010234898309266E-01 
    7.1012749435020284E-01 
    7.2081480587308633E-01 
    7.2081812405756496E-01 
    7.1015991640070963E-01 
    7.1019862785228405E-01 
    7.2082098737270006E-01 
    7.2082247725000859E-01 
    7.1024238003804130E-01 
    7.1028951036961463E-01 
    7.2082155335829090E-01 
    7.2081707579474907E-01 
    7.1033800692342675E-01 
    7.1038597632736289E-01 
    7.2080777139109431E-01 
    7.2079250578385956E-01 
    7.1043156297319954E-01 
    7.1047248740554148E-01 
    7.2076964314659520E-01 
    7.2073774757327136E-01 
    7.1050630554293948E-01 
    7.1053066687132982E-01 
    7.2069520610130644E-01 
    7.2064090266232661E-01 
    7.1054301633449390E-01 
    7.1054141583850505E-01 
    7.2057357049506421E-01 
    7.2049352038174186E-01 
    7.1052540254223440E-01 
    7.1049502011655996E-01 
    7.2040080860819911E-01 
    7.2029635299610284E-01 
    7.1045040643144508E-01 
    7.1039244759190934E-01 
    7.2018098615765669E-01 
    7.2005641673739296E-01 
    7.1032230480547354E-01 
    7.1024188415658340E-01 
    7.1992416250541347E-01 
    7.1978658609893353E-01 
    7.1015329191589505E-01 
    7.1005791527044781E-01 
    7.1964465555040880E-01 
    7.1949925719707397E-01 
    7.0995626064224959E-01 
    7.0984918179736656E-01 
    7.1935110642312416E-01 
    7.1920152810746141E-01 
    7.0973772720693440E-01 
    7.0962326464603698E-01 
    7.1905161505048010E-01 
    7.1890284402514504E-01 
    7.0950720403078105E-01 
    7.0939090307726926E-01 
    7.1875629971748933E-01 
    7.1861345508086327E-01 
    7.0927541648796077E-01 
    7.0916343772915091E-01 
    7.1847706208736728E-01 
    7.1835010073862493E-01 
    7.0905769043384903E-01 
    7.0896062343940780E-01 
    7.1823523620774099E-01 
    7.1813495970285968E-01 
    7.0887443077916701E-01 
    7.0880059928201322E-01 
    7.1805123740434162E-01 
    7.1798564643891516E-01 
    7.0874037881003960E-01 
    7.0869438996244172E-01 
    7.1793887204022777E-01 
    7.1790859706978194E-01 
    7.0865861110865735E-01 
    7.0863854811974725E-01 
    7.1790164088265151E-01 
    6.9824678473662627E-01 
    6.8425136041425472E-01 
    6.8424713565497153E-01 
    6.9825296398531711E-01 
    6.9826579158952007E-01 
    6.8423856378315362E-01 
    6.8422592857455289E-01 
    6.9828523960744882E-01 
    6.9831122536385970E-01 
    6.8420951635390292E-01 
    6.8418992534670564E-01 
    6.9834324791912783E-01 
    6.9838075002473377E-01 
    6.8416759468359711E-01 
    6.8414282057282938E-01 
    6.9842257613663816E-01 
    6.9846724069428556E-01 
    6.8411532404778919E-01 
    6.8408552937328515E-01 
    6.9851324184369523E-01 
    6.9855862407490343E-01 
    6.8405421103552710E-01 
    6.8402273525653201E-01 
    6.9860147561248354E-01 
    6.9863998646941272E-01 
    6.8399189767223401E-01 
    6.8396236691015466E-01 
    6.9867210491703924E-01 
    6.9869537720220687E-01 
    6.8393374556562181E-01 
    6.8390609937291769E-01 
    6.9870771862647818E-01 
    6.9871101020235915E-01 
    6.8387915435822055E-01 
    6.8385336310976874E-01 
    6.9870306397442428E-01 
    6.9868385623238960E-01 
    6.8382843576136576E-01 
    6.8380450466557696E-01 
    6.9865376389902001E-01 
    6.9861378269844943E-01 
    6.8378091495434679E-01 
    6.8375758914937557E-01 
    6.9856551077055573E-01 
    6.9851107962015802E-01 
    6.8373347519780658E-01 
    6.8370818171770298E-01 
    6.9845470214543737E-01 
    6.9839435981954967E-01 
    6.8368172471785205E-01 
    6.8365479654563832E-01 
    6.9832998867716078E-01 
    6.9826208320349592E-01 
    6.8362740305104985E-01 
    6.8360026572130117E-01 
    6.9819151482696418E-01 
    6.9811960520054583E-01 
    6.8357361546306239E-01 
    6.8354831648925451E-01 
    6.9804763639534861E-01 
    6.9797393689729903E-01 
    6.8352385107212321E-01 
    6.8350061028260245E-01 
    6.9790037219050638E-01 
    6.9782885756531043E-01 
    6.8347840059347220E-01 
    6.8345771765638630E-01 
    6.9776114412148538E-01 
    6.9769880796219341E-01 
    6.8343862350389017E-01 
    6.8342146569436379E-01 
    6.9764292561603447E-01 
    6.9759426008991665E-01 
    6.8340607006693566E-01 
    6.8339252411953200E-01 
    6.9755298655795894E-01 
    6.9751511996274695E-01 
    6.8337884502921042E-01 
    6.8336621771268269E-01 
    6.9748384569412969E-01 
    6.6894168782359364E-01 
    6.5469535417813285E-01 
    6.5468695416821210E-01 
    6.6892727359621196E-01 
    6.6889893632124409E-01 
    6.5467039027000762E-01 
    6.5464594699189504E-01 
    6.6885749476968670E-01 
    6.6880396426200461E-01 
    6.5461413479504560E-01 
    6.5457551247608348E-01 
    6.6873969655383858E-01 
    6.6866614352365628E-01 
    6.5453091521375317E-01 
    6.5448114244170430E-01 
    6.6858468572252039E-01 
    6.6849663150036498E-01 
    6.5442717696654540E-01 
    6.5437023895515745E-01 
    6.6840399506551229E-01 
    6.6831041235442989E-01 
    6.5431218594559459E-01 
    6.5425431466712891E-01 
    6.6821826986938504E-01 
    6.6812974876883513E-01 
    6.5419850114594624E-01 
    6.5414608778949856E-01 
    6.6804682181793917E-01 
    6.6797086033550512E-01 
    6.5409865174956794E-01 
    6.5405751986880256E-01 
    6.6790398045945321E-01 
    6.6784569954889617E-01 
    6.5402389634833225E-01 
    6.5399771260963047E-01 
    6.6779791354365281E-01 
    6.6776062184069118E-01 
    6.5397963270876347E-01 
    6.5396920667183400E-01 
    6.6773385817710795E-01 
    6.6771681594661336E-01 
    6.5396660439556553E-01 
    6.5397076889142181E-01 
    6.6770863359744193E-01 
    6.6770727549389053E-01 
    6.5398108704050972E-01 
    6.5399637851036163E-01 
    6.6770944855587755E-01 
    6.6771613459896961E-01 
    6.5401601351516381E-01 
    6.5403929727331944E-01 
    6.6772742686998043E-01 
    6.6774266232753365E-01 
    6.5406611994679209E-01 
    6.5409554539939563E-01 
    6.6776152710192505E-01 
    6.6778316834982065E-01 
    6.5412722353562991E-01 
    6.5416030337173736E-01 
    6.6780722854436458E-01 
    6.6783406695518532E-01 
    6.5419455582529951E-01 
    6.5422828690335466E-01 
    6.6786220554257891E-01 
    6.6788995865251877E-01 
    6.5426049602024550E-01 
    6.5428973972906168E-01 
    6.6791626578391650E-01 
    6.6794019768960211E-01 
    6.5431534752548026E-01 
    6.5433639321759063E-01 
    6.6796133386669554E-01 
    6.6797919628246294E-01 
    6.5435264081775046E-01 
    6.5436321469623338E-01 
    6.6799374760720120E-01 
    6.6800721037578903E-01 
    6.5437043662332506E-01 
    6.5437942340088495E-01 
    6.6802320793462955E-01 
    6.4098153016193471E-01 
    6.2704310534050500E-01 
    6.2706267292233364E-01 
    6.4098678318756963E-01 
    6.4099674761573533E-01 
    6.2710100357101328E-01 
    6.2715673715640063E-01 
    6.4101112000143701E-01 
    6.4102914853682380E-01 
    6.2722834204319466E-01 
    6.2731383510786354E-01 
    6.4105033220157870E-01 
    6.4107383872837864E-01 
    6.2741112897010076E-01 
    6.2751791744479701E-01 
    6.4109909452927871E-01 
    6.4112552919884147E-01 
    6.2763210625651722E-01 
    6.2775159741601372E-01 
    6.4115299996850028E-01 
    6.4118116562336613E-01 
    6.2787431569481666E-01 
    6.2799831650882476E-01 
    6.4120988243352228E-01 
    6.4123911268989087E-01 
    6.2812187572141331E-01 
    6.2824342287306290E-01 
    6.4126887554790057E-01 
    6.4129967399129162E-01 
    6.2836214450230166E-01 
    6.2847690007408197E-01 
    6.4133197933878172E-01 
    6.4136548639677704E-01 
    6.2858620865528692E-01 
    6.2868921582854864E-01 
    6.4139991385624273E-01 
    6.4143509726356651E-01 
    6.2878508587015425E-01 
    6.2887310920003803E-01 
    6.4147067021185611E-01 
    6.4150638571923624E-01 
    6.2895278179571534E-01 
    6.2902381110902594E-01 
    6.4154168986765958E-01 
    6.4157630324565695E-01 
    6.2908632494818140E-01 
    6.2914026260703726E-01 
    6.4160973592116188E-01 
    6.4164166412862667E-01 
    6.2918571453020378E-01 
    6.2922326493530545E-01 
    6.4167208145484056E-01 
    6.4170120337522607E-01 
    6.2925350543060743E-01 
    6.2927704469500589E-01 
    6.4172887291689373E-01 
    6.4175514006716516E-01 
    6.2929463073018821E-01 
    6.2930704019729866E-01 
    6.4177993432279190E-01 
    6.4180341908288963E-01 
    6.2931506323221531E-01 
    6.2931942990938528E-01 
    6.4182508187753695E-01 
    6.4184467578305482E-01 
    6.2932086573444534E-01 
    6.2932005143509129E-01 
    6.4186175398531131E-01 
    6.4187611354311547E-01 
    6.2931767756235646E-01 
    6.2931418462097555E-01 
    6.4188733253317998E-01 
    6.4189518457420336E-01 
    6.2930943829947539E-01 
    6.2930165267763327E-01 
    6.4189837986447529E-01 
    6.4189683082860383E-01 
    6.2928935544111397E-01 
    6.2927659805451830E-01 
    6.4189469229619167E-01 
    6.1253336165013805E-01 
    5.9656797341920731E-01 
    5.9659097329829369E-01 
    6.1256282211734636E-01 
    6.1262052145299750E-01 
    5.9663643559242008E-01 
    5.9670287718166470E-01 
    6.1270458565810770E-01 
    6.1281278458814448E-01 
    5.9678869058098960E-01 
    5.9689154036472591E-01 
    6.1294228446501720E-01 
    6.1309026158540836E-01 
    5.9700946756084028E-01 
    5.9713970194260457E-01 
    6.1325341563727831E-01 
    6.1342791073784897E-01 
    5.9727799177992591E-01 
    5.9742234515400283E-01 
    6.1360992478794674E-01 
    6.1379668847381663E-01 
    5.9756953964904502E-01 
    5.9771722067559574E-01 
    6.1398485528096247E-01 
    6.1417214588221580E-01 
    5.9786335831225357E-01 
    5.9800523416243889E-01 
    6.1435551333114902E-01 
    6.1453230667941439E-01 
    5.9813885321129090E-01 
    5.9826198707919720E-01 
    6.1469934862933873E-01 
    6.1485536575542599E-01 
    5.9837496704849158E-01 
    5.9847513636122929E-01 
    6.1499871372199466E-01 
    6.1512859022633748E-01 
    5.9856093772469110E-01 
    5.9863211153315032E-01 
    6.1524348300498166E-01 
    6.1534349303259639E-01 
    5.9868831239470321E-01 
    5.9873020630499540E-01 
    6.1542799705001805E-01 
    6.1549800536173094E-01 
    5.9875826618226569E-01 
    5.9877607019327961E-01 
    6.1555321543129260E-01 
    6.1559468844702903E-01 
    5.9878157267171006E-01 
    5.9877577697593909E-01 
    6.1562280828916072E-01 
    6.1563905792825868E-01 
    5.9875897841576808E-01 
    5.9873259945788260E-01 
    6.1564398298214196E-01 
    6.1563948081769493E-01 
    5.9869766609968267E-01 
    5.9865611996107260E-01 
    6.1562636841478457E-01 
    6.1560641584794784E-01 
    5.9860741762803615E-01 
    5.9855380163266425E-01 
    6.1558075733935513E-01 
    6.1555147696472878E-01 
    5.9849664250367052E-01 
    5.9843816055950738E-01 
    6.1551966600358465E-01 
    6.1548748054984137E-01 
    5.9838010550799792E-01 
    5.9832474542921021E-01 
    6.1545585620683463E-01 
    6.1542577435773083E-01 
    5.9827336106126672E-01 
    5.9822075769554273E-01 
    6.1539338915459862E-01 
    6.1535728565462344E-01 
    5.9816481047369252E-01 
    5.9811640260315113E-01 
    6.1532409631081764E-01 
    5.7725647330432406E-01 
    5.5625977002214078E-01 
    5.5623003770512958E-01 
    5.7725259821322072E-01 
    5.7724472397528581E-01 
    5.5617184876905301E-01 
    5.5608733812560474E-01 
    5.7723295767976013E-01 
    5.7721749248132315E-01 
    5.5597882753016037E-01 
    5.5584942624176004E-01 
    5.7719874823707384E-01 
    5.7717710251475240E-01 
    5.5570214172681920E-01 
    5.5554028470264138E-01 
    5.7715282916694943E-01 
    5.7712534554166683E-01 
    5.5536733479493106E-01 
    5.5518487774798297E-01 
    5.7709452424833041E-01 
    5.7706079243376807E-01 
    5.5499831866179294E-01 
    5.5481128988240624E-01 
    5.7702538430410455E-01 
    5.7698891710425504E-01 
    5.5462688459397058E-01 
    5.5444841792172672E-01 
    5.7695253983057326E-01 
    5.7691548331530373E-01 
    5.5427860925034833E-01 
    5.5411932542886644E-01 
    5.7687752034316331E-01 
    5.7683782718679011E-01 
    5.5396863207990088E-01 
    5.5383051472715283E-01 
    5.7679756425541640E-01 
    5.7675670350761055E-01 
    5.5370660536357053E-01 
    5.5359800437442208E-01 
    5.7671638307486917E-01 
    5.7667636551140133E-01 
    5.5350481734921264E-01 
    5.5342655209090319E-01 
    5.7663762386728323E-01 
    5.7659991086664042E-01 
    5.5336208050431013E-01 
    5.5330756819364257E-01 
    5.7656438229961504E-01 
    5.7653022048713487E-01 
    5.5326545339421540E-01 
    5.5323541199614656E-01 
    5.7649782368198121E-01 
    5.7646635412138680E-01 
    5.5321672305217506E-01 
    5.5320852049225944E-01 
    5.7643640584432487E-01 
    5.7640755164381818E-01 
    5.5320965015137491E-01 
    5.5321672638289621E-01 
    5.7638057067000159E-01 
    5.7635481947934075E-01 
    5.5323138981324327E-01 
    5.5325190996860452E-01 
    5.7633051200150320E-01 
    5.7630670600527034E-01 
    5.5327667229727728E-01 
    5.5330432141463204E-01 
    5.7628404689340718E-01 
    5.7626236379314832E-01 
    5.5333346012134677E-01 
    5.5336271217331723E-01 