# vtk DataFile Version 2.0
Pressure Field Data 
ASCII 
DATASET UNSTRUCTURED_GRID 

POINTS 289 double 

    0.0000000000000000E+00     0.0000000000000000E+00     0.0000000000000000E+00 
    1.0000000000000000E+00     0.0000000000000000E+00     0.0000000000000000E+00 
    1.0000000000000000E+00     1.0000000000000000E+00     0.0000000000000000E+00 
    0.0000000000000000E+00     1.0000000000000000E+00     0.0000000000000000E+00 
    6.2499999999872928E-02     0.0000000000000000E+00     0.0000000000000000E+00 
    1.2499999999977310E-01     0.0000000000000000E+00     0.0000000000000000E+00 
    1.8749999999959341E-01     0.0000000000000000E+00     0.0000000000000000E+00 
    2.4999999999941089E-01     0.0000000000000000E+00     0.0000000000000000E+00 
    3.1249999999922851E-01     0.0000000000000000E+00     0.0000000000000000E+00 
    3.7499999999904610E-01     0.0000000000000000E+00     0.0000000000000000E+00 
    4.3749999999886358E-01     0.0000000000000000E+00     0.0000000000000000E+00 
    4.9999999999869210E-01     0.0000000000000000E+00     0.0000000000000000E+00 
    5.6249999999884603E-01     0.0000000000000000E+00     0.0000000000000000E+00 
    6.2499999999901090E-01     0.0000000000000000E+00     0.0000000000000000E+00 
    6.8749999999917577E-01     0.0000000000000000E+00     0.0000000000000000E+00 
    7.4999999999934064E-01     0.0000000000000000E+00     0.0000000000000000E+00 
    8.1249999999950551E-01     0.0000000000000000E+00     0.0000000000000000E+00 
    8.7499999999967026E-01     0.0000000000000000E+00     0.0000000000000000E+00 
    9.3749999999983513E-01     0.0000000000000000E+00     0.0000000000000000E+00 
    1.0000000000000000E+00     6.2499999999872928E-02     0.0000000000000000E+00 
    1.0000000000000000E+00     1.2499999999977310E-01     0.0000000000000000E+00 
    1.0000000000000000E+00     1.8749999999959341E-01     0.0000000000000000E+00 
    1.0000000000000000E+00     2.4999999999941089E-01     0.0000000000000000E+00 
    1.0000000000000000E+00     3.1249999999922851E-01     0.0000000000000000E+00 
    1.0000000000000000E+00     3.7499999999904610E-01     0.0000000000000000E+00 
    1.0000000000000000E+00     4.3749999999886358E-01     0.0000000000000000E+00 
    1.0000000000000000E+00     4.9999999999869210E-01     0.0000000000000000E+00 
    1.0000000000000000E+00     5.6249999999884603E-01     0.0000000000000000E+00 
    1.0000000000000000E+00     6.2499999999901090E-01     0.0000000000000000E+00 
    1.0000000000000000E+00     6.8749999999917577E-01     0.0000000000000000E+00 
    1.0000000000000000E+00     7.4999999999934064E-01     0.0000000000000000E+00 
    1.0000000000000000E+00     8.1249999999950551E-01     0.0000000000000000E+00 
    1.0000000000000000E+00     8.7499999999967026E-01     0.0000000000000000E+00 
    1.0000000000000000E+00     9.3749999999983513E-01     0.0000000000000000E+00 
    9.3749999999973976E-01     1.0000000000000000E+00     0.0000000000000000E+00 
    8.7499999999950118E-01     1.0000000000000000E+00     0.0000000000000000E+00 
    8.1249999999991318E-01     1.0000000000000000E+00     0.0000000000000000E+00 
    7.5000000000034706E-01     1.0000000000000000E+00     0.0000000000000000E+00 
    6.8750000000078049E-01     1.0000000000000000E+00     0.0000000000000000E+00 
    6.2500000000121403E-01     1.0000000000000000E+00     0.0000000000000000E+00 
    5.6250000000164757E-01     1.0000000000000000E+00     0.0000000000000000E+00 
    5.0000000000205946E-01     1.0000000000000000E+00     0.0000000000000000E+00 
    4.3750000000182099E-01     1.0000000000000000E+00     0.0000000000000000E+00 
    3.7500000000156092E-01     1.0000000000000000E+00     0.0000000000000000E+00 
    3.1250000000130068E-01     1.0000000000000000E+00     0.0000000000000000E+00 
    2.5000000000104050E-01     1.0000000000000000E+00     0.0000000000000000E+00 
    1.8750000000078040E-01     1.0000000000000000E+00     0.0000000000000000E+00 
    1.2500000000052031E-01     1.0000000000000000E+00     0.0000000000000000E+00 
    6.2500000000260125E-02     1.0000000000000000E+00     0.0000000000000000E+00 
    0.0000000000000000E+00     9.3749999999973976E-01     0.0000000000000000E+00 
    0.0000000000000000E+00     8.7499999999950118E-01     0.0000000000000000E+00 
    0.0000000000000000E+00     8.1249999999991318E-01     0.0000000000000000E+00 
    0.0000000000000000E+00     7.5000000000034706E-01     0.0000000000000000E+00 
    0.0000000000000000E+00     6.8750000000078049E-01     0.0000000000000000E+00 
    0.0000000000000000E+00     6.2500000000121403E-01     0.0000000000000000E+00 
    0.0000000000000000E+00     5.6250000000164757E-01     0.0000000000000000E+00 
    0.0000000000000000E+00     5.0000000000205946E-01     0.0000000000000000E+00 
    0.0000000000000000E+00     4.3750000000182099E-01     0.0000000000000000E+00 
    0.0000000000000000E+00     3.7500000000156092E-01     0.0000000000000000E+00 
    0.0000000000000000E+00     3.1250000000130068E-01     0.0000000000000000E+00 
    0.0000000000000000E+00     2.5000000000104050E-01     0.0000000000000000E+00 
    0.0000000000000000E+00     1.8750000000078040E-01     0.0000000000000000E+00 
    0.0000000000000000E+00     1.2500000000052031E-01     0.0000000000000000E+00 
    0.0000000000000000E+00     6.2500000000260125E-02     0.0000000000000000E+00 
    6.2499999999897131E-02     6.2500000000235922E-02     0.0000000000000000E+00 
    6.2499999999921327E-02     1.2500000000047351E-01     0.0000000000000000E+00 
    6.2499999999945530E-02     1.8750000000070621E-01     0.0000000000000000E+00 
    6.2499999999969733E-02     2.5000000000093858E-01     0.0000000000000000E+00 
    6.2499999999993928E-02     3.1250000000117117E-01     0.0000000000000000E+00 
    6.2500000000018124E-02     3.7500000000140382E-01     0.0000000000000000E+00 
    6.2500000000042327E-02     4.3750000000163619E-01     0.0000000000000000E+00 
    6.2500000000066530E-02     5.0000000000184897E-01     0.0000000000000000E+00 
    6.2500000000090733E-02     5.6250000000147260E-01     0.0000000000000000E+00 
    6.2500000000114922E-02     6.2500000000107636E-01     0.0000000000000000E+00 
    6.2500000000139125E-02     6.8750000000068034E-01     0.0000000000000000E+00 
    6.2500000000163328E-02     7.5000000000028411E-01     0.0000000000000000E+00 
    6.2500000000187531E-02     8.1249999999988787E-01     0.0000000000000000E+00 
    6.2500000000211720E-02     8.7499999999951172E-01     0.0000000000000000E+00 
    6.2500000000235922E-02     9.3749999999974565E-01     0.0000000000000000E+00 
    1.2499999999981980E-01     6.2500000000211733E-02     0.0000000000000000E+00 
    1.2499999999986650E-01     1.2500000000042691E-01     0.0000000000000000E+00 
    1.2499999999991319E-01     1.8750000000063199E-01     0.0000000000000000E+00 
    1.2499999999995989E-01     2.5000000000083678E-01     0.0000000000000000E+00 
    1.2500000000000661E-01     3.1250000000104172E-01     0.0000000000000000E+00 
    1.2500000000005329E-01     3.7500000000124661E-01     0.0000000000000000E+00 
    1.2500000000010000E-01     4.3750000000145117E-01     0.0000000000000000E+00 
    1.2500000000014669E-01     5.0000000000163858E-01     0.0000000000000000E+00 
    1.2500000000019340E-01     5.6250000000129741E-01     0.0000000000000000E+00 
    1.2500000000024011E-01     6.2500000000093847E-01     0.0000000000000000E+00 
    1.2500000000028680E-01     6.8750000000057998E-01     0.0000000000000000E+00 
    1.2500000000033351E-01     7.5000000000022127E-01     0.0000000000000000E+00 
    1.2500000000038020E-01     8.1249999999986211E-01     0.0000000000000000E+00 
    1.2500000000042691E-01     8.7499999999952238E-01     0.0000000000000000E+00 
    1.2500000000047359E-01     9.3749999999975164E-01     0.0000000000000000E+00 
    1.8749999999966760E-01     6.2500000000187531E-02     0.0000000000000000E+00 
    1.8749999999974179E-01     1.2500000000038020E-01     0.0000000000000000E+00 
    1.8749999999981601E-01     1.8750000000055780E-01     0.0000000000000000E+00 
    1.8749999999989009E-01     2.5000000000073502E-01     0.0000000000000000E+00 
    1.8749999999996431E-01     3.1250000000091221E-01     0.0000000000000000E+00 
    1.8750000000003850E-01     3.7500000000108941E-01     0.0000000000000000E+00 
    1.8750000000011269E-01     4.3750000000126649E-01     0.0000000000000000E+00 
    1.8750000000018691E-01     5.0000000000142808E-01     0.0000000000000000E+00 
    1.8750000000026110E-01     5.6250000000112244E-01     0.0000000000000000E+00 
    1.8750000000033529E-01     6.2500000000080080E-01     0.0000000000000000E+00 
    1.8750000000040951E-01     6.8750000000047962E-01     0.0000000000000000E+00 
    1.8750000000048361E-01     7.5000000000015843E-01     0.0000000000000000E+00 
    1.8750000000055780E-01     8.1249999999983680E-01     0.0000000000000000E+00 
    1.8750000000063199E-01     8.7499999999953304E-01     0.0000000000000000E+00 
    1.8750000000070621E-01     9.3749999999975764E-01     0.0000000000000000E+00 
    2.4999999999951281E-01     6.2500000000163314E-02     0.0000000000000000E+00 
    2.4999999999961461E-01     1.2500000000033351E-01     0.0000000000000000E+00 
    2.4999999999971650E-01     1.8750000000048361E-01     0.0000000000000000E+00 
    2.4999999999981831E-01     2.5000000000063310E-01     0.0000000000000000E+00 
    2.4999999999992020E-01     3.1250000000078260E-01     0.0000000000000000E+00 
    2.5000000000002198E-01     3.7500000000093209E-01     0.0000000000000000E+00 
    2.5000000000012390E-01     4.3750000000108180E-01     0.0000000000000000E+00 
    2.5000000000022571E-01     5.0000000000121769E-01     0.0000000000000000E+00 
    2.5000000000032763E-01     5.6250000000094724E-01     0.0000000000000000E+00 
    2.5000000000042938E-01     6.2500000000066314E-01     0.0000000000000000E+00 
    2.5000000000053119E-01     6.8750000000037925E-01     0.0000000000000000E+00 
[...]
CELL_DATA 256 
SCALARS Pressure double 1 
LOOKUP_TABLE default 

    1.9902930374082728E+00 
    1.7452366654306743E+00 
    1.5965875626983321E+00 
    1.4944749024678405E+00 
    1.4177533329810010E+00 
    1.3567742645427303E+00 
    1.3068023620755178E+00 
    1.2652759542527767E+00 
    1.2306629243663811E+00 
    1.2018199328537036E+00 
    1.1772827575701117E+00 
    1.1573897109129636E+00 
    1.1480458529445989E+00 
    1.1436324302714744E+00 
    1.1415911912011993E+00 
    1.1410400842799426E+00 
    1.7452405069005545E+00 
    1.6953083005465694E+00 
    1.5999406242466070E+00 
    1.5110660445236272E+00 
    1.4362280260054519E+00 
    1.3739356540128140E+00 
    1.3218143987547433E+00 
    1.2780138896778326E+00 
    1.2412382047040467E+00 
    1.2104745849986722E+00 
    1.1844712511342377E+00 
    1.1618743680020056E+00 
    1.1492018252454075E+00 
    1.1435939709929228E+00 
    1.1410620088648480E+00 
    1.1404952422157091E+00 
    1.5965955387611124E+00 
    1.5999449876873446E+00 
    1.5575980067860657E+00 
    1.4972260153343895E+00 
    1.4353102744684840E+00 
    1.3781637487573668E+00 
    1.3275463368535789E+00 
    1.2835877144045369E+00 
    1.2459328022960245E+00 
    1.2140765281450443E+00 
    1.1872380805128486E+00 
    1.1637886367378558E+00 
    1.1477284148747391E+00 
    1.1411818751218992E+00 
    1.1386028032306601E+00 
    1.1384488415523011E+00 
    1.4944876794281898E+00 
    1.5110750138826419E+00 
    1.4972306587539390E+00 
    1.4619232644552447E+00 
    1.4164669581301659E+00 
    1.3686718203988713E+00 
    1.3227899468041431E+00 
    1.2808592221515722E+00 
    1.2437491775837124E+00 
    1.2117434109723546E+00 
    1.1846993252608369E+00 
    1.1615570908894206E+00 
    1.1429693973678505E+00 
    1.1354228271783204E+00 
    1.1332974398707334E+00 
    1.1340080351026987E+00 
    1.4177699801398815E+00 
    1.4362408457951288E+00 
    1.4353187740381670E+00 
    1.4164711789363431E+00 
    1.3852540830153581E+00 
    1.3475980848859137E+00 
    1.3080594180491325E+00 
    1.2696561195944074E+00 
    1.2342409065188069E+00 
    1.2029008053599908E+00 
    1.1761533715196582E+00 
    1.1536328541252914E+00 
    1.1343194173966409E+00 
    1.1257065377394517E+00 
    1.1243174940950331E+00 
    1.1262978181411827E+00 
    1.3567923325992959E+00 
    1.3739504988841884E+00 
    1.3781744941762502E+00 
    1.3686787289110758E+00 
    1.3476012846150780E+00 
    1.3185681095307042E+00 
    1.2852904606106450E+00 
    1.2508777723983899E+00 
    1.2176979154676144E+00 
    1.1874620475548543E+00 
    1.1612827210150072E+00 
    1.1394311797710015E+00 
    1.1207594073616938E+00 
    1.1111052812919926E+00 
    1.1107062528610370E+00 
    1.1143961277037919E+00 
    1.3068212804398598E+00 
    1.3218306180933770E+00 
    1.3275591540641862E+00 
    1.3227992070404337E+00 
    1.3080652668207666E+00 
    1.2852933828639592E+00 
    1.2571094885608818E+00 
    1.2262225744683422E+00 
    1.1951025724162194E+00 
    1.1658512017024383E+00 
    1.1401092590882085E+00 
    1.1187767264933934E+00 
    1.1012437833685074E+00 
    1.0906201711444941E+00 
    1.0913284019201868E+00 
    1.0972856907148094E+00 
    1.2652984989831264E+00 
    1.2780335970653540E+00 
    1.2836048608763397E+00 
    1.2808733788937396E+00 
    1.2696668273865652E+00 
    1.2508854697645948E+00 
    1.2262270283158412E+00 
    1.1978299749020056E+00 
    1.1679985134316770E+00 
    1.1390188892040634E+00 
    1.1129962474825374E+00 
    1.0915176149144188E+00 
    1.0748104297547876E+00 
    1.0634699447206550E+00 
    1.0653945192311298E+00 
    1.0740358770157550E+00 
    1.2306919889596590E+00 
    1.2412648994954656E+00 
    1.2459583558705289E+00 
    1.2437729531754134E+00 
    1.2342614390544855E+00 
    1.2177145996758520E+00 
    1.1951143469891636E+00 
    1.1680042890734148E+00 
    1.1383617245429285E+00 
    1.1084834722686971E+00 
    1.0808543766259158E+00 
    1.0578244945240944E+00 
    1.0406741142773197E+00 
    1.0289439272800618E+00 
    1.0319763143815230E+00 
    1.0436674447651164E+00 
    1.2018593233920347E+00 
    1.2105125959764647E+00 
    1.2141153104926981E+00 
    1.2117801861005697E+00 
    1.2029341057741429E+00 
    1.1874904928774481E+00 
    1.1658719239781259E+00 
    1.1390305791050392E+00 
    1.1084879250289097E+00 
    1.0763566076351141E+00 
    1.0453409175628243E+00 
    1.0185765713293602E+00 
    9.9873369691257252E-01 
    9.8610543945820728E-01 
    9.8947934637627000E-01 
    1.0046857105118778E+00 
    1.1773439208797110E+00 
    1.1845237855285020E+00 
    1.1872880378444342E+00 
    1.1847424938885944E+00 
    1.1761945853326232E+00 
    1.1613237210191134E+00 
    1.1401409687841677E+00 
    1.1130135819652507E+00 
    1.0808616603645795E+00 
    1.0453437661942171E+00 
    1.0090302638461088E+00 
    9.7561561398816399E-01 
    9.4948174734632906E-01 
    9.3340479060442150E-01 
    9.3504528289864774E-01 
    9.5436956816042917E-01 
    1.1574101294504144E+00 
    1.1619046933272241E+00 
    1.1638367495865369E+00 
    1.1616035439267760E+00 
    1.1536787206152710E+00 
    1.1394885976500231E+00 
    1.1188286623749690E+00 
    1.0915450764321053E+00 
    1.0578335355523278E+00 
    1.0185811435516545E+00 
    9.7562256576888640E-01 
    9.3240728666417916E-01 
    8.9468412739023373E-01 
    8.6932380474744231E-01 
    8.6488611981329411E-01 
    8.8885989697944456E-01 
    1.1480656284273820E+00 
    1.1492241423046794E+00 
    1.1477579484762430E+00 
    1.1429893335649091E+00 
    1.1343324066800331E+00 
    1.1208095609177817E+00 
    1.1013278383494511E+00 
    1.0748649826754642E+00 
    1.0406928489110936E+00 
    9.9874055406083717E-01 
    9.4950143106661056E-01 
    8.9470747156841168E-01 
    8.3927289441370423E-01 
    7.9368899692012540E-01 
    7.7464076782886515E-01 
    8.0252248656659786E-01 
    1.1436566373634369E+00 
    1.1436198252617562E+00 
    1.1412119308436373E+00 
    1.1354470106035741E+00 
    1.1257240610143693E+00 
    1.1111499778335565E+00 
    1.0906897412849612E+00 
    1.0635027549909635E+00 
    1.0289576152207867E+00 
    9.8611079710404415E-01 
    9.3341744791452097E-01 
    8.6937628430013492E-01 
    7.9369405060254550E-01 
    7.1276509494783480E-01 
    6.5166882216323607E-01 
    6.6944386169794157E-01 
    1.1416165574304444E+00 
    1.1410880592526069E+00 
    1.1386307835689409E+00 
    1.1333250980392806E+00 
    1.1243445923187558E+00 
    1.1107461785535768E+00 
    1.0913891454522839E+00 
    1.0654337647684262E+00 
    1.0319940251894728E+00 
    9.8949785692568160E-01 
    9.3506350184236309E-01 
    8.6499500111826855E-01 
    7.7466734795206982E-01 
    6.5159118770374069E-01 
    5.0112492541428810E-01 
    4.2543856076247633E-01 
    1.1410657496406453E+00 
    1.1405213122290709E+00 
    1.1384760881478455E+00 
    1.1340360844438564E+00 
    1.1263268680271690E+00 
    1.1144319125159163E+00 
    1.0973330603610165E+00 
    1.0740787941880536E+00 
    1.0436985961061789E+00 
    1.0047200807488130E+00 
    9.5439322102303115E-01 
    8.8896975055247840E-01 
    8.0259370073128800E-01 
    6.6924081291793380E-01 
    4.2542549387676021E-01 
    0.0000000000000000E+00 

SCALARS Saturarion double 1 
LOOKUP_TABLE default 

    1.0000000000000000E+00 
    9.9678921034641932E-01 
    9.9039366012217500E-01 
    9.7866049567185276E-01 
    9.6086965875356423E-01 
    9.4005476690884104E-01 
    9.1721451401855703E-01 
    8.9292385783174966E-01 
    8.6731825414160724E-01 
    8.3550888818093139E-01 
    7.6158377545958511E-01 
    2.9348414828594871E-01 
    1.0231292850322368E-06 
    1.0000000010246017E-06 
    9.9999999999999995E-07 
    9.9999999999999995E-07 
    9.9678582054620180E-01 
    9.9393639038577164E-01 
    9.8798299790693689E-01 
    9.7784757376947506E-01 
    9.6245249564184254E-01 
    9.4348213457892638E-01 
    9.2195364942565405E-01 
    8.9859330204945009E-01 
    8.7370683482732425E-01 
    8.4408678451579289E-01 
    7.8756069058533584E-01 
    5.5427079500739806E-01 
    2.0328198618380623E-02 
    2.5564941492337742E-06 
    1.0000000560289892E-06 
    9.9999999999999995E-07 
    9.9038489811697161E-01 
    9.8797828577461777E-01 
    9.8223722211684161E-01 
    9.7335564282293652E-01 
    9.6057001160043776E-01 
    9.4429401295090631E-01 
    9.2516266459677476E-01 
    9.0368999716495058E-01 
    8.7966398193870565E-01 
    8.5105764071215495E-01 
    8.1171325317255782E-01 
    6.9715576371709853E-01 
    1.8174592231259792E-01 
    1.5700016544604458E-04 
    1.0009262004212790E-06 
    9.9999999999999995E-07 
    9.7864848800966719E-01 
    9.7783941227595572E-01 
    9.7335003595575953E-01 
    9.6541402172217627E-01 
    9.5464120359287752E-01 
    9.4082055212391802E-01 
    9.2420635707197241E-01 
    9.0494294569059974E-01 
    8.8263004264815026E-01 
    8.5746206194729735E-01 
    8.2607102564583390E-01 
    7.5151214173649095E-01 
    3.4108504332660561E-01 
    8.3667398526593645E-04 
    1.0055751559388400E-06 
    1.0000000001041903E-06 
    9.6082124764972598E-01 
    9.6242726537007062E-01 
    9.6055179630351806E-01 
    9.5462391328140661E-01 
    9.4565777365436021E-01 
    9.3402165713852237E-01 
    9.1980381184231130E-01 
    9.0296753325409340E-01 
    8.8337218403089346E-01 
    8.6179988558471177E-01 
    8.3640266624545001E-01 
    7.8386971117554172E-01 
    5.3721075929842266E-01 
    2.5345592088725395E-02 
    7.2858119415146274E-06 
    1.0000005142053891E-06 
    9.3993987531023404E-01 
    9.4342919285068949E-01 
    9.4427137977661046E-01 
    9.4079123165590173E-01 
    9.3399840615676888E-01 
    9.2455574842126831E-01 
    9.1268075185343012E-01 
    8.9846777019664137E-01 
    8.8203649059851441E-01 
    8.6358245553292934E-01 
    8.4157566403239914E-01 
    8.0318341541668481E-01 
    6.7302409824979381E-01 
    1.3344648739228493E-01 
    9.4356911206126384E-05 
    1.0001116617484487E-06 
    9.1707537887355273E-01 
    9.2188094225323181E-01 
    9.2514602028377990E-01 
    9.2419918521526423E-01 
    9.1978720900382083E-01 
    9.1267075071830606E-01 
    9.0328853047877145E-01 
    8.9186438812760149E-01 
    8.7852630325897874E-01 
    8.6298242336866116E-01 
    8.4383214526444861E-01 
    8.1393232259290849E-01 
    7.2229927600242827E-01 
    2.3993791707293213E-01 
    6.5115301274484963E-05 
    1.0002277950670919E-06 
    8.9281902701634452E-01 
    8.9854256523223730E-01 
    9.0369808533477802E-01 
    9.0497394849177049E-01 
    9.0300938879953430E-01 
    8.9849713736292969E-01 
    8.9188066637662045E-01 
    8.8336006594092975E-01 
    8.7289130005405335E-01 
    8.6010088988798128E-01 
    8.4401765291008768E-01 
    8.1896655002097207E-01 
    7.5209250533546179E-01 
    3.5399595766792369E-01 
    1.2659243671095197E-03 
    1.0107247881261283E-06 
    8.6723245138393634E-01 
    8.7371346228399349E-01 
    8.7974754248487652E-01 
    8.8270030693599932E-01 
    8.8348590778774805E-01 
    8.8214776701564002E-01 
    8.7856970990056549E-01 
    8.7289639008658981E-01 
    8.6513408385002089E-01 
    8.5512213305571871E-01 
    8.4243722407385857E-01 
    8.2269300060061046E-01 
    7.7205479437977864E-01 
    4.8367285897204976E-01 
    1.4117193262420093E-02 
    2.8276033461509141E-06 
    8.3559962444023461E-01 
    8.4426765824403538E-01 
    8.5125673013037950E-01 
    8.5754765643176822E-01 
    8.6185079468288106E-01 
    8.6366544960902469E-01 
    8.6301566559599807E-01 
    8.6009141739056338E-01 
    8.5511720614099096E-01 
    8.4813620511952126E-01 
    8.3891054132796194E-01 
    8.2497360077120419E-01 
    7.8775566539650810E-01 
    6.2133862370591730E-01 
    7.3714929336407706E-02 
    3.3234096306195041E-05 
    7.6264412609176124E-01 
    7.8795107525335029E-01 
    8.1148360773348160E-01 
    8.2575232060266701E-01 
    8.3620717053644278E-01 
    8.4155418315709307E-01 
    8.4390509514876377E-01 
    8.4405387781652053E-01 
    8.4242741987153602E-01 
    8.3891939320671727E-01 
    8.3330329623243704E-01 
    8.2423571533680340E-01 
    7.9906414695931693E-01 
    6.8303365851103726E-01 
    1.8545801355464353E-01 
    1.2555489696577815E-04 
    2.9866792571409068E-01 
    5.4844194436514415E-01 
    6.9452301006892381E-01 
    7.5176615443910000E-01 
    7.8432911536860361E-01 
    8.0321250329907479E-01 
    8.1385686996311435E-01 
    8.1909196530716588E-01 
    8.2280448587034916E-01 
    8.2500461897989619E-01 
    8.2427356818183750E-01 
    8.2017701570535861E-01 
    8.0558880593906779E-01 
    7.3290300556195598E-01 
    3.2057680715088682E-01 
    1.5201414989041814E-03 
    1.0380598319980584E-06 
    1.7932541070274713E-02 
    1.8173656002033298E-01 
    3.4637323079398236E-01 
    5.4011190193525160E-01 
    6.7067252106858199E-01 
    7.2101504216705281E-01 
    7.5222341715288676E-01 
    7.7260974088693524E-01 
    7.8827211023958310E-01 
    7.9930078495844037E-01 
    8.0563591362035281E-01 
    8.0372661038840343E-01 
    7.6630286384559820E-01 
    4.7192973569709140E-01 
    2.6141628939055004E-02 
    1.0000000013480287E-06 
    2.1921002531749853E-06 
    1.8027165347095174E-04 
    9.3650733915035791E-04 
    2.4852930887700193E-02 
    1.2967188818676445E-01 
    2.4082083787561476E-01 
    3.6148187692078942E-01 
    4.8973933141087472E-01 
    6.2265744467936224E-01 
    6.8453948667492659E-01 
    7.3242196984450947E-01 
    7.6610015670443521E-01 
    7.7167620017193594E-01 
    6.4038201432005171E-01 
    2.8470359856359168E-01 
    9.9999999999999995E-07 
    1.0000000380014017E-06 
    1.0012124235669921E-06 
    1.0064236510157810E-06 
    6.6587890772632754E-06 
    9.6175617797991021E-05 
    8.3030295181697928E-05 
    1.5878080333531681E-03 
    1.3090279927288114E-02 
    7.5676011903281465E-02 
    1.8484542065958465E-01 
    3.1779823423332887E-01 
    4.7444509423132974E-01 
    6.4157944113308152E-01 
    6.5553436096464979E-01 
    4.6594269098952068E-01 
    9.9999999999999995E-07 
    9.9999999999999995E-07 
    9.9999999999999995E-07 
    1.0000000001200874E-06 
    1.0000004196451934E-06 
    1.0001573554252842E-06 
    1.0003382837683258E-06 
    1.0156197929402515E-06 
    2.4094175184374972E-06 
    3.9672654979865777E-05 
    1.2439715299994764E-04 
    1.2106425567846993E-03 
    2.8921497776550172E-02 
    2.8425215323196712E-01 
    4.6598031125450273E-01 
    4.6546020928095033E-01 
