# vtk DataFile Version 2.0
Pressure Field Data 
ASCII 
DATASET UNSTRUCTURED_GRID 

POINTS 289 double 

    0.0000000000000000E+00     0.0000000000000000E+00     0.0000000000000000E+00 
    1.0000000000000000E+00     0.0000000000000000E+00     0.0000000000000000E+00 
    1.0000000000000000E+00     1.0000000000000000E+00     0.0000000000000000E+00 
    0.0000000000000000E+00     1.0000000000000000E+00     0.0000000000000000E+00 
    6.2499999999872928E-02     0.0000000000000000E+00     0.0000000000000000E+00 
    1.2499999999977310E-01     0.0000000000000000E+00     0.0000000000000000E+00 
    1.8749999999959341E-01     0.0000000000000000E+00     0.0000000000000000E+00 
    2.4999999999941089E-01     0.0000000000000000E+00     0.0000000000000000E+00 
    3.1249999999922851E-01     0.0000000000000000E+00     0.0000000000000000E+00 
    3.7499999999904610E-01     0.0000000000000000E+00     0.0000000000000000E+00 
    4.3749999999886358E-01     0.0000000000000000E+00     0.0000000000000000E+00 
    4.9999999999869210E-01     0.0000000000000000E+00     0.0000000000000000E+00 
    5.6249999999884603E-01     0.0000000000000000E+00     0.0000000000000000E+00 
    6.2499999999901090E-01     0.0000000000000000E+00     0.0000000000000000E+00 
    6.8749999999917577E-01     0.0000000000000000E+00     0.0000000000000000E+00 
    7.4999999999934064E-01     0.0000000000000000E+00     0.0000000000000000E+00 
    8.1249999999950551E-01     0.0000000000000000E+00     0.0000000000000000E+00 
    8.7499999999967026E-01     0.0000000000000000E+00     0.0000000000000000E+00 
    9.3749999999983513E-01     0.0000000000000000E+00     0.0000000000000000E+00 
    1.0000000000000000E+00     6.2499999999872928E-02     0.0000000000000000E+00 
    1.0000000000000000E+00     1.2499999999977310E-01     0.0000000000000000E+00 
    1.0000000000000000E+00     1.8749999999959341E-01     0.0000000000000000E+00 
    1.0000000000000000E+00     2.4999999999941089E-01     0.0000000000000000E+00 
    1.0000000000000000E+00     3.1249999999922851E-01     0.0000000000000000E+00 
    1.0000000000000000E+00     3.7499999999904610E-01     0.0000000000000000E+00 
    1.0000000000000000E+00     4.3749999999886358E-01     0.0000000000000000E+00 
    1.0000000000000000E+00     4.9999999999869210E-01     0.0000000000000000E+00 
    1.0000000000000000E+00     5.6249999999884603E-01     0.0000000000000000E+00 
    1.0000000000000000E+00     6.2499999999901090E-01     0.0000000000000000E+00 
    1.0000000000000000E+00     6.8749999999917577E-01     0.0000000000000000E+00 
    1.0000000000000000E+00     7.4999999999934064E-01     0.0000000000000000E+00 
    1.0000000000000000E+00     8.1249999999950551E-01     0.0000000000000000E+00 
    1.0000000000000000E+00     8.7499999999967026E-01     0.0000000000000000E+00 
    1.0000000000000000E+00     9.3749999999983513E-01     0.0000000000000000E+00 
    9.3749999999973976E-01     1.0000000000000000E+00     0.0000000000000000E+00 
    8.7499999999950118E-01     1.0000000000000000E+00     0.0000000000000000E+00 
    8.1249999999991318E-01     1.0000000000000000E+00     0.0000000000000000E+00 
    7.5000000000034706E-01     1.0000000000000000E+00     0.0000000000000000E+00 
    6.8750000000078049E-01     1.0000000000000000E+00     0.0000000000000000E+00 
    6.2500000000121403E-01     1.0000000000000000E+00     0.0000000000000000E+00 
    5.6250000000164757E-01     1.0000000000000000E+00     0.0000000000000000E+00 
    5.0000000000205946E-01     1.0000000000000000E+00     0.0000000000000000E+00 
    4.3750000000182099E-01     1.0000000000000000E+00     0.0000000000000000E+00 
    3.7500000000156092E-01     1.0000000000000000E+00     0.0000000000000000E+00 
    3.1250000000130068E-01     1.0000000000000000E+00     0.0000000000000000E+00 
    2.5000000000104050E-01     1.0000000000000000E+00     0.0000000000000000E+00 
    1.8750000000078040E-01     1.0000000000000000E+00     0.0000000000000000E+00 
    1.2500000000052031E-01     1.0000000000000000E+00     0.0000000000000000E+00 
    6.2500000000260125E-02     1.0000000000000000E+00     0.0000000000000000E+00 
    0.0000000000000000E+00     9.3749999999973976E-01     0.0000000000000000E+00 
    0.0000000000000000E+00     8.7499999999950118E-01     0.0000000000000000E+00 
    0.0000000000000000E+00     8.1249999999991318E-01     0.0000000000000000E+00 
    0.0000000000000000E+00     7.5000000000034706E-01     0.0000000000000000E+00 
    0.0000000000000000E+00     6.8750000000078049E-01     0.0000000000000000E+00 
    0.0000000000000000E+00     6.2500000000121403E-01     0.0000000000000000E+00 
    0.0000000000000000E+00     5.6250000000164757E-01     0.0000000000000000E+00 
    0.0000000000000000E+00     5.0000000000205946E-01     0.0000000000000000E+00 
    0.0000000000000000E+00     4.3750000000182099E-01     0.0000000000000000E+00 
    0.0000000000000000E+00     3.7500000000156092E-01     0.0000000000000000E+00 
    0.0000000000000000E+00     3.1250000000130068E-01     0.0000000000000000E+00 
    0.0000000000000000E+00     2.5000000000104050E-01     0.0000000000000000E+00 
    0.0000000000000000E+00     1.8750000000078040E-01     0.0000000000000000E+00 
    0.0000000000000000E+00     1.2500000000052031E-01     0.0000000000000000E+00 
    0.0000000000000000E+00     6.2500000000260125E-02     0.0000000000000000E+00 
    6.2499999999897131E-02     6.2500000000235922E-02     0.0000000000000000E+00 
    6.2499999999921327E-02     1.2500000000047351E-01     0.0000000000000000E+00 
    6.2499999999945530E-02     1.8750000000070621E-01     0.0000000000000000E+00 
    6.2499999999969733E-02     2.5000000000093858E-01     0.0000000000000000E+00 
    6.2499999999993928E-02     3.1250000000117117E-01     0.0000000000000000E+00 
    6.2500000000018124E-02     3.7500000000140382E-01     0.0000000000000000E+00 
    6.2500000000042327E-02     4.3750000000163619E-01     0.0000000000000000E+00 
    6.2500000000066530E-02     5.0000000000184897E-01     0.0000000000000000E+00 
    6.2500000000090733E-02     5.6250000000147260E-01     0.0000000000000000E+00 
    6.2500000000114922E-02     6.2500000000107636E-01     0.0000000000000000E+00 
    6.2500000000139125E-02     6.8750000000068034E-01     0.0000000000000000E+00 
    6.2500000000163328E-02     7.5000000000028411E-01     0.0000000000000000E+00 
    6.2500000000187531E-02     8.1249999999988787E-01     0.0000000000000000E+00 
    6.2500000000211720E-02     8.7499999999951172E-01     0.0000000000000000E+00 
    6.2500000000235922E-02     9.3749999999974565E-01     0.0000000000000000E+00 
    1.2499999999981980E-01     6.2500000000211733E-02     0.0000000000000000E+00 
    1.2499999999986650E-01     1.2500000000042691E-01     0.0000000000000000E+00 
    1.2499999999991319E-01     1.8750000000063199E-01     0.0000000000000000E+00 
    1.2499999999995989E-01     2.5000000000083678E-01     0.0000000000000000E+00 
    1.2500000000000661E-01     3.1250000000104172E-01     0.0000000000000000E+00 
    1.2500000000005329E-01     3.7500000000124661E-01     0.0000000000000000E+00 
    1.2500000000010000E-01     4.3750000000145117E-01     0.0000000000000000E+00 
    1.2500000000014669E-01     5.0000000000163858E-01     0.0000000000000000E+00 
    1.2500000000019340E-01     5.6250000000129741E-01     0.0000000000000000E+00 
    1.2500000000024011E-01     6.2500000000093847E-01     0.0000000000000000E+00 
    1.2500000000028680E-01     6.8750000000057998E-01     0.0000000000000000E+00 
    1.2500000000033351E-01     7.5000000000022127E-01     0.0000000000000000E+00 
    1.2500000000038020E-01     8.1249999999986211E-01     0.0000000000000000E+00 
    1.2500000000042691E-01     8.7499999999952238E-01     0.0000000000000000E+00 
    1.2500000000047359E-01     9.3749999999975164E-01     0.0000000000000000E+00 
    1.8749999999966760E-01     6.2500000000187531E-02     0.0000000000000000E+00 
    1.8749999999974179E-01     1.2500000000038020E-01     0.0000000000000000E+00 
    1.8749999999981601E-01     1.8750000000055780E-01     0.0000000000000000E+00 
    1.8749999999989009E-01     2.5000000000073502E-01     0.0000000000000000E+00 
    1.8749999999996431E-01     3.1250000000091221E-01     0.0000000000000000E+00 
    1.8750000000003850E-01     3.7500000000108941E-01     0.0000000000000000E+00 
    1.8750000000011269E-01     4.3750000000126649E-01     0.0000000000000000E+00 
    1.8750000000018691E-01     5.0000000000142808E-01     0.0000000000000000E+00 
    1.8750000000026110E-01     5.6250000000112244E-01     0.0000000000000000E+00 
    1.8750000000033529E-01     6.2500000000080080E-01     0.0000000000000000E+00 
    1.8750000000040951E-01     6.8750000000047962E-01     0.0000000000000000E+00 
    1.8750000000048361E-01     7.5000000000015843E-01     0.0000000000000000E+00 
    1.8750000000055780E-01     8.1249999999983680E-01     0.0000000000000000E+00 
    1.8750000000063199E-01     8.7499999999953304E-01     0.0000000000000000E+00 
    1.8750000000070621E-01     9.3749999999975764E-01     0.0000000000000000E+00 
    2.4999999999951281E-01     6.2500000000163314E-02     0.0000000000000000E+00 
    2.4999999999961461E-01     1.2500000000033351E-01     0.0000000000000000E+00 
    2.4999999999971650E-01     1.8750000000048361E-01     0.0000000000000000E+00 
    2.4999999999981831E-01     2.5000000000063310E-01     0.0000000000000000E+00 
    2.4999999999992020E-01     3.1250000000078260E-01     0.0000000000000000E+00 
    2.5000000000002198E-01     3.7500000000093209E-01     0.0000000000000000E+00 
    2.5000000000012390E-01     4.3750000000108180E-01     0.0000000000000000E+00 
    2.5000000000022571E-01     5.0000000000121769E-01     0.0000000000000000E+00 
    2.5000000000032763E-01     5.6250000000094724E-01     0.0000000000000000E+00 
    2.5000000000042938E-01     6.2500000000066314E-01     0.0000000000000000E+00 
    2.5000000000053119E-01     6.8750000000037925E-01     0.0000000000000000E+00 
[...]
CELL_DATA 256 
SCALARS Pressure double 1 
LOOKUP_TABLE default 

    1.5551844728659339E+00 
    1.3097890606613811E+00 
    1.1604291839816294E+00 
    1.0571602887070728E+00 
    9.7883068743689472E-01 
    9.1586446866743099E-01 
    8.6360442190153874E-01 
    8.1953073973174861E-01 
    7.8203390749891433E-01 
    7.4942919587534995E-01 
    7.2105874386513957E-01 
    7.0665068924561292E-01 
    6.9927018941002050E-01 
    6.9506351849164227E-01 
    6.9310127412450107E-01 
    6.9257207136046983E-01 
    1.3097945669468820E+00 
    1.2598201261229989E+00 
    1.1639887764863039E+00 
    1.0742081253321694E+00 
    9.9800560757486001E-01 
    9.3394230390445176E-01 
    8.7971419017694352E-01 
    8.3351258717831389E-01 
    7.9398510187742077E-01 
    7.5969406138016837E-01 
    7.2860633595273794E-01 
    7.0930656896723032E-01 
    7.0008748272317534E-01 
    6.9497647079924241E-01 
    6.9258018469217875E-01 
    6.9204518718498076E-01 
    1.1604406672162679E+00 
    1.1639950442963489E+00 
    1.1214608223740028E+00 
    1.0604667829141610E+00 
    9.9747832019305416E-01 
    9.3883691817090342E-01 
    8.8635087631514542E-01 
    8.4017372195079998E-01 
    7.9992134494833644E-01 
    7.6484961437752574E-01 
    7.3315115228285843E-01 
    7.0911166936678771E-01 
    6.9816125999824374E-01 
    6.9262035010474232E-01 
    6.9020984393725948E-01 
    6.9008075434354177E-01 
    1.0571780029455609E+00 
    1.0742206143527593E+00 
    1.0604731297367636E+00 
    1.0248579335381953E+00 
    9.7866470553854068E-01 
    9.2970811763341688E-01 
    8.8225899934579388E-01 
    8.3836006153196885E-01 
    7.9887662548121441E-01 
    7.6396785677741452E-01 
    7.3272600857582848E-01 
    7.0544259251378749E-01 
    6.9256509332775440E-01 
    6.8711287735773885E-01 
    6.8514254666402508E-01 
    6.8584375056873947E-01 
    9.7885241033542203E-01 
    9.9802249468182047E-01 
    9.9748945428660474E-01 
    9.7867018381852222E-01 
    9.4708706810742571E-01 
    9.0865743699607315E-01 
    8.6793054388323476E-01 
    8.2791407799478101E-01 
    7.9045117152782041E-01 
    7.5652625181287758E-01 
    7.2607391315863201E-01 
    6.9783579703190335E-01 
    6.8291406482448902E-01 
    6.7771764044015403E-01 
    6.7657043546306495E-01 
    6.7851114878949581E-01 
    9.1588751742804320E-01 
    9.3396168106021371E-01 
    9.3885136799842528E-01 
    9.2971771546014892E-01 
    9.0866217232911362E-01 
    8.7928959579758770E-01 
    8.4528842343415322E-01 
    8.0973584145593069E-01 
    7.7495284743240189E-01 
    7.4252138816011737E-01 
    7.1306937470875897E-01 
    6.8541730342329232E-01 
    6.6847927127500528E-01 
    6.6359589438514111E-01 
    6.6367624370623857E-01 
    6.6726327594011248E-01 
    8.6362961168756114E-01 
    8.7973739936193596E-01 
    8.8637116391760340E-01 
    8.8227504936979428E-01 
    8.6794189794365106E-01 
    8.4529501552300823E-01 
    8.1692685796627007E-01 
    7.8548179277572616E-01 
    7.5332914875071344E-01 
    7.2240341196184665E-01 
    6.9391832262289399E-01 
    6.6736743468592463E-01 
    6.4842132697777988E-01 
    6.4383297136665296E-01 
    6.4561436825851504E-01 
    6.5127027828466810E-01 
    8.1956255110163878E-01 
    8.3354430155552606E-01 
    8.4020572631491053E-01 
    8.3838917240102517E-01 
    8.2793788942166147E-01 
    8.0975346214430921E-01 
    7.8549113238277646E-01 
    7.5719982470220060E-01 
    7.2704251659753105E-01 
    6.9709584090394927E-01 
    6.6904761547380964E-01 
    6.4322758848670236E-01 
    6.2220067615710128E-01 
    6.1787981584460427E-01 
    6.2163249348303307E-01 
    6.2972867770253083E-01 
    7.8207661304040921E-01 
    7.9402995753766648E-01 
    7.9997061733453478E-01 
    7.9892422245276740E-01 
    7.9049185720943682E-01 
    7.7498489759860956E-01 
    7.5334953477762268E-01 
    7.2705048425003227E-01 
    6.9792235972943539E-01 
    6.6801631226136238E-01 
    6.3933800349919501E-01 
    6.1301517742333334E-01 
    5.8960797015313327E-01 
    5.8521129244969405E-01 
    5.9100522581553694E-01 
    6.0183724682582573E-01 
    7.4949421221461321E-01 
    7.5975018929082516E-01 
    7.6490773048176885E-01 
    7.6402663018292416E-01 
    7.5658308389240148E-01 
    7.4257108343239941E-01 
    7.2243712263795778E-01 
    6.9711149970282971E-01 
    6.6802169531625044E-01 
    6.3704371770609092E-01 
    6.0632490584683407E-01 
    5.7763873302404611E-01 
    5.5098692537145977E-01 
    5.4547494889490722E-01 
    5.5295324310358740E-01 
    5.6670262395284687E-01 
    7.2106380953415561E-01 
    7.2861736425848045E-01 
    7.3318029187168443E-01 
    7.3277402117438895E-01 
    7.2614382980146031E-01 
    7.1314798508795174E-01 
    6.9397492888271706E-01 
    6.6906910680321374E-01 
    6.3934532997082516E-01 
    6.0633165676486211E-01 
    5.7210603844197094E-01 
    5.3890152010819459E-01 
    5.0729114416439591E-01 
    4.9846628847210972E-01 
    5.0646078196431765E-01 
    5.2312601814645576E-01 
    7.0666999324959390E-01 
    7.0932875545827967E-01 
    7.0914433723357351E-01 
    7.0547882297161502E-01 
    6.9791412858632274E-01 
    6.8556087821403355E-01 
    6.6751024950887072E-01 
    6.4329256250635902E-01 
    6.1302898085789115E-01 
    5.7765615037298168E-01 
    5.3892239446082990E-01 
    4.9912486065115896E-01 
    4.5956590648578333E-01 
    4.4400365719075585E-01 
    4.5006514362931788E-01 
    4.6919878603191989E-01 
    6.9929761903401000E-01 
    7.0011864578163407E-01 
    6.9820099072154729E-01 
    6.9260151380649926E-01 
    6.8296051481031572E-01 
    6.6853697406095858E-01 
    6.4844020923079737E-01 
    6.2214660249020937E-01 
    5.8952799549098878E-01 
    5.5096291791008356E-01 
    5.0733474580892868E-01 
    4.5961603286988811E-01 
    4.1237063281728609E-01 
    3.8502728196008162E-01 
    3.8271154971000149E-01 
    4.0178142299447339E-01 
    6.9509158597700649E-01 
    6.9500569737945828E-01 
    6.9265240504771475E-01 
    6.8714436717839888E-01 
    6.7774967330071745E-01 
    6.6362630302562242E-01 
    6.4382511371722750E-01 
    6.1780619439316631E-01 
    5.8511089929577220E-01 
    5.4542554269902610E-01 
    4.9848709298192928E-01 
    4.4402706829805544E-01 
    3.8500259125390290E-01 
    3.3480879178880751E-01 
    3.0765316602536996E-01 
    3.1546865119393475E-01 
    6.9312942271073663E-01 
    6.9260863745684476E-01 
    6.9023897535740542E-01 
    6.8517090580251783E-01 
    6.7659641816530858E-01 
    6.6369640257958895E-01 
    6.4561416801422067E-01 
    6.2159746583246511E-01 
    5.9094560612138081E-01 
    5.5290696755375912E-01 
    5.0645770003954493E-01 
    4.5007499331522083E-01 
    3.8268287875324664E-01 
    3.0761745505362337E-01 
    2.3294776601734629E-01 
    1.9529972423622499E-01 
    6.9260022701968138E-01 
    6.9207343300367574E-01 
    6.9010913561237130E-01 
    6.8587138537763781E-01 
    6.7853631068250564E-01 
    6.6728268346132591E-01 
    6.5127559064447926E-01 
    6.2971042681819167E-01 
    6.0179762904450373E-01 
    5.6666128531893867E-01 
    5.2310475415977020E-01 
    4.6919284593277216E-01 
    4.0176543071238785E-01 
    3.1544404988225322E-01 
    1.9528754266693368E-01 
    0.0000000000000000E+00 

SCALARS Saturarion double 1 
LOOKUP_TABLE default 

    1.0000000000000000E+00 
    9.9596452726846396E-01 
    9.8798994380364646E-01 
    9.7329157427140089E-01 
    9.5195548154869480E-01 
    9.2787311741989209E-01 
    9.0226759767045683E-01 
    8.7531813543579640E-01 
    8.4335227350344200E-01 
    7.7887878705271374E-01 
    3.8207129381764238E-01 
    4.9979001162251146E-05 
    1.0000000114359038E-06 
    1.0000000000000004E-06 
    9.9999999999999995E-07 
    9.9999999999999995E-07 
    9.9595967816360376E-01 
    9.9237997740930861E-01 
    9.8496117727954324E-01 
    9.7230567358635978E-01 
    9.5375535491442121E-01 
    9.3166041731846660E-01 
    9.0732071105568368E-01 
    8.8122257553327954E-01 
    8.5093623432770715E-01 
    7.9959575494867818E-01 
    6.2230207835338880E-01 
    5.4771539876187526E-02 
    1.2814824590313099E-05 
    1.0000022684461845E-06 
    9.9999999999999995E-07 
    9.9999999999999995E-07 
    9.8797767629062683E-01 
    9.8495473136620371E-01 
    9.7776069151064637E-01 
    9.6676205628776701E-01 
    9.5130750878882797E-01 
    9.3221253459178499E-01 
    9.1028092562608154E-01 
    8.8552303333222593E-01 
    8.5625825446386605E-01 
    8.1847587298936475E-01 
    7.2225235409518729E-01 
    2.4824787484655694E-01 
    1.6922661250193342E-04 
    1.0023366633158449E-06 
    9.9999999999999995E-07 
    9.9999999999999995E-07 
    9.7326808274124899E-01 
    9.7228964361673842E-01 
    9.6675253119293891E-01 
    9.5704050634588866E-01 
    9.4406259233684875E-01 
    9.2780497352249469E-01 
    9.0856309846266559E-01 
    8.8616139321222820E-01 
    8.6101975222170768E-01 
    8.3075535925694055E-01 
    7.6785881240198772E-01 
    4.2324776977230327E-01 
    3.1091983520462477E-03 
    1.0695365229550758E-06 
    1.0000000018692719E-06 
    9.9999999999999995E-07 
    9.5187489178689244E-01 
    9.5370830881724911E-01 
    9.5127859369430590E-01 
    9.4403934523274458E-01 
    9.3330404979385884E-01 
    9.1963187679801295E-01 
    9.0318377402614258E-01 
    8.8416124166753018E-01 
    8.6323360844854058E-01 
    8.3797944848640138E-01 
    7.9137876495859327E-01 
    5.9801820731714972E-01 
    4.2002289413696013E-02 
    1.4364442799979738E-05 
    1.0000031827868117E-06 
    9.9999999999999995E-07 
    9.2772138350570088E-01 
    9.3159042065508169E-01 
    9.3219275767445742E-01 
    9.2777884026783652E-01 
    9.1961322560729120E-01 
    9.0858219774044280E-01 
    8.9512326338995551E-01 
    8.7968391996391904E-01 
    8.6218077158298001E-01 
    8.4020260725738360E-01 
    8.0357409471036578E-01 
    6.8404589903318203E-01 
    1.4758532208360042E-01 
    6.3162338632522186E-05 
    1.0001356544789663E-06 
    9.9999999999999995E-07 
    9.0212030846815106E-01 
    9.0726029194685953E-01 
    9.1030273799426586E-01 
    9.0859362602585869E-01 
    9.0320537527766409E-01 
    8.9514509145821319E-01 
    8.8491201040418210E-01 
    8.7268211818265562E-01 
    8.5810607395155736E-01 
    8.3969620620508056E-01 
    8.0995216234250544E-01 
    7.2148391956447377E-01 
    2.3694168340026797E-01 
    6.5725455857121621E-05 
    1.0002806753460439E-06 
    1.0000000000006581E-06 
    8.7528068164486927E-01 
    8.8124583005780788E-01 
    8.8559575207256103E-01 
    8.8625388111530656E-01 
    8.8428049017929022E-01 
    8.7975473832883677E-01 
    8.7269332573623237E-01 
    8.6322155931048339E-01 
    8.5139608982377146E-01 
    8.3675580964714058E-01 
    8.1324212824566267E-01 
    7.4650795983813334E-01 
    3.4616579015655041E-01 
    6.2417514961516914E-04 
    1.0022541905479826E-06 
    1.0000000000382543E-06 
    8.4351124046448434E-01 
    8.5107764338290781E-01 
    8.5637337712263983E-01 
    8.6109188344092980E-01 
    8.6333562422101562E-01 
    8.6223781407664979E-01 
    8.5809990867835317E-01 
    8.5139353685444208E-01 
    8.4257684159312785E-01 
    8.3139449492559470E-01 
    8.1371324278859891E-01 
    7.6316811401280837E-01 
    4.6758339814666255E-01 
    4.1077236465499557E-03 
    1.0805006020383631E-06 
    1.0000000015525576E-06 
    7.8002293651555188E-01 
    7.9964893019163896E-01 
    8.1814484006263521E-01 
    8.3030829928501615E-01 
    8.3787126606982743E-01 
    8.4033736338475817E-01 
    8.3973568051341019E-01 
    8.3673781546239512E-01 
    8.3145697281168218E-01 
    8.2365791084138384E-01 
    8.1046179628249615E-01 
    7.7383404848564707E-01 
    5.8232623805530415E-01 
    2.4890936246790750E-02 
    2.4045350845412640E-06 
    1.0000000503625300E-06 
    3.8821536135809170E-01 
    6.1843721602172463E-01 
    7.2002574893175320E-01 
    7.6716244646521381E-01 
    7.9129483611004348E-01 
    8.0377434109320800E-01 
    8.1010898082042793E-01 
    8.1325452463292258E-01 
    8.1365751957836929E-01 
    8.1051365861304125E-01 
    8.0159250820831829E-01 
    7.7477712920261177E-01 
    6.2970210946535832E-01 
    5.9314461029055555E-02 
    2.6861985056719349E-06 
    1.0000000614815783E-06 
    6.2609286511591846E-05 
    4.9936475273488698E-02 
    2.4777981329943768E-01 
    4.2286150953248203E-01 
    5.9708737984336080E-01 
    6.8367476351012790E-01 
    7.2280038568729432E-01 
    7.4815378325604587E-01 
    7.6428072182657891E-01 
    7.7391773176852696E-01 
    7.7488606247678937E-01 
    7.6086609281968065E-01 
    6.6094594903598103E-01 
    1.2029869466594607E-01 
    8.5851366073575890E-06 
    1.0000010395605865E-06 
    1.0000000189671971E-06 
    1.0667006324950092E-05 
    1.8972751399313085E-04 
    3.1966913425510307E-03 
    4.0444250255181606E-02 
    1.4983516266638208E-01 
    2.4596788873833642E-01 
    3.5725457522926296E-01 
    4.7302115059338190E-01 
    5.7879657981713206E-01 
    6.2803615429981230E-01 
    6.6120010723837153E-01 
    6.1806624301460356E-01 
    1.1525163179623230E-01 
    7.3045221361574622E-05 
    1.0000407039514081E-06 
    1.0000000000000004E-06 
    1.0000015683953962E-06 
    1.0028528839158104E-06 
    1.0739223418974094E-06 
    1.2991201395935010E-05 
    7.2252066811013616E-05 
    8.0573558506339513E-05 
    7.1889387621224812E-04 
    3.8877052196761809E-03 
    2.2890786185057570E-02 
    5.8197983711443267E-02 
    1.2203939706654941E-01 
    1.1740101901955487E-01 
    2.9971201130676358E-03 
    1.0379732169058652E-06 
    1.0000000011200380E-06 
    9.9999999999999995E-07 
    9.9999999999999995E-07 
    9.9999999999999995E-07 
    1.0000000019890004E-06 
    1.0000025791863427E-06 
    1.0001838459831326E-06 
    1.0003232413625626E-06 
    1.0029788167127753E-06 
    1.0573008908022309E-06 
    2.1713640492325292E-06 
    3.2547528522427387E-06 
    9.6149206499942607E-06 
    7.8833472613488366E-05 
    1.0384508007129410E-06 
    1.0000000057971760E-06 
    1.0000000000000002E-06 
    9.9999999999999995E-07 
    9.9999999999999995E-07 
    9.9999999999999995E-07 
    9.9999999999999995E-07 
    9.9999999999999995E-07 
    9.9999999999999995E-07 
    1.0000000000011778E-06 
    1.0000000000499044E-06 
    1.0000000010302239E-06 
    1.0000000427549618E-06 
    1.0000000955542418E-06 
    1.0000013227605554E-06 
    1.0000486215346892E-06 
    1.0000000011500903E-06 
    1.0000000000000004E-06 
    1.0000000976480314E-06 
