# vtk DataFile Version 2.0
Pressure Field Data 
ASCII 
DATASET UNSTRUCTURED_GRID 

POINTS 289 double 

    0.0000000000000000E+00     0.0000000000000000E+00     0.0000000000000000E+00 
    1.0000000000000000E+00     0.0000000000000000E+00     0.0000000000000000E+00 
    1.0000000000000000E+00     1.0000000000000000E+00     0.0000000000000000E+00 
    0.0000000000000000E+00     1.0000000000000000E+00     0.0000000000000000E+00 
    6.2499999999872928E-02     0.0000000000000000E+00     0.0000000000000000E+00 
    1.2499999999977310E-01     0.0000000000000000E+00     0.0000000000000000E+00 
    1.8749999999959341E-01     0.0000000000000000E+00     0.0000000000000000E+00 
    2.4999999999941089E-01     0.0000000000000000E+00     0.0000000000000000E+00 
    3.1249999999922851E-01     0.0000000000000000E+00     0.0000000000000000E+00 
    3.7499999999904610E-01     0.0000000000000000E+00     0.0000000000000000E+00 
    4.3749999999886358E-01     0.0000000000000000E+00     0.0000000000000000E+00 
    4.9999999999869210E-01     0.0000000000000000E+00     0.0000000000000000E+00 
    5.6249999999884603E-01     0.0000000000000000E+00     0.0000000000000000E+00 
    6.2499999999901090E-01     0.0000000000000000E+00     0.0000000000000000E+00 
    6.8749999999917577E-01     0.0000000000000000E+00     0.0000000000000000E+00 
    7.4999999999934064E-01     0.0000000000000000E+00     0.0000000000000000E+00 
    8.1249999999950551E-01     0.0000000000000000E+00     0.0000000000000000E+00 
    8.7499999999967026E-01     0.0000000000000000E+00     0.0000000000000000E+00 
    9.3749999999983513E-01     0.0000000000000000E+00     0.0000000000000000E+00 
    1.0000000000000000E+00     6.2499999999872928E-02     0.0000000000000000E+00 
    1.0000000000000000E+00     1.2499999999977310E-01     0.0000000000000000E+00 
    1.0000000000000000E+00     1.8749999999959341E-01     0.0000000000000000E+00 
    1.0000000000000000E+00     2.4999999999941089E-01     0.0000000000000000E+00 
    1.0000000000000000E+00     3.1249999999922851E-01     0.0000000000000000E+00 
    1.0000000000000000E+00     3.7499999999904610E-01     0.0000000000000000E+00 
    1.0000000000000000E+00     4.3749999999886358E-01     0.0000000000000000E+00 
    1.0000000000000000E+00     4.9999999999869210E-01     0.0000000000000000E+00 
    1.0000000000000000E+00     5.6249999999884603E-01     0.0000000000000000E+00 
    1.0000000000000000E+00     6.2499999999901090E-01     0.0000000000000000E+00 
    1.0000000000000000E+00     6.8749999999917577E-01     0.0000000000000000E+00 
    1.0000000000000000E+00     7.4999999999934064E-01     0.0000000000000000E+00 
    1.0000000000000000E+00     8.1249999999950551E-01     0.0000000000000000E+00 
    1.0000000000000000E+00     8.7499999999967026E-01     0.0000000000000000E+00 
    1.0000000000000000E+00     9.3749999999983513E-01     0.0000000000000000E+00 
    9.3749999999973976E-01     1.0000000000000000E+00     0.0000000000000000E+00 
    8.7499999999950118E-01     1.0000000000000000E+00     0.0000000000000000E+00 
    8.1249999999991318E-01     1.0000000000000000E+00     0.0000000000000000E+00 
    7.5000000000034706E-01     1.0000000000000000E+00     0.0000000000000000E+00 
    6.8750000000078049E-01     1.0000000000000000E+00     0.0000000000000000E+00 
    6.2500000000121403E-01     1.0000000000000000E+00     0.0000000000000000E+00 
    5.6250000000164757E-01     1.0000000000000000E+00     0.0000000000000000E+00 
    5.0000000000205946E-01     1.0000000000000000E+00     0.0000000000000000E+00 
    4.3750000000182099E-01     1.0000000000000000E+00     0.0000000000000000E+00 
    3.7500000000156092E-01     1.0000000000000000E+00     0.0000000000000000E+00 
    3.1250000000130068E-01     1.0000000000000000E+00     0.0000000000000000E+00 
    2.5000000000104050E-01     1.0000000000000000E+00     0.0000000000000000E+00 
    1.8750000000078040E-01     1.0000000000000000E+00     0.0000000000000000E+00 
    1.2500000000052031E-01     1.0000000000000000E+00     0.0000000000000000E+00 
    6.2500000000260125E-02     1.0000000000000000E+00     0.0000000000000000E+00 
    0.0000000000000000E+00     9.3749999999973976E-01     0.0000000000000000E+00 
    0.0000000000000000E+00     8.7499999999950118E-01     0.0000000000000000E+00 
    0.0000000000000000E+00     8.1249999999991318E-01     0.0000000000000000E+00 
    0.0000000000000000E+00     7.5000000000034706E-01     0.0000000000000000E+00 
    0.0000000000000000E+00     6.8750000000078049E-01     0.0000000000000000E+00 
    0.0000000000000000E+00     6.2500000000121403E-01     0.0000000000000000E+00 
    0.0000000000000000E+00     5.6250000000164757E-01     0.0000000000000000E+00 
    0.0000000000000000E+00     5.0000000000205946E-01     0.0000000000000000E+00 
    0.0000000000000000E+00     4.3750000000182099E-01     0.0000000000000000E+00 
    0.0000000000000000E+00     3.7500000000156092E-01     0.0000000000000000E+00 
    0.0000000000000000E+00     3.1250000000130068E-01     0.0000000000000000E+00 
    0.0000000000000000E+00     2.5000000000104050E-01     0.0000000000000000E+00 
    0.0000000000000000E+00     1.8750000000078040E-01     0.0000000000000000E+00 
    0.0000000000000000E+00     1.2500000000052031E-01     0.0000000000000000E+00 
    0.0000000000000000E+00     6.2500000000260125E-02     0.0000000000000000E+00 
    6.2499999999897131E-02     6.2500000000235922E-02     0.0000000000000000E+00 
    6.2499999999921327E-02     1.2500000000047351E-01     0.0000000000000000E+00 
    6.2499999999945530E-02     1.8750000000070621E-01     0.0000000000000000E+00 
    6.2499999999969733E-02     2.5000000000093858E-01     0.0000000000000000E+00 
    6.2499999999993928E-02     3.1250000000117117E-01     0.0000000000000000E+00 
    6.2500000000018124E-02     3.7500000000140382E-01     0.0000000000000000E+00 
    6.2500000000042327E-02     4.3750000000163619E-01     0.0000000000000000E+00 
    6.2500000000066530E-02     5.0000000000184897E-01     0.0000000000000000E+00 
    6.2500000000090733E-02     5.6250000000147260E-01     0.0000000000000000E+00 
    6.2500000000114922E-02     6.2500000000107636E-01     0.0000000000000000E+00 
    6.2500000000139125E-02     6.8750000000068034E-01     0.0000000000000000E+00 
    6.2500000000163328E-02     7.5000000000028411E-01     0.0000000000000000E+00 
    6.2500000000187531E-02     8.1249999999988787E-01     0.0000000000000000E+00 
    6.2500000000211720E-02     8.7499999999951172E-01     0.0000000000000000E+00 
    6.2500000000235922E-02     9.3749999999974565E-01     0.0000000000000000E+00 
    1.2499999999981980E-01     6.2500000000211733E-02     0.0000000000000000E+00 
    1.2499999999986650E-01     1.2500000000042691E-01     0.0000000000000000E+00 
    1.2499999999991319E-01     1.8750000000063199E-01     0.0000000000000000E+00 
    1.2499999999995989E-01     2.5000000000083678E-01     0.0000000000000000E+00 
    1.2500000000000661E-01     3.1250000000104172E-01     0.0000000000000000E+00 
    1.2500000000005329E-01     3.7500000000124661E-01     0.0000000000000000E+00 
    1.2500000000010000E-01     4.3750000000145117E-01     0.0000000000000000E+00 
    1.2500000000014669E-01     5.0000000000163858E-01     0.0000000000000000E+00 
    1.2500000000019340E-01     5.6250000000129741E-01     0.0000000000000000E+00 
    1.2500000000024011E-01     6.2500000000093847E-01     0.0000000000000000E+00 
    1.2500000000028680E-01     6.8750000000057998E-01     0.0000000000000000E+00 
    1.2500000000033351E-01     7.5000000000022127E-01     0.0000000000000000E+00 
    1.2500000000038020E-01     8.1249999999986211E-01     0.0000000000000000E+00 
    1.2500000000042691E-01     8.7499999999952238E-01     0.0000000000000000E+00 
    1.2500000000047359E-01     9.3749999999975164E-01     0.0000000000000000E+00 
    1.8749999999966760E-01     6.2500000000187531E-02     0.0000000000000000E+00 
    1.8749999999974179E-01     1.2500000000038020E-01     0.0000000000000000E+00 
    1.8749999999981601E-01     1.8750000000055780E-01     0.0000000000000000E+00 
    1.8749999999989009E-01     2.5000000000073502E-01     0.0000000000000000E+00 
    1.8749999999996431E-01     3.1250000000091221E-01     0.0000000000000000E+00 
    1.8750000000003850E-01     3.7500000000108941E-01     0.0000000000000000E+00 
    1.8750000000011269E-01     4.3750000000126649E-01     0.0000000000000000E+00 
    1.8750000000018691E-01     5.0000000000142808E-01     0.0000000000000000E+00 
    1.8750000000026110E-01     5.6250000000112244E-01     0.0000000000000000E+00 
    1.8750000000033529E-01     6.2500000000080080E-01     0.0000000000000000E+00 
    1.8750000000040951E-01     6.8750000000047962E-01     0.0000000000000000E+00 
    1.8750000000048361E-01     7.5000000000015843E-01     0.0000000000000000E+00 
    1.8750000000055780E-01     8.1249999999983680E-01     0.0000000000000000E+00 
    1.8750000000063199E-01     8.7499999999953304E-01     0.0000000000000000E+00 
    1.8750000000070621E-01     9.3749999999975764E-01     0.0000000000000000E+00 
    2.4999999999951281E-01     6.2500000000163314E-02     0.0000000000000000E+00 
    2.4999999999961461E-01     1.2500000000033351E-01     0.0000000000000000E+00 
    2.4999999999971650E-01     1.8750000000048361E-01     0.0000000000000000E+00 
    2.4999999999981831E-01     2.5000000000063310E-01     0.0000000000000000E+00 
    2.4999999999992020E-01     3.1250000000078260E-01     0.0000000000000000E+00 
    2.5000000000002198E-01     3.7500000000093209E-01     0.0000000000000000E+00 
    2.5000000000012390E-01     4.3750000000108180E-01     0.0000000000000000E+00 
    2.5000000000022571E-01     5.0000000000121769E-01     0.0000000000000000E+00 
    2.5000000000032763E-01     5.6250000000094724E-01     0.0000000000000000E+00 
    2.5000000000042938E-01     6.2500000000066314E-01     0.0000000000000000E+00 
    2.5000000000053119E-01     6.8750000000037925E-01     0.0000000000000000E+00 
[...]
CELL_DATA 256 
SCALARS Pressure double 1 
LOOKUP_TABLE default 

    1.4961377408007372E+00 
    1.2498252204119571E+00 
    1.0986874504358604E+00 
    9.9274691692212957E-01 
    9.1105459537767919E-01 
    8.4435278767708011E-01 
    7.8807032114003328E-01 
    7.3912288581936814E-01 
    6.9368583303971565E-01 
    6.6744793248421153E-01 
    6.5337386535228359E-01 
    6.4394514593932783E-01 
    6.3782477941130200E-01 
    6.3429288604664769E-01 
    6.3265026735702523E-01 
    6.3220759439696250E-01 
    1.2498296772457300E+00 
    1.1996442712350892E+00 
    1.1025366131659224E+00 
    1.0105168356408976E+00 
    9.3129083408074997E-01 
    8.6373096221451573E-01 
    8.0565814961571824E-01 
    7.5482796444011058E-01 
    7.0764163543954928E-01 
    6.7356122637312055E-01 
    6.5643608891933114E-01 
    6.4555878930491284E-01 
    6.3840236623474667E-01 
    6.3418876840397920E-01 
    6.3220636352042103E-01 
    6.3176456995504060E-01 
    1.0986947301110288E+00 
    1.1025400253378717E+00 
    1.0592604699863057E+00 
    9.9650921667801995E-01 
    9.3092001637848720E-01 
    8.6910635266875158E-01 
    8.1303793002055269E-01 
    7.6267091314157087E-01 
    7.1605011765088422E-01 
    6.7616014692079385E-01 
    6.5606832350003907E-01 
    6.4441096869569725E-01 
    6.3668259455894349E-01 
    6.3217683912288769E-01 
    6.3021455521308378E-01 
    6.3012072111088147E-01 
    9.9275198409267607E-01 
    1.0105193431451223E+00 
    9.9650908224851165E-01 
    9.5963332306435722E-01 
    9.1131335689789950E-01 
    8.5958780470527174E-01 
    8.0891818359716261E-01 
    7.6130360332418923E-01 
    7.1657248256418749E-01 
    6.7404683923503494E-01 
    6.5156667841876037E-01 
    6.3973492362325945E-01 
    6.3194135816840635E-01 
    6.2756029233194521E-01 
    6.2598994303274058E-01 
    6.2659351299897958E-01 
    9.1105281397022986E-01 
    9.3128761531650550E-01 
    9.3091553043743913E-01 
    9.1131039862663532E-01 
    8.7810255904333478E-01 
    8.3739822661063534E-01 
    7.9391732410093596E-01 
    7.5065598837297964E-01 
    7.0867046197310501E-01 
    6.6639767054179233E-01 
    6.4262359741416408E-01 
    6.3096550055260014E-01 
    6.2354902886962815E-01 
    6.1968574901231066E-01 
    6.1887011234576395E-01 
    6.2051483014259190E-01 
    8.4434614736095748E-01 
    8.6372544009168895E-01 
    8.6910133768096642E-01 
    8.5958511661462911E-01 
    8.3739834343751807E-01 
    8.0629362809352567E-01 
    7.7006825361564080E-01 
    7.3178767332928574E-01 
    6.9310521497693833E-01 
    6.5246345388768401E-01 
    6.2876905471432454E-01 
    6.1763593738349687E-01 
    6.1097807514534608E-01 
    6.0796305240225190E-01 
    6.0822870000976570E-01 
    6.1124118422289542E-01 
    7.8806521065661839E-01 
    8.0565966565130720E-01 
    8.1304321985907690E-01 
    8.0892365344262873E-01 
    7.9392320047445297E-01 
    7.7007151216548730E-01 
    7.3999353868290885E-01 
    7.0632127860595273E-01 
    6.7099044422187470E-01 
    6.3242913175023807E-01 
    6.0997167477019509E-01 
    5.9964848893244782E-01 
    5.9388384025007734E-01 
    5.9189059887818984E-01 
    5.9348126552428160E-01 
    5.9815642142258985E-01 
    7.3911652009953743E-01 
    7.5483565064534719E-01 
    7.6268633154929411E-01 
    7.6131428382546051E-01 
    7.5066813524326381E-01 
    7.3179630832166143E-01 
    7.0632450921926782E-01 
    6.7616477191687863E-01 
    6.4305901625137629E-01 
    6.0772079292927039E-01 
    5.8708094460048743E-01 
    5.7746842058316594E-01 
    5.7219765753435559E-01 
    5.7107774647316978E-01 
    5.7407424146794517E-01 
    5.8065627680160570E-01 
    6.9364314002047001E-01 
    7.0760666443047149E-01 
    7.1606239179700182E-01 
    7.1658807892046306E-01 
    7.0868876742920439E-01 
    6.9312459705291407E-01 
    6.7100519931422720E-01 
    6.4307664838707113E-01 
    6.1022531468637708E-01 
    5.8034197727481895E-01 
    5.6161552022797712E-01 
    5.5185452038680027E-01 
    5.4608199753258679E-01 
    5.4521134047502162E-01 
    5.4942801360761873E-01 
    5.5809181454125523E-01 
    6.6745577274922863E-01 
    6.7356309869098752E-01 
    6.7615725766085488E-01 
    6.7403564274743111E-01 
    6.6638939924168672E-01 
    6.5249273352778125E-01 
    6.3247891667123501E-01 
    6.0775028984077772E-01 
    5.8034740383949168E-01 
    5.5521489940677538E-01 
    5.3651435325207708E-01 
    5.2408782607137994E-01 
    5.1598450801355145E-01 
    5.1401715491003996E-01 
    5.1882289441487972E-01 
    5.2964273983002952E-01 
    6.5338932505277769E-01 
    6.5645377237675118E-01 
    6.5608563335401304E-01 
    6.5155738524767692E-01 
    6.4261187075602244E-01 
    6.2878217918959900E-01 
    6.0999348482922344E-01 
    5.8708173304460354E-01 
    5.6160337543393724E-01 
    5.3650512926796756E-01 
    5.1463159414513038E-01 
    4.9609697048577023E-01 
    4.8279481275326813E-01 
    4.7727876011387965E-01 
    4.8122529994292373E-01 
    4.9407271324804669E-01 
    6.4395762788577282E-01 
    6.4557186767195440E-01 
    6.4442291217641434E-01 
    6.3973712442706610E-01 
    6.3096225617427115E-01 
    6.1764244698441728E-01 
    5.9966120522319233E-01 
    5.7745889672548534E-01 
    5.5183342657863821E-01 
    5.2407565028987624E-01 
    4.9609187703310142E-01 
    4.6976712584311314E-01 
    4.4798903744507690E-01 
    4.3501635791656135E-01 
    4.3507308597117544E-01 
    4.4925692782828136E-01 
    6.3783554250663710E-01 
    6.3841324926409826E-01 
    6.3669258014717067E-01 
    6.3194736647858363E-01 
    6.2355114782757082E-01 
    6.1098125975303963E-01 
    5.9388895428562694E-01 
    5.7219596852119226E-01 
    5.4607270453752665E-01 
    5.1597496948438892E-01 
    4.8278849117897238E-01 
    4.4798630076821938E-01 
    4.1456898024574768E-01 
    3.8840358312715600E-01 
    3.7828332825106237E-01 
    3.9123925522634223E-01 
    6.3430272453909797E-01 
    6.3419853888221256E-01 
    6.3218590929939045E-01 
    6.2756735746377068E-01 
    6.1969027567354407E-01 
    6.0796641116964034E-01 
    5.9189362027080406E-01 
    5.7107797689600293E-01 
    5.4520739070551927E-01 
    5.1401116833986371E-01 
    4.7727329590057843E-01 
    4.3501272569400018E-01 
    3.8840197301210827E-01 
    3.4224206320371664E-01 
    3.0950043297805890E-01 
    3.1215045540693970E-01 
    6.3265969217166196E-01 
    6.3221564620092585E-01 
    6.3022326787553751E-01 
    6.2599739390292530E-01 
    6.1887579384117164E-01 
    6.0823283201794276E-01 
    5.9348419468152136E-01 
    5.7407530066728574E-01 
    5.4942646633547298E-01 
    5.1881931191789132E-01 
    4.8122108869163549E-01 
    4.3506948468076273E-01 
    3.7828096802674610E-01 
    3.0949938364162038E-01 
    2.3464683547733667E-01 
    1.9505125500351192E-01 
    6.3221690574095712E-01 
    6.3177375031929606E-01 
    6.3012945535276821E-01 
    6.2660131538937069E-01 
    6.2052124137287035E-01 
    6.1124608771576061E-01 
    5.9815990583826140E-01 
    5.8065809426188331E-01 
    5.5809155225446905E-01 
    5.2964054244339831E-01 
    4.9406940555748058E-01 
    4.4925353797369094E-01 
    3.9123655343381974E-01 
    3.1214877975913796E-01 
    1.9505056360944953E-01 
    0.0000000000000000E+00 

SCALARS Saturarion double 1 
LOOKUP_TABLE default 

    1.0000000000000000E+00 
    9.9370344147243750E-01 
    9.8149903738826272E-01 
    9.5930532757556419E-01 
    9.3032714736281863E-01 
    8.9966176034122813E-01 
    8.6595981265649646E-01 
    8.1374457617406248E-01 
    5.9324779566307551E-01 
    1.4397563435446204E-02 
    1.0000041563169824E-06 
    1.0000000000000872E-06 
    9.9999999999999995E-07 
    9.9999999999999995E-07 
    9.9999999999999995E-07 
    9.9999999999999995E-07 
    9.9369401909805344E-01 
    9.8811438196992685E-01 
    9.7678706086024458E-01 
    9.5777251771963567E-01 
    9.3229856332676975E-01 
    9.0367482988848813E-01 
    8.7119828221202855E-01 
    8.2482977934948831E-01 
    7.1438650433980921E-01 
    1.8034342440144432E-01 
    7.4740156897315147E-05 
    1.0001923131970444E-06 
    9.9999999999999995E-07 
    9.9999999999999995E-07 
    9.9999999999999995E-07 
    9.9999999999999995E-07 
    9.8147655031787651E-01 
    9.7677615058206912E-01 
    9.6569678861830799E-01 
    9.4940230893574762E-01 
    9.2798540858671874E-01 
    9.0269110771122307E-01 
    8.7243856189522906E-01 
    8.3488602643327925E-01 
    7.6181412656537140E-01 
    3.7430654142334990E-01 
    4.9246953206637050E-04 
    1.0026932715767566E-06 
    1.0000000000891476E-06 
    9.9999999999999995E-07 
    9.9999999999999995E-07 
    9.9999999999999995E-07 
    9.5922624131697887E-01 
    9.5772038896826472E-01 
    9.4938144873297858E-01 
    9.3538663628414753E-01 
    9.1758657646226782E-01 
    8.9622312146559469E-01 
    8.7156228525582990E-01 
    8.4200143073858114E-01 
    7.8602374930106478E-01 
    5.2478899283088487E-01 
    1.0337086512741896E-02 
    1.5572021380396797E-06 
    1.0000000241605672E-06 
    9.9999999999999995E-07 
    9.9999999999999995E-07 
    9.9999999999999995E-07 
    9.3017283379644033E-01 
    9.3221601397339016E-01 
    9.2795899677968485E-01 
    9.1757324146854569E-01 
    9.0326935201404812E-01 
    8.8633174393561509E-01 
    8.6715617656178956E-01 
    8.4261816771209674E-01 
    7.9759481817400368E-01 
    6.3629434440053667E-01 
    5.3974319228459772E-02 
    7.8732130237682154E-06 
    1.0000004110619531E-06 
    1.0000000000000046E-06 
    9.9999999999999995E-07 
    9.9999999999999995E-07 
    8.9948857227005452E-01 
    9.0365511295490319E-01 
    9.0277305583415435E-01 
    8.9629687922457324E-01 
    8.8639422251971001E-01 
    8.7382801999748849E-01 
    8.5830800783044003E-01 
    8.3789663112448987E-01 
    8.0301870953487020E-01 
    6.8075942949579249E-01 
    1.0145944085461805E-01 
    3.8890098196850249E-06 
    1.0000003302602433E-06 
    9.9999999999999995E-07 
    9.9999999999999995E-07 
    9.9999999999999995E-07 
    8.6593509747006914E-01 
    8.7128873845372290E-01 
    8.7261457830677969E-01 
    8.7174316130801710E-01 
    8.6722839869667612E-01 
    8.5831316536874969E-01 
    8.4582916980880352E-01 
    8.2933254554480795E-01 
    7.9844759040926083E-01 
    6.8162751565502799E-01 
    9.9105328024681597E-02 
    7.7528955835635688E-06 
    1.0000006548035149E-06 
    1.0000000000000249E-06 
    9.9999999999999995E-07 
    9.9999999999999995E-07 
    8.1395902017292132E-01 
    8.2475759418609063E-01 
    8.3485702049469679E-01 
    8.4196890187667450E-01 
    8.4263170581640079E-01 
    8.3791099682393211E-01 
    8.2941920915598299E-01 
    8.1631249157429020E-01 
    7.8814104201096225E-01 
    6.3954070168824251E-01 
    4.9918858512974222E-02 
    9.6142454526976243E-06 
    1.0000013859202780E-06 
    1.0000000000000006E-06 
    9.9999999999999995E-07 
    9.9999999999999995E-07 
    5.9312205761850201E-01 
    7.1187976285677157E-01 
    7.6071542387319602E-01 
    7.8634038297468745E-01 
    7.9807441503256182E-01 
    8.0284925529741913E-01 
    7.9869866136767576E-01 
    7.8849347635164979E-01 
    7.5310698267873843E-01 
    4.6318421477817295E-01 
    5.3403080982097270E-03 
    1.1826571388609746E-06 
    1.0000000067582397E-06 
    9.9999999999999995E-07 
    9.9999999999999995E-07 
    9.9999999999999995E-07 
    1.4252913591599470E-02 
    1.7346855821277377E-01 
    3.7711122299261279E-01 
    5.3233056318876260E-01 
    6.3776839318326084E-01 
    6.7903145416092059E-01 
    6.8251973593389692E-01 
    6.4359447430734762E-01 
    4.6512379177443486E-01 
    9.7124313088905539E-02 
    8.8574928015571137E-05 
    1.0001516046839594E-06 
    1.0000000000000006E-06 
    9.9999999999999995E-07 
    9.9999999999999995E-07 
    9.9999999999999995E-07 
    1.0000021121660108E-06 
    7.7145009415854998E-05 
    5.5025636560883764E-04 
    1.1483279089600992E-02 
    5.4041792945654504E-02 
    9.9075901746781325E-02 
    1.0102012717006881E-01 
    5.3604296607715929E-02 
    5.6840417178049942E-03 
    8.8661114464115253E-05 
    1.0003443742157969E-06 
    1.0000000000126830E-06 
    9.9999999999999995E-07 
    9.9999999999999995E-07 
    9.9999999999999995E-07 
    9.9999999999999995E-07 
    1.0000000000000694E-06 
    1.0001983723647214E-06 
    1.0034612846276442E-06 
    1.6538293664051796E-06 
    6.9564186834760064E-06 
    3.9841351692971939E-06 
    5.9242063447422229E-06 
    1.1075137660410962E-05 
    1.2070640583539070E-06 
    1.0001517335509186E-06 
    1.0000000000126919E-06 
    9.9999999999999995E-07 
    9.9999999999999995E-07 
    9.9999999999999995E-07 
    9.9999999999999995E-07 
    9.9999999999999995E-07 
    9.9999999999999995E-07 
    9.9999999999999995E-07 
    1.0000000001168066E-06 
    1.0000000291874992E-06 
    1.0000003222260685E-06 
    1.0000003637992530E-06 
    1.0000004293444006E-06 
    1.0000010406168320E-06 
    1.0000000076115966E-06 
    1.0000000000000006E-06 
    9.9999999999999995E-07 
    9.9999999999999995E-07 
    9.9999999999999995E-07 
    9.9999999999999995E-07 
    9.9999999999999995E-07 
    9.9999999999999995E-07 
    9.9999999999999995E-07 
    9.9999999999999995E-07 
    9.9999999999999995E-07 
    9.9999999999999995E-07 
    1.0000000000000036E-06 
    9.9999999999999995E-07 
    1.0000000000000190E-06 
    1.0000000000000175E-06 
    9.9999999999999995E-07 
    9.9999999999999995E-07 
    9.9999999999999995E-07 
    9.9999999999999995E-07 
    9.9999999999999995E-07 
    9.9999999999999995E-07 
    9.9999999999999995E-07 
    9.9999999999999995E-07 
    9.9999999999999995E-07 
    9.9999999999999995E-07 
    9.9999999999999995E-07 
    9.9999999999999995E-07 
    9.9999999999999995E-07 
    9.9999999999999995E-07 
    9.9999999999999995E-07 
    9.9999999999999995E-07 
    9.9999999999999995E-07 
    9.9999999999999995E-07 
    9.9999999999999995E-07 
    9.9999999999999995E-07 
    9.9999999999999995E-07 
    9.9999999999999995E-07 
    9.9999999999999995E-07 
    9.9999999999999995E-07 
    9.9999999999999995E-07 
    9.9999999999999995E-07 
    9.9999999999999995E-07 
    9.9999999999999995E-07 
    9.9999999999999995E-07 
    9.9999999999999995E-07 
    9.9999999999999995E-07 
    9.9999999999999995E-07 
    9.9999999999999995E-07 
    9.9999999999999995E-07 
    9.9999999999999995E-07 
    9.9999999999999995E-07 
    9.9999999999999995E-07 
    9.9999999999999995E-07 
    9.9999999999999995E-07 
    1.0000000621360667E-06 
