# vtk DataFile Version 2.0
Pressure Field Data 
ASCII 
DATASET UNSTRUCTURED_GRID 

POINTS 289 double 

    0.0000000000000000E+00     0.0000000000000000E+00     0.0000000000000000E+00 
    1.0000000000000000E+00     0.0000000000000000E+00     0.0000000000000000E+00 
    1.0000000000000000E+00     1.0000000000000000E+00     0.0000000000000000E+00 
    0.0000000000000000E+00     1.0000000000000000E+00     0.0000000000000000E+00 
    6.2499999999872928E-02     0.0000000000000000E+00     0.0000000000000000E+00 
    1.2499999999977310E-01     0.0000000000000000E+00     0.0000000000000000E+00 
    1.8749999999959341E-01     0.0000000000000000E+00     0.0000000000000000E+00 
    2.4999999999941089E-01     0.0000000000000000E+00     0.0000000000000000E+00 
    3.1249999999922851E-01     0.0000000000000000E+00     0.0000000000000000E+00 
    3.7499999999904610E-01     0.0000000000000000E+00     0.0000000000000000E+00 
    4.3749999999886358E-01     0.0000000000000000E+00     0.0000000000000000E+00 
    4.9999999999869210E-01     0.0000000000000000E+00     0.0000000000000000E+00 
    5.6249999999884603E-01     0.0000000000000000E+00     0.0000000000000000E+00 
    6.2499999999901090E-01     0.0000000000000000E+00     0.0000000000000000E+00 
    6.8749999999917577E-01     0.0000000000000000E+00     0.0000000000000000E+00 
    7.4999999999934064E-01     0.0000000000000000E+00     0.0000000000000000E+00 
    8.1249999999950551E-01     0.0000000000000000E+00     0.0000000000000000E+00 
    8.7499999999967026E-01     0.0000000000000000E+00     0.0000000000000000E+00 
    9.3749999999983513E-01     0.0000000000000000E+00     0.0000000000000000E+00 
    1.0000000000000000E+00     6.2499999999872928E-02     0.0000000000000000E+00 
    1.0000000000000000E+00     1.2499999999977310E-01     0.0000000000000000E+00 
    1.0000000000000000E+00     1.8749999999959341E-01     0.0000000000000000E+00 
    1.0000000000000000E+00     2.4999999999941089E-01     0.0000000000000000E+00 
    1.0000000000000000E+00     3.1249999999922851E-01     0.0000000000000000E+00 
    1.0000000000000000E+00     3.7499999999904610E-01     0.0000000000000000E+00 
    1.0000000000000000E+00     4.3749999999886358E-01     0.0000000000000000E+00 
    1.0000000000000000E+00     4.9999999999869210E-01     0.0000000000000000E+00 
    1.0000000000000000E+00     5.6249999999884603E-01     0.0000000000000000E+00 
    1.0000000000000000E+00     6.2499999999901090E-01     0.0000000000000000E+00 
    1.0000000000000000E+00     6.8749999999917577E-01     0.0000000000000000E+00 
    1.0000000000000000E+00     7.4999999999934064E-01     0.0000000000000000E+00 
    1.0000000000000000E+00     8.1249999999950551E-01     0.0000000000000000E+00 
    1.0000000000000000E+00     8.7499999999967026E-01     0.0000000000000000E+00 
    1.0000000000000000E+00     9.3749999999983513E-01     0.0000000000000000E+00 
    9.3749999999973976E-01     1.0000000000000000E+00     0.0000000000000000E+00 
    8.7499999999950118E-01     1.0000000000000000E+00     0.0000000000000000E+00 
    8.1249999999991318E-01     1.0000000000000000E+00     0.0000000000000000E+00 
    7.5000000000034706E-01     1.0000000000000000E+00     0.0000000000000000E+00 
    6.8750000000078049E-01     1.0000000000000000E+00     0.0000000000000000E+00 
    6.2500000000121403E-01     1.0000000000000000E+00     0.0000000000000000E+00 
    5.6250000000164757E-01     1.0000000000000000E+00     0.0000000000000000E+00 
    5.0000000000205946E-01     1.0000000000000000E+00     0.0000000000000000E+00 
    4.3750000000182099E-01     1.0000000000000000E+00     0.0000000000000000E+00 
    3.7500000000156092E-01     1.0000000000000000E+00     0.0000000000000000E+00 
    3.1250000000130068E-01     1.0000000000000000E+00     0.0000000000000000E+00 
    2.5000000000104050E-01     1.0000000000000000E+00     0.0000000000000000E+00 
    1.8750000000078040E-01     1.0000000000000000E+00     0.0000000000000000E+00 
    1.2500000000052031E-01     1.0000000000000000E+00     0.0000000000000000E+00 
    6.2500000000260125E-02     1.0000000000000000E+00     0.0000000000000000E+00 
    0.0000000000000000E+00     9.3749999999973976E-01     0.0000000000000000E+00 
    0.0000000000000000E+00     8.7499999999950118E-01     0.0000000000000000E+00 
    0.0000000000000000E+00     8.1249999999991318E-01     0.0000000000000000E+00 
    0.0000000000000000E+00     7.5000000000034706E-01     0.0000000000000000E+00 
    0.0000000000000000E+00     6.8750000000078049E-01     0.0000000000000000E+00 
    0.0000000000000000E+00     6.2500000000121403E-01     0.0000000000000000E+00 
    0.0000000000000000E+00     5.6250000000164757E-01     0.0000000000000000E+00 
    0.0000000000000000E+00     5.0000000000205946E-01     0.0000000000000000E+00 
    0.0000000000000000E+00     4.3750000000182099E-01     0.0000000000000000E+00 
    0.0000000000000000E+00     3.7500000000156092E-01     0.0000000000000000E+00 
    0.0000000000000000E+00     3.1250000000130068E-01     0.0000000000000000E+00 
    0.0000000000000000E+00     2.5000000000104050E-01     0.0000000000000000E+00 
    0.0000000000000000E+00     1.8750000000078040E-01     0.0000000000000000E+00 
    0.0000000000000000E+00     1.2500000000052031E-01     0.0000000000000000E+00 
    0.0000000000000000E+00     6.2500000000260125E-02     0.0000000000000000E+00 
    6.2499999999897131E-02     6.2500000000235922E-02     0.0000000000000000E+00 
    6.2499999999921327E-02     1.2500000000047351E-01     0.0000000000000000E+00 
    6.2499999999945530E-02     1.8750000000070621E-01     0.0000000000000000E+00 
    6.2499999999969733E-02     2.5000000000093858E-01     0.0000000000000000E+00 
    6.2499999999993928E-02     3.1250000000117117E-01     0.0000000000000000E+00 
    6.2500000000018124E-02     3.7500000000140382E-01     0.0000000000000000E+00 
    6.2500000000042327E-02     4.3750000000163619E-01     0.0000000000000000E+00 
    6.2500000000066530E-02     5.0000000000184897E-01     0.0000000000000000E+00 
    6.2500000000090733E-02     5.6250000000147260E-01     0.0000000000000000E+00 
    6.2500000000114922E-02     6.2500000000107636E-01     0.0000000000000000E+00 
    6.2500000000139125E-02     6.8750000000068034E-01     0.0000000000000000E+00 
    6.2500000000163328E-02     7.5000000000028411E-01     0.0000000000000000E+00 
    6.2500000000187531E-02     8.1249999999988787E-01     0.0000000000000000E+00 
    6.2500000000211720E-02     8.7499999999951172E-01     0.0000000000000000E+00 
    6.2500000000235922E-02     9.3749999999974565E-01     0.0000000000000000E+00 
    1.2499999999981980E-01     6.2500000000211733E-02     0.0000000000000000E+00 
    1.2499999999986650E-01     1.2500000000042691E-01     0.0000000000000000E+00 
    1.2499999999991319E-01     1.8750000000063199E-01     0.0000000000000000E+00 
    1.2499999999995989E-01     2.5000000000083678E-01     0.0000000000000000E+00 
    1.2500000000000661E-01     3.1250000000104172E-01     0.0000000000000000E+00 
    1.2500000000005329E-01     3.7500000000124661E-01     0.0000000000000000E+00 
    1.2500000000010000E-01     4.3750000000145117E-01     0.0000000000000000E+00 
    1.2500000000014669E-01     5.0000000000163858E-01     0.0000000000000000E+00 
    1.2500000000019340E-01     5.6250000000129741E-01     0.0000000000000000E+00 
    1.2500000000024011E-01     6.2500000000093847E-01     0.0000000000000000E+00 
    1.2500000000028680E-01     6.8750000000057998E-01     0.0000000000000000E+00 
    1.2500000000033351E-01     7.5000000000022127E-01     0.0000000000000000E+00 
    1.2500000000038020E-01     8.1249999999986211E-01     0.0000000000000000E+00 
    1.2500000000042691E-01     8.7499999999952238E-01     0.0000000000000000E+00 
    1.2500000000047359E-01     9.3749999999975164E-01     0.0000000000000000E+00 
    1.8749999999966760E-01     6.2500000000187531E-02     0.0000000000000000E+00 
    1.8749999999974179E-01     1.2500000000038020E-01     0.0000000000000000E+00 
    1.8749999999981601E-01     1.8750000000055780E-01     0.0000000000000000E+00 
    1.8749999999989009E-01     2.5000000000073502E-01     0.0000000000000000E+00 
    1.8749999999996431E-01     3.1250000000091221E-01     0.0000000000000000E+00 
    1.8750000000003850E-01     3.7500000000108941E-01     0.0000000000000000E+00 
    1.8750000000011269E-01     4.3750000000126649E-01     0.0000000000000000E+00 
    1.8750000000018691E-01     5.0000000000142808E-01     0.0000000000000000E+00 
    1.8750000000026110E-01     5.6250000000112244E-01     0.0000000000000000E+00 
    1.8750000000033529E-01     6.2500000000080080E-01     0.0000000000000000E+00 
    1.8750000000040951E-01     6.8750000000047962E-01     0.0000000000000000E+00 
    1.8750000000048361E-01     7.5000000000015843E-01     0.0000000000000000E+00 
    1.8750000000055780E-01     8.1249999999983680E-01     0.0000000000000000E+00 
    1.8750000000063199E-01     8.7499999999953304E-01     0.0000000000000000E+00 
    1.8750000000070621E-01     9.3749999999975764E-01     0.0000000000000000E+00 
    2.4999999999951281E-01     6.2500000000163314E-02     0.0000000000000000E+00 
    2.4999999999961461E-01     1.2500000000033351E-01     0.0000000000000000E+00 
    2.4999999999971650E-01     1.8750000000048361E-01     0.0000000000000000E+00 
    2.4999999999981831E-01     2.5000000000063310E-01     0.0000000000000000E+00 
    2.4999999999992020E-01     3.1250000000078260E-01     0.0000000000000000E+00 
    2.5000000000002198E-01     3.7500000000093209E-01     0.0000000000000000E+00 
    2.5000000000012390E-01     4.3750000000108180E-01     0.0000000000000000E+00 
    2.5000000000022571E-01     5.0000000000121769E-01     0.0000000000000000E+00 
    2.5000000000032763E-01     5.6250000000094724E-01     0.0000000000000000E+00 
    2.5000000000042938E-01     6.2500000000066314E-01     0.0000000000000000E+00 
    2.5000000000053119E-01     6.8750000000037925E-01     0.0000000000000000E+00 
[...]
CELL_DATA 256 
SCALARS Pressure double 1 
LOOKUP_TABLE default 

    1.5369691494994029E+00 
    1.2914570374369523E+00 
    1.1418651711581214E+00 
    1.0382355531949674E+00 
    9.5942995379428375E-01 
    8.9590831022086648E-01 
    8.4303838030594769E-01 
    7.9828854949422201E-01 
    7.5992746712060555E-01 
    7.2578444803090569E-01 
    6.9956632729361001E-01 
    6.8670732030011983E-01 
    6.7958975013605449E-01 
    6.7548853782080187E-01 
    6.7357715742545832E-01 
    6.7306179652563847E-01 
    1.2914616416742946E+00 
    1.2414639159252367E+00 
    1.1454705476074691E+00 
    1.0553947216888742E+00 
    9.7877476999434943E-01 
    9.1420517518523481E-01 
    8.5941163481071714E-01 
    8.1258638408545625E-01 
    7.7229831574765251E-01 
    7.3676843143273762E-01 
    7.0574188407665039E-01 
    6.8899781509340918E-01 
    6.8035208225974153E-01 
    6.7539368599737115E-01 
    6.7306707708826496E-01 
    6.7254794506192328E-01 
    1.1418742337272518E+00 
    1.1454753593059732E+00 
    1.1028537429717162E+00 
    1.0416359424022583E+00 
    9.7829893490893938E-01 
    9.1921263760280769E-01 
    8.6621326486456351E-01 
    8.1946095489095450E-01 
    7.7853591705159730E-01 
    7.4246395966891998E-01 
    7.0944206701682677E-01 
    6.8827883446099147E-01 
    6.7844472723963178E-01 
    6.7308615796373916E-01 
    6.7075570640955362E-01 
    6.7063467085312012E-01 
    1.0382486348426687E+00 
    1.0554035532054771E+00 
    1.0416400145582716E+00 
    1.0058755150715066E+00 
    9.5940848444632598E-01 
    9.1007596809746050E-01 
    8.6217394266426650E-01 
    8.1776235305949596E-01 
    7.7770010752584007E-01 
    7.4198580414241366E-01 
    7.0921970088215858E-01 
    6.8399056147334381E-01 
    6.7292765585389780E-01 
    6.6770579619227421E-01 
    6.6582169250042122E-01 
    6.6651295941118927E-01 
    9.5944434413232882E-01 
    9.7878509366484212E-01 
    9.7830462516035899E-01 
    9.5941060491740238E-01 
    9.2763007122770813E-01 
    8.8889866744447210E-01 
    8.4779002921462976E-01 
    8.0733732896667043E-01 
    7.6939254146562008E-01 
    7.3484791818922690E-01 
    7.0322238505705559E-01 
    6.7527512992660044E-01 
    6.6302464521436855E-01 
    6.5845490435102494E-01 
    6.5746703524174144E-01 
    6.5938450395448889E-01 
    8.9592189758691732E-01 
    9.1421538790131540E-01 
    9.1921842426075917E-01 
    9.1007829010529051E-01 
    8.8889902365064799E-01 
    8.5930237278891974E-01 
    8.2499915601867890E-01 
    7.8908801088522529E-01 
    7.5389691938781545E-01 
    7.2095308227402044E-01 
    6.9058750635756283E-01 
    6.6177887088780463E-01 
    6.4845564260732602E-01 
    6.4471342872943427E-01 
    6.4496508519036522E-01 
    6.4848841100197541E-01 
    8.4305373362192659E-01 
    8.5942468161055474E-01 
    8.6622296715924474E-01 
    8.6217937263518341E-01 
    8.4779241170255049E-01 
    8.2500029432384336E-01 
    7.9641204650887187E-01 
    7.6468426971106562E-01 
    7.3218783374963470E-01 
    7.0081529673141052E-01 
    6.7153348423000137E-01 
    6.4320962072360688E-01 
    6.2878500894671030E-01 
    6.2585107417586927E-01 
    6.2761422326492511E-01 
    6.3308960191548136E-01 
    7.9831248448113112E-01 
    8.1260907890264344E-01 
    8.1948243731058690E-01 
    8.1777840843591565E-01 
    8.0734700126299597E-01 
    7.8909292411535270E-01 
    7.6468502428975882E-01 
    7.3618416542009379E-01 
    7.0575563668772712E-01 
    6.7544255335552628E-01 
    6.4670860587532242E-01 
    6.1903302572624108E-01 
    6.0330853037352350E-01 
    6.0107755570783572E-01 
    6.0465632962934612E-01 
    6.1243158121824282E-01 
    7.5996938894394928E-01 
    7.7233811475502079E-01 
    7.7857581212555238E-01 
    7.7773085829832678E-01 
    7.6941159450386520E-01 
    7.5390683807507564E-01 
    7.3218786878160835E-01 
    7.0575015803352292E-01 
    6.7642936645789342E-01 
    6.4624584056263656E-01 
    6.1702203999684935E-01 
    5.8903298504591894E-01 
    5.7145977752761890E-01 
    5.6968120724098359E-01 
    5.7530352921728711E-01 
    5.8571364965851525E-01 
    7.2586689248767444E-01 
    7.3681975074995021E-01 
    7.4250883810461721E-01 
    7.4202296371575183E-01 
    7.3487650515799308E-01 
    7.2097096817188300E-01 
    7.0081514727682970E-01 
    6.7542778442203244E-01 
    6.4623440957832157E-01 
    6.1504252166972329E-01 
    5.8385152795481754E-01 
    5.5371065891082549E-01 
    5.3344589153682376E-01 
    5.3140333270554962E-01 
    5.3883112107519116E-01 
    5.5208579608003128E-01 
    6.9958356522898257E-01 
    7.0576947668498946E-01 
    7.0946769364155038E-01 
    7.0924765995764938E-01 
    7.0326460250948508E-01 
    6.9062973904360536E-01 
    6.7154017591066695E-01 
    6.4667318268715823E-01 
    6.1698871041654979E-01 
    5.8385143960252384E-01 
    5.4913219334122432E-01 
    5.1422147236284532E-01 
    4.9022488599115260E-01 
    4.8631403075641716E-01 
    4.9448937571928225E-01 
    5.1051638444565617E-01 
    6.8670985850950761E-01 
    6.8900884731297118E-01 
    6.8831009734799642E-01 
    6.8402785139045241E-01 
    6.7534316078638645E-01 
    6.6190174698702176E-01 
    6.4331398008715956E-01 
    6.1900962235733015E-01 
    5.8894788360028749E-01 
    5.5369942396929062E-01 
    5.1428573185519477E-01 
    4.7347935550326936E-01 
    4.4489719539828920E-01 
    4.3564789795608966E-01 
    4.4151328744143054E-01 
    4.5945845880013209E-01 
    6.7959928839518879E-01 
    6.8036505769427869E-01 
    6.7846771792516691E-01 
    6.7295867001910481E-01 
    6.6306548986356584E-01 
    6.4851062516826108E-01 
    6.2880203079904529E-01 
    6.0323105137847366E-01 
    5.7136518976371842E-01 
    5.3345304759346401E-01 
    4.9029174430466399E-01 
    4.4490497078548824E-01 
    4.0697239165183441E-01 
    3.8425681302935449E-01 
    3.7955422123830229E-01 
    3.9607068473301682E-01 
    6.7550042212532169E-01 
    6.7540679917120428E-01 
    6.7310331803311219E-01 
    6.6772705665218379E-01 
    6.5847905582045063E-01 
    6.4473709902231657E-01 
    6.2584526912531857E-01 
    6.0100072097009227E-01 
    5.6958207308619035E-01 
    5.3138475643622329E-01 
    4.8635746313635192E-01 
    4.3566060416243063E-01 
    3.8423008159363198E-01 
    3.3897490976988881E-01 
    3.0867595791512858E-01 
    3.1360534613925672E-01 
    6.7358989303937433E-01 
    6.7308032809214380E-01 
    6.7077063673811543E-01 
    6.6583840367116698E-01 
    6.5748403296931801E-01 
    6.4497860222661674E-01 
    6.2761182895021106E-01 
    6.0462076974427148E-01 
    5.7524684841663709E-01 
    5.3879573519225898E-01 
    4.9448862525397869E-01 
    4.4151872056808372E-01 
    3.7954744246583044E-01 
    3.0867139114597036E-01 
    2.3390108746003549E-01 
    1.9515841299483624E-01 
    6.7307474438165982E-01 
    6.7256118814031807E-01 
    6.7064882914897672E-01 
    6.6652814377356395E-01 
    6.5939956212883444E-01 
    6.4850021288235993E-01 
    6.3309064426372619E-01 
    6.1241176822110865E-01 
    5.8567546711784257E-01 
    5.5205043507840590E-01 
    5.1049985399428111E-01 
    4.5945438745748751E-01 
    3.9606648794611066E-01 
    3.1360111767816978E-01 
    1.9515647635130892E-01 
    0.0000000000000000E+00 

SCALARS Saturarion double 1 
LOOKUP_TABLE default 

    1.0000000000000000E+00 
    9.9568635601871103E-01 
    9.8718377457703999E-01 
    9.7150696141033754E-01 
    9.4907421475269294E-01 
    9.2402811409301544E-01 
    8.9759737386370331E-01 
    8.6950168174167830E-01 
    8.3314626047236251E-01 
    7.4152154584656460E-01 
    2.1129279923334576E-01 
    1.0048143902551801E-06 
    1.0000000002180197E-06 
    9.9999999999999995E-07 
    9.9999999999999995E-07 
    9.9999999999999995E-07 
    9.9568098670199945E-01 
    9.9185511883250144E-01 
    9.8394707598564735E-01 
    9.7046167820418527E-01 
    9.5092989009984119E-01 
    9.2790233787803689E-01 
    9.0271198214374970E-01 
    8.7549975045918127E-01 
    8.4176989517452583E-01 
    7.7763733497318477E-01 
    4.7467777174855330E-01 
    4.3736142606193495E-03 
    1.0632498536748785E-06 
    1.0000000014584361E-06 
    9.9999999999999995E-07 
    9.9999999999999995E-07 
    9.8717030238964676E-01 
    9.8394006138421231E-01 
    9.7625984545385902E-01 
    9.6456796288820501E-01 
    9.4827658977384477E-01 
    9.2832870287571378E-01 
    9.0549495742347808E-01 
    8.7943526945167172E-01 
    8.4808092525794565E-01 
    8.0451954016434457E-01 
    6.6039968580937203E-01 
    9.7716556626749954E-02 
    6.4768477027901962E-05 
    1.0000927727553469E-06 
    9.9999999999999995E-07 
    9.9999999999999995E-07 
    9.7147842445984822E-01 
    9.7044216367908798E-01 
    9.6455694687475446E-01 
    9.5427179509946558E-01 
    9.4060658112869644E-01 
    9.2360692245114195E-01 
    9.0352179930482535E-01 
    8.8018075928917838E-01 
    8.5440088396148428E-01 
    8.1923863064769342E-01 
    7.2980645572295610E-01 
    2.6410000766683506E-01 
    1.1102033899721897E-04 
    1.0012015591596359E-06 
    1.0000000000001545E-06 
    9.9999999999999995E-07 
    9.4898290721028788E-01 
    9.5087582008726590E-01 
    9.4824510056260880E-01 
    9.4058206198880745E-01 
    9.2930031113244227E-01 
    9.1502316408897189E-01 
    8.9796137829250833E-01 
    8.7852347306374934E-01 
    8.5698169670530011E-01 
    8.2846139028376298E-01 
    7.6544072665806562E-01 
    4.1843302981089892E-01 
    2.8557018964538031E-03 
    1.0608409787220067E-06 
    1.0000000017275165E-06 
    9.9999999999999995E-07 
    9.2386739615171876E-01 
    9.2783048554448222E-01 
    9.2831460668589394E-01 
    9.2358587835697381E-01 
    9.1501006294764098E-01 
    9.0357122197047635E-01 
    8.8979885236339940E-01 
    8.7413243727165002E-01 
    8.5591501672549497E-01 
    8.3135164979990184E-01 
    7.8354354110099766E-01 
    5.6617712864816472E-01 
    2.2980095807036124E-02 
    3.9203147410505886E-06 
    1.0000002238901878E-06 
    9.9999999999999995E-07 
    8.9745692786141906E-01 
    9.0266430725434355E-01 
    9.0553415698303041E-01 
    9.0357036458333817E-01 
    8.9800245631899711E-01 
    8.8983056160985285E-01 
    8.7944690471309606E-01 
    8.6689812584689097E-01 
    8.5166365454212500E-01 
    8.3169548480691513E-01 
    7.9381132798839549E-01 
    6.5013488850072632E-01 
    8.1408427606743411E-02 
    2.0397906887466512E-05 
    1.0000083108859099E-06 
    9.9999999999999995E-07 
    8.6950325991061517E-01 
    8.7555376499798721E-01 
    8.7952153975746250E-01 
    8.8029847818763907E-01 
    8.7866164029873595E-01 
    8.7419487828337372E-01 
    8.6689865010155165E-01 
    8.5704088439339421E-01 
    8.4481179997644074E-01 
    8.2911333854419855E-01 
    7.9948454022391569E-01 
    6.9310190603607291E-01 
    1.6527461225939605E-01 
    3.1831047935110715E-05 
    1.0000120142814150E-06 
    1.0000000000001230E-06 
    8.3348982170616348E-01 
    8.4197697220735701E-01 
    8.4814859500141782E-01 
    8.5441191513488202E-01 
    8.5703494295179961E-01 
    8.5595659960945958E-01 
    8.5165815813081458E-01 
    8.4481967171022798E-01 
    8.3585289813328323E-01 
    8.2369626912843708E-01 
    8.0060095872521386E-01 
    7.2014494207429081E-01 
    2.3441064247153204E-01 
    1.0416477072948356E-05 
    1.0000016088754146E-06 
    1.0000000000000880E-06 
    7.4363984601633182E-01 
    7.7725842256082900E-01 
    8.0370086753801007E-01 
    8.1857895483150478E-01 
    8.2848388661884553E-01 
    8.3157436510002392E-01 
    8.3168670725350857E-01 
    8.2911933967212614E-01 
    8.2380611593480069E-01 
    8.1516930693469047E-01 
    7.9689144198948547E-01 
    7.3371708040062156E-01 
    2.9369222061272948E-01 
    1.8743563825727768E-05 
    1.0000024904635937E-06 
    1.0000000000000137E-06 
    2.1793352249475850E-01 
    4.6763513329003192E-01 
    6.5670711089415779E-01 
    7.2907852714365884E-01 
    7.6547984727715401E-01 
    7.8391513174510274E-01 
    7.9392763168421976E-01 
    7.9937812401057540E-01 
    8.0048511337088502E-01 
    7.9701525200970724E-01 
    7.8452509085607181E-01 
    7.3413751712583919E-01 
    3.2316536769420107E-01 
    2.9182432349451731E-05 
    1.0000273915170798E-06 
    1.0000000000021008E-06 
    1.0052451331124022E-06 
    3.6926547669605138E-03 
    9.6327993619839611E-02 
    2.6381182634883615E-01 
    4.1687958143845261E-01 
    5.6799940096228507E-01 
    6.5400072944205878E-01 
    6.9654264096227503E-01 
    7.2121801423251186E-01 
    7.3354366498814705E-01 
    7.3389865816804001E-01 
    6.9662743237177616E-01 
    2.9513059252591967E-01 
    1.6601960930573179E-04 
    1.0007576640596233E-06 
    1.0000000000187901E-06 
    1.0000000002142019E-06 
    1.0466628876559449E-06 
    6.9659293698373623E-05 
    1.1906419838265446E-04 
    2.6383092827334644E-03 
    2.4728862614191015E-02 
    9.0451872335890068E-02 
    1.7326779307062118E-01 
    2.3305792606498613E-01 
    2.8784833643064450E-01 
    3.2160572739005894E-01 
    2.9920211156388743E-01 
    4.5312514332341867E-02 
    1.7955792223190969E-05 
    1.0000046907274006E-06 
    9.9999999999999995E-07 
    9.9999999999999995E-07 
    1.0000000010893525E-06 
    1.0001055103880244E-06 
    1.0014040956880874E-06 
    1.0516503635644080E-06 
    4.6422070988826146E-06 
    2.5277512207291882E-05 
    2.9811249005292815E-05 
    6.1570394585658030E-06 
    1.6530312838582895E-05 
    3.1865453785624766E-05 
    1.7261623697460349E-04 
    1.8041980706763911E-05 
    1.0000156760436411E-06 
    1.0000000000005118E-06 
    9.9999999999999995E-07 
    9.9999999999999995E-07 
    9.9999999999999995E-07 
    9.9999999999999995E-07 
    1.0000000000001691E-06 
    1.0000000014557898E-06 
    1.0000003170517854E-06 
    1.0000129977563055E-06 
    1.0000115701149220E-06 
    1.0000006474214036E-06 
    1.0000016481981149E-06 
    1.0000307425012026E-06 
    1.0008214440574414E-06 
    1.0000047445216520E-06 
    1.0000000000005183E-06 
    9.9999999999999995E-07 
    9.9999999999999995E-07 
    9.9999999999999995E-07 
    9.9999999999999995E-07 
    9.9999999999999995E-07 
    9.9999999999999995E-07 
    9.9999999999999995E-07 
    9.9999999999999995E-07 
    9.9999999999999995E-07 
    1.0000000000002024E-06 
    1.0000000000000247E-06 
    1.0000000000000154E-06 
    1.0000000000022501E-06 
    1.0000000000205418E-06 
    9.9999999999999995E-07 
    9.9999999999999995E-07 
    9.9999999999999995E-07 
    1.0000000912489489E-06 
