# vtk DataFile Version 2.0
Pressure Field Data 
ASCII 
DATASET UNSTRUCTURED_GRID 

POINTS 289 double 

    0.0000000000000000E+00     0.0000000000000000E+00     0.0000000000000000E+00 
    1.0000000000000000E+00     0.0000000000000000E+00     0.0000000000000000E+00 
    1.0000000000000000E+00     1.0000000000000000E+00     0.0000000000000000E+00 
    0.0000000000000000E+00     1.0000000000000000E+00     0.0000000000000000E+00 
    6.2499999999872928E-02     0.0000000000000000E+00     0.0000000000000000E+00 
    1.2499999999977310E-01     0.0000000000000000E+00     0.0000000000000000E+00 
    1.8749999999959341E-01     0.0000000000000000E+00     0.0000000000000000E+00 
    2.4999999999941089E-01     0.0000000000000000E+00     0.0000000000000000E+00 
    3.1249999999922851E-01     0.0000000000000000E+00     0.0000000000000000E+00 
    3.7499999999904610E-01     0.0000000000000000E+00     0.0000000000000000E+00 
    4.3749999999886358E-01     0.0000000000000000E+00     0.0000000000000000E+00 
    4.9999999999869210E-01     0.0000000000000000E+00     0.0000000000000000E+00 
    5.6249999999884603E-01     0.0000000000000000E+00     0.0000000000000000E+00 
    6.2499999999901090E-01     0.0000000000000000E+00     0.0000000000000000E+00 
    6.8749999999917577E-01     0.0000000000000000E+00     0.0000000000000000E+00 
    7.4999999999934064E-01     0.0000000000000000E+00     0.0000000000000000E+00 
    8.1249999999950551E-01     0.0000000000000000E+00     0.0000000000000000E+00 
    8.7499999999967026E-01     0.0000000000000000E+00     0.0000000000000000E+00 
    9.3749999999983513E-01     0.0000000000000000E+00     0.0000000000000000E+00 
    1.0000000000000000E+00     6.2499999999872928E-02     0.0000000000000000E+00 
    1.0000000000000000E+00     1.2499999999977310E-01     0.0000000000000000E+00 
    1.0000000000000000E+00     1.8749999999959341E-01     0.0000000000000000E+00 
    1.0000000000000000E+00     2.4999999999941089E-01     0.0000000000000000E+00 
    1.0000000000000000E+00     3.1249999999922851E-01     0.0000000000000000E+00 
    1.0000000000000000E+00     3.7499999999904610E-01     0.0000000000000000E+00 
    1.0000000000000000E+00     4.3749999999886358E-01     0.0000000000000000E+00 
    1.0000000000000000E+00     4.9999999999869210E-01     0.0000000000000000E+00 
    1.0000000000000000E+00     5.6249999999884603E-01     0.0000000000000000E+00 
    1.0000000000000000E+00     6.2499999999901090E-01     0.0000000000000000E+00 
    1.0000000000000000E+00     6.8749999999917577E-01     0.0000000000000000E+00 
    1.0000000000000000E+00     7.4999999999934064E-01     0.0000000000000000E+00 
    1.0000000000000000E+00     8.1249999999950551E-01     0.0000000000000000E+00 
    1.0000000000000000E+00     8.7499999999967026E-01     0.0000000000000000E+00 
    1.0000000000000000E+00     9.3749999999983513E-01     0.0000000000000000E+00 
    9.3749999999973976E-01     1.0000000000000000E+00     0.0000000000000000E+00 
    8.7499999999950118E-01     1.0000000000000000E+00     0.0000000000000000E+00 
    8.1249999999991318E-01     1.0000000000000000E+00     0.0000000000000000E+00 
    7.5000000000034706E-01     1.0000000000000000E+00     0.0000000000000000E+00 
    6.8750000000078049E-01     1.0000000000000000E+00     0.0000000000000000E+00 
    6.2500000000121403E-01     1.0000000000000000E+00     0.0000000000000000E+00 
    5.6250000000164757E-01     1.0000000000000000E+00     0.0000000000000000E+00 
    5.0000000000205946E-01     1.0000000000000000E+00     0.0000000000000000E+00 
    4.3750000000182099E-01     1.0000000000000000E+00     0.0000000000000000E+00 
    3.7500000000156092E-01     1.0000000000000000E+00     0.0000000000000000E+00 
    3.1250000000130068E-01     1.0000000000000000E+00     0.0000000000000000E+00 
    2.5000000000104050E-01     1.0000000000000000E+00     0.0000000000000000E+00 
    1.8750000000078040E-01     1.0000000000000000E+00     0.0000000000000000E+00 
    1.2500000000052031E-01     1.0000000000000000E+00     0.0000000000000000E+00 
    6.2500000000260125E-02     1.0000000000000000E+00     0.0000000000000000E+00 
    0.0000000000000000E+00     9.3749999999973976E-01     0.0000000000000000E+00 
    0.0000000000000000E+00     8.7499999999950118E-01     0.0000000000000000E+00 
    0.0000000000000000E+00     8.1249999999991318E-01     0.0000000000000000E+00 
    0.0000000000000000E+00     7.5000000000034706E-01     0.0000000000000000E+00 
    0.0000000000000000E+00     6.8750000000078049E-01     0.0000000000000000E+00 
    0.0000000000000000E+00     6.2500000000121403E-01     0.0000000000000000E+00 
    0.0000000000000000E+00     5.6250000000164757E-01     0.0000000000000000E+00 
    0.0000000000000000E+00     5.0000000000205946E-01     0.0000000000000000E+00 
    0.0000000000000000E+00     4.3750000000182099E-01     0.0000000000000000E+00 
    0.0000000000000000E+00     3.7500000000156092E-01     0.0000000000000000E+00 
    0.0000000000000000E+00     3.1250000000130068E-01     0.0000000000000000E+00 
    0.0000000000000000E+00     2.5000000000104050E-01     0.0000000000000000E+00 
    0.0000000000000000E+00     1.8750000000078040E-01     0.0000000000000000E+00 
    0.0000000000000000E+00     1.2500000000052031E-01     0.0000000000000000E+00 
    0.0000000000000000E+00     6.2500000000260125E-02     0.0000000000000000E+00 
    6.2499999999897131E-02     6.2500000000235922E-02     0.0000000000000000E+00 
    6.2499999999921327E-02     1.2500000000047351E-01     0.0000000000000000E+00 
    6.2499999999945530E-02     1.8750000000070621E-01     0.0000000000000000E+00 
    6.2499999999969733E-02     2.5000000000093858E-01     0.0000000000000000E+00 
    6.2499999999993928E-02     3.1250000000117117E-01     0.0000000000000000E+00 
    6.2500000000018124E-02     3.7500000000140382E-01     0.0000000000000000E+00 
    6.2500000000042327E-02     4.3750000000163619E-01     0.0000000000000000E+00 
    6.2500000000066530E-02     5.0000000000184897E-01     0.0000000000000000E+00 
    6.2500000000090733E-02     5.6250000000147260E-01     0.0000000000000000E+00 
    6.2500000000114922E-02     6.2500000000107636E-01     0.0000000000000000E+00 
    6.2500000000139125E-02     6.8750000000068034E-01     0.0000000000000000E+00 
    6.2500000000163328E-02     7.5000000000028411E-01     0.0000000000000000E+00 
    6.2500000000187531E-02     8.1249999999988787E-01     0.0000000000000000E+00 
    6.2500000000211720E-02     8.7499999999951172E-01     0.0000000000000000E+00 
    6.2500000000235922E-02     9.3749999999974565E-01     0.0000000000000000E+00 
    1.2499999999981980E-01     6.2500000000211733E-02     0.0000000000000000E+00 
    1.2499999999986650E-01     1.2500000000042691E-01     0.0000000000000000E+00 
    1.2499999999991319E-01     1.8750000000063199E-01     0.0000000000000000E+00 
    1.2499999999995989E-01     2.5000000000083678E-01     0.0000000000000000E+00 
    1.2500000000000661E-01     3.1250000000104172E-01     0.0000000000000000E+00 
    1.2500000000005329E-01     3.7500000000124661E-01     0.0000000000000000E+00 
    1.2500000000010000E-01     4.3750000000145117E-01     0.0000000000000000E+00 
    1.2500000000014669E-01     5.0000000000163858E-01     0.0000000000000000E+00 
    1.2500000000019340E-01     5.6250000000129741E-01     0.0000000000000000E+00 
    1.2500000000024011E-01     6.2500000000093847E-01     0.0000000000000000E+00 
    1.2500000000028680E-01     6.8750000000057998E-01     0.0000000000000000E+00 
    1.2500000000033351E-01     7.5000000000022127E-01     0.0000000000000000E+00 
    1.2500000000038020E-01     8.1249999999986211E-01     0.0000000000000000E+00 
    1.2500000000042691E-01     8.7499999999952238E-01     0.0000000000000000E+00 
    1.2500000000047359E-01     9.3749999999975164E-01     0.0000000000000000E+00 
    1.8749999999966760E-01     6.2500000000187531E-02     0.0000000000000000E+00 
    1.8749999999974179E-01     1.2500000000038020E-01     0.0000000000000000E+00 
    1.8749999999981601E-01     1.8750000000055780E-01     0.0000000000000000E+00 
    1.8749999999989009E-01     2.5000000000073502E-01     0.0000000000000000E+00 
    1.8749999999996431E-01     3.1250000000091221E-01     0.0000000000000000E+00 
    1.8750000000003850E-01     3.7500000000108941E-01     0.0000000000000000E+00 
    1.8750000000011269E-01     4.3750000000126649E-01     0.0000000000000000E+00 
    1.8750000000018691E-01     5.0000000000142808E-01     0.0000000000000000E+00 
    1.8750000000026110E-01     5.6250000000112244E-01     0.0000000000000000E+00 
    1.8750000000033529E-01     6.2500000000080080E-01     0.0000000000000000E+00 
    1.8750000000040951E-01     6.8750000000047962E-01     0.0000000000000000E+00 
    1.8750000000048361E-01     7.5000000000015843E-01     0.0000000000000000E+00 
    1.8750000000055780E-01     8.1249999999983680E-01     0.0000000000000000E+00 
    1.8750000000063199E-01     8.7499999999953304E-01     0.0000000000000000E+00 
    1.8750000000070621E-01     9.3749999999975764E-01     0.0000000000000000E+00 
    2.4999999999951281E-01     6.2500000000163314E-02     0.0000000000000000E+00 
    2.4999999999961461E-01     1.2500000000033351E-01     0.0000000000000000E+00 
    2.4999999999971650E-01     1.8750000000048361E-01     0.0000000000000000E+00 
    2.4999999999981831E-01     2.5000000000063310E-01     0.0000000000000000E+00 
    2.4999999999992020E-01     3.1250000000078260E-01     0.0000000000000000E+00 
    2.5000000000002198E-01     3.7500000000093209E-01     0.0000000000000000E+00 
    2.5000000000012390E-01     4.3750000000108180E-01     0.0000000000000000E+00 
    2.5000000000022571E-01     5.0000000000121769E-01     0.0000000000000000E+00 
    2.5000000000032763E-01     5.6250000000094724E-01     0.0000000000000000E+00 
    2.5000000000042938E-01     6.2500000000066314E-01     0.0000000000000000E+00 
    2.5000000000053119E-01     6.8750000000037925E-01     0.0000000000000000E+00 
[...]
CELL_DATA 256 
SCALARS Pressure double 1 
LOOKUP_TABLE default 

    1.4988298122213892E+00 
    1.2526456610972028E+00 
    1.1017549267055002E+00 
    9.9617775562930977E-01 
    9.1492856183850435E-01 
    8.4870540564762176E-01 
    7.9294202091304677E-01 
    7.4469143735900356E-01 
    7.0027680941510517E-01 
    6.7148745437367074E-01 
    6.5654068236841856E-01 
    6.4692009237172465E-01 
    6.4067721796556376E-01 
    6.3707387678906102E-01 
    6.3539789857475548E-01 
    6.3494622735041339E-01 
    1.2526498071638774E+00 
    1.2024944226477863E+00 
    1.1055648046511348E+00 
    1.0138523688266239E+00 
    9.3503097071422581E-01 
    8.6793273819182748E-01 
    8.1039054081779038E-01 
    7.6030874829572770E-01 
    7.1463586190741735E-01 
    6.7814243045966827E-01 
    6.5971726037266232E-01 
    6.4857654381804852E-01 
    6.4126962377690355E-01 
    6.3696853794827635E-01 
    6.3494519829347007E-01 
    6.3449426238585094E-01 
    1.1017616536775909E+00 
    1.1055680518991695E+00 
    1.0623922486658079E+00 
    9.9988209930533967E-01 
    9.3464264622490312E-01 
    8.7325232063529701E-01 
    8.1768001787018341E-01 
    7.6798719077341071E-01 
    7.2272151269837537E-01 
    6.8151396593042934E-01 
    6.5944764571533554E-01 
    6.4741762973927697E-01 
    6.3951973643377824E-01 
    6.3491724804976257E-01 
    6.3291323451141623E-01 
    6.3281703820486412E-01 
    9.9618261529124852E-01 
    1.0138550408923142E+00 
    9.9988238003219765E-01 
    9.6317810446735408E-01 
    9.1514100360216588E-01 
    8.6377814116424712E-01 
    8.1353792302371186E-01 
    7.6648773649609725E-01 
    7.2279015882233599E-01 
    6.8063959269541929E-01 
    6.5534511684526664E-01 
    6.4270428331014529E-01 
    6.3469609496964607E-01 
    6.3020968607691430E-01 
    6.2860286170925794E-01 
    6.2921777870734841E-01 
    9.1492657206931194E-01 
    9.3502807623250750E-01 
    9.3463902634708407E-01 
    9.1513889846207208E-01 
    8.8213805459698225E-01 
    8.4171701870111948E-01 
    7.9858611100519250E-01 
    7.5580012999796009E-01 
    7.1472083206882087E-01 
    6.7415346926497610E-01 
    6.4673613541313701E-01 
    6.3370831638790492E-01 
    6.2611134662035384E-01 
    6.2216530095762612E-01 
    6.2133380229883095E-01 
    6.2301287251962123E-01 
    8.4869706482771790E-01 
    8.6792587257837783E-01 
    8.7324693212216142E-01 
    8.6377639806775219E-01 
    8.4171859530694604E-01 
    8.1081332795092498E-01 
    7.7485417577267224E-01 
    7.3693165478140288E-01 
    6.9898177375673132E-01 
    6.6066656860216633E-01 
    6.3276623068680060E-01 
    6.1980767094764122E-01 
    6.1316427611631652E-01 
    6.1015909158739146E-01 
    6.1046015242769947E-01 
    6.1354327281300780E-01 
    7.9293329434416582E-01 
    8.1038719556992245E-01 
    8.1768152588693011E-01 
    8.1354371084674737E-01 
    7.9859598296324141E-01 
    7.7486187080936109E-01 
    7.4498711911945537E-01 
    7.1159854327868866E-01 
    6.7667047127366775E-01 
    6.4004280429012261E-01 
    6.1335299144198963E-01 
    6.0105481475368683E-01 
    5.9553527669720496E-01 
    5.9368806269831553E-01 
    5.9539202580680439E-01 
    6.0018530349761356E-01 
    7.4468521473475768E-01 
    7.6031065432470368E-01 
    7.6799639362578542E-01 
    7.6649870470607273E-01 
    7.5581955851919758E-01 
    7.3695227026306742E-01 
    7.1160962164631314E-01 
    6.8184230651406164E-01 
    6.4944343379930936E-01 
    6.1372471663293082E-01 
    5.8935733885528097E-01 
    5.7800825261981059E-01 
    5.7322458514213193E-01 
    5.7239745018533728E-01 
    5.7559408425622316E-01 
    5.8234363190672023E-01 
    7.0025878540081232E-01 
    7.1460720320588511E-01 
    7.2271765701230350E-01 
    7.2279773119855106E-01 
    7.1474598886042551E-01 
    6.9902316049693880E-01 
    6.7670718672579822E-01 
    6.4946173405937935E-01 
    6.1814041856695012E-01 
    5.8479009800540716E-01 
    5.6280299481607610E-01 
    5.5175577317305924E-01 
    5.4654224907918691E-01 
    5.4605018228995184E-01 
    5.5053054388431522E-01 
    5.5939816254951136E-01 
    6.7152234452375048E-01 
    6.7817784988407492E-01 
    6.8155996045522160E-01 
    6.8068122520202201E-01 
    6.7417902312942157E-01 
    6.6072024488742087E-01 
    6.4015244038992392E-01 
    6.1381000367217631E-01 
    5.8481664667642375E-01 
    5.5682890791444284E-01 
    5.3621962988636085E-01 
    5.2369460724479355E-01 
    5.1604735206278307E-01 
    5.1445062535829178E-01 
    5.1953629716339778E-01 
    5.3057060373056641E-01 
    6.5657549917959890E-01 
    6.5975752883784278E-01 
    6.5949614921289024E-01 
    6.5537179859145500E-01 
    6.4675326124309862E-01 
    6.3279866679303076E-01 
    6.1340496361520891E-01 
    5.8938011490698705E-01 
    5.6278584288784317E-01 
    5.3620372428830010E-01 
    5.1322796797422254E-01 
    4.9545450747035841E-01 
    4.8258740914463066E-01 
    4.7740846292290062E-01 
    4.8161653542296146E-01 
    4.9466396414022762E-01 
    6.4695038988928844E-01 
    6.4860817697865880E-01 
    6.4744925212446069E-01 
    6.4272386222868938E-01 
    6.3371460512063649E-01 
    6.1982441220457141E-01 
    6.0108408794350843E-01 
    5.7800877415382179E-01 
    5.5171491801326666E-01 
    5.2366031689102888E-01 
    4.9544117580179836E-01 
    4.6921788297037770E-01 
    4.4769129140314168E-01 
    4.3496599639691580E-01 
    4.3523338015102042E-01 
    4.4958212371482248E-01 
    6.4070494877602302E-01 
    6.4129771095339194E-01 
    6.3954705486192165E-01 
    6.3471825041910290E-01 
    6.2612610247092926E-01 
    6.1317811564326463E-01 
    5.9555139973426485E-01 
    5.7323080530106019E-01 
    5.4652908840712811E-01 
    5.1602721767797544E-01 
    4.8257284501039222E-01 
    4.4768504378409424E-01 
    4.1433034295686666E-01 
    3.8829313681118632E-01 
    3.7831032748225119E-01 
    3.9138278778862068E-01 
    6.3710015934167452E-01 
    6.3699477880922273E-01 
    6.3494259050433355E-01 
    6.3023216553788741E-01 
    6.2218326868189533E-01 
    6.1017380693921719E-01 
    5.9370094579113797E-01 
    5.7240504061586783E-01 
    5.4604793864772494E-01 
    5.1444108983085990E-01 
    4.7739794522414492E-01 
    4.3495864331773265E-01 
    3.8828990099068250E-01 
    3.4215475114626975E-01 
    3.0947650698714135E-01 
    3.1219287134102836E-01 
    6.3542351781363937E-01 
    6.3497061794075083E-01 
    6.3293780338307881E-01 
    6.2862545647128476E-01 
    6.2135325802272634E-01 
    6.1047626537730437E-01 
    5.9540505079771533E-01 
    5.7560287866171145E-01 
    5.5053312641212226E-01 
    5.1953295046420778E-01 
    4.8161012635674039E-01 
    4.3522708508512004E-01 
    3.7830601410674064E-01 
    3.0947458514716197E-01 
    2.3462549662087739E-01 
    1.9505456275960290E-01 
    6.3497166541950489E-01 
    6.3451950460742657E-01 
    6.3284158686993186E-01 
    6.2924081635058704E-01 
    6.2303344940088723E-01 
    6.1356081602647849E-01 
    6.0019960372589065E-01 
    5.8235405114683647E-01 
    5.5940357379173533E-01 
    5.3057077313926726E-01 
    4.9466034394155939E-01 
    4.4957705965716660E-01 
    3.9137828521881224E-01 
    3.1218996283464195E-01 
    1.9505335261743853E-01 
    0.0000000000000000E+00 

SCALARS Saturarion double 1 
LOOKUP_TABLE default 

    1.0000000000000000E+00 
    9.9402854032508492E-01 
    9.8242404311688369E-01 
    9.6123789871416232E-01 
    9.3320004575782667E-01 
    9.0338287324969080E-01 
    8.7131553840863318E-01 
    8.2621139330784843E-01 
    6.8556086120457338E-01 
    7.4295170761562182E-02 
    1.0005396612340771E-06 
    1.0000000000217412E-06 
    9.9999999999999995E-07 
    9.9999999999999995E-07 
    9.9999999999999995E-07 
    9.9999999999999995E-07 
    9.9401981576641918E-01 
    9.8872764091390275E-01 
    9.7795299316172812E-01 
    9.5979496048872714E-01 
    9.3518567959811527E-01 
    9.0742534674741804E-01 
    8.7652673623169386E-01 
    8.3530939622066980E-01 
    7.4934658623649297E-01 
    3.0300185585180606E-01 
    9.9028244591581175E-05 
    1.0009644303044643E-06 
    1.0000000000000156E-06 
    9.9999999999999995E-07 
    9.9999999999999995E-07 
    9.9999999999999995E-07 
    9.8240306062014049E-01 
    9.7794269083326857E-01 
    9.6741158342649392E-01 
    9.5182887896492285E-01 
    9.3116166845621928E-01 
    9.0671372475909895E-01 
    8.7783200751409707E-01 
    8.4241539025730916E-01 
    7.8424339850208047E-01 
    5.1003554918065608E-01 
    9.5042520236813793E-03 
    1.4871435816388582E-06 
    1.0000000182356641E-06 
    9.9999999999999995E-07 
    9.9999999999999995E-07 
    9.9999999999999995E-07 
    9.6116833759037523E-01 
    9.5974853881713440E-01 
    9.5180930538136821E-01 
    9.3837605984431549E-01 
    9.2116420390026932E-01 
    9.0039643881765274E-01 
    8.7624684746857429E-01 
    8.4852402978771801E-01 
    8.0144925130590561E-01 
    6.4120723614183484E-01 
    6.1989571932315718E-02 
    1.6225552522481636E-05 
    1.0000053751546340E-06 
    9.9999999999999995E-07 
    9.9999999999999995E-07 
    9.9999999999999995E-07 
    9.3305364988292039E-01 
    9.3510413174157414E-01 
    9.3113118648895299E-01 
    9.2114547897056154E-01 
    9.0720543759436612E-01 
    8.9048714585369715E-01 
    8.7161224832656992E-01 
    8.4872608836267260E-01 
    8.1076487127866759E-01 
    7.0197205646462890E-01 
    1.6847719089799168E-01 
    4.6264467862089534E-05 
    1.0000295497788122E-06 
    1.0000000000005435E-06 
    9.9999999999999995E-07 
    9.9999999999999995E-07 
    9.0320534666339358E-01 
    9.0738933223513540E-01 
    9.0677554602713983E-01 
    9.0044973993236299E-01 
    8.9053869088819293E-01 
    8.7808110760965430E-01 
    8.6304176794865572E-01 
    8.4395068084939762E-01 
    8.1437598870465777E-01 
    7.3227145654910963E-01 
    2.4395534364971183E-01 
    1.0244656441312514E-05 
    1.0000072014778485E-06 
    1.0000000000000023E-06 
    9.9999999999999995E-07 
    9.9999999999999995E-07 
    8.7126991515427343E-01 
    8.7659162822511949E-01 
    8.7798500288453674E-01 
    8.7642174826995423E-01 
    8.7169667568558074E-01 
    8.6305072196349042E-01 
    8.5093641694251132E-01 
    8.3543458195152775E-01 
    8.1067877000565658E-01 
    7.3836427300058705E-01 
    2.6851576972829455E-01 
    1.3490848815938074E-05 
    1.0000068704820370E-06 
    1.0000000000006943E-06 
    9.9999999999999995E-07 
    9.9999999999999995E-07 
    8.2644425967017809E-01 
    8.3530461024427238E-01 
    8.4244866475501023E-01 
    8.4859674105204597E-01 
    8.4874181454070408E-01 
    8.4394938910993655E-01 
    8.3550423954727404E-01 
    8.2368717511424472E-01 
    8.0196943530686016E-01 
    7.2711196636379127E-01 
    2.2911073126452475E-01 
    3.6539691343797555E-05 
    1.0000407193172576E-06 
    1.0000000000021660E-06 
    9.9999999999999995E-07 
    9.9999999999999995E-07 
    6.8652642457272484E-01 
    7.4792683207309452E-01 
    7.8323603877776671E-01 
    8.0148734508168940E-01 
    8.1120528358264377E-01 
    8.1428277902170343E-01 
    8.1083465241209596E-01 
    8.0231610334191461E-01 
    7.8236544067234814E-01 
    6.7838983072691839E-01 
    1.0988841873905068E-01 
    6.0486361105372177E-05 
    1.0000463521340800E-06 
    1.0000000000004785E-06 
    9.9999999999999995E-07 
    9.9999999999999995E-07 
    7.5533649839367417E-02 
    2.9503241314855483E-01 
    5.0939853940904267E-01 
    6.4563562714588074E-01 
    7.0324334379851805E-01 
    7.3150833343616151E-01 
    7.3823339410863620E-01 
    7.2882047964978935E-01 
    6.8049153596824741E-01 
    3.7748100041641941E-01 
    5.1332984171140374E-03 
    1.1451987231894643E-06 
    1.0000000051007648E-06 
    9.9999999999999995E-07 
    9.9999999999999995E-07 
    9.9999999999999995E-07 
    1.0003821281392445E-06 
    1.0423360520406609E-04 
    1.0156652524927709E-02 
    6.6401301621344694E-02 
    1.6958260592499733E-01 
    2.4183579642343336E-01 
    2.6848709803100357E-01 
    2.3479951810689248E-01 
    1.1346424603877188E-01 
    5.3733521215196499E-03 
    1.6217626912247980E-06 
    1.0000000227094403E-06 
    1.0000000000000006E-06 
    9.9999999999999995E-07 
    9.9999999999999995E-07 
    9.9999999999999995E-07 
    1.0000000000146204E-06 
    1.0010531402914091E-06 
    1.5843473012222504E-06 
    1.7507927048604088E-05 
    4.0756787676783188E-05 
    1.0014664986104350E-05 
    9.7868188581418251E-06 
    3.9077528436725400E-05 
    6.5214122874234404E-05 
    1.1586664673140934E-06 
    1.0000000247494260E-06 
    1.0000000000000012E-06 
    9.9999999999999995E-07 
    9.9999999999999995E-07 
    9.9999999999999995E-07 
    9.9999999999999995E-07 
    9.9999999999999995E-07 
    1.0000000000000065E-06 
    1.0000000227829662E-06 
    1.0000063501602386E-06 
    1.0000229114865461E-06 
    1.0000074126548045E-06 
    1.0000051447754828E-06 
    1.0000475838009331E-06 
    1.0000540257977521E-06 
    1.0000000054800020E-06 
    1.0000000000000004E-06 
    9.9999999999999995E-07 
    9.9999999999999995E-07 
    9.9999999999999995E-07 
    9.9999999999999995E-07 
    9.9999999999999995E-07 
    9.9999999999999995E-07 
    9.9999999999999995E-07 
    9.9999999999999995E-07 
    9.9999999999999995E-07 
    1.0000000000004226E-06 
    1.0000000000000012E-06 
    1.0000000000001988E-06 
    1.0000000000025103E-06 
    1.0000000000005448E-06 
    9.9999999999999995E-07 
    9.9999999999999995E-07 
    9.9999999999999995E-07 
    9.9999999999999995E-07 
    9.9999999999999995E-07 
    9.9999999999999995E-07 
    9.9999999999999995E-07 
    9.9999999999999995E-07 
    9.9999999999999995E-07 
    9.9999999999999995E-07 
    9.9999999999999995E-07 
    9.9999999999999995E-07 
    9.9999999999999995E-07 
    9.9999999999999995E-07 
    9.9999999999999995E-07 
    9.9999999999999995E-07 
    9.9999999999999995E-07 
    9.9999999999999995E-07 
    9.9999999999999995E-07 
    9.9999999999999995E-07 
    9.9999999999999995E-07 
    9.9999999999999995E-07 
    9.9999999999999995E-07 
    9.9999999999999995E-07 
    9.9999999999999995E-07 
    9.9999999999999995E-07 
    9.9999999999999995E-07 
    9.9999999999999995E-07 
    9.9999999999999995E-07 
    9.9999999999999995E-07 
    9.9999999999999995E-07 
    9.9999999999999995E-07 
    9.9999999999999995E-07 
    9.9999999999999995E-07 
    9.9999999999999995E-07 
    9.9999999999999995E-07 
    9.9999999999999995E-07 
    9.9999999999999995E-07 
    1.0000000655704984E-06 
