# vtk DataFile Version 2.0
Pressure Field Data 
ASCII 
DATASET UNSTRUCTURED_GRID 

POINTS 289 double 

    0.0000000000000000E+00     0.0000000000000000E+00     0.0000000000000000E+00 
    1.0000000000000000E+00     0.0000000000000000E+00     0.0000000000000000E+00 
    1.0000000000000000E+00     1.0000000000000000E+00     0.0000000000000000E+00 
    0.0000000000000000E+00     1.0000000000000000E+00     0.0000000000000000E+00 
    6.2499999999872928E-02     0.0000000000000000E+00     0.0000000000000000E+00 
    1.2499999999977310E-01     0.0000000000000000E+00     0.0000000000000000E+00 
    1.8749999999959341E-01     0.0000000000000000E+00     0.0000000000000000E+00 
    2.4999999999941089E-01     0.0000000000000000E+00     0.0000000000000000E+00 
    3.1249999999922851E-01     0.0000000000000000E+00     0.0000000000000000E+00 
    3.7499999999904610E-01     0.0000000000000000E+00     0.0000000000000000E+00 
    4.3749999999886358E-01     0.0000000000000000E+00     0.0000000000000000E+00 
    4.9999999999869210E-01     0.0000000000000000E+00     0.0000000000000000E+00 
    5.6249999999884603E-01     0.0000000000000000E+00     0.0000000000000000E+00 
    6.2499999999901090E-01     0.0000000000000000E+00     0.0000000000000000E+00 
    6.8749999999917577E-01     0.0000000000000000E+00     0.0000000000000000E+00 
    7.4999999999934064E-01     0.0000000000000000E+00     0.0000000000000000E+00 
    8.1249999999950551E-01     0.0000000000000000E+00     0.0000000000000000E+00 
    8.7499999999967026E-01     0.0000000000000000E+00     0.0000000000000000E+00 
    9.3749999999983513E-01     0.0000000000000000E+00     0.0000000000000000E+00 
    1.0000000000000000E+00     6.2499999999872928E-02     0.0000000000000000E+00 
    1.0000000000000000E+00     1.2499999999977310E-01     0.0000000000000000E+00 
    1.0000000000000000E+00     1.8749999999959341E-01     0.0000000000000000E+00 
    1.0000000000000000E+00     2.4999999999941089E-01     0.0000000000000000E+00 
    1.0000000000000000E+00     3.1249999999922851E-01     0.0000000000000000E+00 
    1.0000000000000000E+00     3.7499999999904610E-01     0.0000000000000000E+00 
    1.0000000000000000E+00     4.3749999999886358E-01     0.0000000000000000E+00 
    1.0000000000000000E+00     4.9999999999869210E-01     0.0000000000000000E+00 
    1.0000000000000000E+00     5.6249999999884603E-01     0.0000000000000000E+00 
    1.0000000000000000E+00     6.2499999999901090E-01     0.0000000000000000E+00 
    1.0000000000000000E+00     6.8749999999917577E-01     0.0000000000000000E+00 
    1.0000000000000000E+00     7.4999999999934064E-01     0.0000000000000000E+00 
    1.0000000000000000E+00     8.1249999999950551E-01     0.0000000000000000E+00 
    1.0000000000000000E+00     8.7499999999967026E-01     0.0000000000000000E+00 
    1.0000000000000000E+00     9.3749999999983513E-01     0.0000000000000000E+00 
    9.3749999999973976E-01     1.0000000000000000E+00     0.0000000000000000E+00 
    8.7499999999950118E-01     1.0000000000000000E+00     0.0000000000000000E+00 
    8.1249999999991318E-01     1.0000000000000000E+00     0.0000000000000000E+00 
    7.5000000000034706E-01     1.0000000000000000E+00     0.0000000000000000E+00 
    6.8750000000078049E-01     1.0000000000000000E+00     0.0000000000000000E+00 
    6.2500000000121403E-01     1.0000000000000000E+00     0.0000000000000000E+00 
    5.6250000000164757E-01     1.0000000000000000E+00     0.0000000000000000E+00 
    5.0000000000205946E-01     1.0000000000000000E+00     0.0000000000000000E+00 
    4.3750000000182099E-01     1.0000000000000000E+00     0.0000000000000000E+00 
    3.7500000000156092E-01     1.0000000000000000E+00     0.0000000000000000E+00 
    3.1250000000130068E-01     1.0000000000000000E+00     0.0000000000000000E+00 
    2.5000000000104050E-01     1.0000000000000000E+00     0.0000000000000000E+00 
    1.8750000000078040E-01     1.0000000000000000E+00     0.0000000000000000E+00 
    1.2500000000052031E-01     1.0000000000000000E+00     0.0000000000000000E+00 
    6.2500000000260125E-02     1.0000000000000000E+00     0.0000000000000000E+00 
    0.0000000000000000E+00     9.3749999999973976E-01     0.0000000000000000E+00 
    0.0000000000000000E+00     8.7499999999950118E-01     0.0000000000000000E+00 
    0.0000000000000000E+00     8.1249999999991318E-01     0.0000000000000000E+00 
    0.0000000000000000E+00     7.5000000000034706E-01     0.0000000000000000E+00 
    0.0000000000000000E+00     6.8750000000078049E-01     0.0000000000000000E+00 
    0.0000000000000000E+00     6.2500000000121403E-01     0.0000000000000000E+00 
    0.0000000000000000E+00     5.6250000000164757E-01     0.0000000000000000E+00 
    0.0000000000000000E+00     5.0000000000205946E-01     0.0000000000000000E+00 
    0.0000000000000000E+00     4.3750000000182099E-01     0.0000000000000000E+00 
    0.0000000000000000E+00     3.7500000000156092E-01     0.0000000000000000E+00 
    0.0000000000000000E+00     3.1250000000130068E-01     0.0000000000000000E+00 
    0.0000000000000000E+00     2.5000000000104050E-01     0.0000000000000000E+00 
    0.0000000000000000E+00     1.8750000000078040E-01     0.0000000000000000E+00 
    0.0000000000000000E+00     1.2500000000052031E-01     0.0000000000000000E+00 
    0.0000000000000000E+00     6.2500000000260125E-02     0.0000000000000000E+00 
    6.2499999999897131E-02     6.2500000000235922E-02     0.0000000000000000E+00 
    6.2499999999921327E-02     1.2500000000047351E-01     0.0000000000000000E+00 
    6.2499999999945530E-02     1.8750000000070621E-01     0.0000000000000000E+00 
    6.2499999999969733E-02     2.5000000000093858E-01     0.0000000000000000E+00 
    6.2499999999993928E-02     3.1250000000117117E-01     0.0000000000000000E+00 
    6.2500000000018124E-02     3.7500000000140382E-01     0.0000000000000000E+00 
    6.2500000000042327E-02     4.3750000000163619E-01     0.0000000000000000E+00 
    6.2500000000066530E-02     5.0000000000184897E-01     0.0000000000000000E+00 
    6.2500000000090733E-02     5.6250000000147260E-01     0.0000000000000000E+00 
    6.2500000000114922E-02     6.2500000000107636E-01     0.0000000000000000E+00 
    6.2500000000139125E-02     6.8750000000068034E-01     0.0000000000000000E+00 
    6.2500000000163328E-02     7.5000000000028411E-01     0.0000000000000000E+00 
    6.2500000000187531E-02     8.1249999999988787E-01     0.0000000000000000E+00 
    6.2500000000211720E-02     8.7499999999951172E-01     0.0000000000000000E+00 
    6.2500000000235922E-02     9.3749999999974565E-01     0.0000000000000000E+00 
    1.2499999999981980E-01     6.2500000000211733E-02     0.0000000000000000E+00 
    1.2499999999986650E-01     1.2500000000042691E-01     0.0000000000000000E+00 
    1.2499999999991319E-01     1.8750000000063199E-01     0.0000000000000000E+00 
    1.2499999999995989E-01     2.5000000000083678E-01     0.0000000000000000E+00 
    1.2500000000000661E-01     3.1250000000104172E-01     0.0000000000000000E+00 
    1.2500000000005329E-01     3.7500000000124661E-01     0.0000000000000000E+00 
    1.2500000000010000E-01     4.3750000000145117E-01     0.0000000000000000E+00 
    1.2500000000014669E-01     5.0000000000163858E-01     0.0000000000000000E+00 
    1.2500000000019340E-01     5.6250000000129741E-01     0.0000000000000000E+00 
    1.2500000000024011E-01     6.2500000000093847E-01     0.0000000000000000E+00 
    1.2500000000028680E-01     6.8750000000057998E-01     0.0000000000000000E+00 
    1.2500000000033351E-01     7.5000000000022127E-01     0.0000000000000000E+00 
    1.2500000000038020E-01     8.1249999999986211E-01     0.0000000000000000E+00 
    1.2500000000042691E-01     8.7499999999952238E-01     0.0000000000000000E+00 
    1.2500000000047359E-01     9.3749999999975164E-01     0.0000000000000000E+00 
    1.8749999999966760E-01     6.2500000000187531E-02     0.0000000000000000E+00 
    1.8749999999974179E-01     1.2500000000038020E-01     0.0000000000000000E+00 
    1.8749999999981601E-01     1.8750000000055780E-01     0.0000000000000000E+00 
    1.8749999999989009E-01     2.5000000000073502E-01     0.0000000000000000E+00 
    1.8749999999996431E-01     3.1250000000091221E-01     0.0000000000000000E+00 
    1.8750000000003850E-01     3.7500000000108941E-01     0.0000000000000000E+00 
    1.8750000000011269E-01     4.3750000000126649E-01     0.0000000000000000E+00 
    1.8750000000018691E-01     5.0000000000142808E-01     0.0000000000000000E+00 
    1.8750000000026110E-01     5.6250000000112244E-01     0.0000000000000000E+00 
    1.8750000000033529E-01     6.2500000000080080E-01     0.0000000000000000E+00 
    1.8750000000040951E-01     6.8750000000047962E-01     0.0000000000000000E+00 
    1.8750000000048361E-01     7.5000000000015843E-01     0.0000000000000000E+00 
    1.8750000000055780E-01     8.1249999999983680E-01     0.0000000000000000E+00 
    1.8750000000063199E-01     8.7499999999953304E-01     0.0000000000000000E+00 
    1.8750000000070621E-01     9.3749999999975764E-01     0.0000000000000000E+00 
    2.4999999999951281E-01     6.2500000000163314E-02     0.0000000000000000E+00 
    2.4999999999961461E-01     1.2500000000033351E-01     0.0000000000000000E+00 
    2.4999999999971650E-01     1.8750000000048361E-01     0.0000000000000000E+00 
    2.4999999999981831E-01     2.5000000000063310E-01     0.0000000000000000E+00 
    2.4999999999992020E-01     3.1250000000078260E-01     0.0000000000000000E+00 
    2.5000000000002198E-01     3.7500000000093209E-01     0.0000000000000000E+00 
    2.5000000000012390E-01     4.3750000000108180E-01     0.0000000000000000E+00 
    2.5000000000022571E-01     5.0000000000121769E-01     0.0000000000000000E+00 
    2.5000000000032763E-01     5.6250000000094724E-01     0.0000000000000000E+00 
    2.5000000000042938E-01     6.2500000000066314E-01     0.0000000000000000E+00 
    2.5000000000053119E-01     6.8750000000037925E-01     0.0000000000000000E+00 
[...]
CELL_DATA 256 
SCALARS Pressure double 1 
LOOKUP_TABLE default 

    1.4902562875419167E+00 
    1.2436332401548704E+00 
    1.0919174849486128E+00 
    9.8516158065906856E-01 
    9.0252008860358757E-01 
    8.3481849992823753E-01 
    7.7735363050050343E-01 
    7.2629648254165524E-01 
    6.8352039587541447E-01 
    6.6175456587406400E-01 
    6.4871140391498350E-01 
    6.3961555360899092E-01 
    6.3369655841753592E-01 
    6.3027677115952430E-01 
    6.2868546118451418E-01 
    6.2825656030822474E-01 
    1.2436392890277166E+00 
    1.1933674038754827E+00 
    1.0958259599057389E+00 
    1.0030957146661210E+00 
    9.2298673327883773E-01 
    8.5447259976963497E-01 
    7.9530485432573450E-01 
    7.4270302336570693E-01 
    6.9454976525779499E-01 
    6.6706273651311432E-01 
    6.5172644028507321E-01 
    6.4120110018090049E-01 
    6.3426524670300199E-01 
    6.3017910353530160E-01 
    6.2825623683678600E-01 
    6.2782756733349443E-01 
    1.0919281448375711E+00 
    1.0958311359355049E+00 
    1.0522653819998231E+00 
    9.8892053206494446E-01 
    9.2253006393154502E-01 
    8.5981167918921275E-01 
    8.0272694951622159E-01 
    7.5083305807372636E-01 
    7.0138954498689887E-01 
    6.6870046809157424E-01 
    6.5159840315368578E-01 
    6.4018427753398210E-01 
    6.3263513956164785E-01 
    6.2824183242298426E-01 
    6.2632934807935126E-01 
    6.2623549138566326E-01 
    9.8517032477988420E-01 
    1.0031009889794840E+00 
    9.8892189750121984E-01 
    9.5156518918932609E-01 
    9.0253976470293151E-01 
    8.4999172565563785E-01 
    7.9841722669546566E-01 
    7.4954230556340107E-01 
    7.0202151999668894E-01 
    6.6582532220278645E-01 
    6.4731179278287965E-01 
    6.3574421910496570E-01 
    6.2808398652230346E-01 
    6.2378308675939387E-01 
    6.2223758569237664E-01 
    6.2281653566368644E-01 
    9.0252270809884960E-01 
    9.2298784572751513E-01 
    9.2252990974057714E-01 
    9.0254029406156067E-01 
    8.6872984314082746E-01 
    8.2729482502830276E-01 
    7.8299815341130130E-01 
    7.3867625641891732E-01 
    6.9444661324302881E-01 
    6.5738735897794287E-01 
    6.3826194985797524E-01 
    6.2723224893962570E-01 
    6.1995844329488436E-01 
    6.1615003638573640E-01 
    6.1532827769012999E-01 
    6.1691607437903129E-01 
    8.3481918855448245E-01 
    8.5447587678515513E-01 
    8.5981745844638613E-01 
    8.4999963507984710E-01 
    8.2730239663929162E-01 
    7.9553404971803743E-01 
    7.5852485683583004E-01 
    7.1915849448481328E-01 
    6.7814190401587870E-01 
    6.4307717470000303E-01 
    6.2448429042601972E-01 
    6.1433654018815220E-01 
    6.0777003703699706E-01 
    6.0476526266667563E-01 
    6.0498393675748463E-01 
    6.0790062426754143E-01 
    7.7735709643386164E-01 
    7.9532004529398737E-01 
    8.0275000196466806E-01 
    7.9844042422335160E-01 
    7.8302078943813003E-01 
    7.5854122789686085E-01 
    7.2771682472687904E-01 
    6.9295364466235965E-01 
    6.5419783239861506E-01 
    6.2342182209689223E-01 
    6.0641945319035184E-01 
    5.9708078452514501E-01 
    5.9123204805547425E-01 
    5.8914998284023889E-01 
    5.9063010966661411E-01 
    5.9516191227927173E-01 
    7.2627667692163000E-01 
    7.4271235500556709E-01 
    7.5086057866182110E-01 
    7.4957041163446358E-01 
    7.3871204610352326E-01 
    7.1920103548917258E-01 
    6.9298038276851992E-01 
    6.6153693133994040E-01 
    6.2639751208927630E-01 
    6.0051200238509550E-01 
    5.8521120007230021E-01 
    5.7589018551521165E-01 
    5.7027785036063605E-01 
    5.6891705620252797E-01 
    5.7171356521624317E-01 
    5.7809658254455776E-01 
    6.8355213288415873E-01 
    6.9459095845349217E-01 
    7.0145632179699258E-01 
    7.0206575332399823E-01 
    6.9448398714408843E-01 
    6.7823617419551352E-01 
    6.5428847447866301E-01 
    6.2642640024581475E-01 
    5.9877502551974704E-01 
    5.7709223727957737E-01 
    5.6234984630176754E-01 
    5.5152312468597386E-01 
    5.4503838715017139E-01 
    5.4372722422335062E-01 
    5.4763485746203777E-01 
    5.5604177171266578E-01 
    6.6177982039876426E-01 
    6.6708580278328167E-01 
    6.6871378655281433E-01 
    6.6582460930182641E-01 
    6.5739272150205463E-01 
    6.4310717663852990E-01 
    6.2344241126376254E-01 
    6.0049551243775157E-01 
    5.7707235723524841E-01 
    5.5612929199084726E-01 
    5.3899770496666888E-01 
    5.2488195059609588E-01 
    5.1579722585817045E-01 
    5.1322132099260498E-01 
    5.1762204492132236E-01 
    5.2814014274773580E-01 
    6.4872341088489160E-01 
    6.5173633281889054E-01 
    6.5159677039146213E-01 
    6.4729091410572548E-01 
    6.3824168534509507E-01 
    6.2448524361374613E-01 
    6.0641017266193653E-01 
    5.8516832617324077E-01 
    5.6230962232338877E-01 
    5.3898180155282538E-01 
    5.1669532693658771E-01 
    4.9726682583314374E-01 
    4.8315555521748427E-01 
    4.7703768770742100E-01 
    4.8055643426404260E-01 
    4.9309393341143476E-01 
    6.3962155738260729E-01 
    6.4120641007529922E-01 
    6.4018436322568828E-01 
    6.3573505533664609E-01 
    6.2721879497763777E-01 
    6.1432762990336087E-01 
    5.9707037689886755E-01 
    5.7586779779735087E-01 
    5.5149629777922582E-01 
    5.2486298726572245E-01 
    4.9725853424347832E-01 
    4.7072140769451409E-01 
    4.4851030879164799E-01 
    4.3510147215059003E-01 
    4.3479900271572958E-01 
    4.4871256800997034E-01 
    6.3369944109038145E-01 
    6.3426782233231538E-01 
    6.3263513700846608E-01 
    6.2807916457703716E-01 
    6.1994958429855562E-01 
    6.0776045516585364E-01 
    5.9122140599956163E-01 
    5.7026267506418638E-01 
    5.4501983929828335E-01 
    5.1578058019928885E-01 
    4.8314447146522338E-01 
    4.4850537208846541E-01 
    4.1498305917459438E-01 
    3.8859519868789111E-01 
    3.7823870184011110E-01 
    3.9099878200601890E-01 
    6.3027808479354086E-01 
    6.3018017197596132E-01 
    6.2824143291602774E-01 
    6.2377989990760041E-01 
    6.1614378779066659E-01 
    6.0475699717594911E-01 
    5.8914017822035580E-01 
    5.6890493073505843E-01 
    5.4371302090328610E-01 
    5.1320726300251318E-01 
    4.7702629491832221E-01 
    4.3509409691825351E-01 
    3.8859187871916540E-01 
    3.4239207432934698E-01 
    3.0954252165010993E-01 
    3.1208037864537685E-01 
    6.2868609322162794E-01 
    6.2825661723529103E-01 
    6.2632874057429011E-01 
    6.2223513739435532E-01 
    6.1532351176581479E-01 
    6.0497703991220786E-01 
    5.9062141738148044E-01 
    5.7170309381644147E-01 
    5.4762287997027259E-01 
    5.1760969963031600E-01 
    4.8054534841605245E-01 
    4.3479049271946046E-01 
    3.7823333013678334E-01 
    3.0954013434905020E-01 
    2.3468322787522611E-01 
    1.9504653375769881E-01 
    6.2825700924612971E-01 
    6.2782780559590856E-01 
    6.2623500669631049E-01 
    6.2281467082393371E-01 
    6.1691231216827613E-01 
    6.0789483888017148E-01 
    5.9515424674695594E-01 
    5.7808718541275816E-01 
    5.5603093175541607E-01 
    5.2812862635721458E-01 
    4.9308294488413779E-01 
    4.4870331506405164E-01 
    3.9099204803124954E-01 
    3.1207635568551489E-01 
    1.9504488699918734E-01 
    0.0000000000000000E+00 

SCALARS Saturarion double 1 
LOOKUP_TABLE default 

    1.0000000000000000E+00 
    9.9294695203762950E-01 
    9.7935629142553626E-01 
    9.5491401224003358E-01 
    9.2389585906169125E-01 
    8.9117244175104493E-01 
    8.5227239393948762E-01 
    7.7382694402701735E-01 
    3.1469591138095560E-01 
    1.3937664492267429E-06 
    1.0000000020624568E-06 
    9.9999999999999995E-07 
    9.9999999999999995E-07 
    9.9999999999999995E-07 
    9.9999999999999995E-07 
    9.9999999999999995E-07 
    9.9293587424013430E-01 
    9.8668739415969442E-01 
    9.7408569600440598E-01 
    9.5315534351669062E-01 
    9.2579084688472080E-01 
    8.9505960387777594E-01 
    8.5779780652602089E-01 
    7.9532974353954933E-01 
    5.4473506159990537E-01 
    1.2980868367467322E-02 
    1.4763152270749620E-06 
    1.0000000169465178E-06 
    9.9999999999999995E-07 
    9.9999999999999995E-07 
    9.9999999999999995E-07 
    9.9999999999999995E-07 
    9.7933034029667032E-01 
    9.7407344915062555E-01 
    9.6173484238790263E-01 
    9.4385254555396059E-01 
    9.2080098770165741E-01 
    8.9349085327575684E-01 
    8.5991318589192978E-01 
    8.1481875990118324E-01 
    6.8176606044165200E-01 
    1.1426338150264498E-01 
    4.9919667350635318E-05 
    1.0000677363647750E-06 
    9.9999999999999995E-07 
    9.9999999999999995E-07 
    9.9999999999999995E-07 
    9.9999999999999995E-07 
    9.5481229919406874E-01 
    9.5309069584082717E-01 
    9.4382949187576803E-01 
    9.2860437618924685E-01 
    9.0957919900578921E-01 
    8.8706373931998472E-01 
    8.6123783235680551E-01 
    8.2429146067352466E-01 
    7.3058080653063262E-01 
    2.3788651454982929E-01 
    4.7684457755225272E-05 
    1.0000882735004500E-06 
    1.0000000000019587E-06 
    9.9999999999999995E-07 
    9.9999999999999995E-07 
    9.9999999999999995E-07 
    9.2372811883960415E-01 
    9.2571292639646008E-01 
    9.2078933469132473E-01 
    9.0958575444683054E-01 
    8.9467903680381400E-01 
    8.7741470685568790E-01 
    8.5691331991714781E-01 
    8.2670334651673083E-01 
    7.5446993842143140E-01 
    3.2845279918033821E-01 
    7.6533642152929647E-05 
    1.0000780388678495E-06 
    9.9999999999999995E-07 
    9.9999999999999995E-07 
    9.9999999999999995E-07 
    9.9999999999999995E-07 
    8.9101902043163428E-01 
    8.9508717714241903E-01 
    8.9361887354935599E-01 
    8.8718081321050513E-01 
    8.7748656963284621E-01 
    8.6441709092586594E-01 
    8.4744030916572655E-01 
    8.2230703668311289E-01 
    7.6164035136079966E-01 
    3.6751740093533219E-01 
    5.9115476502470686E-05 
    1.0000171192091836E-06 
    1.0000000000017690E-06 
    9.9999999999999995E-07 
    9.9999999999999995E-07 
    9.9999999999999995E-07 
    8.5228205615563635E-01 
    8.5795223667822784E-01 
    8.6013756333717550E-01 
    8.6138104735532872E-01 
    8.5696645346405675E-01 
    8.4745369419413130E-01 
    8.3401109615289803E-01 
    8.1288742695467997E-01 
    7.5198970469283011E-01 
    3.2516771519169463E-01 
    1.1852346884664364E-04 
    1.0001682859229945E-06 
    1.0000000000125784E-06 
    9.9999999999999995E-07 
    9.9999999999999995E-07 
    9.9999999999999995E-07 
    7.7365450159113580E-01 
    7.9502149351419871E-01 
    8.1456446312163500E-01 
    8.2399290122724911E-01 
    8.2678564936890520E-01 
    8.2236762001943775E-01 
    8.1302601610599579E-01 
    7.9126752949979950E-01 
    7.0523041465600966E-01 
    1.6769388091548687E-01 
    1.2388864414776465E-04 
    1.0003259238652000E-06 
    1.0000000000077736E-06 
    9.9999999999999995E-07 
    9.9999999999999995E-07 
    9.9999999999999995E-07 
    3.1188625540890330E-01 
    5.3979321473853670E-01 
    6.8116590291195878E-01 
    7.3183972168568712E-01 
    7.5484444263672590E-01 
    7.6153111333555457E-01 
    7.5268904241877654E-01 
    7.0579002408407088E-01 
    4.1531292749544158E-01 
    9.6360688352938664E-03 
    1.5386590849585910E-06 
    1.0000000189724055E-06 
    9.9999999999999974E-07 
    9.9999999999999995E-07 
    9.9999999999999995E-07 
    9.9999999999999995E-07 
    1.2393365590917912E-06 
    1.2214341191567864E-02 
    1.1806574364576748E-01 
    2.4237023466677987E-01 
    3.2748106042527991E-01 
    3.6611031857756737E-01 
    3.3022386675942278E-01 
    1.7190445924345238E-01 
    9.6701307565012044E-03 
    3.0643527745848778E-06 
    1.0000000942938862E-06 
    1.0000000000000014E-06 
    9.9999999999999995E-07 
    9.9999999999999995E-07 
    9.9999999999999995E-07 
    9.9999999999999995E-07 
    1.0000000018040673E-06 
    1.4489045271582431E-06 
    5.8200217713911567E-05 
    4.5329687098050913E-05 
    6.4953038359671437E-05 
    5.6918689670922733E-05 
    1.1958238663257976E-04 
    1.2905490239614558E-04 
    1.5397949606502983E-06 
    1.0000000952354610E-06 
    1.0000000000000031E-06 
    9.9999999999999995E-07 
    9.9999999999999995E-07 
    9.9999999999999995E-07 
    9.9999999999999995E-07 
    9.9999999999999995E-07 
    9.9999999999999995E-07 
    1.0000000157055777E-06 
    1.0000726630911852E-06 
    1.0000695871903311E-06 
    1.0000538450558795E-06 
    1.0000129596555472E-06 
    1.0001751826326626E-06 
    1.0003246022048793E-06 
    1.0000000189890459E-06 
    1.0000000000000014E-06 
    9.9999999999999995E-07 
    9.9999999999999995E-07 
    9.9999999999999995E-07 
    9.9999999999999995E-07 
    9.9999999999999995E-07 
    9.9999999999999995E-07 
    9.9999999999999995E-07 
    9.9999999999999995E-07 
    1.0000000000000900E-06 
    1.0000000000031607E-06 
    9.9999999999999995E-07 
    1.0000000000012548E-06 
    1.0000000000139978E-06 
    1.0000000000049617E-06 
    9.9999999999999974E-07 
    9.9999999999999995E-07 
    9.9999999999999995E-07 
    9.9999999999999995E-07 
    9.9999999999999995E-07 
    9.9999999999999995E-07 
    9.9999999999999995E-07 
    9.9999999999999995E-07 
    9.9999999999999995E-07 
    9.9999999999999995E-07 
    9.9999999999999995E-07 
    9.9999999999999995E-07 
    9.9999999999999995E-07 
    9.9999999999999995E-07 
    9.9999999999999995E-07 
    9.9999999999999995E-07 
    9.9999999999999995E-07 
    9.9999999999999995E-07 
    9.9999999999999995E-07 
    9.9999999999999995E-07 
    9.9999999999999995E-07 
    9.9999999999999995E-07 
    9.9999999999999995E-07 
    9.9999999999999995E-07 
    9.9999999999999995E-07 
    9.9999999999999995E-07 
    9.9999999999999995E-07 
    9.9999999999999995E-07 
    9.9999999999999995E-07 
    9.9999999999999995E-07 
    9.9999999999999995E-07 
    9.9999999999999995E-07 
    9.9999999999999995E-07 
    9.9999999999999995E-07 
    9.9999999999999995E-07 
    9.9999999999999995E-07 
    9.9999999999999995E-07 
    9.9999999999999995E-07 
    9.9999999999999995E-07 
    9.9999999999999995E-07 
    9.9999999999999995E-07 
    9.9999999999999995E-07 
    9.9999999999999995E-07 
    9.9999999999999995E-07 
    9.9999999999999995E-07 
    9.9999999999999995E-07 
    9.9999999999999995E-07 
    9.9999999999999995E-07 
    9.9999999999999995E-07 
    9.9999999999999995E-07 
    9.9999999999999995E-07 
    9.9999999999999995E-07 
    9.9999999999999995E-07 
    9.9999999999999995E-07 
    9.9999999999999995E-07 
    1.0000000553846072E-06 
