# vtk DataFile Version 2.0
Pressure Field Data 
ASCII 
DATASET UNSTRUCTURED_GRID 

POINTS 289 double 

    0.0000000000000000E+00     0.0000000000000000E+00     0.0000000000000000E+00 
    1.0000000000000000E+00     0.0000000000000000E+00     0.0000000000000000E+00 
    1.0000000000000000E+00     1.0000000000000000E+00     0.0000000000000000E+00 
    0.0000000000000000E+00     1.0000000000000000E+00     0.0000000000000000E+00 
    6.2499999999872928E-02     0.0000000000000000E+00     0.0000000000000000E+00 
    1.2499999999977310E-01     0.0000000000000000E+00     0.0000000000000000E+00 
    1.8749999999959341E-01     0.0000000000000000E+00     0.0000000000000000E+00 
    2.4999999999941089E-01     0.0000000000000000E+00     0.0000000000000000E+00 
    3.1249999999922851E-01     0.0000000000000000E+00     0.0000000000000000E+00 
    3.7499999999904610E-01     0.0000000000000000E+00     0.0000000000000000E+00 
    4.3749999999886358E-01     0.0000000000000000E+00     0.0000000000000000E+00 
    4.9999999999869210E-01     0.0000000000000000E+00     0.0000000000000000E+00 
    5.6249999999884603E-01     0.0000000000000000E+00     0.0000000000000000E+00 
    6.2499999999901090E-01     0.0000000000000000E+00     0.0000000000000000E+00 
    6.8749999999917577E-01     0.0000000000000000E+00     0.0000000000000000E+00 
    7.4999999999934064E-01     0.0000000000000000E+00     0.0000000000000000E+00 
    8.1249999999950551E-01     0.0000000000000000E+00     0.0000000000000000E+00 
    8.7499999999967026E-01     0.0000000000000000E+00     0.0000000000000000E+00 
    9.3749999999983513E-01     0.0000000000000000E+00     0.0000000000000000E+00 
    1.0000000000000000E+00     6.2499999999872928E-02     0.0000000000000000E+00 
    1.0000000000000000E+00     1.2499999999977310E-01     0.0000000000000000E+00 
    1.0000000000000000E+00     1.8749999999959341E-01     0.0000000000000000E+00 
    1.0000000000000000E+00     2.4999999999941089E-01     0.0000000000000000E+00 
    1.0000000000000000E+00     3.1249999999922851E-01     0.0000000000000000E+00 
    1.0000000000000000E+00     3.7499999999904610E-01     0.0000000000000000E+00 
    1.0000000000000000E+00     4.3749999999886358E-01     0.0000000000000000E+00 
    1.0000000000000000E+00     4.9999999999869210E-01     0.0000000000000000E+00 
    1.0000000000000000E+00     5.6249999999884603E-01     0.0000000000000000E+00 
    1.0000000000000000E+00     6.2499999999901090E-01     0.0000000000000000E+00 
    1.0000000000000000E+00     6.8749999999917577E-01     0.0000000000000000E+00 
    1.0000000000000000E+00     7.4999999999934064E-01     0.0000000000000000E+00 
    1.0000000000000000E+00     8.1249999999950551E-01     0.0000000000000000E+00 
    1.0000000000000000E+00     8.7499999999967026E-01     0.0000000000000000E+00 
    1.0000000000000000E+00     9.3749999999983513E-01     0.0000000000000000E+00 
    9.3749999999973976E-01     1.0000000000000000E+00     0.0000000000000000E+00 
    8.7499999999950118E-01     1.0000000000000000E+00     0.0000000000000000E+00 
    8.1249999999991318E-01     1.0000000000000000E+00     0.0000000000000000E+00 
    7.5000000000034706E-01     1.0000000000000000E+00     0.0000000000000000E+00 
    6.8750000000078049E-01     1.0000000000000000E+00     0.0000000000000000E+00 
    6.2500000000121403E-01     1.0000000000000000E+00     0.0000000000000000E+00 
    5.6250000000164757E-01     1.0000000000000000E+00     0.0000000000000000E+00 
    5.0000000000205946E-01     1.0000000000000000E+00     0.0000000000000000E+00 
    4.3750000000182099E-01     1.0000000000000000E+00     0.0000000000000000E+00 
    3.7500000000156092E-01     1.0000000000000000E+00     0.0000000000000000E+00 
    3.1250000000130068E-01     1.0000000000000000E+00     0.0000000000000000E+00 
    2.5000000000104050E-01     1.0000000000000000E+00     0.0000000000000000E+00 
    1.8750000000078040E-01     1.0000000000000000E+00     0.0000000000000000E+00 
    1.2500000000052031E-01     1.0000000000000000E+00     0.0000000000000000E+00 
    6.2500000000260125E-02     1.0000000000000000E+00     0.0000000000000000E+00 
    0.0000000000000000E+00     9.3749999999973976E-01     0.0000000000000000E+00 
    0.0000000000000000E+00     8.7499999999950118E-01     0.0000000000000000E+00 
    0.0000000000000000E+00     8.1249999999991318E-01     0.0000000000000000E+00 
    0.0000000000000000E+00     7.5000000000034706E-01     0.0000000000000000E+00 
    0.0000000000000000E+00     6.8750000000078049E-01     0.0000000000000000E+00 
    0.0000000000000000E+00     6.2500000000121403E-01     0.0000000000000000E+00 
    0.0000000000000000E+00     5.6250000000164757E-01     0.0000000000000000E+00 
    0.0000000000000000E+00     5.0000000000205946E-01     0.0000000000000000E+00 
    0.0000000000000000E+00     4.3750000000182099E-01     0.0000000000000000E+00 
    0.0000000000000000E+00     3.7500000000156092E-01     0.0000000000000000E+00 
    0.0000000000000000E+00     3.1250000000130068E-01     0.0000000000000000E+00 
    0.0000000000000000E+00     2.5000000000104050E-01     0.0000000000000000E+00 
    0.0000000000000000E+00     1.8750000000078040E-01     0.0000000000000000E+00 
    0.0000000000000000E+00     1.2500000000052031E-01     0.0000000000000000E+00 
    0.0000000000000000E+00     6.2500000000260125E-02     0.0000000000000000E+00 
    6.2499999999897131E-02     6.2500000000235922E-02     0.0000000000000000E+00 
    6.2499999999921327E-02     1.2500000000047351E-01     0.0000000000000000E+00 
    6.2499999999945530E-02     1.8750000000070621E-01     0.0000000000000000E+00 
    6.2499999999969733E-02     2.5000000000093858E-01     0.0000000000000000E+00 
    6.2499999999993928E-02     3.1250000000117117E-01     0.0000000000000000E+00 
    6.2500000000018124E-02     3.7500000000140382E-01     0.0000000000000000E+00 
    6.2500000000042327E-02     4.3750000000163619E-01     0.0000000000000000E+00 
    6.2500000000066530E-02     5.0000000000184897E-01     0.0000000000000000E+00 
    6.2500000000090733E-02     5.6250000000147260E-01     0.0000000000000000E+00 
    6.2500000000114922E-02     6.2500000000107636E-01     0.0000000000000000E+00 
    6.2500000000139125E-02     6.8750000000068034E-01     0.0000000000000000E+00 
    6.2500000000163328E-02     7.5000000000028411E-01     0.0000000000000000E+00 
    6.2500000000187531E-02     8.1249999999988787E-01     0.0000000000000000E+00 
    6.2500000000211720E-02     8.7499999999951172E-01     0.0000000000000000E+00 
    6.2500000000235922E-02     9.3749999999974565E-01     0.0000000000000000E+00 
    1.2499999999981980E-01     6.2500000000211733E-02     0.0000000000000000E+00 
    1.2499999999986650E-01     1.2500000000042691E-01     0.0000000000000000E+00 
    1.2499999999991319E-01     1.8750000000063199E-01     0.0000000000000000E+00 
    1.2499999999995989E-01     2.5000000000083678E-01     0.0000000000000000E+00 
    1.2500000000000661E-01     3.1250000000104172E-01     0.0000000000000000E+00 
    1.2500000000005329E-01     3.7500000000124661E-01     0.0000000000000000E+00 
    1.2500000000010000E-01     4.3750000000145117E-01     0.0000000000000000E+00 
    1.2500000000014669E-01     5.0000000000163858E-01     0.0000000000000000E+00 
    1.2500000000019340E-01     5.6250000000129741E-01     0.0000000000000000E+00 
    1.2500000000024011E-01     6.2500000000093847E-01     0.0000000000000000E+00 
    1.2500000000028680E-01     6.8750000000057998E-01     0.0000000000000000E+00 
    1.2500000000033351E-01     7.5000000000022127E-01     0.0000000000000000E+00 
    1.2500000000038020E-01     8.1249999999986211E-01     0.0000000000000000E+00 
    1.2500000000042691E-01     8.7499999999952238E-01     0.0000000000000000E+00 
    1.2500000000047359E-01     9.3749999999975164E-01     0.0000000000000000E+00 
    1.8749999999966760E-01     6.2500000000187531E-02     0.0000000000000000E+00 
    1.8749999999974179E-01     1.2500000000038020E-01     0.0000000000000000E+00 
    1.8749999999981601E-01     1.8750000000055780E-01     0.0000000000000000E+00 
    1.8749999999989009E-01     2.5000000000073502E-01     0.0000000000000000E+00 
    1.8749999999996431E-01     3.1250000000091221E-01     0.0000000000000000E+00 
    1.8750000000003850E-01     3.7500000000108941E-01     0.0000000000000000E+00 
    1.8750000000011269E-01     4.3750000000126649E-01     0.0000000000000000E+00 
    1.8750000000018691E-01     5.0000000000142808E-01     0.0000000000000000E+00 
    1.8750000000026110E-01     5.6250000000112244E-01     0.0000000000000000E+00 
    1.8750000000033529E-01     6.2500000000080080E-01     0.0000000000000000E+00 
    1.8750000000040951E-01     6.8750000000047962E-01     0.0000000000000000E+00 
    1.8750000000048361E-01     7.5000000000015843E-01     0.0000000000000000E+00 
    1.8750000000055780E-01     8.1249999999983680E-01     0.0000000000000000E+00 
    1.8750000000063199E-01     8.7499999999953304E-01     0.0000000000000000E+00 
    1.8750000000070621E-01     9.3749999999975764E-01     0.0000000000000000E+00 
    2.4999999999951281E-01     6.2500000000163314E-02     0.0000000000000000E+00 
    2.4999999999961461E-01     1.2500000000033351E-01     0.0000000000000000E+00 
    2.4999999999971650E-01     1.8750000000048361E-01     0.0000000000000000E+00 
    2.4999999999981831E-01     2.5000000000063310E-01     0.0000000000000000E+00 
    2.4999999999992020E-01     3.1250000000078260E-01     0.0000000000000000E+00 
    2.5000000000002198E-01     3.7500000000093209E-01     0.0000000000000000E+00 
    2.5000000000012390E-01     4.3750000000108180E-01     0.0000000000000000E+00 
    2.5000000000022571E-01     5.0000000000121769E-01     0.0000000000000000E+00 
    2.5000000000032763E-01     5.6250000000094724E-01     0.0000000000000000E+00 
    2.5000000000042938E-01     6.2500000000066314E-01     0.0000000000000000E+00 
    2.5000000000053119E-01     6.8750000000037925E-01     0.0000000000000000E+00 
[...]
CELL_DATA 256 
SCALARS Pressure double 1 
LOOKUP_TABLE default 

    2.0062518389956532E+00 
    1.7615147476956521E+00 
    1.6135487224343561E+00 
    1.5125625072918250E+00 
    1.4374485695524293E+00 
    1.3785145660552733E+00 
    1.3309558203824090E+00 
    1.2921479640086617E+00 
    1.2605125636986336E+00 
    1.2349759136853107E+00 
    1.2146122680474944E+00 
    1.1981389752046960E+00 
    1.1857490236688064E+00 
    1.1805159037592139E+00 
    1.1784915842151413E+00 
    1.1779487327460396E+00 
    1.7615222921756100E+00 
    1.7116209231954387E+00 
    1.6166894600401280E+00 
    1.5286864002413503E+00 
    1.4551957262517847E+00 
    1.3947065522309177E+00 
    1.3447875399488072E+00 
    1.3035307313942592E+00 
    1.2695923526161810E+00 
    1.2419994844331752E+00 
    1.2199154437672357E+00 
    1.2022272796833431E+00 
    1.1878334492493314E+00 
    1.1806002712631321E+00 
    1.1779911365498752E+00 
    1.1774179976219061E+00 
    1.6135663816171641E+00 
    1.6166992713544042E+00 
    1.5745117254311116E+00 
    1.5147246185794978E+00 
    1.4538541341729070E+00 
    1.3982133787285698E+00 
    1.3495279076241034E+00 
    1.3078864189228854E+00 
    1.2729033031423365E+00 
    1.2440859762431424E+00 
    1.2208791595174822E+00 
    1.2024892515727126E+00 
    1.1875104729004022E+00 
    1.1783735521389049E+00 
    1.1755599415385296E+00 
    1.1753946283721441E+00 
    1.5125927669705617E+00 
    1.5287080707003327E+00 
    1.5147362981998105E+00 
    1.4796964691011836E+00 
    1.4349423228951714E+00 
    1.3883014163325031E+00 
    1.3440185494578576E+00 
    1.3041168975562314E+00 
    1.2694591466107767E+00 
    1.2403169668611860E+00 
    1.2166257021962079E+00 
    1.1980169052071388E+00 
    1.1834172754372250E+00 
    1.1730112978479554E+00 
    1.1702152358614064E+00 
    1.1709604747028148E+00 
    1.4374931590256446E+00 
    1.4552309643273063E+00 
    1.4538789168320974E+00 
    1.4349554322414799E+00 
    1.4040615941057737E+00 
    1.3671584891980844E+00 
    1.3288206510232348E+00 
    1.2920805567004885E+00 
    1.2588054322604114E+00 
    1.2300710133313995E+00 
    1.2064181978975383E+00 
    1.1879646720055828E+00 
    1.1741031734621474E+00 
    1.1636801935753258E+00 
    1.1611775510707516E+00 
    1.1632624701529148E+00 
    1.3785733678661531E+00 
    1.3947559399059282E+00 
    1.3982519745369113E+00 
    1.3883282269783050E+00 
    1.3671723388607837E+00 
    1.3384504686509680E+00 
    1.3059106797249285E+00 
    1.2727015754261928E+00 
    1.2412276275537562E+00 
    1.2132158137261446E+00 
    1.1898219864768176E+00 
    1.1716841995610103E+00 
    1.1586763895915675E+00 
    1.1494074596517314E+00 
    1.1475150527201898E+00 
    1.1513764652388667E+00 
    1.3310288184820556E+00 
    1.3448512443751646E+00 
    1.3495809255563278E+00 
    1.3440596025706275E+00 
    1.3288487442235901E+00 
    1.3059250420936541E+00 
    1.2779595643114134E+00 
    1.2477189633098771E+00 
    1.2177391904080481E+00 
    1.1901861127180919E+00 
    1.1667891516773059E+00 
    1.1487562161790414E+00 
    1.1364908134762342E+00 
    1.1289302636987750E+00 
    1.1279757539939559E+00 
    1.1340826396767336E+00 
    1.2922368590019160E+00 
    1.3036099976132405E+00 
    1.3079552282632905E+00 
    1.3041738593268990E+00 
    1.2921243304490693E+00 
    1.2727313502915405E+00 
    1.2477339966965524E+00 
    1.2193414396569733E+00 
    1.1899587818456858E+00 
    1.1619990046653657E+00 
    1.1377191459656584E+00 
    1.1189962012418024E+00 
    1.1069283739941314E+00 
    1.1009957818209952E+00 
    1.1012631715921115E+00 
    1.1101354414599305E+00 
    1.2606196338988334E+00 
    1.2696895460182052E+00 
    1.2729905095448579E+00 
    1.2695352565450022E+00 
    1.2588684263760672E+00 
    1.2412759065351233E+00 
    1.2177714163023670E+00 
    1.1899745630874989E+00 
    1.1599855710621125E+00 
    1.1302806750742747E+00 
    1.1035787206147334E+00 
    1.0825698177780658E+00 
    1.0693791962743133E+00 
    1.0644310161578718E+00 
    1.0663156541403553E+00 
    1.0785734704485970E+00 
    1.2351025735542596E+00 
    1.2421168799737534E+00 
    1.2441951342966715E+00 
    1.2404167404704360E+00 
    1.2301588722694408E+00 
    1.2132885897478380E+00 
    1.1902404613172475E+00 
    1.1620331328813251E+00 
    1.1302957654953851E+00 
    1.0973256965207172E+00 
    1.0661277346644815E+00 
    1.0402809724345672E+00 
    1.0233938225825836E+00 
    1.0176012122852220E+00 
    1.0214977477546783E+00 
    1.0382144896043934E+00 
    1.2147621698063671E+00 
    1.2200561804963785E+00 
    1.2210152527116722E+00 
    1.2167544987015588E+00 
    1.2065366319620410E+00 
    1.1899262362993281E+00 
    1.1668723637246965E+00 
    1.1377758638394380E+00 
    1.1036088238791311E+00 
    1.0661359965756181E+00 
    1.0282318036404210E+00 
    9.9413416698265566E-01 
    9.6927793366398629E-01 
    9.5877522998410980E-01 
    9.6379850980829340E-01 
    9.8651735775262572E-01 
    1.1983301588446642E+00 
    1.2023982514911344E+00 
    1.2026536114024993E+00 
    1.1981743556486415E+00 
    1.1881139369828069E+00 
    1.1718233573337982E+00 
    1.1488744018900647E+00 
    1.1190814248532006E+00 
    1.0826191899781219E+00 
    1.0402928387075852E+00 
    9.9412169635773451E-01 
    9.4814323589568561E-01 
    9.0920813752284546E-01 
    8.8649234576165581E-01 
    8.8703495466570847E-01 
    9.1595803860921343E-01 
    1.1859067817092646E+00 
    1.1879913879615720E+00 
    1.1876751532137926E+00 
    1.1835909633394941E+00 
    1.1742796338962749E+00 
    1.1588534851387862E+00 
    1.1366539205466049E+00 
    1.1070514143854326E+00 
    1.0694630167631185E+00 
    1.0234198348496202E+00 
    9.6923668563830356E-01 
    9.0915307236362419E-01 
    8.4938665205381592E-01 
    8.0234470608465391E-01 
    7.8420402138441714E-01 
    8.1162828441902168E-01 
    1.1806782038526440E+00 
    1.1807647490562578E+00 
    1.1785535294666087E+00 
    1.1732026132267204E+00 
    1.1638829040438015E+00 
    1.1496265187212718E+00 
    1.1291688303827492E+00 
    1.1011705494693327E+00 
    1.0645723134730112E+00 
    1.0176854497983518E+00 
    9.5870061887148328E-01 
    8.8632892535309127E-01 
    8.0224653226020559E-01 
    7.1661407717347070E-01 
    6.5363076289787170E-01 
    6.5595976529151556E-01 
    1.1786611409308525E+00 
    1.1781632606687631E+00 
    1.1757429435341338E+00 
    1.1704136246361641E+00 
    1.1613854227049993E+00 
    1.1477379736142188E+00 
    1.1282104038668663E+00 
    1.1014700722318032E+00 
    1.0665305825236664E+00 
    1.0217879043475602E+00 
    9.6380236961551324E-01 
    8.8673639174323515E-01 
    7.8400520186806177E-01 
    6.5362790481086441E-01 
    5.0661794427569928E-01 
    4.1737756310793672E-01 
    1.1781200348153469E+00 
    1.1775912696481674E+00 
    1.1755750298172811E+00 
    1.1711525349747849E+00 
    1.1634664053888366E+00 
    1.1515959326712519E+00 
    1.1343111570012028E+00 
    1.1103581240138116E+00 
    1.0788120453534129E+00 
    1.0386152331521858E+00 
    9.8668804858980164E-01 
    9.1552543961944854E-01 
    8.1117627603025566E-01 
    6.5593000521611444E-01 
    4.1742248225717488E-01 
    0.0000000000000000E+00 

SCALARS Saturarion double 1 
LOOKUP_TABLE default 

    1.0000000000000000E+00 
    9.9759426649581362E-01 
    9.9276160338668396E-01 
    9.8397897607654228E-01 
    9.7008918120274057E-01 
    9.5315335667820300E-01 
    9.3383232608342515E-01 
    9.1243508830836051E-01 
    8.8940757107951485E-01 
    8.6491812366970922E-01 
    8.3437485497307873E-01 
    7.5755246912085572E-01 
    2.6637004307788514E-01 
    1.0180088729384645E-06 
    1.0000000004502119E-06 
    9.9999999999999995E-07 
    9.9759213734376062E-01 
    9.9545639653365814E-01 
    9.9095634082796813E-01 
    9.8333988199141886E-01 
    9.7138947041249368E-01 
    9.5607562115955980E-01 
    9.3803444746180353E-01 
    9.1768933742247238E-01 
    8.9544298031431213E-01 
    8.7164030737467790E-01 
    8.4362316494282752E-01 
    7.8544211318339918E-01 
    5.3099130335759193E-01 
    1.4413317204168758E-02 
    1.6934087136698162E-06 
    1.0000000114752049E-06 
    9.9275598009928123E-01 
    9.9095326316409238E-01 
    9.8664487104769494E-01 
    9.7990783819504423E-01 
    9.7000220883024957E-01 
    9.5697667391966557E-01 
    9.4113059363235252E-01 
    9.2280642777194788E-01 
    9.0216736153057309E-01 
    8.7926555687553543E-01 
    8.5218670573819466E-01 
    8.1223525209331271E-01 
    6.9069059870301153E-01 
    1.6464691333142914E-01 
    1.4345619491880397E-04 
    1.0004771394293527E-06 
    9.8397290420319250E-01 
    9.8333550914500711E-01 
    9.7990457503497985E-01 
    9.7381317584683702E-01 
    9.6543578762412818E-01 
    9.5441300651860372E-01 
    9.4076519443114170E-01 
    9.2463136149185698E-01 
    9.0599381558917880E-01 
    8.8442703347016105E-01 
    8.5933412703253598E-01 
    8.2817773395818262E-01 
    7.5039595826065075E-01 
    3.2457039744368610E-01 
    5.6968350885428572E-04 
    1.0024054076389874E-06 
    9.7006733139077139E-01 
    9.7138141904141606E-01 
    9.6999463435431144E-01 
    9.6542572292539142E-01 
    9.5840806110829713E-01 
    9.4912063934531099E-01 
    9.3751346891368714E-01 
    9.2356663288045959E-01 
    9.0705353280680856E-01 
    8.8745804107447468E-01 
    8.6498203303102161E-01 
    8.3891997505945592E-01 
    7.8368465332994064E-01 
    4.9948272958889878E-01 
    1.6072556479056217E-02 
    3.2336267812065671E-06 
    9.5308255722629287E-01 
    9.5604768601286017E-01 
    9.5696474084738359E-01 
    9.5439237744251171E-01 
    9.4910302510136990E-01 
    9.4158060237658225E-01 
    9.3192249487172052E-01 
    9.2011405138241298E-01 
    9.0587678978385688E-01 
    8.8875507899532691E-01 
    8.6891707791003925E-01 
    8.4611548798627201E-01 
    8.0457633127591055E-01 
    6.4158513592956545E-01 
    8.8255749178109133E-02 
    5.1659226600931922E-05 
    9.3373068010523730E-01 
    9.3798051094962698E-01 
    9.4110735937524859E-01 
    9.4074584987275922E-01 
    9.3748906831598577E-01 
    9.3190373218310485E-01 
    9.2426398444011093E-01 
    9.1460939546814368E-01 
    9.0276079957842226E-01 
    8.8838144424243071E-01 
    8.7129721781061997E-01 
    8.5126500680482464E-01 
    8.1906300483449335E-01 
    7.0278340782151838E-01 
    1.9948368711343423E-01 
    9.7843195160553847E-05 
    9.1233182493995657E-01 
    9.1762349059370485E-01 
    9.2276961244677380E-01 
    9.2461721044240819E-01 
    9.2356507492915729E-01 
    9.2009988326970782E-01 
    9.1459679283317907E-01 
    9.0723995476903851E-01 
    8.9792628234402583E-01 
    8.8637713811371632E-01 
    8.7214941596786955E-01 
    8.5462244347889038E-01 
    8.2832682204946528E-01 
    7.4806617787943286E-01 
    3.0280343267838283E-01 
    3.6963148694114679E-04 
    8.8929847008743357E-01 
    8.9539010504245831E-01 
    9.0215545398855390E-01 
    9.0599140805063993E-01 
    9.0708540297209783E-01 
    9.0590850849363669E-01 
    9.0276869045821950E-01 
    8.9793263154109260E-01 
    8.9136189554688761E-01 
    8.8274221603063818E-01 
    8.7147664013204329E-01 
    8.5660494067897297E-01 
    8.3515684845358817E-01 
    7.7444004954382006E-01 
    4.0115524572055339E-01 
    4.2973747093119526E-03 
    8.6479720575461949E-01 
    8.7161307678457922E-01 
    8.7932656906068596E-01 
    8.8447275408815840E-01 
    8.8751646851917143E-01 
    8.8885340398291723E-01 
    8.8845599591886992E-01 
    8.8641202482236481E-01 
    8.8275427058417821E-01 
    8.7720667269922614E-01 
    8.6914425998178968E-01 
    8.5750437235829224E-01 
    8.4004163554386380E-01 
    7.9314038722988800E-01 
    5.3724492486640252E-01 
    1.5675835987500757E-02 
    8.3447380245080760E-01 
    8.4378618818949092E-01 
    8.5238416760651503E-01 
    8.5951050936277396E-01 
    8.6507665963351810E-01 
    8.6899580829083400E-01 
    8.7138594606278963E-01 
    8.7220702943667672E-01 
    8.7149385122252465E-01 
    8.6914171173230703E-01 
    8.6463683455221729E-01 
    8.5689683245426373E-01 
    8.4391253117095044E-01 
    8.0887411009112098E-01 
    6.2121310215526993E-01 
    6.7403881521186329E-02 
    7.5935123018036677E-01 
    7.8638896165543004E-01 
    8.1219350768451182E-01 
    8.2800416664585041E-01 
    8.3890604575404482E-01 
    8.4608466027660212E-01 
    8.5118677119217789E-01 
    8.5461624311666551E-01 
    8.5665209883047710E-01 
    8.5752985914526081E-01 
    8.5689234871814335E-01 
    8.5376349509880145E-01 
    8.4616128391140322E-01 
    8.2255288075500932E-01 
    6.8873994283651330E-01 
    2.1147835245655799E-01 
    2.7566903431106449E-01 
    5.2821680056578613E-01 
    6.8681173930953332E-01 
    7.4921379469914140E-01 
    7.8379867912362833E-01 
    8.0471441266547505E-01 
    8.1892774388581135E-01 
    8.2820655625065831E-01 
    8.3518906860660669E-01 
    8.4011992843090799E-01 
    8.4394656642006904E-01 
    8.4615402467495671E-01 
    8.4510926961849442E-01 
    8.3260380462718386E-01 
    7.3833648140192432E-01 
    3.7987999236000453E-01 
    1.0235759369745582E-06 
    1.3268225772554640E-02 
    1.5930731347758251E-01 
    3.2524601509660001E-01 
    5.0087640755264784E-01 
    6.4161502208585963E-01 
    7.0304562003302151E-01 
    7.4829947801582530E-01 
    7.7452320395110386E-01 
    7.9292203606249623E-01 
    8.0881315364217410E-01 
    8.2241252761801076E-01 
    8.3252915199640798E-01 
    8.3496043533199849E-01 
    7.8181538937917172E-01 
    5.0857694972806833E-01 
    1.0000000006280175E-06 
    1.5733067260010324E-06 
    1.5519310585740767E-04 
    6.3596230074603756E-04 
    1.5133937676929107E-02 
    8.9822361267551651E-02 
    2.0042586282566358E-01 
    3.1450810898020387E-01 
    3.9727515306997951E-01 
    5.3464995209857236E-01 
    6.2460405765526295E-01 
    6.9221951776834134E-01 
    7.4066302240110915E-01 
    7.8270314576996325E-01 
    7.8531349010037621E-01 
    6.1607048387945440E-01 
    9.9999999999999995E-07 
    1.0000000087905477E-06 
    1.0005563314275605E-06 
    1.0027146360380683E-06 
    2.8118615109627000E-06 
    6.0293604566308128E-05 
    1.0391140316960157E-04 
    6.6582113880800863E-04 
    2.3072175299053651E-03 
    1.6791525871779418E-02 
    7.8846769200757505E-02 
    2.1728083106534421E-01 
    3.7714497869021402E-01 
    5.0774819804731453E-01 
    6.1482095123827896E-01 
    6.1711249853119554E-01 
