# vtk DataFile Version 2.0
Pressure Field Data 
ASCII 
DATASET UNSTRUCTURED_GRID 

POINTS 289 double 

    0.0000000000000000E+00     0.0000000000000000E+00     0.0000000000000000E+00 
    1.0000000000000000E+00     0.0000000000000000E+00     0.0000000000000000E+00 
    1.0000000000000000E+00     1.0000000000000000E+00     0.0000000000000000E+00 
    0.0000000000000000E+00     1.0000000000000000E+00     0.0000000000000000E+00 
    6.2499999999872928E-02     0.0000000000000000E+00     0.0000000000000000E+00 
    1.2499999999977310E-01     0.0000000000000000E+00     0.0000000000000000E+00 
    1.8749999999959341E-01     0.0000000000000000E+00     0.0000000000000000E+00 
    2.4999999999941089E-01     0.0000000000000000E+00     0.0000000000000000E+00 
    3.1249999999922851E-01     0.0000000000000000E+00     0.0000000000000000E+00 
    3.7499999999904610E-01     0.0000000000000000E+00     0.0000000000000000E+00 
    4.3749999999886358E-01     0.0000000000000000E+00     0.0000000000000000E+00 
    4.9999999999869210E-01     0.0000000000000000E+00     0.0000000000000000E+00 
    5.6249999999884603E-01     0.0000000000000000E+00     0.0000000000000000E+00 
    6.2499999999901090E-01     0.0000000000000000E+00     0.0000000000000000E+00 
    6.8749999999917577E-01     0.0000000000000000E+00     0.0000000000000000E+00 
    7.4999999999934064E-01     0.0000000000000000E+00     0.0000000000000000E+00 
    8.1249999999950551E-01     0.0000000000000000E+00     0.0000000000000000E+00 
    8.7499999999967026E-01     0.0000000000000000E+00     0.0000000000000000E+00 
    9.3749999999983513E-01     0.0000000000000000E+00     0.0000000000000000E+00 
    1.0000000000000000E+00     6.2499999999872928E-02     0.0000000000000000E+00 
    1.0000000000000000E+00     1.2499999999977310E-01     0.0000000000000000E+00 
    1.0000000000000000E+00     1.8749999999959341E-01     0.0000000000000000E+00 
    1.0000000000000000E+00     2.4999999999941089E-01     0.0000000000000000E+00 
    1.0000000000000000E+00     3.1249999999922851E-01     0.0000000000000000E+00 
    1.0000000000000000E+00     3.7499999999904610E-01     0.0000000000000000E+00 
    1.0000000000000000E+00     4.3749999999886358E-01     0.0000000000000000E+00 
    1.0000000000000000E+00     4.9999999999869210E-01     0.0000000000000000E+00 
    1.0000000000000000E+00     5.6249999999884603E-01     0.0000000000000000E+00 
    1.0000000000000000E+00     6.2499999999901090E-01     0.0000000000000000E+00 
    1.0000000000000000E+00     6.8749999999917577E-01     0.0000000000000000E+00 
    1.0000000000000000E+00     7.4999999999934064E-01     0.0000000000000000E+00 
    1.0000000000000000E+00     8.1249999999950551E-01     0.0000000000000000E+00 
    1.0000000000000000E+00     8.7499999999967026E-01     0.0000000000000000E+00 
    1.0000000000000000E+00     9.3749999999983513E-01     0.0000000000000000E+00 
    9.3749999999973976E-01     1.0000000000000000E+00     0.0000000000000000E+00 
    8.7499999999950118E-01     1.0000000000000000E+00     0.0000000000000000E+00 
    8.1249999999991318E-01     1.0000000000000000E+00     0.0000000000000000E+00 
    7.5000000000034706E-01     1.0000000000000000E+00     0.0000000000000000E+00 
    6.8750000000078049E-01     1.0000000000000000E+00     0.0000000000000000E+00 
    6.2500000000121403E-01     1.0000000000000000E+00     0.0000000000000000E+00 
    5.6250000000164757E-01     1.0000000000000000E+00     0.0000000000000000E+00 
    5.0000000000205946E-01     1.0000000000000000E+00     0.0000000000000000E+00 
    4.3750000000182099E-01     1.0000000000000000E+00     0.0000000000000000E+00 
    3.7500000000156092E-01     1.0000000000000000E+00     0.0000000000000000E+00 
    3.1250000000130068E-01     1.0000000000000000E+00     0.0000000000000000E+00 
    2.5000000000104050E-01     1.0000000000000000E+00     0.0000000000000000E+00 
    1.8750000000078040E-01     1.0000000000000000E+00     0.0000000000000000E+00 
    1.2500000000052031E-01     1.0000000000000000E+00     0.0000000000000000E+00 
    6.2500000000260125E-02     1.0000000000000000E+00     0.0000000000000000E+00 
    0.0000000000000000E+00     9.3749999999973976E-01     0.0000000000000000E+00 
    0.0000000000000000E+00     8.7499999999950118E-01     0.0000000000000000E+00 
    0.0000000000000000E+00     8.1249999999991318E-01     0.0000000000000000E+00 
    0.0000000000000000E+00     7.5000000000034706E-01     0.0000000000000000E+00 
    0.0000000000000000E+00     6.8750000000078049E-01     0.0000000000000000E+00 
    0.0000000000000000E+00     6.2500000000121403E-01     0.0000000000000000E+00 
    0.0000000000000000E+00     5.6250000000164757E-01     0.0000000000000000E+00 
    0.0000000000000000E+00     5.0000000000205946E-01     0.0000000000000000E+00 
    0.0000000000000000E+00     4.3750000000182099E-01     0.0000000000000000E+00 
    0.0000000000000000E+00     3.7500000000156092E-01     0.0000000000000000E+00 
    0.0000000000000000E+00     3.1250000000130068E-01     0.0000000000000000E+00 
    0.0000000000000000E+00     2.5000000000104050E-01     0.0000000000000000E+00 
    0.0000000000000000E+00     1.8750000000078040E-01     0.0000000000000000E+00 
    0.0000000000000000E+00     1.2500000000052031E-01     0.0000000000000000E+00 
    0.0000000000000000E+00     6.2500000000260125E-02     0.0000000000000000E+00 
    6.2499999999897131E-02     6.2500000000235922E-02     0.0000000000000000E+00 
    6.2499999999921327E-02     1.2500000000047351E-01     0.0000000000000000E+00 
    6.2499999999945530E-02     1.8750000000070621E-01     0.0000000000000000E+00 
    6.2499999999969733E-02     2.5000000000093858E-01     0.0000000000000000E+00 
    6.2499999999993928E-02     3.1250000000117117E-01     0.0000000000000000E+00 
    6.2500000000018124E-02     3.7500000000140382E-01     0.0000000000000000E+00 
    6.2500000000042327E-02     4.3750000000163619E-01     0.0000000000000000E+00 
    6.2500000000066530E-02     5.0000000000184897E-01     0.0000000000000000E+00 
    6.2500000000090733E-02     5.6250000000147260E-01     0.0000000000000000E+00 
    6.2500000000114922E-02     6.2500000000107636E-01     0.0000000000000000E+00 
    6.2500000000139125E-02     6.8750000000068034E-01     0.0000000000000000E+00 
    6.2500000000163328E-02     7.5000000000028411E-01     0.0000000000000000E+00 
    6.2500000000187531E-02     8.1249999999988787E-01     0.0000000000000000E+00 
    6.2500000000211720E-02     8.7499999999951172E-01     0.0000000000000000E+00 
    6.2500000000235922E-02     9.3749999999974565E-01     0.0000000000000000E+00 
    1.2499999999981980E-01     6.2500000000211733E-02     0.0000000000000000E+00 
    1.2499999999986650E-01     1.2500000000042691E-01     0.0000000000000000E+00 
    1.2499999999991319E-01     1.8750000000063199E-01     0.0000000000000000E+00 
    1.2499999999995989E-01     2.5000000000083678E-01     0.0000000000000000E+00 
    1.2500000000000661E-01     3.1250000000104172E-01     0.0000000000000000E+00 
    1.2500000000005329E-01     3.7500000000124661E-01     0.0000000000000000E+00 
    1.2500000000010000E-01     4.3750000000145117E-01     0.0000000000000000E+00 
    1.2500000000014669E-01     5.0000000000163858E-01     0.0000000000000000E+00 
    1.2500000000019340E-01     5.6250000000129741E-01     0.0000000000000000E+00 
    1.2500000000024011E-01     6.2500000000093847E-01     0.0000000000000000E+00 
    1.2500000000028680E-01     6.8750000000057998E-01     0.0000000000000000E+00 
    1.2500000000033351E-01     7.5000000000022127E-01     0.0000000000000000E+00 
    1.2500000000038020E-01     8.1249999999986211E-01     0.0000000000000000E+00 
    1.2500000000042691E-01     8.7499999999952238E-01     0.0000000000000000E+00 
    1.2500000000047359E-01     9.3749999999975164E-01     0.0000000000000000E+00 
    1.8749999999966760E-01     6.2500000000187531E-02     0.0000000000000000E+00 
    1.8749999999974179E-01     1.2500000000038020E-01     0.0000000000000000E+00 
    1.8749999999981601E-01     1.8750000000055780E-01     0.0000000000000000E+00 
    1.8749999999989009E-01     2.5000000000073502E-01     0.0000000000000000E+00 
    1.8749999999996431E-01     3.1250000000091221E-01     0.0000000000000000E+00 
    1.8750000000003850E-01     3.7500000000108941E-01     0.0000000000000000E+00 
    1.8750000000011269E-01     4.3750000000126649E-01     0.0000000000000000E+00 
    1.8750000000018691E-01     5.0000000000142808E-01     0.0000000000000000E+00 
    1.8750000000026110E-01     5.6250000000112244E-01     0.0000000000000000E+00 
    1.8750000000033529E-01     6.2500000000080080E-01     0.0000000000000000E+00 
    1.8750000000040951E-01     6.8750000000047962E-01     0.0000000000000000E+00 
    1.8750000000048361E-01     7.5000000000015843E-01     0.0000000000000000E+00 
    1.8750000000055780E-01     8.1249999999983680E-01     0.0000000000000000E+00 
    1.8750000000063199E-01     8.7499999999953304E-01     0.0000000000000000E+00 
    1.8750000000070621E-01     9.3749999999975764E-01     0.0000000000000000E+00 
    2.4999999999951281E-01     6.2500000000163314E-02     0.0000000000000000E+00 
    2.4999999999961461E-01     1.2500000000033351E-01     0.0000000000000000E+00 
    2.4999999999971650E-01     1.8750000000048361E-01     0.0000000000000000E+00 
    2.4999999999981831E-01     2.5000000000063310E-01     0.0000000000000000E+00 
    2.4999999999992020E-01     3.1250000000078260E-01     0.0000000000000000E+00 
    2.5000000000002198E-01     3.7500000000093209E-01     0.0000000000000000E+00 
    2.5000000000012390E-01     4.3750000000108180E-01     0.0000000000000000E+00 
    2.5000000000022571E-01     5.0000000000121769E-01     0.0000000000000000E+00 
    2.5000000000032763E-01     5.6250000000094724E-01     0.0000000000000000E+00 
    2.5000000000042938E-01     6.2500000000066314E-01     0.0000000000000000E+00 
    2.5000000000053119E-01     6.8750000000037925E-01     0.0000000000000000E+00 
[...]
CELL_DATA 256 
SCALARS Pressure double 1 
LOOKUP_TABLE default 

    1.6782542204679478E+00 
    1.4330362425761320E+00 
    1.2840391215462579E+00 
    1.1813487531243396E+00 
    1.1038060177401878E+00 
    1.0417876159995694E+00 
    9.9059014914575116E-01 
    9.4767323028051687E-01 
    9.1148930491193136E-01 
    8.8071282173880938E-01 
    8.5315123055382092E-01 
    8.3597401825729711E-01 
    8.2780696517772623E-01 
    8.2341675000517400E-01 
    8.2137195835118959E-01 
    8.2082043730908238E-01 
    1.4330398635097104E+00 
    1.3830944262078388E+00 
    1.2875075209477693E+00 
    1.1981894700905138E+00 
    1.1226657037129784E+00 
    1.0594595446090891E+00 
    1.0062233984416800E+00 
    9.6112728938093828E-01 
    9.2286806096571750E-01 
    8.9029836121028116E-01 
    8.6154934568794050E-01 
    8.3922187118276204E-01 
    8.2867594690823854E-01 
    8.2332624407033073E-01 
    8.2082906323388505E-01 
    8.2027138142941147E-01 
    1.2840462604150324E+00 
    1.2875113816652544E+00 
    1.2450916132004055E+00 
    1.1844300903501648E+00 
    1.1219903604638282E+00 
    1.0640877504586663E+00 
    1.0124970932707267E+00 
    9.6735746626317409E-01 
    9.2830708894022718E-01 
    8.9478330227905722E-01 
    8.6562098843700219E-01 
    8.4011533258016513E-01 
    8.2673877427545406E-01 
    8.2087094573522723E-01 
    8.1835927540528752E-01 
    8.1822420830345699E-01 
    1.1813595807278643E+00 
    1.1981969651570004E+00 
    1.1844338035881938E+00 
    1.1490095013892343E+00 
    1.1032166560384309E+00 
    1.0548559802135311E+00 
    1.0081782451073256E+00 
    9.6521544227768208E-01 
    9.2682976608137746E-01 
    8.9328035872352018E-01 
    8.6416181650688928E-01 
    8.3795895788162122E-01 
    8.2148152241866390E-01 
    8.1520525880030992E-01 
    8.1309709056527213E-01 
    8.1381353684245972E-01 
    1.1038187015561678E+00 
    1.1226752561038280E+00 
    1.1219962755592603E+00 
    1.1032193298676822E+00 
    1.0718752953487158E+00 
    1.0338765303102964E+00 
    9.9376273939935167E-01 
    9.5453285143292887E-01 
    9.1802722443824780E-01 
    8.8531146823462548E-01 
    8.5672408057365956E-01 
    8.3128242885703285E-01 
    8.1205659062097391E-01 
    8.0536653907763633E-01 
    8.0414973772525300E-01 
    8.0616179320488279E-01 
    1.0417992890517027E+00 
    1.0594689133111355E+00 
    1.0640938642193005E+00 
    1.0548593411229339E+00 
    1.0338776892523429E+00 
    1.0047525221220042E+00 
    9.7116904776977298E-01 
    9.3620381497576832E-01 
    9.0219088952035031E-01 
    8.7079542231472129E-01 
    8.4299191839400889E-01 
    8.1855943426516342E-01 
    7.9758015638411950E-01 
    7.9051881417924597E-01 
    7.9065421357052701E-01 
    7.9439729130836079E-01 
    9.9060068765002796E-01 
    1.0062325959123546E+00 
    1.0125041209345358E+00 
    1.0081826725199563E+00 
    9.9376492280165396E-01 
    9.7117010112297175E-01 
    9.4299566128270029E-01 
    9.1190159891383704E-01 
    8.8028736728130452E-01 
    8.5016091837330710E-01 
    8.2301129116834304E-01 
    7.9929327017987495E-01 
    7.7794411319200740E-01 
    7.7032188134292257E-01 
    7.7188586366594658E-01 
    7.7769234153870270E-01 
    9.4768617855079984E-01 
    9.6113970310155161E-01 
    9.6736940520963877E-01 
    9.6522522984988568E-01 
    9.5453965141598507E-01 
    9.3620856274653175E-01 
    9.1190432855927528E-01 
    8.8370712402771967E-01 
    8.5381876724002714E-01 
    8.2437919906662027E-01 
    7.9728851243416199E-01 
    7.7367069173342462E-01 
    7.5274359218525322E-01 
    7.4405613604470577E-01 
    7.4695209476153956E-01 
    7.5513698051072808E-01 
    9.1150721429216941E-01 
    9.2288776044446696E-01 
    9.2832968739198607E-01 
    9.2685118675266753E-01 
    9.1804399255481994E-01 
    9.0220271557215015E-01 
    8.8029431442038153E-01 
    8.5382115050737084E-01 
    8.2465837149439314E-01 
    7.9492096017600222E-01 
    7.6681617563365667E-01 
    7.4216154793565881E-01 
    7.2111857728328199E-01 
    7.1032472730158824E-01 
    7.1442348164941671E-01 
    7.2551759732462451E-01 
    8.8074076343682617E-01 
    8.9032838826235849E-01 
    8.9481933259516866E-01 
    8.9331380732502130E-01 
    8.8533851850523482E-01 
    8.7081512229575775E-01 
    8.5017185187198285E-01 
    8.2438261838381877E-01 
    7.9492070167726958E-01 
    7.6371815810909860E-01 
    7.3313596469022690E-01 
    7.0567006821841594E-01 
    6.8275752499495701E-01 
    6.6813882044347905E-01 
    6.7287819417686801E-01 
    6.8741130709189424E-01 
    8.5320144895829253E-01 
    8.6157692529891583E-01 
    8.6565654693894856E-01 
    8.6419641646170375E-01 
    8.5675738302642190E-01 
    8.4302279770211619E-01 
    8.2302876982207673E-01 
    7.9729218694680326E-01 
    7.6681398034303117E-01 
    7.3313385038626699E-01 
    6.9847924297852348E-01 
    6.6580645634806135E-01 
    6.3800031129472179E-01 
    6.1749321817174552E-01 
    6.2114192808022761E-01 
    6.3923914687712291E-01 
    8.3603916280095047E-01 
    8.3929099131038054E-01 
    8.4018621214562328E-01 
    8.3801049732484867E-01 
    8.3132302385735157E-01 
    8.1861315164308113E-01 
    7.9933516470943600E-01 
    7.7368530431389881E-01 
    7.4216200492121531E-01 
    7.0566547980714101E-01 
    6.6580159746382028E-01 
    6.2539987059493041E-01 
    5.8849909705805248E-01 
    5.5881139644267430E-01 
    5.5695804035585239E-01 
    5.7833937340529451E-01 
    8.2786777061564054E-01 
    8.2874177782143632E-01 
    8.2681544602471690E-01 
    8.2154378590511112E-01 
    8.1212048854587737E-01 
    7.9768352441870571E-01 
    7.7807189372146013E-01 
    7.5282506634226487E-01 
    7.2115210805067698E-01 
    6.8275807289092649E-01 
    6.3798132619473480E-01 
    5.8849079590801789E-01 
    5.3809950061267475E-01 
    4.9278088905019451E-01 
    4.7563125291189379E-01 
    4.9866289096304189E-01 
    8.2347804508538647E-01 
    8.2338887909673064E-01 
    8.2093637016116783E-01 
    8.1526536071956424E-01 
    8.0542310631934300E-01 
    7.9059624064696032E-01 
    7.7040190770957639E-01 
    7.4407376740749642E-01 
    7.1027272952463227E-01 
    6.6806735004830542E-01 
    6.1739460923516809E-01 
    5.5875734761880791E-01 
    4.9275284151702986E-01 
    4.2363005695993949E-01 
    3.7339285799513688E-01 
    3.8892305302969293E-01 
    8.2143336300147363E-01 
    8.2089081901037264E-01 
    8.1842170610184151E-01 
    8.1315758133985672E-01 
    8.0420726854311120E-01 
    7.9071445214485758E-01 
    7.7194078537030275E-01 
    7.4696271098567335E-01 
    7.1436511959588356E-01 
    6.7279629797139151E-01 
    6.2104685461624931E-01 
    5.5692369644065698E-01 
    4.7570541686278245E-01 
    3.7354154995096145E-01 
    2.6270986348023118E-01 
    2.2868520533855272E-01 
    8.2088185570615624E-01 
    8.2033290682047477E-01 
    8.1828587221926996E-01 
    8.1387410479872291E-01 
    8.0621995510339650E-01 
    7.9445369574944269E-01 
    7.7774185853006117E-01 
    7.5515924597180395E-01 
    7.2549357024499739E-01 
    6.8735392923011585E-01 
    6.3916494600204565E-01 
    5.7829483458302011E-01 
    4.9873075464382388E-01 
    3.8909818708477428E-01 
    2.2881712587992747E-01 
    0.0000000000000000E+00 

SCALARS Saturarion double 1 
LOOKUP_TABLE default 

    1.0000000000000000E+00 
    9.9639301544958214E-01 
    9.8923626308604717E-01 
    9.7606832277744815E-01 
    9.5651888326968892E-01 
    9.3405373590227891E-01 
    9.0980727173834219E-01 
    8.8430231838293194E-01 
    8.5654012447117134E-01 
    8.1427003173910273E-01 
    6.5768123677609280E-01 
    4.8334412661065501E-02 
    1.0000707293111713E-06 
    1.0000000000025965E-06 
    9.9999999999999995E-07 
    9.9999999999999995E-07 
    9.9638894268523193E-01 
    9.9318856772384045E-01 
    9.8652829633969408E-01 
    9.7517223279154797E-01 
    9.5821494022768927E-01 
    9.3767259538684644E-01 
    9.1472303454466486E-01 
    8.9009114620175089E-01 
    8.6328491529811302E-01 
    8.2596425075291946E-01 
    7.3782575771704650E-01 
    2.8469280522292423E-01 
    1.4223661284539987E-04 
    1.0016812062872266E-06 
    1.0000000000000038E-06 
    9.9999999999999995E-07 
    9.8922584359391008E-01 
    9.8652275142916479E-01 
    9.8008148917090132E-01 
    9.7017163121222794E-01 
    9.5606833516531275E-01 
    9.3837960056670744E-01 
    9.1786120882609012E-01 
    8.9489450317358721E-01 
    8.6860901198784279E-01 
    8.3601600071943161E-01 
    7.8016680502378488E-01 
    5.1216995631874362E-01 
    1.4352008034018942E-02 
    2.4190763324471419E-06 
    1.0000000580961354E-06 
    9.9999999999999995E-07 
    9.7605150204615287E-01 
    9.7516080359656787E-01 
    9.7016428817446465E-01 
    9.6136035470385861E-01 
    9.4949626237462581E-01 
    9.3445628022535254E-01 
    9.1655097579052658E-01 
    8.9576136445820098E-01 
    8.7181837104938553E-01 
    8.4544662362323231E-01 
    8.0351951597205495E-01 
    6.6478320909193567E-01 
    1.0754640037169634E-01 
    7.2527663219574669E-05 
    1.0001272020823244E-06 
    9.9999999999999995E-07 
    9.5645524556494077E-01 
    9.5817935085788608E-01 
    9.5604460947004188E-01 
    9.4947578762631224E-01 
    9.3963083696675664E-01 
    9.2697186012669230E-01 
    9.1162097289491406E-01 
    8.9356986742740885E-01 
    8.7319822380605439E-01 
    8.5067947992599990E-01 
    8.1880344747606681E-01 
    7.2775223250090659E-01 
    2.7000960090948367E-01 
    1.6800224661117581E-04 
    1.0019474075991323E-06 
    1.0000000000018609E-06 
    9.3391964074430522E-01 
    9.3760975447147954E-01 
    9.3835599994954833E-01 
    9.3442652902126888E-01 
    9.2694891663448409E-01 
    9.1668187719704108E-01 
    9.0392922549087618E-01 
    8.8896055699938237E-01 
    8.7208707976303323E-01 
    8.5262542869809610E-01 
    8.2606070826074118E-01 
    7.6543746435841042E-01 
    4.3020076259049106E-01 
    4.0541477829698696E-03 
    1.1350080197712312E-06 
    1.0000000031211192E-06 
    9.0965922652861453E-01 
    9.1465158341816644E-01 
    9.1785991650879339E-01 
    9.1655908430856303E-01 
    9.1161840002712735E-01 
    9.0393284798507778E-01 
    8.9402205027301396E-01 
    8.8217152229169526E-01 
    8.6837271835838592E-01 
    8.5174678280731775E-01 
    8.2917199709418865E-01 
    7.8144032586207712E-01 
    5.5968248977970991E-01 
    2.1126403221537252E-02 
    2.8958565469026028E-06 
    1.0000000834595964E-06 
    8.8421944227078186E-01 
    8.9007086119231216E-01 
    8.9493648518393043E-01 
    8.9582002931061600E-01 
    8.9364750657655345E-01 
    8.8901907186066165E-01 
    8.8219316370380019E-01 
    8.7327476174807361E-01 
    8.6218078831149514E-01 
    8.4852637041914136E-01 
    8.3027608712003398E-01 
    7.9209674614887549E-01 
    6.4762123694027762E-01 
    9.4771298558803896E-02 
    4.3677576904906810E-05 
    1.0000332099276625E-06 
    8.5651924623637332E-01 
    8.6334740070955696E-01 
    8.6873014755954248E-01 
    8.7191360547646446E-01 
    8.7333650042944422E-01 
    8.7219021329558266E-01 
    8.6838763373219729E-01 
    8.6217360999929304E-01 
    8.5375378928953327E-01 
    8.4320190432752906E-01 
    8.2935797087665108E-01 
    8.0087218603175980E-01 
    7.0200748026724313E-01 
    2.0442559177263545E-01 
    7.9351380108802594E-05 
    1.0003813441206775E-06 
    8.1468033355906488E-01 
    8.2622961425364461E-01 
    8.3611361284817409E-01 
    8.4535811256856819E-01 
    8.5060168322350238E-01 
    8.5266983497680882E-01 
    8.5177962720683287E-01 
    8.4851567738287181E-01 
    8.4321031492368947E-01 
    8.3593033755845514E-01 
    8.2591998244355802E-01 
    8.0594509069161080E-01 
    7.3794951266614039E-01 
    3.2039199734048646E-01 
    7.9911474956657989E-04 
    1.0036031665313739E-06 
    6.6093597200937593E-01 
    7.3713166222823556E-01 
    7.7905489749730283E-01 
    8.0288000703893847E-01 
    8.1863013091501569E-01 
    8.2613881291319202E-01 
    8.2931442697087210E-01 
    8.3032980611695428E-01 
    8.2935910280334935E-01 
    8.2595725675843457E-01 
    8.1967252168552773E-01 
    8.0650511088646060E-01 
    7.5922101238417161E-01 
    4.5226729485764000E-01 
    6.2119819745075546E-03 
    1.2339761179297519E-06 
    5.1175543190540622E-02 
    2.7661796860404470E-01 
    5.1052357771667867E-01 
    6.6565089264035848E-01 
    7.2834317179389885E-01 
    7.6514099836165006E-01 
    7.8159112492180371E-01 
    7.9264032247722005E-01 
    8.0123916803384509E-01 
    8.0608237038769770E-01 
    8.0647161084047403E-01 
    7.9975793430444186E-01 
    7.7062951067076801E-01 
    6.0187544854361885E-01 
    6.0337583567044217E-02 
    2.0459196045069140E-05 
    1.0000850482350812E-06 
    1.3094728100594190E-04 
    1.5063800531386878E-02 
    1.1038556987287984E-01 
    2.6835874414510902E-01 
    4.2646928463008871E-01 
    5.6245117149206758E-01 
    6.5199309036478081E-01 
    7.0444381235386211E-01 
    7.3872159788714264E-01 
    7.5925580481822397E-01 
    7.7047173985594286E-01 
    7.6423307137653473E-01 
    6.6798117049969907E-01 
    1.9250913109212281E-01 
    1.2637218188817591E-04 
    1.0000000000024680E-06 
    1.0013652531384136E-06 
    2.5723613927947395E-06 
    7.5696765712137049E-05 
    1.5690109832844555E-04 
    4.1436068089564376E-03 
    2.3867659852908354E-02 
    1.0189073722943720E-01 
    2.0829874607432775E-01 
    3.2346035957426528E-01 
    4.5414463674982197E-01 
    6.0072222110906093E-01 
    6.6673812162878476E-01 
    6.7766797587510652E-01 
    3.5779881577650752E-01 
    4.6982221963500831E-03 
    9.9999999999999995E-07 
    1.0000000000000002E-06 
    1.0000000662156654E-06 
    1.0001388793594518E-06 
    1.0016871433156963E-06 
    1.1468199144216250E-06 
    3.8480120608817456E-06 
    4.7277631063003646E-05 
    6.9588005960947866E-05 
    7.9179527027616590E-04 
    6.4893034795834590E-03 
    5.7468846125027610E-02 
    1.9135490649473985E-01 
    3.5448353532636401E-01 
    4.8324621791598826E-01 
    7.1072065376330637E-02 
    9.9999999999999995E-07 
    9.9999999999999995E-07 
    9.9999999999999995E-07 
    9.9999999999999995E-07 
    1.0000000000015140E-06 
    1.0000000034981603E-06 
    1.0000001504404913E-06 
    1.0000388850363950E-06 
    1.0002800078918319E-06 
    1.0037579164739031E-06 
    1.2249209526062423E-06 
    1.7526967129046425E-05 
    1.4315464134635430E-04 
    4.4309624330693426E-03 
    7.4098548781712126E-02 
    4.0420958107184749E-03 
