# vtk DataFile Version 2.0
Pressure Field Data 
ASCII 
DATASET UNSTRUCTURED_GRID 

POINTS 289 double 

    0.0000000000000000E+00     0.0000000000000000E+00     0.0000000000000000E+00 
    1.0000000000000000E+00     0.0000000000000000E+00     0.0000000000000000E+00 
    1.0000000000000000E+00     1.0000000000000000E+00     0.0000000000000000E+00 
    0.0000000000000000E+00     1.0000000000000000E+00     0.0000000000000000E+00 
    6.2499999999872928E-02     0.0000000000000000E+00     0.0000000000000000E+00 
    1.2499999999977310E-01     0.0000000000000000E+00     0.0000000000000000E+00 
    1.8749999999959341E-01     0.0000000000000000E+00     0.0000000000000000E+00 
    2.4999999999941089E-01     0.0000000000000000E+00     0.0000000000000000E+00 
    3.1249999999922851E-01     0.0000000000000000E+00     0.0000000000000000E+00 
    3.7499999999904610E-01     0.0000000000000000E+00     0.0000000000000000E+00 
    4.3749999999886358E-01     0.0000000000000000E+00     0.0000000000000000E+00 
    4.9999999999869210E-01     0.0000000000000000E+00     0.0000000000000000E+00 
    5.6249999999884603E-01     0.0000000000000000E+00     0.0000000000000000E+00 
    6.2499999999901090E-01     0.0000000000000000E+00     0.0000000000000000E+00 
    6.8749999999917577E-01     0.0000000000000000E+00     0.0000000000000000E+00 
    7.4999999999934064E-01     0.0000000000000000E+00     0.0000000000000000E+00 
    8.1249999999950551E-01     0.0000000000000000E+00     0.0000000000000000E+00 
    8.7499999999967026E-01     0.0000000000000000E+00     0.0000000000000000E+00 
    9.3749999999983513E-01     0.0000000000000000E+00     0.0000000000000000E+00 
    1.0000000000000000E+00     6.2499999999872928E-02     0.0000000000000000E+00 
    1.0000000000000000E+00     1.2499999999977310E-01     0.0000000000000000E+00 
    1.0000000000000000E+00     1.8749999999959341E-01     0.0000000000000000E+00 
    1.0000000000000000E+00     2.4999999999941089E-01     0.0000000000000000E+00 
    1.0000000000000000E+00     3.1249999999922851E-01     0.0000000000000000E+00 
    1.0000000000000000E+00     3.7499999999904610E-01     0.0000000000000000E+00 
    1.0000000000000000E+00     4.3749999999886358E-01     0.0000000000000000E+00 
    1.0000000000000000E+00     4.9999999999869210E-01     0.0000000000000000E+00 
    1.0000000000000000E+00     5.6249999999884603E-01     0.0000000000000000E+00 
    1.0000000000000000E+00     6.2499999999901090E-01     0.0000000000000000E+00 
    1.0000000000000000E+00     6.8749999999917577E-01     0.0000000000000000E+00 
    1.0000000000000000E+00     7.4999999999934064E-01     0.0000000000000000E+00 
    1.0000000000000000E+00     8.1249999999950551E-01     0.0000000000000000E+00 
    1.0000000000000000E+00     8.7499999999967026E-01     0.0000000000000000E+00 
    1.0000000000000000E+00     9.3749999999983513E-01     0.0000000000000000E+00 
    9.3749999999973976E-01     1.0000000000000000E+00     0.0000000000000000E+00 
    8.7499999999950118E-01     1.0000000000000000E+00     0.0000000000000000E+00 
    8.1249999999991318E-01     1.0000000000000000E+00     0.0000000000000000E+00 
    7.5000000000034706E-01     1.0000000000000000E+00     0.0000000000000000E+00 
    6.8750000000078049E-01     1.0000000000000000E+00     0.0000000000000000E+00 
    6.2500000000121403E-01     1.0000000000000000E+00     0.0000000000000000E+00 
    5.6250000000164757E-01     1.0000000000000000E+00     0.0000000000000000E+00 
    5.0000000000205946E-01     1.0000000000000000E+00     0.0000000000000000E+00 
    4.3750000000182099E-01     1.0000000000000000E+00     0.0000000000000000E+00 
    3.7500000000156092E-01     1.0000000000000000E+00     0.0000000000000000E+00 
    3.1250000000130068E-01     1.0000000000000000E+00     0.0000000000000000E+00 
    2.5000000000104050E-01     1.0000000000000000E+00     0.0000000000000000E+00 
    1.8750000000078040E-01     1.0000000000000000E+00     0.0000000000000000E+00 
    1.2500000000052031E-01     1.0000000000000000E+00     0.0000000000000000E+00 
    6.2500000000260125E-02     1.0000000000000000E+00     0.0000000000000000E+00 
    0.0000000000000000E+00     9.3749999999973976E-01     0.0000000000000000E+00 
    0.0000000000000000E+00     8.7499999999950118E-01     0.0000000000000000E+00 
    0.0000000000000000E+00     8.1249999999991318E-01     0.0000000000000000E+00 
    0.0000000000000000E+00     7.5000000000034706E-01     0.0000000000000000E+00 
    0.0000000000000000E+00     6.8750000000078049E-01     0.0000000000000000E+00 
    0.0000000000000000E+00     6.2500000000121403E-01     0.0000000000000000E+00 
    0.0000000000000000E+00     5.6250000000164757E-01     0.0000000000000000E+00 
    0.0000000000000000E+00     5.0000000000205946E-01     0.0000000000000000E+00 
    0.0000000000000000E+00     4.3750000000182099E-01     0.0000000000000000E+00 
    0.0000000000000000E+00     3.7500000000156092E-01     0.0000000000000000E+00 
    0.0000000000000000E+00     3.1250000000130068E-01     0.0000000000000000E+00 
    0.0000000000000000E+00     2.5000000000104050E-01     0.0000000000000000E+00 
    0.0000000000000000E+00     1.8750000000078040E-01     0.0000000000000000E+00 
    0.0000000000000000E+00     1.2500000000052031E-01     0.0000000000000000E+00 
    0.0000000000000000E+00     6.2500000000260125E-02     0.0000000000000000E+00 
    6.2499999999897131E-02     6.2500000000235922E-02     0.0000000000000000E+00 
    6.2499999999921327E-02     1.2500000000047351E-01     0.0000000000000000E+00 
    6.2499999999945530E-02     1.8750000000070621E-01     0.0000000000000000E+00 
    6.2499999999969733E-02     2.5000000000093858E-01     0.0000000000000000E+00 
    6.2499999999993928E-02     3.1250000000117117E-01     0.0000000000000000E+00 
    6.2500000000018124E-02     3.7500000000140382E-01     0.0000000000000000E+00 
    6.2500000000042327E-02     4.3750000000163619E-01     0.0000000000000000E+00 
    6.2500000000066530E-02     5.0000000000184897E-01     0.0000000000000000E+00 
    6.2500000000090733E-02     5.6250000000147260E-01     0.0000000000000000E+00 
    6.2500000000114922E-02     6.2500000000107636E-01     0.0000000000000000E+00 
    6.2500000000139125E-02     6.8750000000068034E-01     0.0000000000000000E+00 
    6.2500000000163328E-02     7.5000000000028411E-01     0.0000000000000000E+00 
    6.2500000000187531E-02     8.1249999999988787E-01     0.0000000000000000E+00 
    6.2500000000211720E-02     8.7499999999951172E-01     0.0000000000000000E+00 
    6.2500000000235922E-02     9.3749999999974565E-01     0.0000000000000000E+00 
    1.2499999999981980E-01     6.2500000000211733E-02     0.0000000000000000E+00 
    1.2499999999986650E-01     1.2500000000042691E-01     0.0000000000000000E+00 
    1.2499999999991319E-01     1.8750000000063199E-01     0.0000000000000000E+00 
    1.2499999999995989E-01     2.5000000000083678E-01     0.0000000000000000E+00 
    1.2500000000000661E-01     3.1250000000104172E-01     0.0000000000000000E+00 
    1.2500000000005329E-01     3.7500000000124661E-01     0.0000000000000000E+00 
    1.2500000000010000E-01     4.3750000000145117E-01     0.0000000000000000E+00 
    1.2500000000014669E-01     5.0000000000163858E-01     0.0000000000000000E+00 
    1.2500000000019340E-01     5.6250000000129741E-01     0.0000000000000000E+00 
    1.2500000000024011E-01     6.2500000000093847E-01     0.0000000000000000E+00 
    1.2500000000028680E-01     6.8750000000057998E-01     0.0000000000000000E+00 
    1.2500000000033351E-01     7.5000000000022127E-01     0.0000000000000000E+00 
    1.2500000000038020E-01     8.1249999999986211E-01     0.0000000000000000E+00 
    1.2500000000042691E-01     8.7499999999952238E-01     0.0000000000000000E+00 
    1.2500000000047359E-01     9.3749999999975164E-01     0.0000000000000000E+00 
    1.8749999999966760E-01     6.2500000000187531E-02     0.0000000000000000E+00 
    1.8749999999974179E-01     1.2500000000038020E-01     0.0000000000000000E+00 
    1.8749999999981601E-01     1.8750000000055780E-01     0.0000000000000000E+00 
    1.8749999999989009E-01     2.5000000000073502E-01     0.0000000000000000E+00 
    1.8749999999996431E-01     3.1250000000091221E-01     0.0000000000000000E+00 
    1.8750000000003850E-01     3.7500000000108941E-01     0.0000000000000000E+00 
    1.8750000000011269E-01     4.3750000000126649E-01     0.0000000000000000E+00 
    1.8750000000018691E-01     5.0000000000142808E-01     0.0000000000000000E+00 
    1.8750000000026110E-01     5.6250000000112244E-01     0.0000000000000000E+00 
    1.8750000000033529E-01     6.2500000000080080E-01     0.0000000000000000E+00 
    1.8750000000040951E-01     6.8750000000047962E-01     0.0000000000000000E+00 
    1.8750000000048361E-01     7.5000000000015843E-01     0.0000000000000000E+00 
    1.8750000000055780E-01     8.1249999999983680E-01     0.0000000000000000E+00 
    1.8750000000063199E-01     8.7499999999953304E-01     0.0000000000000000E+00 
    1.8750000000070621E-01     9.3749999999975764E-01     0.0000000000000000E+00 
    2.4999999999951281E-01     6.2500000000163314E-02     0.0000000000000000E+00 
    2.4999999999961461E-01     1.2500000000033351E-01     0.0000000000000000E+00 
    2.4999999999971650E-01     1.8750000000048361E-01     0.0000000000000000E+00 
    2.4999999999981831E-01     2.5000000000063310E-01     0.0000000000000000E+00 
    2.4999999999992020E-01     3.1250000000078260E-01     0.0000000000000000E+00 
    2.5000000000002198E-01     3.7500000000093209E-01     0.0000000000000000E+00 
    2.5000000000012390E-01     4.3750000000108180E-01     0.0000000000000000E+00 
    2.5000000000022571E-01     5.0000000000121769E-01     0.0000000000000000E+00 
    2.5000000000032763E-01     5.6250000000094724E-01     0.0000000000000000E+00 
    2.5000000000042938E-01     6.2500000000066314E-01     0.0000000000000000E+00 
    2.5000000000053119E-01     6.8750000000037925E-01     0.0000000000000000E+00 
[...]
CELL_DATA 256 
SCALARS Pressure double 1 
LOOKUP_TABLE default 

    5.2205095201038398E+00 
    4.5772513092644225E+00 
    4.0872437020460000E+00 
    3.6017096584890798E+00 
    3.0860875035105062E+00 
    2.5635719086251378E+00 
    2.0672552986296009E+00 
    1.6115308991898696E+00 
    1.1892852186502374E+00 
    7.9636559692576570E-01 
    4.4747438281188956E-01 
    1.7273477767428005E-01 
   -1.8907464654595512E-02 
   -1.4068500326912653E-01 
   -2.1057786473055287E-01 
   -2.5486844990294566E-01 
    5.1530239090312007E+00 
    4.7151321437096687E+00 
    4.2323111438784258E+00 
    3.7510195975182445E+00 
    3.2414776296188714E+00 
    2.7177644912728893E+00 
    2.2121574906169466E+00 
    1.7447763454638643E+00 
    1.3122834030044006E+00 
    9.0866156661723518E-01 
    5.4314835858930910E-01 
    2.4517514067378426E-01 
    3.0268136828170981E-02 
   -1.1018054383918362E-01 
   -1.9209550923336249E-01 
   -2.4210359477890167E-01 
    5.0939299330712027E+00 
    4.8037456160461121E+00 
    4.3679376360231608E+00 
    3.8976425267471919E+00 
    3.3959244247497673E+00 
    2.8739421937443015E+00 
    2.3608718884340867E+00 
    1.8816525767727095E+00 
    1.4378308266727318E+00 
    1.0239537609806739E+00 
    6.4370787420748932E-01 
    3.2344486283766882E-01 
    8.4584678538328226E-02 
   -7.5980716273318427E-02 
   -1.7115244018489364E-01 
   -2.2767211340204305E-01 
    5.0893205552232974E+00 
    4.8692016979452921E+00 
    4.4888798560619882E+00 
    4.0391003619500232E+00 
    3.5484461618471710E+00 
    3.0312343202216345E+00 
    2.5129853271579998E+00 
    2.0223981017698343E+00 
    1.5661736589709008E+00 
    1.1420140624240813E+00 
    7.4872476796423437E-01 
    4.0762351457523277E-01 
    1.4441854348174601E-01 
   -3.7886931081994556E-02 
   -1.4788727176217256E-01 
   -2.1172081382134667E-01 
    5.1032582881039907E+00 
    4.9267731015355309E+00 
    4.5961938000690568E+00 
    4.1732068647687726E+00 
    3.6976206761001165E+00 
    3.1884027215224133E+00 
    2.6679775578044231E+00 
    2.1670375890955915E+00 
    1.6978521645020737E+00 
    1.2629322751097047E+00 
    8.5775174726585679E-01 
    4.9779122093819195E-01 
    2.1011058113642553E-01 
    4.4206754874585481E-03 
   -1.2218531461604135E-01 
   -1.9425426676957105E-01 
    5.1218846097953419E+00 
    4.9755067118687988E+00 
    4.6897977502511363E+00 
    4.2984184878517473E+00 
    3.8419670109576964E+00 
    3.3441419558245116E+00 
    2.8247297943164349E+00 
    2.3153584496291395E+00 
    1.8332347049097024E+00 
    1.3869928006380337E+00 
    9.7082643694045978E-01 
    5.9379278413951952E-01 
    2.8199543513037822E-01 
    5.1331688699721476E-02 
   -9.3879525094537758E-02 
   -1.7518816772134527E-01 
    5.1423890615392063E+00 
    5.0177355655076488E+00 
    4.7714936544890918E+00 
    4.4140198679277818E+00 
    3.9803979993436260E+00 
    3.4970787246545099E+00 
    2.9820616420873471E+00 
    2.4667412886544287E+00 
    1.9724635492657452E+00 
    1.5145353924531029E+00 
    1.0878932440696936E+00 
    6.9553819474074452E-01 
    3.6033277487299942E-01 
    1.0318979830152625E-01 
   -6.2897127900007954E-02 
   -1.5438910136921935E-01 
    5.1639336993475426E+00 
    5.0553963127944028E+00 
    4.8430565431157859E+00 
    4.5198730913303153E+00 
    4.1120254036211739E+00 
    3.6460235759800983E+00 
    3.1386999819365884E+00 
    2.6201527525931563E+00 
    2.1155381851451143E+00 
    1.6458688144057538E+00 
    1.2090066545392377E+00 
    8.0313692610536758E-01 
    4.4542887691090510E-01 
    1.6044148869719840E-01 
   -2.9308579414485524E-02 
   -1.3223356356155452E-01 
    5.1857326976512663E+00 
    5.0897023227420304E+00 
    4.9061439512713045E+00 
    4.6162246656672634E+00 
    4.2360765622078178E+00 
    3.7901123701546093E+00 
    3.2934930325464249E+00 
    2.7748309396041884E+00 
    2.2620343377331475E+00 
    1.7811906545807221E+00 
    1.3343130818341538E+00 
    9.1637733182504599E-01 
    5.3772970136908238E-01 
    2.2383804697664353E-01 
    7.0712233990050336E-03 
   -1.0915794781273583E-01 
    5.2071623198278214E+00 
    5.1213473541048407E+00 
    4.9621502121231327E+00 
    4.7036321763663098E+00 
    4.3522535163613894E+00 
    3.9285470851977453E+00 
    3.4456036707250970E+00 
    2.9299130560859292E+00 
    2.4114200661566012E+00 
    1.9203716866008342E+00 
    1.4636047615400920E+00 
    1.0350180328675389E+00 
    6.3754811925285126E-01 
    2.9444936938868088E-01 
    4.6758154863275954E-02 
   -8.5787049306886104E-02 
    5.2277077058654431E+00 
    5.1506788614945584E+00 
    5.0121850575035323E+00 
    4.7828009948586949E+00 
    4.4605097267486506E+00 
    4.0606939459264098E+00 
    3.5941645870040047E+00 
    3.0845911656744969E+00 
    2.5631085080877916E+00 
    2.0632210528291663E+00 
    1.5967590120967159E+00 
    1.1585967443590737E+00 
    7.4492819863395343E-01 
    3.7348582823161020E-01 
    9.0697627523839905E-02 
   -6.2716297969046167E-02 
    5.2468998747048037E+00 
    5.1778567921709033E+00 
    5.0571643772240078E+00 
    4.8544626150189831E+00 
    4.5609574029322317E+00 
    4.1860905188338240E+00 
    3.7382774421123117E+00 
    3.2378930592398456E+00 
    2.7163901359107960E+00 
    2.2092901644937859E+00 
    1.7336081366866982E+00 
    1.2866277934442159E+00 
    8.5973659340364739E-01 
    4.6231809620943559E-01 
    1.4039489622756846E-01 
   -4.1091624842520068E-02 
    5.2644413858860073E+00 
    5.2028505536771767E+00 
    5.0977617521825636E+00 
    4.9193388268120151E+00 
    4.6537369489035445E+00 
    4.3045824290111723E+00 
    3.8773330996728301E+00 
    3.3889751546538962E+00 
    2.8703181910914473E+00 
    2.3580275055227222E+00 
    1.8737822442214755E+00 
    1.4186529408137207E+00 
    9.8153836790158167E-01 
    5.6226634850410406E-01 
    1.9839640249033585E-01 
   -2.2240444191010324E-02 
    5.2801287231092804E+00 
    5.2255592115107907E+00 
    5.1344349141254817E+00 
    4.9781032357806909E+00 
    4.7391749747372236E+00 
    4.4160425136679358E+00 
    4.0109649296455574E+00 
    3.5372114012002140E+00 
    3.0240970005844607E+00 
    2.5086684535497712E+00 
    2.0167098363975642E+00 
    1.5539438102665035E+00 
    1.1093454051220160E+00 
    6.7430479893014161E-01 
    2.6884314223104250E-01 
   -7.8562022304170843E-03 
    5.2939660689785129E+00 
    5.2458209061731962E+00 
    5.1674318095146150E+00 
    5.0313975343389066E+00 
    4.8176500740398449E+00 
    4.5204054974565402E+00 
    4.1388106132741385E+00 
    3.6821600032422266E+00 
    3.1771344288067747E+00 
    2.6605699391316442E+00 
    2.1617728357348684E+00 
    1.6916412209966607E+00 
    1.2415243787647625E+00 
    7.9805226840639787E-01 
    3.5831562628808605E-01 
    2.2243639510706803E-04 
    5.3061724415546250E+00 
    5.2635096836757453E+00 
    5.1968022970556209E+00 
    5.0797385827451844E+00 
    4.8897022910669978E+00 
    4.6176648300206402E+00 
    4.2604246719561205E+00 
    3.8233983110382432E+00 
    3.3291200548300286E+00 
    2.8133075751375576E+00 
    2.3084706009764373E+00 
    1.8309086133157941E+00 
    1.3760817314103233E+00 
    9.3017077462806519E-01 
    4.7675620045034001E-01 
    0.0000000000000000E+00 

SCALARS Saturarion double 1 
LOOKUP_TABLE default 

    8.7540833878999036E-01 
    4.4931837377023354E-01 
    1.1564315751180344E-06 
    1.0000000007954079E-06 
    9.9999999999999995E-07 
    9.9999999999999995E-07 
    9.9999999999999995E-07 
    9.9999999999999995E-07 
    9.9999999999999995E-07 
    9.9999999999999995E-07 
    9.9999999999999995E-07 
    9.9999999999999995E-07 
    9.9999999999999995E-07 
    9.9999999999999995E-07 
    9.9999999999999995E-07 
    9.9999999999999995E-07 
    8.1239502238441008E-01 
    4.7684443540834776E-01 
    5.6964901646085035E-04 
    1.0017683552901558E-06 
    1.0000000000042620E-06 
    9.9999999999999995E-07 
    9.9999999999999995E-07 
    9.9999999999999995E-07 
    9.9999999999999995E-07 
    9.9999999999999995E-07 
    9.9999999999999995E-07 
    9.9999999999999995E-07 
    9.9999999999999995E-07 
    9.9999999999999995E-07 
    9.9999999999999995E-07 
    9.9999999999999995E-07 
    6.9258394484478525E-01 
    3.2918674641318135E-01 
    4.6872937577168550E-04 
    1.0013506502049817E-06 
    1.0000000000233023E-06 
    9.9999999999999995E-07 
    9.9999999999999995E-07 
    9.9999999999999995E-07 
    9.9999999999999995E-07 
    9.9999999999999995E-07 
    9.9999999999999995E-07 
    9.9999999999999995E-07 
    9.9999999999999995E-07 
    9.9999999999999995E-07 
    9.9999999999999995E-07 
    9.9999999999999995E-07 
    1.2888603603565002E-01 
    9.6257770409883432E-03 
    1.5871189015201581E-06 
    1.0000000013747088E-06 
    9.9999999999999995E-07 
    9.9999999999999995E-07 
    9.9999999999999995E-07 
    9.9999999999999995E-07 
    9.9999999999999995E-07 
    9.9999999999999995E-07 
    9.9999999999999995E-07 
    9.9999999999999995E-07 
    9.9999999999999995E-07 
    9.9999999999999995E-07 
    9.9999999999999995E-07 
    9.9999999999999995E-07 
    1.4466275355249515E-06 
    1.7271407014820226E-06 
    1.0000000408461511E-06 
    1.0000000000000002E-06 
    9.9999999999999995E-07 
    9.9999999999999995E-07 
    9.9999999999999995E-07 
    9.9999999999999995E-07 
    9.9999999999999995E-07 
    9.9999999999999995E-07 
    9.9999999999999995E-07 
    9.9999999999999995E-07 
    9.9999999999999995E-07 
    9.9999999999999995E-07 
    9.9999999999999995E-07 
    9.9999999999999995E-07 
    1.0000000319316947E-06 
    1.0000000260321354E-06 
    1.0000000000000004E-06 
    9.9999999999999995E-07 
    9.9999999999999995E-07 
    9.9999999999999995E-07 
    9.9999999999999995E-07 
    9.9999999999999995E-07 
    9.9999999999999995E-07 
    9.9999999999999995E-07 
    9.9999999999999995E-07 
    9.9999999999999995E-07 
    9.9999999999999995E-07 
    9.9999999999999995E-07 
    9.9999999999999995E-07 
    9.9999999999999995E-07 
    9.9999999999999995E-07 
    9.9999999999999995E-07 
    9.9999999999999995E-07 
    9.9999999999999995E-07 
    9.9999999999999995E-07 
    9.9999999999999995E-07 
    9.9999999999999995E-07 
    9.9999999999999995E-07 
    9.9999999999999995E-07 
    9.9999999999999995E-07 
    9.9999999999999995E-07 
    9.9999999999999995E-07 
    9.9999999999999995E-07 
    9.9999999999999995E-07 
    9.9999999999999995E-07 
    9.9999999999999995E-07 
    9.9999999999999995E-07 
    9.9999999999999995E-07 
    9.9999999999999995E-07 
    9.9999999999999995E-07 
    9.9999999999999995E-07 
    9.9999999999999995E-07 
    9.9999999999999995E-07 
    9.9999999999999995E-07 
    9.9999999999999995E-07 
    9.9999999999999995E-07 
    9.9999999999999995E-07 
    9.9999999999999995E-07 
    9.9999999999999995E-07 
    9.9999999999999995E-07 
    9.9999999999999995E-07 
    9.9999999999999995E-07 
    9.9999999999999995E-07 
    9.9999999999999995E-07 
    9.9999999999999995E-07 
    9.9999999999999995E-07 
    9.9999999999999995E-07 
    9.9999999999999995E-07 
    9.9999999999999995E-07 
    9.9999999999999995E-07 
    9.9999999999999995E-07 
    9.9999999999999995E-07 
    9.9999999999999995E-07 
    9.9999999999999995E-07 
    9.9999999999999995E-07 
    9.9999999999999995E-07 
    9.9999999999999995E-07 
    9.9999999999999995E-07 
    9.9999999999999995E-07 
    9.9999999999999995E-07 
    9.9999999999999995E-07 
    9.9999999999999995E-07 
    9.9999999999999995E-07 
    9.9999999999999995E-07 
    9.9999999999999995E-07 
    9.9999999999999995E-07 
    9.9999999999999995E-07 
    9.9999999999999995E-07 
    9.9999999999999995E-07 
    9.9999999999999995E-07 
    9.9999999999999995E-07 
    9.9999999999999995E-07 
    9.9999999999999995E-07 
    9.9999999999999995E-07 
    9.9999999999999995E-07 
    9.9999999999999995E-07 
    9.9999999999999995E-07 
    9.9999999999999995E-07 
    9.9999999999999995E-07 
    9.9999999999999995E-07 
    9.9999999999999995E-07 
    9.9999999999999995E-07 
    9.9999999999999995E-07 
    9.9999999999999995E-07 
    9.9999999999999995E-07 
    9.9999999999999995E-07 
    9.9999999999999995E-07 
    9.9999999999999995E-07 
    9.9999999999999995E-07 
    9.9999999999999995E-07 
    9.9999999999999995E-07 
    9.9999999999999995E-07 
    9.9999999999999995E-07 
    9.9999999999999995E-07 
    9.9999999999999995E-07 
    9.9999999999999995E-07 
    9.9999999999999995E-07 
    9.9999999999999995E-07 
    9.9999999999999995E-07 
    9.9999999999999995E-07 
    9.9999999999999995E-07 
    9.9999999999999995E-07 
    9.9999999999999995E-07 
    9.9999999999999995E-07 
    9.9999999999999995E-07 
    9.9999999999999995E-07 
    9.9999999999999995E-07 
    9.9999999999999995E-07 
    9.9999999999999995E-07 
    9.9999999999999995E-07 
    9.9999999999999995E-07 
    9.9999999999999995E-07 
    9.9999999999999995E-07 
    9.9999999999999995E-07 
    9.9999999999999995E-07 
    9.9999999999999995E-07 
    9.9999999999999995E-07 
    9.9999999999999995E-07 
    9.9999999999999995E-07 
    9.9999999999999995E-07 
    9.9999999999999995E-07 
    9.9999999999999995E-07 
    9.9999999999999995E-07 
    9.9999999999999995E-07 
    9.9999999999999995E-07 
    9.9999999999999995E-07 
    9.9999999999999995E-07 
    9.9999999999999995E-07 
    9.9999999999999995E-07 
    9.9999999999999995E-07 
    9.9999999999999995E-07 
    9.9999999999999995E-07 
    9.9999999999999995E-07 
    9.9999999999999995E-07 
    9.9999999999999995E-07 
    9.9999999999999995E-07 
    9.9999999999999995E-07 
    9.9999999999999995E-07 
    9.9999999999999995E-07 
    9.9999999999999995E-07 
    9.9999999999999995E-07 
    9.9999999999999995E-07 
    9.9999999999999995E-07 
    9.9999999999999995E-07 
    9.9999999999999995E-07 
    9.9999999999999995E-07 
    9.9999999999999995E-07 
    9.9999999999999995E-07 
    9.9999999999999995E-07 
    9.9999999999999995E-07 
    9.9999999999999995E-07 
    9.9999999999999995E-07 
    9.9999999999999995E-07 
    9.9999999999999995E-07 
    9.9999999999999995E-07 
    9.9999999999999995E-07 
    9.9999999999999995E-07 
    9.9999999999999995E-07 
    9.9999999999999995E-07 
    9.9999999999999995E-07 
    9.9999999999999995E-07 
    9.9999999999999995E-07 
    9.9999999999999995E-07 
    9.9999999999999995E-07 
    9.9999999999999995E-07 
    9.9999999999999995E-07 
    9.9999999999999995E-07 
    9.9999999999999995E-07 
    9.9999999999999995E-07 
    1.0000000030272786E-06 
