# vtk DataFile Version 2.0
Pressure Field Data 
ASCII 
DATASET UNSTRUCTURED_GRID 

POINTS 289 double 

    0.0000000000000000E+00     0.0000000000000000E+00     0.0000000000000000E+00 
    1.0000000000000000E+00     0.0000000000000000E+00     0.0000000000000000E+00 
    1.0000000000000000E+00     1.0000000000000000E+00     0.0000000000000000E+00 
    0.0000000000000000E+00     1.0000000000000000E+00     0.0000000000000000E+00 
    6.2499999999872928E-02     0.0000000000000000E+00     0.0000000000000000E+00 
    1.2499999999977310E-01     0.0000000000000000E+00     0.0000000000000000E+00 
    1.8749999999959341E-01     0.0000000000000000E+00     0.0000000000000000E+00 
    2.4999999999941089E-01     0.0000000000000000E+00     0.0000000000000000E+00 
    3.1249999999922851E-01     0.0000000000000000E+00     0.0000000000000000E+00 
    3.7499999999904610E-01     0.0000000000000000E+00     0.0000000000000000E+00 
    4.3749999999886358E-01     0.0000000000000000E+00     0.0000000000000000E+00 
    4.9999999999869210E-01     0.0000000000000000E+00     0.0000000000000000E+00 
    5.6249999999884603E-01     0.0000000000000000E+00     0.0000000000000000E+00 
    6.2499999999901090E-01     0.0000000000000000E+00     0.0000000000000000E+00 
    6.8749999999917577E-01     0.0000000000000000E+00     0.0000000000000000E+00 
    7.4999999999934064E-01     0.0000000000000000E+00     0.0000000000000000E+00 
    8.1249999999950551E-01     0.0000000000000000E+00     0.0000000000000000E+00 
    8.7499999999967026E-01     0.0000000000000000E+00     0.0000000000000000E+00 
    9.3749999999983513E-01     0.0000000000000000E+00     0.0000000000000000E+00 
    1.0000000000000000E+00     6.2499999999872928E-02     0.0000000000000000E+00 
    1.0000000000000000E+00     1.2499999999977310E-01     0.0000000000000000E+00 
    1.0000000000000000E+00     1.8749999999959341E-01     0.0000000000000000E+00 
    1.0000000000000000E+00     2.4999999999941089E-01     0.0000000000000000E+00 
    1.0000000000000000E+00     3.1249999999922851E-01     0.0000000000000000E+00 
    1.0000000000000000E+00     3.7499999999904610E-01     0.0000000000000000E+00 
    1.0000000000000000E+00     4.3749999999886358E-01     0.0000000000000000E+00 
    1.0000000000000000E+00     4.9999999999869210E-01     0.0000000000000000E+00 
    1.0000000000000000E+00     5.6249999999884603E-01     0.0000000000000000E+00 
    1.0000000000000000E+00     6.2499999999901090E-01     0.0000000000000000E+00 
    1.0000000000000000E+00     6.8749999999917577E-01     0.0000000000000000E+00 
    1.0000000000000000E+00     7.4999999999934064E-01     0.0000000000000000E+00 
    1.0000000000000000E+00     8.1249999999950551E-01     0.0000000000000000E+00 
    1.0000000000000000E+00     8.7499999999967026E-01     0.0000000000000000E+00 
    1.0000000000000000E+00     9.3749999999983513E-01     0.0000000000000000E+00 
    9.3749999999973976E-01     1.0000000000000000E+00     0.0000000000000000E+00 
    8.7499999999950118E-01     1.0000000000000000E+00     0.0000000000000000E+00 
    8.1249999999991318E-01     1.0000000000000000E+00     0.0000000000000000E+00 
    7.5000000000034706E-01     1.0000000000000000E+00     0.0000000000000000E+00 
    6.8750000000078049E-01     1.0000000000000000E+00     0.0000000000000000E+00 
    6.2500000000121403E-01     1.0000000000000000E+00     0.0000000000000000E+00 
    5.6250000000164757E-01     1.0000000000000000E+00     0.0000000000000000E+00 
    5.0000000000205946E-01     1.0000000000000000E+00     0.0000000000000000E+00 
    4.3750000000182099E-01     1.0000000000000000E+00     0.0000000000000000E+00 
    3.7500000000156092E-01     1.0000000000000000E+00     0.0000000000000000E+00 
    3.1250000000130068E-01     1.0000000000000000E+00     0.0000000000000000E+00 
    2.5000000000104050E-01     1.0000000000000000E+00     0.0000000000000000E+00 
    1.8750000000078040E-01     1.0000000000000000E+00     0.0000000000000000E+00 
    1.2500000000052031E-01     1.0000000000000000E+00     0.0000000000000000E+00 
    6.2500000000260125E-02     1.0000000000000000E+00     0.0000000000000000E+00 
    0.0000000000000000E+00     9.3749999999973976E-01     0.0000000000000000E+00 
    0.0000000000000000E+00     8.7499999999950118E-01     0.0000000000000000E+00 
    0.0000000000000000E+00     8.1249999999991318E-01     0.0000000000000000E+00 
    0.0000000000000000E+00     7.5000000000034706E-01     0.0000000000000000E+00 
    0.0000000000000000E+00     6.8750000000078049E-01     0.0000000000000000E+00 
    0.0000000000000000E+00     6.2500000000121403E-01     0.0000000000000000E+00 
    0.0000000000000000E+00     5.6250000000164757E-01     0.0000000000000000E+00 
    0.0000000000000000E+00     5.0000000000205946E-01     0.0000000000000000E+00 
    0.0000000000000000E+00     4.3750000000182099E-01     0.0000000000000000E+00 
    0.0000000000000000E+00     3.7500000000156092E-01     0.0000000000000000E+00 
    0.0000000000000000E+00     3.1250000000130068E-01     0.0000000000000000E+00 
    0.0000000000000000E+00     2.5000000000104050E-01     0.0000000000000000E+00 
    0.0000000000000000E+00     1.8750000000078040E-01     0.0000000000000000E+00 
    0.0000000000000000E+00     1.2500000000052031E-01     0.0000000000000000E+00 
    0.0000000000000000E+00     6.2500000000260125E-02     0.0000000000000000E+00 
    6.2499999999897131E-02     6.2500000000235922E-02     0.0000000000000000E+00 
    6.2499999999921327E-02     1.2500000000047351E-01     0.0000000000000000E+00 
    6.2499999999945530E-02     1.8750000000070621E-01     0.0000000000000000E+00 
    6.2499999999969733E-02     2.5000000000093858E-01     0.0000000000000000E+00 
    6.2499999999993928E-02     3.1250000000117117E-01     0.0000000000000000E+00 
    6.2500000000018124E-02     3.7500000000140382E-01     0.0000000000000000E+00 
    6.2500000000042327E-02     4.3750000000163619E-01     0.0000000000000000E+00 
    6.2500000000066530E-02     5.0000000000184897E-01     0.0000000000000000E+00 
    6.2500000000090733E-02     5.6250000000147260E-01     0.0000000000000000E+00 
    6.2500000000114922E-02     6.2500000000107636E-01     0.0000000000000000E+00 
    6.2500000000139125E-02     6.8750000000068034E-01     0.0000000000000000E+00 
    6.2500000000163328E-02     7.5000000000028411E-01     0.0000000000000000E+00 
    6.2500000000187531E-02     8.1249999999988787E-01     0.0000000000000000E+00 
    6.2500000000211720E-02     8.7499999999951172E-01     0.0000000000000000E+00 
    6.2500000000235922E-02     9.3749999999974565E-01     0.0000000000000000E+00 
    1.2499999999981980E-01     6.2500000000211733E-02     0.0000000000000000E+00 
    1.2499999999986650E-01     1.2500000000042691E-01     0.0000000000000000E+00 
    1.2499999999991319E-01     1.8750000000063199E-01     0.0000000000000000E+00 
    1.2499999999995989E-01     2.5000000000083678E-01     0.0000000000000000E+00 
    1.2500000000000661E-01     3.1250000000104172E-01     0.0000000000000000E+00 
    1.2500000000005329E-01     3.7500000000124661E-01     0.0000000000000000E+00 
    1.2500000000010000E-01     4.3750000000145117E-01     0.0000000000000000E+00 
    1.2500000000014669E-01     5.0000000000163858E-01     0.0000000000000000E+00 
    1.2500000000019340E-01     5.6250000000129741E-01     0.0000000000000000E+00 
    1.2500000000024011E-01     6.2500000000093847E-01     0.0000000000000000E+00 
    1.2500000000028680E-01     6.8750000000057998E-01     0.0000000000000000E+00 
    1.2500000000033351E-01     7.5000000000022127E-01     0.0000000000000000E+00 
    1.2500000000038020E-01     8.1249999999986211E-01     0.0000000000000000E+00 
    1.2500000000042691E-01     8.7499999999952238E-01     0.0000000000000000E+00 
    1.2500000000047359E-01     9.3749999999975164E-01     0.0000000000000000E+00 
    1.8749999999966760E-01     6.2500000000187531E-02     0.0000000000000000E+00 
    1.8749999999974179E-01     1.2500000000038020E-01     0.0000000000000000E+00 
    1.8749999999981601E-01     1.8750000000055780E-01     0.0000000000000000E+00 
    1.8749999999989009E-01     2.5000000000073502E-01     0.0000000000000000E+00 
    1.8749999999996431E-01     3.1250000000091221E-01     0.0000000000000000E+00 
    1.8750000000003850E-01     3.7500000000108941E-01     0.0000000000000000E+00 
    1.8750000000011269E-01     4.3750000000126649E-01     0.0000000000000000E+00 
    1.8750000000018691E-01     5.0000000000142808E-01     0.0000000000000000E+00 
    1.8750000000026110E-01     5.6250000000112244E-01     0.0000000000000000E+00 
    1.8750000000033529E-01     6.2500000000080080E-01     0.0000000000000000E+00 
    1.8750000000040951E-01     6.8750000000047962E-01     0.0000000000000000E+00 
    1.8750000000048361E-01     7.5000000000015843E-01     0.0000000000000000E+00 
    1.8750000000055780E-01     8.1249999999983680E-01     0.0000000000000000E+00 
    1.8750000000063199E-01     8.7499999999953304E-01     0.0000000000000000E+00 
    1.8750000000070621E-01     9.3749999999975764E-01     0.0000000000000000E+00 
    2.4999999999951281E-01     6.2500000000163314E-02     0.0000000000000000E+00 
    2.4999999999961461E-01     1.2500000000033351E-01     0.0000000000000000E+00 
    2.4999999999971650E-01     1.8750000000048361E-01     0.0000000000000000E+00 
    2.4999999999981831E-01     2.5000000000063310E-01     0.0000000000000000E+00 
    2.4999999999992020E-01     3.1250000000078260E-01     0.0000000000000000E+00 
    2.5000000000002198E-01     3.7500000000093209E-01     0.0000000000000000E+00 
    2.5000000000012390E-01     4.3750000000108180E-01     0.0000000000000000E+00 
    2.5000000000022571E-01     5.0000000000121769E-01     0.0000000000000000E+00 
    2.5000000000032763E-01     5.6250000000094724E-01     0.0000000000000000E+00 
    2.5000000000042938E-01     6.2500000000066314E-01     0.0000000000000000E+00 
    2.5000000000053119E-01     6.8750000000037925E-01     0.0000000000000000E+00 
[...]
CELL_DATA 256 
SCALARS Pressure double 1 
LOOKUP_TABLE default 

    8.8475133962071144E+00 
    8.1727736458046873E+00 
    7.4755711291662834E+00 
    6.7175761442638269E+00 
    5.8843806138857486E+00 
    5.0100127409397377E+00 
    4.1435455731589741E+00 
    3.3007972346561756E+00 
    2.4814306405767073E+00 
    1.6952205677652621E+00 
    9.5271347394878991E-01 
    2.4971807649741923E-01 
   -2.5967878554155793E-01 
   -6.4453208124086958E-01 
   -1.0304208263897945E+00 
   -1.3311812138860173E+00 
    8.8678862013558053E+00 
    8.3510131492152624E+00 
    7.6877488849837725E+00 
    6.9521947660933678E+00 
    6.1380556662945933E+00 
    5.2716660905783241E+00 
    4.4009781874294607E+00 
    3.5512213407029725E+00 
    2.7215777044288836E+00 
    1.9211908160333284E+00 
    1.1592900672139943E+00 
    4.4063246261546957E-01 
   -1.1471745794583593E-01 
   -5.2731106349691059E-01 
   -9.3241245914157578E-01 
   -1.2557201074702129E+00 
    8.8954792532953793E+00 
    8.4897341554744248E+00 
    7.8846057231323705E+00 
    7.1785473158572000E+00 
    6.3868865526576499E+00 
    5.5333914058165128E+00 
    4.6607500542746880E+00 
    3.8040668062739433E+00 
    2.9643661268251575E+00 
    2.1469793044716998E+00 
    1.3717781288568061E+00 
    6.3790266998085499E-01 
    4.0052254935518956E-02 
   -3.9454647445570934E-01 
   -8.1727243924768300E-01 
   -1.1959894533508468E+00 
    8.9280539934334495E+00 
    8.6012045007421420E+00 
    8.0619873176213588E+00 
    7.3942686440716461E+00 
    6.6298459075337446E+00 
    5.7940085661724234E+00 
    4.9225600107166505E+00 
    4.0595869578324120E+00 
    3.2056916300990519E+00 
    2.3753247724755733E+00 
    1.5856966989734300E+00 
    8.3341418159575498E-01 
    2.2653483533475494E-01 
   -2.3991894671656661E-01 
   -6.6982087794315270E-01 
   -1.0625660853064345E+00 
    8.9637123848565921E+00 
    8.6937356276624183E+00 
    8.2195102466432690E+00 
    7.5968953296181603E+00 
    6.8647106894246530E+00 
    6.0511423089920076E+00 
    5.1865300280027755E+00 
    4.3179572081054713E+00 
    3.4538022500801517E+00 
    2.6078920320888708E+00 
    1.7936759388606378E+00 
    1.0309704757641285E+00 
    3.7678141198958814E-01 
   -9.3627585411788006E-02 
   -5.0636014820780728E-01 
   -9.0405933245692316E-01 
    9.0010432024583142E+00 
    8.7728041647697985E+00 
    8.3585045991607085E+00 
    7.7848516077193066E+00 
    7.0894472758548090E+00 
    6.3037797569853167E+00 
    5.4501990146712984E+00 
    4.5796641648918195E+00 
    3.7048914032741069E+00 
    2.8483742903676617E+00 
    2.0167937486239871E+00 
    1.2262348562257066E+00 
    5.3687422264900519E-01 
    3.2071842293292185E-02 
   -3.6469498474602435E-01 
   -7.3532643602374126E-01 
    9.0388526335767914E+00 
    8.8420739674869093E+00 
    8.4811091199113093E+00 
    7.9578705972057140E+00 
    7.3032110330922215E+00 
    6.5490938583537215E+00 
    5.7126510842616289E+00 
    4.8425046438499155E+00 
    3.9567365957508986E+00 
    3.0931814875493768E+00 
    2.2482001766867072E+00 
    1.4339596480407029E+00 
    6.9750083323883361E-01 
    1.3543303451338728E-01 
   -2.6013414691267017E-01 
   -5.7510102032920196E-01 
    9.0762354841010016E+00 
    8.9039217395209658E+00 
    8.5895104134148053E+00 
    8.1162790049018447E+00 
    7.5050339537606803E+00 
    6.7854623479668454E+00 
    5.9708738021870378E+00 
    5.1046939736663877E+00 
    4.2139555396707289E+00 
    3.3399180452602422E+00 
    2.4849986554073600E+00 
    1.6558442280806756E+00 
    8.7410175301076209E-01 
    2.5541447221383318E-01 
   -1.6766064000562192E-01 
   -4.6083890515678916E-01 
    9.1124075379657885E+00 
    8.9598725385449871E+00 
    8.6856655676300232E+00 
    8.2603651761704331E+00 
    7.6937754026816272E+00 
    7.0119816254906500E+00 
    6.2232930178841057E+00 
    5.3666267429007579E+00 
    4.4737177701696309E+00 
    3.5929271956608786E+00 
    2.7319385829748337E+00 
    1.8878378544206269E+00 
    1.0702473270820065E+00 
    3.8234836732667987E-01 
   -8.7082730396406530E-02 
   -3.6635627956416245E-01 
    9.1468302629625207E+00 
    9.0109482590531140E+00 
    8.7714162746095656E+00 
    8.3910893216604983E+00 
    7.8694333515244894E+00 
    7.2274173345236168E+00 
    6.4690626693658801E+00 
    5.6264887116004072E+00 
    4.7370870006063130E+00 
    3.8506145847214128E+00 
    2.9823074444616973E+00 
    2.1281162350053684E+00 
    1.2804147914845052E+00 
    5.3363911802662356E-01 
    5.1484908736499930E-03 
   -2.9089793934096869E-01 
    9.1792081347101337E+00 
    9.0574862393222215E+00 
    8.8481571891385880E+00 
    8.5097277287691977E+00 
    8.0322883317636329E+00 
    7.4310205464954260E+00 
    6.7062766160629019E+00 
    5.8827344972675997E+00 
    4.9994917201920765E+00 
    4.1125605046200686E+00 
    3.2383176348260738E+00 
    2.3762218521803318E+00 
    1.5110863896063502E+00 
    7.0688081708304162E-01 
    1.0751007373941160E-01 
   -2.2032093026362820E-01 
    9.2071720524118170E+00 
    9.1000239195470485E+00 
    8.9169290740762790E+00 
    8.6173087420327281E+00 
    8.1828718006800134E+00 
    7.6220328872962479E+00 
    6.9338168234524202E+00 
    6.1341382442784127E+00 
    5.2637485254215379E+00 
    4.3765157084981077E+00 
    3.4972744340852140E+00 
    2.6284710137001821E+00 
    1.7471643141028179E+00 
    9.0338447979368519E-01 
    2.2795521490664883E-01 
   -1.5303733895459826E-01 
    9.2336790119427921E+00 
    9.1386046047965639E+00 
    8.9787691635191482E+00 
    8.7147881410649948E+00 
    8.3216844165029631E+00 
    7.8008989189736919E+00 
    7.1499248847481809E+00 
    6.3786593783758079E+00 
    5.5252534887856202E+00 
    4.6434945952810853E+00 
    3.7618048704259559E+00 
    2.8852641644967982E+00 
    1.9935689001997201E+00 
    1.1153905325592157E+00 
    3.6371376233652664E-01 
   -8.5253178213360981E-02 
    9.2574550993077640E+00 
    9.1733596645771538E+00 
    9.0346118259591019E+00 
    8.8029304362422032E+00 
    8.4494030082991767E+00 
    7.9681187090509669E+00 
    7.3548672161391258E+00 
    6.6144920643893705E+00 
    5.7828916665780721E+00 
    4.9104664633663866E+00 
    4.0293399131487915E+00 
    3.1483033909057916E+00 
    2.2474106243632672E+00 
    1.3448018493483698E+00 
    5.1747961128388720E-01 
   -2.8162292288760740E-02 
    9.2786819795774882E+00 
    9.2042347169096761E+00 
    9.0847641202111156E+00 
    8.8829508316970767E+00 
    8.5666151834540880E+00 
    8.1245078116053797E+00 
    7.5498115072545753E+00 
    6.8420198749254482E+00 
    6.0338720564566675E+00 
    5.1733950723972599E+00 
    4.2968851576552103E+00 
    3.4162361195922073E+00 
    2.5140137263653557E+00 
    1.5972566195233551E+00 
    6.9931285202645233E-01 
    4.6468360329138519E-03 
    9.2975416337858814E+00 
    9.2313451351044868E+00 
    9.1290465927933084E+00 
    8.9551872314228387E+00 
    8.6739402489104194E+00 
    8.2698923830273507E+00 
    7.7347740844813684E+00 
    7.0631857648221086E+00 
    6.2805746574588373E+00 
    5.4331765676489034E+00 
    4.5609750623224627E+00 
    3.6830674779585628E+00 
    2.7843746677656829E+00 
    1.8666283964949431E+00 
    9.3637476138166265E-01 
    0.0000000000000000E+00 

SCALARS Saturarion double 1 
LOOKUP_TABLE default 

    1.0000000000000000E+00 
    9.9344464895362516E-01 
    9.7975694157204962E-01 
    9.5619789935297628E-01 
    9.2968999915809292E-01 
    9.0643004937362537E-01 
    8.7203610510875129E-01 
    8.3716015299571400E-01 
    7.8000564411413376E-01 
    6.5218907325447484E-01 
    3.8133978457996992E-01 
    2.2946344148923220E-01 
    1.2642650060432775E-01 
    5.6166328177736065E-03 
    1.3944583681966937E-06 
    1.0000432941231504E-06 
    9.9830073038088118E-01 
    9.9283337735385813E-01 
    9.8077258637579579E-01 
    9.5785770638236434E-01 
    9.2446151063007265E-01 
    9.0230109884321230E-01 
    8.6743015761719011E-01 
    8.2761113847969892E-01 
    7.9188030952660815E-01 
    7.0759643838421882E-01 
    4.4870028309619381E-01 
    2.9901552465607728E-01 
    1.7450169776295932E-01 
    2.5013910398105788E-02 
    9.1401916515650129E-04 
    4.5866311079330040E-06 
    9.9532026803931339E-01 
    9.9091585914531588E-01 
    9.8017853824195955E-01 
    9.6070228348409137E-01 
    9.2983273305126335E-01 
    9.0709199337197588E-01 
    8.6692369966740679E-01 
    8.0923993965136565E-01 
    7.6753877530159309E-01 
    6.9194481362388527E-01 
    5.0771805713275797E-01 
    3.6555072780742209E-01 
    2.9918732716130281E-01 
    6.6633276106032507E-02 
    5.8738744779731787E-03 
    9.6027301020827432E-04 
    9.8998674017325661E-01 
    9.8724786768918016E-01 
    9.7835870591309126E-01 
    9.6179928747532506E-01 
    9.4085854331591412E-01 
    9.1702009357634517E-01 
    8.7866347498546871E-01 
    8.2447737841760638E-01 
    7.4340540824369628E-01 
    6.4380699861274748E-01 
    5.7138939216989826E-01 
    4.9313014470290284E-01 
    4.1684058791062678E-01 
    1.0622584125945903E-01 
    2.7865874109968717E-02 
    2.3058470434993789E-02 
    9.8174536993115447E-01 
    9.8170946678431448E-01 
    9.7524406573813072E-01 
    9.6035750732439362E-01 
    9.4299592498460361E-01 
    9.2610754836841369E-01 
    9.0061337777611417E-01 
    8.6678627197451463E-01 
    7.9301521433566791E-01 
    7.0786017100117271E-01 
    6.4963340447280260E-01 
    5.6867621225893150E-01 
    4.6130493927511818E-01 
    1.1307785833650438E-01 
    5.5966142659472674E-02 
    4.6638789903890955E-02 
    9.6948920729220911E-01 
    9.7329421336713429E-01 
    9.6998576273445103E-01 
    9.5765661762569643E-01 
    9.3937183938921109E-01 
    9.2156531455688717E-01 
    8.9830495671037791E-01 
    8.4722436044707272E-01 
    8.0091410565800980E-01 
    7.7724527213094918E-01 
    7.2383123153896478E-01 
    6.2033211112373798E-01 
    4.8844416961299941E-01 
    9.2299329680420497E-02 
    6.1157286618991315E-02 
    5.7519915291143191E-02 
    9.5154490229285038E-01 
    9.6130714258419470E-01 
    9.6259162556785072E-01 
    9.5330615960209220E-01 
    9.3781878973862010E-01 
    9.2061573173876121E-01 
    9.0065168530536033E-01 
    8.5377608760992807E-01 
    7.8707047577826450E-01 
    7.5201495313001077E-01 
    7.3763532701915580E-01 
    6.8921299989197204E-01 
    5.1625129743269493E-01 
    1.1948594856898136E-01 
    6.0558831372048191E-02 
    5.8291665028844551E-02 
    9.2182431543941812E-01 
    9.4361639292917743E-01 
    9.5261499252004567E-01 
    9.4668025874855510E-01 
    9.3362965867695791E-01 
    9.1910777225040474E-01 
    9.0359288627361145E-01 
    8.7131657415508412E-01 
    8.0390383168639157E-01 
    7.4985986628403412E-01 
    7.2847945180160800E-01 
    7.0011203538713773E-01 
    5.6792165978853593E-01 
    1.9422208340492092E-01 
    6.0345713031221750E-02 
    5.8337095864266483E-02 
    8.8605997593714692E-01 
    9.2018657069940701E-01 
    9.3833587835707943E-01 
    9.3797136327687092E-01 
    9.2864561131917633E-01 
    9.1642141630159013E-01 
    8.9637091317214179E-01 
    8.6788027906765464E-01 
    8.3915708862634963E-01 
    7.9863798648553541E-01 
    7.5343220183696202E-01 
    7.3091087976171754E-01 
    6.6825279324894205E-01 
    3.7011612803930266E-01 
    7.3760066476420402E-02 
    5.7544967253409365E-02 
    8.2482504632525544E-01 
    8.9094821061321727E-01 
    9.1883066020899018E-01 
    9.2653541538930506E-01 
    9.2032521923665500E-01 
    9.0962424598951797E-01 
    8.8685480111295700E-01 
    8.2423771295006831E-01 
    7.9626967494956791E-01 
    7.8805743983690846E-01 
    7.6081962888496812E-01 
    7.2917934201920864E-01 
    6.9361222988962257E-01 
    5.3717166257717730E-01 
    1.3442672094310051E-01 
    5.9247906396739755E-02 
    6.1385812426348585E-01 
    8.1304591927531600E-01 
    8.8207683034168849E-01 
    9.1189523982662934E-01 
    9.0979885416236361E-01 
    9.0209681470458480E-01 
    8.6874785456463766E-01 
    8.2476200492295038E-01 
    7.9772712894964970E-01 
    7.6739325118430068E-01 
    7.3338923441918691E-01 
    7.0980996204650137E-01 
    6.8809240924240678E-01 
    5.8534527416538862E-01 
    1.6014459243360599E-01 
    6.5648552979727937E-02 
    7.2547467010107641E-02 
    6.2592398150256567E-01 
    8.2977301111425228E-01 
    8.8363566085088752E-01 
    8.9095684114735729E-01 
    8.9103169972747520E-01 
    8.3019963144767106E-01 
    7.6967762303952081E-01 
    7.7794902611459427E-01 
    7.5164615341918051E-01 
    7.1661840613605055E-01 
    6.9172047057460362E-01 
    6.8229479974277618E-01 
    6.0905300418748287E-01 
    2.3143842414767579E-01 
    7.6228564468346346E-02 
    1.8525489665419927E-02 
    4.2741947488230353E-01 
    7.5215865582097086E-01 
    8.3625421293324009E-01 
    8.5476881740645683E-01 
    8.6039195054629125E-01 
    8.1439379025813485E-01 
    7.1806278513107136E-01 
    7.1851550398640529E-01 
    7.1724129360008293E-01 
    7.1744983625716618E-01 
    7.0234690666935273E-01 
    6.8913115154396631E-01 
    6.3544361321369391E-01 
    3.2647319291431220E-01 
    8.8296531770373513E-02 
    2.7849675564296985E-05 
    7.5902910699941900E-02 
    5.1396750751295195E-01 
    7.1987337122489270E-01 
    7.5778844173759718E-01 
    7.8845607286478592E-01 
    7.8730867573730712E-01 
    7.2566947181860419E-01 
    6.5734375265451717E-01 
    6.4708382020846444E-01 
    6.7728626287036886E-01 
    6.9899224862545095E-01 
    6.9494631589738876E-01 
    6.5381755159839572E-01 
    4.7890965162757565E-01 
    1.6673259536592269E-01 
    1.0000030502460987E-06 
    7.3902643491554948E-05 
    1.2310723112265462E-01 
    3.9929075892888566E-01 
    6.2322301428662030E-01 
    7.1675708260805815E-01 
    7.0927690061050619E-01 
    6.6795564357607051E-01 
    5.9686050381704514E-01 
    5.7416037099827755E-01 
    6.0760676822688264E-01 
    6.3211261719201683E-01 
    6.6500352319091616E-01 
    6.5254878847801934E-01 
    5.9116434455028477E-01 
    3.1943663730560312E-01 
    1.0000000000174550E-06 
    1.0112246159943082E-06 
    4.0780407125641819E-03 
    2.4920580944412316E-01 
    4.7865910971201930E-01 
    5.8402635776211098E-01 
    6.2062040872985047E-01 
    5.9679940160677614E-01 
    5.2250029802501696E-01 
    5.1327464466880268E-01 
    5.3302653810187017E-01 
    5.3784211176592889E-01 
    5.6010573358720994E-01 
    5.5807852557303050E-01 
    5.6024363220879769E-01 
    3.7327717252905257E-01 
