# vtk DataFile Version 2.0
Pressure Field Data 
ASCII 
DATASET UNSTRUCTURED_GRID 

POINTS 289 double 

    0.0000000000000000E+00     0.0000000000000000E+00     0.0000000000000000E+00 
    1.0000000000000000E+00     0.0000000000000000E+00     0.0000000000000000E+00 
    1.0000000000000000E+00     1.0000000000000000E+00     0.0000000000000000E+00 
    0.0000000000000000E+00     1.0000000000000000E+00     0.0000000000000000E+00 
    6.2499999999872928E-02     0.0000000000000000E+00     0.0000000000000000E+00 
    1.2499999999977310E-01     0.0000000000000000E+00     0.0000000000000000E+00 
    1.8749999999959341E-01     0.0000000000000000E+00     0.0000000000000000E+00 
    2.4999999999941089E-01     0.0000000000000000E+00     0.0000000000000000E+00 
    3.1249999999922851E-01     0.0000000000000000E+00     0.0000000000000000E+00 
    3.7499999999904610E-01     0.0000000000000000E+00     0.0000000000000000E+00 
    4.3749999999886358E-01     0.0000000000000000E+00     0.0000000000000000E+00 
    4.9999999999869210E-01     0.0000000000000000E+00     0.0000000000000000E+00 
    5.6249999999884603E-01     0.0000000000000000E+00     0.0000000000000000E+00 
    6.2499999999901090E-01     0.0000000000000000E+00     0.0000000000000000E+00 
    6.8749999999917577E-01     0.0000000000000000E+00     0.0000000000000000E+00 
    7.4999999999934064E-01     0.0000000000000000E+00     0.0000000000000000E+00 
    8.1249999999950551E-01     0.0000000000000000E+00     0.0000000000000000E+00 
    8.7499999999967026E-01     0.0000000000000000E+00     0.0000000000000000E+00 
    9.3749999999983513E-01     0.0000000000000000E+00     0.0000000000000000E+00 
    1.0000000000000000E+00     6.2499999999872928E-02     0.0000000000000000E+00 
    1.0000000000000000E+00     1.2499999999977310E-01     0.0000000000000000E+00 
    1.0000000000000000E+00     1.8749999999959341E-01     0.0000000000000000E+00 
    1.0000000000000000E+00     2.4999999999941089E-01     0.0000000000000000E+00 
    1.0000000000000000E+00     3.1249999999922851E-01     0.0000000000000000E+00 
    1.0000000000000000E+00     3.7499999999904610E-01     0.0000000000000000E+00 
    1.0000000000000000E+00     4.3749999999886358E-01     0.0000000000000000E+00 
    1.0000000000000000E+00     4.9999999999869210E-01     0.0000000000000000E+00 
    1.0000000000000000E+00     5.6249999999884603E-01     0.0000000000000000E+00 
    1.0000000000000000E+00     6.2499999999901090E-01     0.0000000000000000E+00 
    1.0000000000000000E+00     6.8749999999917577E-01     0.0000000000000000E+00 
    1.0000000000000000E+00     7.4999999999934064E-01     0.0000000000000000E+00 
    1.0000000000000000E+00     8.1249999999950551E-01     0.0000000000000000E+00 
    1.0000000000000000E+00     8.7499999999967026E-01     0.0000000000000000E+00 
    1.0000000000000000E+00     9.3749999999983513E-01     0.0000000000000000E+00 
    9.3749999999973976E-01     1.0000000000000000E+00     0.0000000000000000E+00 
    8.7499999999950118E-01     1.0000000000000000E+00     0.0000000000000000E+00 
    8.1249999999991318E-01     1.0000000000000000E+00     0.0000000000000000E+00 
    7.5000000000034706E-01     1.0000000000000000E+00     0.0000000000000000E+00 
    6.8750000000078049E-01     1.0000000000000000E+00     0.0000000000000000E+00 
    6.2500000000121403E-01     1.0000000000000000E+00     0.0000000000000000E+00 
    5.6250000000164757E-01     1.0000000000000000E+00     0.0000000000000000E+00 
    5.0000000000205946E-01     1.0000000000000000E+00     0.0000000000000000E+00 
    4.3750000000182099E-01     1.0000000000000000E+00     0.0000000000000000E+00 
    3.7500000000156092E-01     1.0000000000000000E+00     0.0000000000000000E+00 
    3.1250000000130068E-01     1.0000000000000000E+00     0.0000000000000000E+00 
    2.5000000000104050E-01     1.0000000000000000E+00     0.0000000000000000E+00 
    1.8750000000078040E-01     1.0000000000000000E+00     0.0000000000000000E+00 
    1.2500000000052031E-01     1.0000000000000000E+00     0.0000000000000000E+00 
    6.2500000000260125E-02     1.0000000000000000E+00     0.0000000000000000E+00 
    0.0000000000000000E+00     9.3749999999973976E-01     0.0000000000000000E+00 
    0.0000000000000000E+00     8.7499999999950118E-01     0.0000000000000000E+00 
    0.0000000000000000E+00     8.1249999999991318E-01     0.0000000000000000E+00 
    0.0000000000000000E+00     7.5000000000034706E-01     0.0000000000000000E+00 
    0.0000000000000000E+00     6.8750000000078049E-01     0.0000000000000000E+00 
    0.0000000000000000E+00     6.2500000000121403E-01     0.0000000000000000E+00 
    0.0000000000000000E+00     5.6250000000164757E-01     0.0000000000000000E+00 
    0.0000000000000000E+00     5.0000000000205946E-01     0.0000000000000000E+00 
    0.0000000000000000E+00     4.3750000000182099E-01     0.0000000000000000E+00 
    0.0000000000000000E+00     3.7500000000156092E-01     0.0000000000000000E+00 
    0.0000000000000000E+00     3.1250000000130068E-01     0.0000000000000000E+00 
    0.0000000000000000E+00     2.5000000000104050E-01     0.0000000000000000E+00 
    0.0000000000000000E+00     1.8750000000078040E-01     0.0000000000000000E+00 
    0.0000000000000000E+00     1.2500000000052031E-01     0.0000000000000000E+00 
    0.0000000000000000E+00     6.2500000000260125E-02     0.0000000000000000E+00 
    6.2499999999897131E-02     6.2500000000235922E-02     0.0000000000000000E+00 
    6.2499999999921327E-02     1.2500000000047351E-01     0.0000000000000000E+00 
    6.2499999999945530E-02     1.8750000000070621E-01     0.0000000000000000E+00 
    6.2499999999969733E-02     2.5000000000093858E-01     0.0000000000000000E+00 
    6.2499999999993928E-02     3.1250000000117117E-01     0.0000000000000000E+00 
    6.2500000000018124E-02     3.7500000000140382E-01     0.0000000000000000E+00 
    6.2500000000042327E-02     4.3750000000163619E-01     0.0000000000000000E+00 
    6.2500000000066530E-02     5.0000000000184897E-01     0.0000000000000000E+00 
    6.2500000000090733E-02     5.6250000000147260E-01     0.0000000000000000E+00 
    6.2500000000114922E-02     6.2500000000107636E-01     0.0000000000000000E+00 
    6.2500000000139125E-02     6.8750000000068034E-01     0.0000000000000000E+00 
    6.2500000000163328E-02     7.5000000000028411E-01     0.0000000000000000E+00 
    6.2500000000187531E-02     8.1249999999988787E-01     0.0000000000000000E+00 
    6.2500000000211720E-02     8.7499999999951172E-01     0.0000000000000000E+00 
    6.2500000000235922E-02     9.3749999999974565E-01     0.0000000000000000E+00 
    1.2499999999981980E-01     6.2500000000211733E-02     0.0000000000000000E+00 
    1.2499999999986650E-01     1.2500000000042691E-01     0.0000000000000000E+00 
    1.2499999999991319E-01     1.8750000000063199E-01     0.0000000000000000E+00 
    1.2499999999995989E-01     2.5000000000083678E-01     0.0000000000000000E+00 
    1.2500000000000661E-01     3.1250000000104172E-01     0.0000000000000000E+00 
    1.2500000000005329E-01     3.7500000000124661E-01     0.0000000000000000E+00 
    1.2500000000010000E-01     4.3750000000145117E-01     0.0000000000000000E+00 
    1.2500000000014669E-01     5.0000000000163858E-01     0.0000000000000000E+00 
    1.2500000000019340E-01     5.6250000000129741E-01     0.0000000000000000E+00 
    1.2500000000024011E-01     6.2500000000093847E-01     0.0000000000000000E+00 
    1.2500000000028680E-01     6.8750000000057998E-01     0.0000000000000000E+00 
    1.2500000000033351E-01     7.5000000000022127E-01     0.0000000000000000E+00 
    1.2500000000038020E-01     8.1249999999986211E-01     0.0000000000000000E+00 
    1.2500000000042691E-01     8.7499999999952238E-01     0.0000000000000000E+00 
    1.2500000000047359E-01     9.3749999999975164E-01     0.0000000000000000E+00 
    1.8749999999966760E-01     6.2500000000187531E-02     0.0000000000000000E+00 
    1.8749999999974179E-01     1.2500000000038020E-01     0.0000000000000000E+00 
    1.8749999999981601E-01     1.8750000000055780E-01     0.0000000000000000E+00 
    1.8749999999989009E-01     2.5000000000073502E-01     0.0000000000000000E+00 
    1.8749999999996431E-01     3.1250000000091221E-01     0.0000000000000000E+00 
    1.8750000000003850E-01     3.7500000000108941E-01     0.0000000000000000E+00 
    1.8750000000011269E-01     4.3750000000126649E-01     0.0000000000000000E+00 
    1.8750000000018691E-01     5.0000000000142808E-01     0.0000000000000000E+00 
    1.8750000000026110E-01     5.6250000000112244E-01     0.0000000000000000E+00 
    1.8750000000033529E-01     6.2500000000080080E-01     0.0000000000000000E+00 
    1.8750000000040951E-01     6.8750000000047962E-01     0.0000000000000000E+00 
    1.8750000000048361E-01     7.5000000000015843E-01     0.0000000000000000E+00 
    1.8750000000055780E-01     8.1249999999983680E-01     0.0000000000000000E+00 
    1.8750000000063199E-01     8.7499999999953304E-01     0.0000000000000000E+00 
    1.8750000000070621E-01     9.3749999999975764E-01     0.0000000000000000E+00 
    2.4999999999951281E-01     6.2500000000163314E-02     0.0000000000000000E+00 
    2.4999999999961461E-01     1.2500000000033351E-01     0.0000000000000000E+00 
    2.4999999999971650E-01     1.8750000000048361E-01     0.0000000000000000E+00 
    2.4999999999981831E-01     2.5000000000063310E-01     0.0000000000000000E+00 
    2.4999999999992020E-01     3.1250000000078260E-01     0.0000000000000000E+00 
    2.5000000000002198E-01     3.7500000000093209E-01     0.0000000000000000E+00 
    2.5000000000012390E-01     4.3750000000108180E-01     0.0000000000000000E+00 
    2.5000000000022571E-01     5.0000000000121769E-01     0.0000000000000000E+00 
    2.5000000000032763E-01     5.6250000000094724E-01     0.0000000000000000E+00 
    2.5000000000042938E-01     6.2500000000066314E-01     0.0000000000000000E+00 
    2.5000000000053119E-01     6.8750000000037925E-01     0.0000000000000000E+00 
[...]
CELL_DATA 256 
SCALARS Pressure double 1 
LOOKUP_TABLE default 

    7.4563494652318454E+00 
    6.7724672985486212E+00 
    6.0631525226473846E+00 
    5.2942651713324409E+00 
    4.4571115979253548E+00 
    3.5961346275772419E+00 
    2.7753788412961642E+00 
    2.0340498840151020E+00 
    1.3794182453129715E+00 
    8.3752795062856877E-01 
    4.3121973045544948E-01 
    1.3529912853517023E-01 
   -7.3040800723627647E-02 
   -2.1115301904814962E-01 
   -2.9373058228524906E-01 
   -3.4663808529293322E-01 
    7.4788237314325094E+00 
    6.9536985128260937E+00 
    6.2786100840905323E+00 
    5.5312378053486135E+00 
    4.7101494947735514E+00 
    3.8499968288463955E+00 
    3.0129535925745401E+00 
    2.2463006051291190E+00 
    1.5625847172367351E+00 
    9.8385295530756534E-01 
    5.4106858470766650E-01 
    2.1454891670106330E-01 
   -1.8688697595589748E-02 
   -1.7623829097742252E-01 
   -2.7194439838664236E-01 
   -3.3144537218455772E-01 
    7.5082909679276399E+00 
    7.0951664535617462E+00 
    6.4787213182742924E+00 
    5.7602243810754405E+00 
    4.9595774239848707E+00 
    4.1062820662192081E+00 
    3.2571452995604644E+00 
    2.4662881632048466E+00 
    1.7534182881796023E+00 
    1.1392228330678542E+00 
    6.6035085890804868E-01 
    3.0192514118440389E-01 
    4.1551789838264075E-02 
   -1.3737291521516609E-01 
   -2.4749284306529604E-01 
   -3.1439267866472154E-01 
    7.5424289305177643E+00 
    7.2091493678623566E+00 
    6.6593554298261903E+00 
    5.9787822546728142E+00 
    5.2036474407919044E+00 
    4.3631775662218697E+00 
    3.5069021033343732E+00 
    2.6940463222525386E+00 
    1.9516821198543630E+00 
    1.3034265993574012E+00 
    7.8898044536829248E-01 
    3.9797598509634946E-01 
    1.0851014436191711E-01 
   -9.4163912952052453E-02 
   -2.2050794771273913E-01 
   -2.9566997080747881E-01 
    7.5793356759195554E+00 
    7.3038547664213000E+00 
    6.8200185341870334E+00 
    6.1846068627978266E+00 
    5.4403623871543108E+00 
    4.6184348162976185E+00 
    3.7610731862397064E+00 
    2.9292945766386551E+00 
    2.1580290418706323E+00 
    1.4766145551315022E+00 
    9.2673506973536146E-01 
    5.0318634019820097E-01 
    1.8296114650400763E-01 
   -4.6019182580097150E-02 
   -1.9075603796519733E-01 
   -2.7530592644994034E-01 
    7.6175083777586137E+00 
    7.3847194422590734E+00 
    6.9619445665983184E+00 
    6.3760639607803080E+00 
    5.6677609449629971E+00 
    4.8700251443202820E+00 
    4.0176579841841544E+00 
    3.1713409844180727E+00 
    2.3726907129553738E+00 
    1.6587370617763688E+00 
    1.0739471516334680E+00 
    6.1774234017511598E-01 
    2.6563191019769139E-01 
    7.7456339806025063E-03 
   -1.5789388889202216E-01 
   -2.5314021643188434E-01 
    7.6558414050937023E+00 
    7.4553591160775134E+00 
    7.0871462156750269E+00 
    6.5526490750422530E+00 
    5.8845473170838485E+00 
    5.1157488271184777E+00 
    4.2746277340561161E+00 
    3.4190205161037137E+00 
    2.5955716312985535E+00 
    1.8496701315393340E+00 
    1.2306620281772196E+00 
    7.4197265073619245E-01 
    3.5712893022739656E-01 
    6.7759221616283588E-02 
   -1.2165573864769190E-01 
   -2.2890190668225208E-01 
    7.6935935368322168E+00 
    7.5181674006544572E+00 
    7.1976949758576172E+00 
    6.7144067005923755E+00 
    6.0897249816702921E+00 
    5.3537780886265418E+00 
    4.5297004284338103E+00 
    3.6703364025177727E+00 
    2.8265774032972897E+00 
    2.0506199822429902E+00 
    1.3970415832150329E+00 
    8.7641466111922262E-01 
    4.5808197313828342E-01 
    1.3472863743106273E-01 
   -8.1932318235548765E-02 
   -2.0286871722335645E-01 
    7.7301336652747805E+00 
    7.5748101566858468E+00 
    7.2956060572290955E+00 
    6.8617268170724657E+00 
    6.2823379361657468E+00 
    5.5829049800100510E+00 
    4.7809269027430910E+00 
    3.9237769809335186E+00 
    3.0646379554982350E+00 
    2.2620172874057243E+00 
    1.5736692316770826E+00 
    1.0209643911315085E+00 
    5.6925117667771008E-01 
    2.0969612157882742E-01 
   -3.8286738945835577E-02 
   -1.7531129558651667E-01 
    7.7651372233931895E+00 
    7.6262999067170698E+00 
    7.3826658822002669E+00 
    6.9953776839990942E+00 
    6.4620636326461254E+00 
    5.8019961756758427E+00 
    5.0270092818502770E+00 
    4.1778607854307044E+00 
    3.3086278295629756E+00 
    2.4829819843808592E+00 
    1.7605287311237918E+00 
    1.1755640722493068E+00 
    6.9116983450689373E-01 
    2.9398512408098931E-01 
    1.0045416070798497E-02 
   -1.4664095621820036E-01 
    7.7968355866633932E+00 
    7.6732849844328515E+00 
    7.4602230714409350E+00 
    7.1163622527889512E+00 
    6.6289029523314875E+00 
    6.0101023433266167E+00 
    5.2665599975391304E+00 
    4.4312734772684959E+00 
    3.5574408475644814E+00 
    2.7126508056840022E+00 
    1.9578074962651295E+00 
    1.3402829555978220E+00 
    8.2409536488689605E-01 
    3.8899403341303407E-01 
    6.4242671995944939E-02 
   -1.1715778057217147E-01 
    7.8268047437466750E+00 
    7.7163507353641041E+00 
    7.5295339012784028E+00 
    7.2256805448665009E+00 
    6.7831195245331726E+00 
    6.2064969738272042E+00 
    5.4980698123506029E+00 
    4.6824369089383842E+00 
    3.8098913881345995E+00 
    2.9494956859945263E+00 
    2.1655566824276087E+00 
    1.5152553371555515E+00 
    9.6826055294198787E-01 
    4.9627214613889692E-01 
    1.2594310780791709E-01 
   -8.7805214618307009E-02 
    7.8545464276008463E+00 
    7.7556647767556219E+00 
    7.5919048270496745E+00 
    7.3243238356686211E+00 
    6.9250156988503946E+00 
    6.3909921492437283E+00 
    5.7203436193524899E+00 
    4.9297461089413401E+00 
    4.0644660039941645E+00 
    3.1922405474620748E+00 
    2.3826379788663581E+00 
    1.7006251483891952E+00 
    1.1237158950126995E+00 
    6.1735921306270192E-01 
    1.9778773254610729E-01 
   -5.9739470428367213E-02 
    7.8796557774579243E+00 
    7.7914734921474889E+00 
    7.6485167100428519E+00 
    7.4133992302047407E+00 
    7.0550856815478280E+00 
    6.5633722668970824E+00 
    5.9325124792619226E+00 
    5.1717268804428027E+00 
    4.3198131928840695E+00 
    3.4402043139117016E+00 
    2.6078042597169260E+00 
    1.8955719124652428E+00 
    1.2901950275881529E+00 
    7.5360004786312340E-01 
    2.8399409380030582E-01 
   -3.4554466406868128E-02 
    7.9021093753832341E+00 
    7.8235865855197755E+00 
    7.6996646154635737E+00 
    7.4945082926813971E+00 
    7.1742065019137620E+00 
    6.7237172335704800E+00 
    6.1339779348026084E+00 
    5.4072227004123938E+00 
    4.5747057757803500E+00 
    3.6929241108927395E+00 
    2.8408869634398664E+00 
    2.0988278208251017E+00 
    1.4661545842677659E+00 
    9.0501422995706926E-01 
    3.9126602379307612E-01 
   -1.4006321539267230E-02 
    7.9220257634156361E+00 
    7.8519864594749187E+00 
    7.7451241403797413E+00 
    7.5676851143572073E+00 
    7.2832398952921782E+00 
    6.8723412074492707E+00 
    6.3241768956118678E+00 
    5.6351500190173081E+00 
    4.8283260707606379E+00 
    3.9511256624711240E+00 
    3.0814962929142800E+00 
    2.3095949235619355E+00 
    1.6496048074930707E+00 
    1.0686302097624938E+00 
    5.2969132146071041E-01 
    0.0000000000000000E+00 

SCALARS Saturarion double 1 
LOOKUP_TABLE default 

    1.0000000000000000E+00 
    9.9036220120833107E-01 
    9.7024112298064658E-01 
    9.3774145602940107E-01 
    9.0325544872949892E-01 
    8.7285748401529140E-01 
    8.3953627117795793E-01 
    8.0307753450144415E-01 
    6.9992467845874995E-01 
    1.4542030510174134E-01 
    1.7505586384373559E-05 
    1.0000050983075583E-06 
    9.9999999999999995E-07 
    9.9999999999999995E-07 
    9.9999999999999995E-07 
    9.9999999999999995E-07 
    9.9748162399089302E-01 
    9.8946956407555509E-01 
    9.7164721952649291E-01 
    9.4209235934508995E-01 
    9.0557205550045872E-01 
    8.7416975417836440E-01 
    8.4091812810860600E-01 
    8.1026990649292996E-01 
    7.5844926356391817E-01 
    3.3587759640486969E-01 
    6.3063807360539607E-04 
    1.0036822214899855E-06 
    1.0000000001308447E-06 
    9.9999999999999995E-07 
    9.9999999999999995E-07 
    9.9999999999999995E-07 
    9.9308894577733542E-01 
    9.8664071569227574E-01 
    9.7101720590988072E-01 
    9.4484398983498730E-01 
    9.0709300919290858E-01 
    8.5630547076344732E-01 
    8.2022817187708519E-01 
    7.8365950626327263E-01 
    7.4124197288882621E-01 
    4.5003366768788700E-01 
    4.5155946609660488E-03 
    1.1669667637710901E-06 
    1.0000000044247213E-06 
    1.0000000000000004E-06 
    9.9999999999999995E-07 
    9.9999999999999995E-07 
    9.8532632872048453E-01 
    9.8132626582592708E-01 
    9.6889371327050267E-01 
    9.4591895427499695E-01 
    9.1704958309403439E-01 
    8.8010218003319607E-01 
    8.4356941538248220E-01 
    7.9764487646750115E-01 
    7.4693796254148048E-01 
    5.3957070438826249E-01 
    1.0232286266468977E-02 
    1.0176829222589696E-06 
    1.0000000015644641E-06 
    9.9999999999999995E-07 
    9.9999999999999995E-07 
    9.9999999999999995E-07 
    9.7345962506007111E-01 
    9.7342306527217293E-01 
    9.6440439260584943E-01 
    9.4293767298537656E-01 
    9.1532793506312871E-01 
    8.8868582810257690E-01 
    8.6630134256814684E-01 
    8.4468006401108808E-01 
    8.1310188757284407E-01 
    6.5678002651630785E-01 
    8.2650492888640556E-02 
    5.1397070437462689E-05 
    1.0000544602335043E-06 
    1.0000000000009139E-06 
    9.9999999999999995E-07 
    9.9999999999999995E-07 
    9.5578831102611228E-01 
    9.6120200862309135E-01 
    9.5707833842156964E-01 
    9.3965654588835490E-01 
    9.1424182027422507E-01 
    8.8961310860524667E-01 
    8.6116713138159207E-01 
    8.3037048616739428E-01 
    8.0251148151139462E-01 
    6.9232741517488761E-01 
    1.6396325038031753E-01 
    3.1849217066681727E-05 
    1.0001030897238373E-06 
    1.0000000000001137E-06 
    9.9999999999999995E-07 
    9.9999999999999995E-07 
    9.3140683954168035E-01 
    9.4437645766052314E-01 
    9.4680465745161724E-01 
    9.3476920112497253E-01 
    9.1564260452475743E-01 
    8.9321575488928795E-01 
    8.6375310706099395E-01 
    8.3010402899383640E-01 
    7.9082378987465130E-01 
    7.0218613194762836E-01 
    2.0287101824782014E-01 
    3.7220812600072706E-05 
    1.0000646013851617E-06 
    1.0000000000042633E-06 
    9.9999999999999995E-07 
    9.9999999999999995E-07 
    8.9854379402587858E-01 
    9.2249880148096852E-01 
    9.3317738393487248E-01 
    9.2594644565396345E-01 
    9.1038517498746929E-01 
    8.9036980075512018E-01 
    8.6552142779945351E-01 
    8.3438700615718431E-01 
    7.8455613441485117E-01 
    6.7596651976019873E-01 
    1.4209514764916625E-01 
    1.2579705952054163E-05 
    1.0000325078183800E-06 
    1.0000000000000002E-06 
    9.9999999999999995E-07 
    9.9999999999999995E-07 
    8.5792129864637423E-01 
    8.9685888209324693E-01 
    9.1591290893132604E-01 
    9.1378447042258304E-01 
    9.0110875306645810E-01 
    8.8379527797249335E-01 
    8.6368791055188743E-01 
    8.3771375783085034E-01 
    7.8444726857539793E-01 
    6.7869277041511267E-01 
    1.9537096730362391E-01 
    1.4038129632697814E-04 
    1.0013429451165414E-06 
    1.0000000000914643E-06 
    9.9999999999999995E-07 
    9.9999999999999995E-07 
    7.4615366941170380E-01 
    8.5862594198173281E-01 
    8.9546798786949178E-01 
    8.9925680456363699E-01 
    8.8762402400688523E-01 
    8.7200197125757795E-01 
    8.5707562287341743E-01 
    8.3979472380518017E-01 
    8.0213161811435219E-01 
    7.2188688592523986E-01 
    3.1619631601894105E-01 
    1.2888264650415696E-04 
    1.0005001192734103E-06 
    1.0000000001975177E-06 
    9.9999999999999995E-07 
    9.9999999999999995E-07 
    1.6062243376454821E-01 
    7.1054628089900196E-01 
    8.6045607675033398E-01 
    8.7763314985712559E-01 
    8.7353723782099546E-01 
    8.6083504774481734E-01 
    8.4720044261765115E-01 
    8.3632913472651782E-01 
    8.0966484387972615E-01 
    7.4930374689496038E-01 
    3.7128608539165886E-01 
    5.4867356470661042E-05 
    1.0004336508353427E-06 
    1.0000000000000353E-06 
    9.9999999999999995E-07 
    9.9999999999999995E-07 
    3.8070655458408660E-02 
    5.9179938973272561E-01 
    8.0076945835528368E-01 
    8.4477752437030484E-01 
    8.4803794332963123E-01 
    8.4540917066316523E-01 
    8.3575674272608369E-01 
    8.2713612939073322E-01 
    8.1211067106169454E-01 
    7.6458728349377658E-01 
    5.4104393142627261E-01 
    2.1487285276339099E-02 
    3.1009281368327353E-06 
    1.0000002138918194E-06 
    9.9999999999999995E-07 
    9.9999999999999995E-07 
    2.0351845366297989E-05 
    2.9568192802476445E-01 
    6.8083441340772621E-01 
    7.7991500808450742E-01 
    8.0605713022378001E-01 
    8.1627933905693995E-01 
    8.1508868026954284E-01 
    8.1270661350892781E-01 
    8.0181910068532436E-01 
    7.6441782501966360E-01 
    6.4636669175008243E-01 
    1.3418367258888730E-01 
    3.5618512841241638E-05 
    1.0000147660891980E-06 
    1.0000000000004713E-06 
    9.9999999999999995E-07 
    9.9998741285427045E-07 
    9.6274572889522986E-04 
    3.2465323259929557E-01 
    6.3781706133186322E-01 
    7.1594561646153709E-01 
    7.1901031625671574E-01 
    7.0655012840945663E-01 
    6.8735197232552769E-01 
    7.2077309590024463E-01 
    7.3635897959346897E-01 
    3.7111520277435872E-01 
    3.2565427496509625E-05 
    1.0022997118750619E-06 
    1.0000000000015305E-06 
    9.9999999999999995E-07 
    9.9999999999999995E-07 
    1.0000000013414359E-06 
    1.1306796329478877E-06 
    6.9658464945325091E-03 
    2.4906529562932125E-01 
    5.0867624057532035E-01 
    4.2482436191071793E-01 
    4.1681330051941362E-01 
    4.2796504925311457E-01 
    5.8295022131387741E-01 
    6.5234738276886872E-01 
    3.6693963669530349E-01 
    5.1118294642880121E-04 
    1.0066256367212958E-06 
    1.0000000000001916E-06 
    9.9999999999999995E-07 
    9.9999999999999995E-07 
    9.9999999999999995E-07 
    9.9999999555563735E-07 
    0.0000000000000000E+00 
    1.6280300085782312E-01 
    3.4735182808227849E-01 
    3.4128823871529534E-01 
    3.5043449671277743E-01 
    3.4767559481547089E-01 
    4.2432202941940106E-01 
    4.4430645970462196E-01 
    2.1100504090999361E-01 
    1.0242665305050670E-03 
    1.0140281861688197E-06 
    1.0000000027034420E-06 
    9.9999999999999995E-07 
    1.0000000944589386E-06 
