# vtk DataFile Version 2.0
Pressure Field Data 
ASCII 
DATASET UNSTRUCTURED_GRID 

POINTS 289 double 

    0.0000000000000000E+00     0.0000000000000000E+00     0.0000000000000000E+00 
    1.0000000000000000E+00     0.0000000000000000E+00     0.0000000000000000E+00 
    1.0000000000000000E+00     1.0000000000000000E+00     0.0000000000000000E+00 
    0.0000000000000000E+00     1.0000000000000000E+00     0.0000000000000000E+00 
    6.2499999999872928E-02     0.0000000000000000E+00     0.0000000000000000E+00 
    1.2499999999977310E-01     0.0000000000000000E+00     0.0000000000000000E+00 
    1.8749999999959341E-01     0.0000000000000000E+00     0.0000000000000000E+00 
    2.4999999999941089E-01     0.0000000000000000E+00     0.0000000000000000E+00 
    3.1249999999922851E-01     0.0000000000000000E+00     0.0000000000000000E+00 
    3.7499999999904610E-01     0.0000000000000000E+00     0.0000000000000000E+00 
    4.3749999999886358E-01     0.0000000000000000E+00     0.0000000000000000E+00 
    4.9999999999869210E-01     0.0000000000000000E+00     0.0000000000000000E+00 
    5.6249999999884603E-01     0.0000000000000000E+00     0.0000000000000000E+00 
    6.2499999999901090E-01     0.0000000000000000E+00     0.0000000000000000E+00 
    6.8749999999917577E-01     0.0000000000000000E+00     0.0000000000000000E+00 
    7.4999999999934064E-01     0.0000000000000000E+00     0.0000000000000000E+00 
    8.1249999999950551E-01     0.0000000000000000E+00     0.0000000000000000E+00 
    8.7499999999967026E-01     0.0000000000000000E+00     0.0000000000000000E+00 
    9.3749999999983513E-01     0.0000000000000000E+00     0.0000000000000000E+00 
    1.0000000000000000E+00     6.2499999999872928E-02     0.0000000000000000E+00 
    1.0000000000000000E+00     1.2499999999977310E-01     0.0000000000000000E+00 
    1.0000000000000000E+00     1.8749999999959341E-01     0.0000000000000000E+00 
    1.0000000000000000E+00     2.4999999999941089E-01     0.0000000000000000E+00 
    1.0000000000000000E+00     3.1249999999922851E-01     0.0000000000000000E+00 
    1.0000000000000000E+00     3.7499999999904610E-01     0.0000000000000000E+00 
    1.0000000000000000E+00     4.3749999999886358E-01     0.0000000000000000E+00 
    1.0000000000000000E+00     4.9999999999869210E-01     0.0000000000000000E+00 
    1.0000000000000000E+00     5.6249999999884603E-01     0.0000000000000000E+00 
    1.0000000000000000E+00     6.2499999999901090E-01     0.0000000000000000E+00 
    1.0000000000000000E+00     6.8749999999917577E-01     0.0000000000000000E+00 
    1.0000000000000000E+00     7.4999999999934064E-01     0.0000000000000000E+00 
    1.0000000000000000E+00     8.1249999999950551E-01     0.0000000000000000E+00 
    1.0000000000000000E+00     8.7499999999967026E-01     0.0000000000000000E+00 
    1.0000000000000000E+00     9.3749999999983513E-01     0.0000000000000000E+00 
    9.3749999999973976E-01     1.0000000000000000E+00     0.0000000000000000E+00 
    8.7499999999950118E-01     1.0000000000000000E+00     0.0000000000000000E+00 
    8.1249999999991318E-01     1.0000000000000000E+00     0.0000000000000000E+00 
    7.5000000000034706E-01     1.0000000000000000E+00     0.0000000000000000E+00 
    6.8750000000078049E-01     1.0000000000000000E+00     0.0000000000000000E+00 
    6.2500000000121403E-01     1.0000000000000000E+00     0.0000000000000000E+00 
    5.6250000000164757E-01     1.0000000000000000E+00     0.0000000000000000E+00 
    5.0000000000205946E-01     1.0000000000000000E+00     0.0000000000000000E+00 
    4.3750000000182099E-01     1.0000000000000000E+00     0.0000000000000000E+00 
    3.7500000000156092E-01     1.0000000000000000E+00     0.0000000000000000E+00 
    3.1250000000130068E-01     1.0000000000000000E+00     0.0000000000000000E+00 
    2.5000000000104050E-01     1.0000000000000000E+00     0.0000000000000000E+00 
    1.8750000000078040E-01     1.0000000000000000E+00     0.0000000000000000E+00 
    1.2500000000052031E-01     1.0000000000000000E+00     0.0000000000000000E+00 
    6.2500000000260125E-02     1.0000000000000000E+00     0.0000000000000000E+00 
    0.0000000000000000E+00     9.3749999999973976E-01     0.0000000000000000E+00 
    0.0000000000000000E+00     8.7499999999950118E-01     0.0000000000000000E+00 
    0.0000000000000000E+00     8.1249999999991318E-01     0.0000000000000000E+00 
    0.0000000000000000E+00     7.5000000000034706E-01     0.0000000000000000E+00 
    0.0000000000000000E+00     6.8750000000078049E-01     0.0000000000000000E+00 
    0.0000000000000000E+00     6.2500000000121403E-01     0.0000000000000000E+00 
    0.0000000000000000E+00     5.6250000000164757E-01     0.0000000000000000E+00 
    0.0000000000000000E+00     5.0000000000205946E-01     0.0000000000000000E+00 
    0.0000000000000000E+00     4.3750000000182099E-01     0.0000000000000000E+00 
    0.0000000000000000E+00     3.7500000000156092E-01     0.0000000000000000E+00 
    0.0000000000000000E+00     3.1250000000130068E-01     0.0000000000000000E+00 
    0.0000000000000000E+00     2.5000000000104050E-01     0.0000000000000000E+00 
    0.0000000000000000E+00     1.8750000000078040E-01     0.0000000000000000E+00 
    0.0000000000000000E+00     1.2500000000052031E-01     0.0000000000000000E+00 
    0.0000000000000000E+00     6.2500000000260125E-02     0.0000000000000000E+00 
    6.2499999999897131E-02     6.2500000000235922E-02     0.0000000000000000E+00 
    6.2499999999921327E-02     1.2500000000047351E-01     0.0000000000000000E+00 
    6.2499999999945530E-02     1.8750000000070621E-01     0.0000000000000000E+00 
    6.2499999999969733E-02     2.5000000000093858E-01     0.0000000000000000E+00 
    6.2499999999993928E-02     3.1250000000117117E-01     0.0000000000000000E+00 
    6.2500000000018124E-02     3.7500000000140382E-01     0.0000000000000000E+00 
    6.2500000000042327E-02     4.3750000000163619E-01     0.0000000000000000E+00 
    6.2500000000066530E-02     5.0000000000184897E-01     0.0000000000000000E+00 
    6.2500000000090733E-02     5.6250000000147260E-01     0.0000000000000000E+00 
    6.2500000000114922E-02     6.2500000000107636E-01     0.0000000000000000E+00 
    6.2500000000139125E-02     6.8750000000068034E-01     0.0000000000000000E+00 
    6.2500000000163328E-02     7.5000000000028411E-01     0.0000000000000000E+00 
    6.2500000000187531E-02     8.1249999999988787E-01     0.0000000000000000E+00 
    6.2500000000211720E-02     8.7499999999951172E-01     0.0000000000000000E+00 
    6.2500000000235922E-02     9.3749999999974565E-01     0.0000000000000000E+00 
    1.2499999999981980E-01     6.2500000000211733E-02     0.0000000000000000E+00 
    1.2499999999986650E-01     1.2500000000042691E-01     0.0000000000000000E+00 
    1.2499999999991319E-01     1.8750000000063199E-01     0.0000000000000000E+00 
    1.2499999999995989E-01     2.5000000000083678E-01     0.0000000000000000E+00 
    1.2500000000000661E-01     3.1250000000104172E-01     0.0000000000000000E+00 
    1.2500000000005329E-01     3.7500000000124661E-01     0.0000000000000000E+00 
    1.2500000000010000E-01     4.3750000000145117E-01     0.0000000000000000E+00 
    1.2500000000014669E-01     5.0000000000163858E-01     0.0000000000000000E+00 
    1.2500000000019340E-01     5.6250000000129741E-01     0.0000000000000000E+00 
    1.2500000000024011E-01     6.2500000000093847E-01     0.0000000000000000E+00 
    1.2500000000028680E-01     6.8750000000057998E-01     0.0000000000000000E+00 
    1.2500000000033351E-01     7.5000000000022127E-01     0.0000000000000000E+00 
    1.2500000000038020E-01     8.1249999999986211E-01     0.0000000000000000E+00 
    1.2500000000042691E-01     8.7499999999952238E-01     0.0000000000000000E+00 
    1.2500000000047359E-01     9.3749999999975164E-01     0.0000000000000000E+00 
    1.8749999999966760E-01     6.2500000000187531E-02     0.0000000000000000E+00 
    1.8749999999974179E-01     1.2500000000038020E-01     0.0000000000000000E+00 
    1.8749999999981601E-01     1.8750000000055780E-01     0.0000000000000000E+00 
    1.8749999999989009E-01     2.5000000000073502E-01     0.0000000000000000E+00 
    1.8749999999996431E-01     3.1250000000091221E-01     0.0000000000000000E+00 
    1.8750000000003850E-01     3.7500000000108941E-01     0.0000000000000000E+00 
    1.8750000000011269E-01     4.3750000000126649E-01     0.0000000000000000E+00 
    1.8750000000018691E-01     5.0000000000142808E-01     0.0000000000000000E+00 
    1.8750000000026110E-01     5.6250000000112244E-01     0.0000000000000000E+00 
    1.8750000000033529E-01     6.2500000000080080E-01     0.0000000000000000E+00 
    1.8750000000040951E-01     6.8750000000047962E-01     0.0000000000000000E+00 
    1.8750000000048361E-01     7.5000000000015843E-01     0.0000000000000000E+00 
    1.8750000000055780E-01     8.1249999999983680E-01     0.0000000000000000E+00 
    1.8750000000063199E-01     8.7499999999953304E-01     0.0000000000000000E+00 
    1.8750000000070621E-01     9.3749999999975764E-01     0.0000000000000000E+00 
    2.4999999999951281E-01     6.2500000000163314E-02     0.0000000000000000E+00 
    2.4999999999961461E-01     1.2500000000033351E-01     0.0000000000000000E+00 
    2.4999999999971650E-01     1.8750000000048361E-01     0.0000000000000000E+00 
    2.4999999999981831E-01     2.5000000000063310E-01     0.0000000000000000E+00 
    2.4999999999992020E-01     3.1250000000078260E-01     0.0000000000000000E+00 
    2.5000000000002198E-01     3.7500000000093209E-01     0.0000000000000000E+00 
    2.5000000000012390E-01     4.3750000000108180E-01     0.0000000000000000E+00 
    2.5000000000022571E-01     5.0000000000121769E-01     0.0000000000000000E+00 
    2.5000000000032763E-01     5.6250000000094724E-01     0.0000000000000000E+00 
    2.5000000000042938E-01     6.2500000000066314E-01     0.0000000000000000E+00 
    2.5000000000053119E-01     6.8750000000037925E-01     0.0000000000000000E+00 
[...]
CELL_DATA 256 
SCALARS Pressure double 1 
LOOKUP_TABLE default 

    7.1060938709445487E-01 
    7.0866701123164344E-01 
    7.0686537837480934E-01 
    7.0521785288833960E-01 
    7.0371808316028672E-01 
    7.0235934898485597E-01 
    7.0113559620896704E-01 
    7.0004166452549377E-01 
    6.9907332328349825E-01 
    6.9822724850784124E-01 
    6.9750098147183270E-01 
    6.9689287946787015E-01 
    6.9640204645209414E-01 
    6.9602816473514029E-01 
    6.9577082452804651E-01 
    6.9562692138211646E-01 
    6.8241779984123574E-01 
    6.8233006930072759E-01 
    6.8217531988739377E-01 
    6.8197271254133907E-01 
    6.8173717113607069E-01 
    6.8148136560877259E-01 
    6.8121617048376015E-01 
    6.8095097750043254E-01 
    6.8069393662238220E-01 
    6.8045214869942061E-01 
    6.8023181975649505E-01 
    6.8003837821090551E-01 
    6.7987653910485979E-01 
    6.7975023953550384E-01 
    6.7966215556831955E-01 
    6.7961264911159358E-01 
    6.5639518654930429E-01 
    6.5637945738443448E-01 
    6.5634903375889175E-01 
    6.5630572227430861E-01 
    6.5625166504009091E-01 
    6.5618924455595962E-01 
    6.5612099825837877E-01 
    6.5604954378127900E-01 
    6.5597751986862263E-01 
    6.5590754022668307E-01 
    6.5584215522002898E-01 
    6.5578381158398513E-01 
    6.5573478467712831E-01 
    6.5569700896281635E-01 
    6.5567162947503332E-01 
    6.5565816098945695E-01 
    6.2745590738631518E-01 
    6.2744891223690491E-01 
    6.2743541670959635E-01 
    6.2741620746788274E-01 
    6.2739216650275365E-01 
    6.2736426917455357E-01 
    6.2733358057406086E-01 
    6.2730124473306015E-01 
    6.2726847182862022E-01 
    6.2723652449619194E-01 
    6.2720670083728514E-01 
    6.2718030504301558E-01 
    6.2715857966930888E-01 
    6.2714253613045789E-01 
    6.2713260692480521E-01 
    6.2712799107477546E-01 
    5.9529301083321629E-01 
    5.9528752460038237E-01 
    5.9527697347483965E-01 
    5.9526199938598490E-01 
    5.9524328927823611E-01 
    5.9522156839720453E-01 
    5.9519760624375950E-01 
    5.9517221811802090E-01 
    5.9514626300106366E-01 
    5.9512063726573994E-01 
    5.9509625963999635E-01 
    5.9507403355309463E-01 
    5.9505475098566851E-01 
    5.9503885746539675E-01 
    5.9502598506086313E-01 
    5.9501663673601324E-01 
    5.6004850090824299E-01 
    5.6004306603722209E-01 
    5.6003257390816019E-01 
    5.6001760091597363E-01 
    5.5999875684657652E-01 
    5.5997666710953908E-01 
    5.5995197526532903E-01 
    5.5992534322677212E-01 
    5.5989744597249558E-01 
    5.5986895721920360E-01 
    5.5984051620302389E-01 
    5.5981264931238661E-01 
    5.5978557825595332E-01 
    5.5975873518543218E-01 
    5.5972949521013726E-01 
    5.5970258979055321E-01 
    5.2189147196493257E-01 
    5.2188601721624106E-01 
    5.2187545938061985E-01 
    5.2186034217347421E-01 
    5.2184124608156468E-01 
    5.2181876289397067E-01 
    5.2179349431148914E-01 
    5.2176604990834985E-01 
    5.2173703835527563E-01 
    5.2170704531908096E-01 
    5.2167658238289283E-01 
    5.2164596594252510E-01 
    5.2161501342356875E-01 
    5.2158221972267160E-01 
    5.2154217020722482E-01 
    5.2150430476576859E-01 
    4.8092541728646249E-01 
    4.8092007326858005E-01 
    4.8090972668255039E-01 
    4.8089491607897367E-01 
    4.8087623226623355E-01 
    4.8085428911450390E-01 
    4.8082972104546740E-01 
    4.8080318210693634E-01 
    4.8077533888594409E-01 
    4.8074684880593382E-01 
    4.8071830410443439E-01 
    4.8069008820146369E-01 
    4.8066198616873773E-01 
    4.8063202774516706E-01 
    4.8059435836160108E-01 
    4.8056074119764974E-01 
    4.3717885425961989E-01 
    4.3717305491478153E-01 
    4.3716176505097221E-01 
    4.3714548051635849E-01 
    4.3712474965698822E-01 
    4.3710013932598824E-01 
    4.3707222760237491E-01 
    4.3704159811721338E-01 
    4.3700882591583640E-01 
    4.3697444200875557E-01 
    4.3693884568411850E-01 
    4.3690207608744625E-01 
    4.3686315328667213E-01 
    4.3681794253518408E-01 
    4.3676671332198747E-01 
    4.3673323283024890E-01 
    3.9067052387392470E-01 
    3.9066391669968875E-01 
    3.9065096653035764E-01 
    3.9063210783205821E-01 
    3.9060782196520821E-01 
    3.9057859770522063E-01 
    3.9054491643683920E-01 
    3.9050723658604813E-01 
    3.9046596343220930E-01 
    3.9042138254720138E-01 
    3.9037350087522443E-01 
    3.9032162383544811E-01 
    3.9026306664905136E-01 
    3.9018968006237686E-01 
    3.9011418932916375E-01 
    3.9007551826683828E-01 
    3.4137026514478802E-01 
    3.4136266550885641E-01 
    3.4134768836207441E-01 
    3.4132571896651193E-01 
    3.4129719502539779E-01 
    3.4126256059606602E-01 
    3.4122224149358643E-01 
    3.4117661478615763E-01 
    3.4112595183263206E-01 
    3.4107029567450814E-01 
    3.4100916380383295E-01 
    3.4094072200719772E-01 
    3.4085929337630594E-01 
    3.4076115977821925E-01 
    3.4067742436199711E-01 
    3.4063865434685686E-01 
    2.8913390776770015E-01 
    2.8912348312372904E-01 
    2.8910278522287447E-01 
    2.8907212485306799E-01 
    2.8903187437251898E-01 
    2.8898240186284302E-01 
    2.8892401704679510E-01 
    2.8885689254057012E-01 
    2.8878091866688804E-01 
    2.8869539631481361E-01 
    2.8859829340217208E-01 
    2.8848434197884021E-01 
    2.8834539204561921E-01 
    2.8820433911788435E-01 
    2.8811344681959750E-01 
    2.8807525145987484E-01 
    2.3375234837402975E-01 
    2.3373235340395007E-01 
    2.3369242878086532E-01 
    2.3363287558047391E-01 
    2.3355413734439170E-01 
    2.3345667085628843E-01 
    2.3334079450922882E-01 
    2.3320644033263258E-01 
    2.3305269146036708E-01 
    2.3287688573069654E-01 
    2.3267340758486230E-01 
    2.3243831330550535E-01 
    2.3219611588581257E-01 
    2.3201105255442045E-01 
    2.3190583631548242E-01 
    2.3185874700265888E-01 
    1.7514848714861422E-01 
    1.7509232413864367E-01 
    1.7498010393649499E-01 
    1.7481264220262724E-01 
    1.7459131222652124E-01 
    1.7431776830413709E-01 
    1.7399362144677222E-01 
    1.7362013255225089E-01 
    1.7319865469579857E-01 
    1.7273478102222289E-01 
    1.7224934390372856E-01 
    1.7178921728351459E-01 
    1.7142216485535339E-01 
    1.7117451872759051E-01 
    1.7102002896902785E-01 
    1.7094230745300551E-01 
    1.1456799476363543E-01 
    1.1437886961273995E-01 
    1.1400332935937971E-01 
    1.1344742483695146E-01 
    1.1272040078294884E-01 
    1.1183542321899469E-01 
    1.1081068681702076E-01 
    1.0967090431940109E-01 
    1.0844977356541645E-01 
    1.0719676829112235E-01 
    1.0598504911032340E-01 
    1.0488931213385037E-01 
    1.0395142454568870E-01 
    1.0317685112490510E-01 
    1.0258938247396106E-01 
    1.0225373092990778E-01 
    6.4791666689478861E-02 
    6.4276466795426659E-02 
    6.3244664808976253E-02 
    6.1693701747859361E-02 
    5.9620797274866903E-02 
    5.7024718816485062E-02 
    5.3907935203788220E-02 
    5.0277309193740266E-02 
    4.6139332920575322E-02 
    4.1491396008646368E-02 
    3.6322512670127483E-02 
    3.0593786066513230E-02 
    2.4198630220991914E-02 
    1.7018806183553881E-02 
    8.9774626906849765E-03 
    0.0000000000000000E+00 

SCALARS Saturarion double 1 
LOOKUP_TABLE default 

    1.0000000000000000E+00 
    9.6242311975713635E-01 
    9.3883509984346480E-01 
    9.1630437190878800E-01 
    8.9387170926087434E-01 
    8.7114118476186653E-01 
    8.4784946897675473E-01 
    8.2375347135800203E-01 
    7.9857463522964789E-01 
    7.7194783685328972E-01 
    7.4334771035869363E-01 
    7.1195167552480276E-01 
    6.7633384749503489E-01 
    6.3361207393338137E-01 
    5.7608680622643593E-01 
    4.6962615773973276E-01 
    8.5963788229942462E-01 
    8.4693264903781840E-01 
    8.3231345124145495E-01 
    8.1678979949555086E-01 
    8.0044379276684241E-01 
    7.8325842161150372E-01 
    7.6515701238371314E-01 
    7.4600335042385268E-01 
    7.2558569573770348E-01 
    7.0358216862139089E-01 
    6.7949217513562832E-01 
    6.5249177717593232E-01 
    6.2108406747471756E-01 
    5.8204839192577806E-01 
    5.2619464026189822E-01 
    4.1709866458224054E-01 
    7.8013192297687273E-01 
    7.7038744765785039E-01 
    7.5859845440074170E-01 
    7.4590054704802067E-01 
    7.3243085997585600E-01 
    7.1815694284710385E-01 
    7.0298256695658934E-01 
    6.8675617274112177E-01 
    6.6925386641202556E-01 
    6.5014093936174333E-01 
    6.2889484450552868E-01 
    6.0463773300969637E-01 
    5.7571404271768833E-01 
    5.3838690826506119E-01 
    4.8174542998064168E-01 
    3.6282650262238331E-01 
    7.2248062279735958E-01 
    7.1433149295568898E-01 
    7.0417517048068268E-01 
    6.9313769367528222E-01 
    6.8138371229428074E-01 
    6.6887874991886043E-01 
    6.5551651419574730E-01 
    6.4113374515874122E-01 
    6.2549350311734131E-01 
    6.0824325617768626E-01 
    5.8882780024384118E-01 
    5.6629350407854673E-01 
    5.3878297015054011E-01 
    5.0198603569716271E-01 
    4.4330763502823989E-01 
    3.0424849877895599E-01 
    6.7671624350468373E-01 
    6.6969650004925607E-01 
    6.6074790005298634E-01 
    6.5092617702541555E-01 
    6.4041214494306908E-01 
    6.2917745565990324E-01 
    6.1711449595509582E-01 
    6.0405462157278356E-01 
    5.8975141489576011E-01 
    5.7383495269385765E-01 
    5.5571312224030533E-01 
    5.3434396963302855E-01 
    5.0764532706458720E-01 
    4.7072274860583468E-01 
    4.0939141339814772E-01 
    2.3423457347814688E-01 
    6.3825623020930999E-01 
    6.3210398902259124E-01 
    6.2411988882729841E-01 
    6.1526713828538271E-01 
    6.0573101430634779E-01 
    5.9548935962476823E-01 
    5.8443544958914107E-01 
    5.7239665488601976E-01 
    5.5911637436117689E-01 
    5.4420281919405900E-01 
    5.2701508784769080E-01 
    5.0639476735004951E-01 
    4.7996969201872425E-01 
    4.4208452430512346E-01 
    3.7619807802944971E-01 
    1.4384884752437130E-01 
    6.0463231566683606E-01 
    5.9916966325366272E-01 
    5.9197789441598403E-01 
    5.8392429323855510E-01 
    5.7518949918969509E-01 
    5.6575467682275071E-01 
    5.5551281167004496E-01 
    5.4428524623578523E-01 
    5.3180024321266428E-01 
    5.1763286567321587E-01 
    5.0106790293709758E-01 
    4.8076855213181674E-01 
    4.5390038799162824E-01 
    4.1342504965518911E-01 
    3.3638298933110816E-01 
    5.6602852278968475E-02 
    5.7431259228645892E-01 
    5.6941157449661117E-01 
    5.6288543765076671E-01 
    5.5550896059863331E-01 
    5.4745227394676210E-01 
    5.3869719565992613E-01 
    5.2913516109410796E-01 
    5.1857984371623889E-01 
    5.0674050292575723E-01 
    4.9314941703407683E-01 
    4.7699259943287314E-01 
    4.5668649538185446E-01 
    4.2870397129336535E-01 
    3.8359219454521454E-01 
    2.8050169337586728E-01 
    1.6367970801379046E-02 
    5.4618497848502245E-01 
    5.4174725116742817E-01 
    5.3578702763559583E-01 
    5.2899232819292541E-01 
    5.2151927325202030E-01 
    5.1334835301352755E-01 
    5.0436866369020150E-01 
    4.9438553621723558E-01 
    4.8308731258782095E-01 
    4.6995722524185130E-01 
    4.5406248738265459E-01 
    4.3350333948973924E-01 
    4.0376468673392812E-01 
    3.5131246166564400E-01 
    1.9470526120914686E-01 
    3.8623097883763438E-03 
    5.1929749808645298E-01 
    5.1523616496956914E-01 
    5.0974747090280470E-01 
    5.0343995340650982E-01 
    4.9645275891145918E-01 
    4.8876178963297773E-01 
    4.8025039046785711E-01 
    4.7071056892969287E-01 
    4.5980034760706429E-01 
    4.4693259660771639E-01 
    4.3099853294475671E-01 
    4.0959647270996735E-01 
    3.7643864548473371E-01 
    3.0854741597017415E-01 
    8.2271816323309363E-02 
    3.3920689185487813E-04 
    4.9267773973937862E-01 
    4.8890883305892768E-01 
    4.8379601771983749E-01 
    4.7787453161861482E-01 
    4.7126334872809228E-01 
    4.6392886920155896E-01 
    4.5574190360436606E-01 
    4.4647006593826682E-01 
    4.3571989614005935E-01 
    4.2278636897577060E-01 
    4.0625560227499208E-01 
    3.8278572242491177E-01 
    3.4230026430763999E-01 
    2.3520887863979933E-01 
    1.6275380670176590E-02 
    6.5078196753718060E-06 
    4.6502638234301452E-01 
    4.6145419053531123E-01 
    4.5660445806306693E-01 
    4.5094116467845863E-01 
    4.4455758226010306E-01 
    4.3740138129338113E-01 
    4.2931626742672108E-01 
    4.2001993999332610E-01 
    4.0901689925897655E-01 
    3.9536733149597475E-01 
    3.7702051362135663E-01 
    3.4847696440378900E-01 
    2.8932882860716935E-01 
    1.0861424967793115E-01 
    1.0984628150884782E-03 
    9.8985008151363277E-09 
    4.3404255132055852E-01 
    4.3052579028778781E-01 
    4.2576736737544535E-01 
    4.2015043509764349E-01 
    4.1372637058025247E-01 
    4.0639775394230754E-01 
    3.9793650453326712E-01 
    3.8792722636351545E-01 
    3.7559779616158562E-01 
    3.5934395609332759E-01 
    3.3517085338534985E-01 
    2.9033874246436520E-01 
    1.7645358389649940E-01 
    1.2630947926546879E-02 
    4.0387285295518746E-06 
    2.0481040066277121E-14 
    3.9425684872238986E-01 
    3.9054237301160172E-01 
    3.8557293980600177E-01 
    3.7960426319353718E-01 
    3.7259057813755425E-01 
    3.6429883711707534E-01 
    3.5426240353637017E-01 
    3.4159133925802332E-01 
    3.2445154795967002E-01 
    2.9855004118698109E-01 
    2.5248807653050054E-01 
    1.5817822114786190E-01 
    2.8541827107346415E-02 
    6.8009586205832810E-05 
    1.7722413073488834E-11 
    2.8993342956350204E-27 
    3.2652985890145769E-01 
    3.2201145329658065E-01 
    3.1613944664058846E-01 
    3.0891366523774300E-01 
    3.0001482951067904E-01 
    2.8876722976113484E-01 
    2.7386497437719026E-01 
    2.5268003677121698E-01 
    2.1966955535994698E-01 
    1.6459524456031155E-01 
    8.4059929423287313E-02 
    1.6091703435266301E-02 
    1.5930675238128456E-04 
    5.0125892005073505E-10 
    1.5919574551607280E-23 
    1.9408193396733412E-57 
    1.5506776729686511E-01 
    1.4833879127585828E-01 
    1.4006185743807614E-01 
    1.3004080621318589E-01 
    1.1781789113490489E-01 
    1.0268192120107809E-01 
    8.3783552794860619E-02 
    6.0724908138198433E-02 
    3.5161235555402480E-02 
    1.2973005429585915E-02 
    1.8535088233469813E-03 
    2.7884090580229152E-05 
    4.8800376900394055E-10 
    1.8613451611212292E-22 
    6.3065269886611055E-54 
   1.0746763373266188E-134 
