# vtk DataFile Version 2.0
Pressure Field Data 
ASCII 
DATASET UNSTRUCTURED_GRID 

POINTS 289 double 

    0.0000000000000000E+00     0.0000000000000000E+00     0.0000000000000000E+00 
    1.0000000000000000E+00     0.0000000000000000E+00     0.0000000000000000E+00 
    1.0000000000000000E+00     1.0000000000000000E+00     0.0000000000000000E+00 
    0.0000000000000000E+00     1.0000000000000000E+00     0.0000000000000000E+00 
    6.2499999999872928E-02     0.0000000000000000E+00     0.0000000000000000E+00 
    1.2499999999977310E-01     0.0000000000000000E+00     0.0000000000000000E+00 
    1.8749999999959341E-01     0.0000000000000000E+00     0.0000000000000000E+00 
    2.4999999999941089E-01     0.0000000000000000E+00     0.0000000000000000E+00 
    3.1249999999922851E-01     0.0000000000000000E+00     0.0000000000000000E+00 
    3.7499999999904610E-01     0.0000000000000000E+00     0.0000000000000000E+00 
    4.3749999999886358E-01     0.0000000000000000E+00     0.0000000000000000E+00 
    4.9999999999869210E-01     0.0000000000000000E+00     0.0000000000000000E+00 
    5.6249999999884603E-01     0.0000000000000000E+00     0.0000000000000000E+00 
    6.2499999999901090E-01     0.0000000000000000E+00     0.0000000000000000E+00 
    6.8749999999917577E-01     0.0000000000000000E+00     0.0000000000000000E+00 
    7.4999999999934064E-01     0.0000000000000000E+00     0.0000000000000000E+00 
    8.1249999999950551E-01     0.0000000000000000E+00     0.0000000000000000E+00 
    8.7499999999967026E-01     0.0000000000000000E+00     0.0000000000000000E+00 
    9.3749999999983513E-01     0.0000000000000000E+00     0.0000000000000000E+00 
    1.0000000000000000E+00     6.2499999999872928E-02     0.0000000000000000E+00 
    1.0000000000000000E+00     1.2499999999977310E-01     0.0000000000000000E+00 
    1.0000000000000000E+00     1.8749999999959341E-01     0.0000000000000000E+00 
    1.0000000000000000E+00     2.4999999999941089E-01     0.0000000000000000E+00 
    1.0000000000000000E+00     3.1249999999922851E-01     0.0000000000000000E+00 
    1.0000000000000000E+00     3.7499999999904610E-01     0.0000000000000000E+00 
    1.0000000000000000E+00     4.3749999999886358E-01     0.0000000000000000E+00 
    1.0000000000000000E+00     4.9999999999869210E-01     0.0000000000000000E+00 
    1.0000000000000000E+00     5.6249999999884603E-01     0.0000000000000000E+00 
    1.0000000000000000E+00     6.2499999999901090E-01     0.0000000000000000E+00 
    1.0000000000000000E+00     6.8749999999917577E-01     0.0000000000000000E+00 
    1.0000000000000000E+00     7.4999999999934064E-01     0.0000000000000000E+00 
    1.0000000000000000E+00     8.1249999999950551E-01     0.0000000000000000E+00 
    1.0000000000000000E+00     8.7499999999967026E-01     0.0000000000000000E+00 
    1.0000000000000000E+00     9.3749999999983513E-01     0.0000000000000000E+00 
    9.3749999999973976E-01     1.0000000000000000E+00     0.0000000000000000E+00 
    8.7499999999950118E-01     1.0000000000000000E+00     0.0000000000000000E+00 
    8.1249999999991318E-01     1.0000000000000000E+00     0.0000000000000000E+00 
    7.5000000000034706E-01     1.0000000000000000E+00     0.0000000000000000E+00 
    6.8750000000078049E-01     1.0000000000000000E+00     0.0000000000000000E+00 
    6.2500000000121403E-01     1.0000000000000000E+00     0.0000000000000000E+00 
    5.6250000000164757E-01     1.0000000000000000E+00     0.0000000000000000E+00 
    5.0000000000205946E-01     1.0000000000000000E+00     0.0000000000000000E+00 
    4.3750000000182099E-01     1.0000000000000000E+00     0.0000000000000000E+00 
    3.7500000000156092E-01     1.0000000000000000E+00     0.0000000000000000E+00 
    3.1250000000130068E-01     1.0000000000000000E+00     0.0000000000000000E+00 
    2.5000000000104050E-01     1.0000000000000000E+00     0.0000000000000000E+00 
    1.8750000000078040E-01     1.0000000000000000E+00     0.0000000000000000E+00 
    1.2500000000052031E-01     1.0000000000000000E+00     0.0000000000000000E+00 
    6.2500000000260125E-02     1.0000000000000000E+00     0.0000000000000000E+00 
    0.0000000000000000E+00     9.3749999999973976E-01     0.0000000000000000E+00 
    0.0000000000000000E+00     8.7499999999950118E-01     0.0000000000000000E+00 
    0.0000000000000000E+00     8.1249999999991318E-01     0.0000000000000000E+00 
    0.0000000000000000E+00     7.5000000000034706E-01     0.0000000000000000E+00 
    0.0000000000000000E+00     6.8750000000078049E-01     0.0000000000000000E+00 
    0.0000000000000000E+00     6.2500000000121403E-01     0.0000000000000000E+00 
    0.0000000000000000E+00     5.6250000000164757E-01     0.0000000000000000E+00 
    0.0000000000000000E+00     5.0000000000205946E-01     0.0000000000000000E+00 
    0.0000000000000000E+00     4.3750000000182099E-01     0.0000000000000000E+00 
    0.0000000000000000E+00     3.7500000000156092E-01     0.0000000000000000E+00 
    0.0000000000000000E+00     3.1250000000130068E-01     0.0000000000000000E+00 
    0.0000000000000000E+00     2.5000000000104050E-01     0.0000000000000000E+00 
    0.0000000000000000E+00     1.8750000000078040E-01     0.0000000000000000E+00 
    0.0000000000000000E+00     1.2500000000052031E-01     0.0000000000000000E+00 
    0.0000000000000000E+00     6.2500000000260125E-02     0.0000000000000000E+00 
    6.2499999999897131E-02     6.2500000000235922E-02     0.0000000000000000E+00 
    6.2499999999921327E-02     1.2500000000047351E-01     0.0000000000000000E+00 
    6.2499999999945530E-02     1.8750000000070621E-01     0.0000000000000000E+00 
    6.2499999999969733E-02     2.5000000000093858E-01     0.0000000000000000E+00 
    6.2499999999993928E-02     3.1250000000117117E-01     0.0000000000000000E+00 
    6.2500000000018124E-02     3.7500000000140382E-01     0.0000000000000000E+00 
    6.2500000000042327E-02     4.3750000000163619E-01     0.0000000000000000E+00 
    6.2500000000066530E-02     5.0000000000184897E-01     0.0000000000000000E+00 
    6.2500000000090733E-02     5.6250000000147260E-01     0.0000000000000000E+00 
    6.2500000000114922E-02     6.2500000000107636E-01     0.0000000000000000E+00 
    6.2500000000139125E-02     6.8750000000068034E-01     0.0000000000000000E+00 
    6.2500000000163328E-02     7.5000000000028411E-01     0.0000000000000000E+00 
    6.2500000000187531E-02     8.1249999999988787E-01     0.0000000000000000E+00 
    6.2500000000211720E-02     8.7499999999951172E-01     0.0000000000000000E+00 
    6.2500000000235922E-02     9.3749999999974565E-01     0.0000000000000000E+00 
    1.2499999999981980E-01     6.2500000000211733E-02     0.0000000000000000E+00 
    1.2499999999986650E-01     1.2500000000042691E-01     0.0000000000000000E+00 
    1.2499999999991319E-01     1.8750000000063199E-01     0.0000000000000000E+00 
    1.2499999999995989E-01     2.5000000000083678E-01     0.0000000000000000E+00 
    1.2500000000000661E-01     3.1250000000104172E-01     0.0000000000000000E+00 
    1.2500000000005329E-01     3.7500000000124661E-01     0.0000000000000000E+00 
    1.2500000000010000E-01     4.3750000000145117E-01     0.0000000000000000E+00 
    1.2500000000014669E-01     5.0000000000163858E-01     0.0000000000000000E+00 
    1.2500000000019340E-01     5.6250000000129741E-01     0.0000000000000000E+00 
    1.2500000000024011E-01     6.2500000000093847E-01     0.0000000000000000E+00 
    1.2500000000028680E-01     6.8750000000057998E-01     0.0000000000000000E+00 
    1.2500000000033351E-01     7.5000000000022127E-01     0.0000000000000000E+00 
    1.2500000000038020E-01     8.1249999999986211E-01     0.0000000000000000E+00 
    1.2500000000042691E-01     8.7499999999952238E-01     0.0000000000000000E+00 
    1.2500000000047359E-01     9.3749999999975164E-01     0.0000000000000000E+00 
    1.8749999999966760E-01     6.2500000000187531E-02     0.0000000000000000E+00 
    1.8749999999974179E-01     1.2500000000038020E-01     0.0000000000000000E+00 
    1.8749999999981601E-01     1.8750000000055780E-01     0.0000000000000000E+00 
    1.8749999999989009E-01     2.5000000000073502E-01     0.0000000000000000E+00 
    1.8749999999996431E-01     3.1250000000091221E-01     0.0000000000000000E+00 
    1.8750000000003850E-01     3.7500000000108941E-01     0.0000000000000000E+00 
    1.8750000000011269E-01     4.3750000000126649E-01     0.0000000000000000E+00 
    1.8750000000018691E-01     5.0000000000142808E-01     0.0000000000000000E+00 
    1.8750000000026110E-01     5.6250000000112244E-01     0.0000000000000000E+00 
    1.8750000000033529E-01     6.2500000000080080E-01     0.0000000000000000E+00 
    1.8750000000040951E-01     6.8750000000047962E-01     0.0000000000000000E+00 
    1.8750000000048361E-01     7.5000000000015843E-01     0.0000000000000000E+00 
    1.8750000000055780E-01     8.1249999999983680E-01     0.0000000000000000E+00 
    1.8750000000063199E-01     8.7499999999953304E-01     0.0000000000000000E+00 
    1.8750000000070621E-01     9.3749999999975764E-01     0.0000000000000000E+00 
    2.4999999999951281E-01     6.2500000000163314E-02     0.0000000000000000E+00 
    2.4999999999961461E-01     1.2500000000033351E-01     0.0000000000000000E+00 
    2.4999999999971650E-01     1.8750000000048361E-01     0.0000000000000000E+00 
    2.4999999999981831E-01     2.5000000000063310E-01     0.0000000000000000E+00 
    2.4999999999992020E-01     3.1250000000078260E-01     0.0000000000000000E+00 
    2.5000000000002198E-01     3.7500000000093209E-01     0.0000000000000000E+00 
    2.5000000000012390E-01     4.3750000000108180E-01     0.0000000000000000E+00 
    2.5000000000022571E-01     5.0000000000121769E-01     0.0000000000000000E+00 
    2.5000000000032763E-01     5.6250000000094724E-01     0.0000000000000000E+00 
    2.5000000000042938E-01     6.2500000000066314E-01     0.0000000000000000E+00 
    2.5000000000053119E-01     6.8750000000037925E-01     0.0000000000000000E+00 
[...]
CELL_DATA 256 
SCALARS Pressure double 1 
LOOKUP_TABLE default 

    8.8034707531839229E-01 
    8.7831604249999906E-01 
    8.7636303508387770E-01 
    8.7453946208648259E-01 
    8.7284977428330424E-01 
    8.7129478682414219E-01 
    8.6987438628139035E-01 
    8.6858836179768539E-01 
    8.6743674023759465E-01 
    8.6641992442002669E-01 
    8.6553870592486459E-01 
    8.6479410039194426E-01 
    8.6418671417351622E-01 
    8.6371459663674832E-01 
    8.6336792599039125E-01 
    8.6316579555716855E-01 
    8.4625826571635177E-01 
    8.4614006879419057E-01 
    8.4592837077013494E-01 
    8.4564984210984262E-01 
    8.4532361078643814E-01 
    8.4496608764932457E-01 
    8.4459161381071080E-01 
    8.4421281496938505E-01 
    8.4384083482113081E-01 
    8.4348547520785910E-01 
    8.4315520961023049E-01 
    8.4285692878734975E-01 
    8.4259496301844483E-01 
    8.4236820589829975E-01 
    8.4217237918719023E-01 
    8.4204709098693742E-01 
    8.1118273078406089E-01 
    8.1114902822041812E-01 
    8.1108379765981209E-01 
    8.1099093216596319E-01 
    8.1087467253270606E-01 
    8.1073941262188787E-01 
    8.1058962052125449E-01 
    8.1042973470292845E-01 
    8.1026403676889291E-01 
    8.1009646203623675E-01 
    8.0993023464847314E-01 
    8.0976700102537225E-01 
    8.0960458856735840E-01 
    8.0943482902893971E-01 
    8.0927354719931166E-01 
    8.0918180467048062E-01 
    7.7047805164913796E-01 
    7.7045405812274814E-01 
    7.7040728375711620E-01 
    7.7033982765409070E-01 
    7.7025391783759589E-01 
    7.7015178372541915E-01 
    7.7003561426531519E-01 
    7.6990747529861270E-01 
    7.6976913930831414E-01 
    7.6962172015644126E-01 
    7.6946481361605301E-01 
    7.6929437307019100E-01 
    7.6910061534312135E-01 
    7.6889184218160866E-01 
    7.6872996159707863E-01 
    7.6865540765429985E-01 
    7.2390293350407964E-01 
    7.2387807283525185E-01 
    7.2382908110801880E-01 
    7.2375729251800680E-01 
    7.2366406671812988E-01 
    7.2355060876250976E-01 
    7.2341783758391298E-01 
    7.2326614526230171E-01 
    7.2309488455833471E-01 
    7.2290124057353766E-01 
    7.2267818652463611E-01 
    7.2241771053797033E-01 
    7.2213627343378550E-01 
    7.2190009221622342E-01 
    7.2175671152705012E-01 
    7.2169267214369248E-01 
    6.7148814593928341E-01 
    6.7145601559077583E-01 
    6.7139156985969406E-01 
    6.7129474424217750E-01 
    6.7116512600383427E-01 
    6.7100155549857232E-01 
    6.7080161231914681E-01 
    6.7056092419213331E-01 
    6.7027314783926173E-01 
    6.6993471434251894E-01 
    6.6955794183695860E-01 
    6.6918269258715335E-01 
    6.6887418508816598E-01 
    6.6866728576190404E-01 
    6.6854390549411535E-01 
    6.6848421684270798E-01 
    6.1299401966944644E-01 
    6.1293892360605995E-01 
    6.1282610057586073E-01 
    6.1265216200191519E-01 
    6.1241383070150179E-01 
    6.1210967169177544E-01 
    6.1174331960831663E-01 
    6.1132723436954728E-01 
    6.1088470419515284E-01 
    6.1045045190524938E-01 
    6.1006881126916479E-01 
    6.0977517064823605E-01 
    6.0957325294507048E-01 
    6.0943829083919920E-01 
    6.0935089599325010E-01 
    6.0930728602703998E-01 
    5.4800510504624833E-01 
    5.4792108633619918E-01 
    5.4776090300031932E-01 
    5.4753870211248756E-01 
    5.4727258400635681E-01 
    5.4698353615433526E-01 
    5.4669447033390450E-01 
    5.4642887873273305E-01 
    5.4620821304529121E-01 
    5.4604682024026674E-01 
    5.4594359987025554E-01 
    5.4587985848209686E-01 
    5.4583552733878682E-01 
    5.4580260658936208E-01 
    5.4578047794803553E-01 
    5.4576935860722497E-01 
    4.8064754342735544E-01 
    4.8063263499867825E-01 
    4.8061070040755310E-01 
    4.8059273954637760E-01 
    4.8058939975088749E-01 
    4.8060905927097736E-01 
    4.8065534267197091E-01 
    4.8072459978130933E-01 
    4.8080589633973786E-01 
    4.8088592200481278E-01 
    4.8095565685138286E-01 
    4.8101225128058261E-01 
    4.8105610675768506E-01 
    4.8108815860699744E-01 
    4.8110912985171833E-01 
    4.8111949712697077E-01 
    4.1670845125050665E-01 
    4.1673876060072035E-01 
    4.1679492309805588E-01 
    4.1686979170082100E-01 
    4.1695509936274511E-01 
    4.1704294935794300E-01 
    4.1712722708709959E-01 
    4.1720428146923139E-01 
    4.1727260039319231E-01 
    4.1733189132697524E-01 
    4.1738227901279695E-01 
    4.1742394753614498E-01 
    4.1745706431309987E-01 
    4.1748177108407936E-01 
    4.1749817870254247E-01 
    4.1750636319204987E-01 
    3.5455972850310685E-01 
    3.5456473917199582E-01 
    3.5457369431045288E-01 
    3.5458535637704486E-01 
    3.5459875886698944E-01 
    3.5461314584019565E-01 
    3.5462788928030564E-01 
    3.5464245050782789E-01 
    3.5465637119295851E-01 
    3.5466926997394055E-01 
    3.5468083561561697E-01 
    3.5469081844190681E-01 
    3.5469902246605195E-01 
    3.5470529881278068E-01 
    3.5470954044895048E-01 
    3.5471167822367283E-01 
    2.9215431895973132E-01 
    2.9215395882408390E-01 
    2.9215323405392785E-01 
    2.9215214467276007E-01 
    2.9215070402516657E-01 
    2.9214894330618385E-01 
    2.9214691285746064E-01 
    2.9214468121861076E-01 
    2.9214233252185684E-01 
    2.9213996255165681E-01 
    2.9213767375707017E-01 
    2.9213556956212883E-01 
    2.9213374836065614E-01 
    2.9213229759733517E-01 
    2.9213128834010010E-01 
    2.9213077073945709E-01 
    2.2978496029547482E-01 
    2.2977965834153935E-01 
    2.2976923759712337E-01 
    2.2975405985156050E-01 
    2.2973465633313112E-01 
    2.2971171374643060E-01 
    2.2968605544726819E-01 
    2.2965861771978741E-01 
    2.2963042119538182E-01 
    2.2960253756802210E-01 
    2.2957605193399669E-01 
    2.2955202133546548E-01 
    2.2953143044011215E-01 
    2.2951514577329993E-01 
    2.2950387057205740E-01 
    2.2949810319910188E-01 
    1.6794579702038623E-01 
    1.6791723690703167E-01 
    1.6786094125499196E-01 
    1.6777855231700881E-01 
    1.6767251546823059E-01 
    1.6754605543284481E-01 
    1.6740314086890726E-01 
    1.6724843391340150E-01 
    1.6708722016430858E-01 
    1.6692531325094404E-01 
    1.6676892656149078E-01 
    1.6662450279101751E-01 
    1.6649848966542197E-01 
    1.6639704739229610E-01 
    1.6632566997530240E-01 
    1.6628869836765464E-01 
    1.0896264508003906E-01 
    1.0882836934103293E-01 
    1.0856197350717110E-01 
    1.0816783586190851E-01 
    1.0765269326399204E-01 
    1.0702584997434252E-01 
    1.0629946544721480E-01 
    1.0548892946557102E-01 
    1.0461333556019399E-01 
    1.0369606654253576E-01 
    1.0276550929078639E-01 
    1.0185591975854241E-01 
    1.0100846364352328E-01 
    1.0027246339781923E-01 
    9.9706888443677213E-02 
    9.9382132771929643E-02 
    6.3407067041091544E-02 
    6.2951511260707194E-02 
    6.2037186899523929E-02 
    6.0657614672269967E-02 
    5.8802940233125052E-02 
    5.6459768263677199E-02 
    5.3610935477128717E-02 
    5.0235217390885462E-02 
    4.6306962183892408E-02 
    4.1795643243128441E-02 
    3.6665320069371697E-02 
    3.0873995003402713E-02 
    2.4372850689884658E-02 
    1.7105350246832778E-02 
    9.0061786722727064E-03 
    0.0000000000000000E+00 

SCALARS Saturarion double 1 
LOOKUP_TABLE default 

    1.0000000000000000E+00 
    9.2958409098430106E-01 
    8.8915423991846843E-01 
    8.5283465471304676E-01 
    8.1854496830727830E-01 
    7.8540377742979528E-01 
    7.5285278449975013E-01 
    7.2043153828981321E-01 
    6.8767471209482334E-01 
    6.5402714031326714E-01 
    6.1872071161297981E-01 
    5.8051213622871967E-01 
    5.3693661116991842E-01 
    4.8147428887750748E-01 
    3.8925957161815306E-01 
    1.6494412060817332E-01 
    7.9174641393721346E-01 
    7.7135699736914709E-01 
    7.4868957523747692E-01 
    7.2583002887381831E-01 
    7.0277630119030199E-01 
    6.7941348435522975E-01 
    6.5556925208554606E-01 
    6.3100589026812093E-01 
    6.0538784730282447E-01 
    5.7821267550008004E-01 
    5.4865647170891785E-01 
    5.1517537044261641E-01 
    4.7426007490286276E-01 
    4.1557721005769460E-01 
    2.9871266948903924E-01 
    5.2571830810729719E-02 
    6.8441064351350511E-01 
    6.7068050974418292E-01 
    6.5429801248129260E-01 
    6.3713047068193385E-01 
    6.1940141373758084E-01 
    6.0104919312093108E-01 
    5.8191215251665174E-01 
    5.6174042346823583E-01 
    5.4015448652623221E-01 
    5.1654055447650171E-01 
    4.8979375299192501E-01 
    4.5759039240975774E-01 
    4.1395587873158962E-01 
    3.3958581288974998E-01 
    1.6005985490252811E-01 
    3.8663784839068904E-03 
    6.0708842032795085E-01 
    5.9659310979998204E-01 
    5.8357961604627373E-01 
    5.6957664946354936E-01 
    5.5484802676835754E-01 
    5.3934776549688168E-01 
    5.2289817536656280E-01 
    5.0519924105399205E-01 
    4.8576125440076856E-01 
    4.6371998490389921E-01 
    4.3733385617330184E-01 
    4.0244205842939618E-01 
    3.4687152928116488E-01 
    2.2478838071322205E-01 
    2.5764156846854118E-02 
    1.4805659750860048E-05 
    5.4336810624567888E-01 
    5.3478516669850751E-01 
    5.2387516027809300E-01 
    5.1185514800370724E-01 
    4.9896412925908212E-01 
    4.8513985418647937E-01 
    4.7015196330548886E-01 
    4.5357873119406084E-01 
    4.3466063919978110E-01 
    4.1189344357161845E-01 
    3.8181184029203336E-01 
    3.3462101200652511E-01 
    2.3618653097795769E-01 
    5.3232330726735361E-02 
    1.9625436798195367E-04 
    4.7654958788603627E-11 
    4.8447900799733984E-01 
    4.7693688445601129E-01 
    4.6717934713939580E-01 
    4.5614427189679396E-01 
    4.4398089476795388E-01 
    4.3052307726428735E-01 
    4.1534056424243954E-01 
    3.9759275195067578E-01 
    3.7555726077645679E-01 
    3.4521887601257140E-01 
    2.9563138213882789E-01 
    1.9577264415059906E-01 
    4.8513047212664862E-02 
    5.1410466125058091E-04 
    8.8783880515888460E-10 
    1.3309658839031469E-24 
    4.2123362325054764E-01 
    4.1352587388722140E-01 
    4.0332753185868037E-01 
    3.9124527078863630E-01 
    3.7709839975443782E-01 
    3.6015660005942551E-01 
    3.3888283663143681E-01 
    3.1011582818552685E-01 
    2.6709983405956328E-01 
    1.9739338488198155E-01 
    9.9449834694637418E-02 
    1.9488526791368092E-02 
    2.8785754139355291E-04 
    2.5494863691925702E-09 
    2.5686216151162140E-23 
    3.7640979678332833E-59 
    3.3283320888223578E-01 
    3.2087200935928867E-01 
    3.0406243174155040E-01 
    2.8230062284477075E-01 
    2.5423489369884866E-01 
    2.1786587079618827E-01 
    1.7170345027908179E-01 
    1.1737270058959930E-01 
    6.2270134765885818E-02 
    2.0043346577580903E-02 
    2.2799777963978364E-03 
    2.3605445907650964E-05 
    4.6640721190397944E-10 
    9.4096027782462958E-23 
    7.3718338729792264E-58 
   1.0043930335607898E-147 
    1.6565160765307591E-01 
    1.4312915159325709E-01 
    1.1507935412369330E-01 
    8.5289885389668404E-02 
    5.6568677163434986E-02 
    3.1933095566063927E-02 
    1.4080128409558006E-02 
    4.1869425196592079E-03 
    6.3381193622474949E-04 
    2.7298379849778024E-05 
    8.8597973144955453E-08 
    6.8725984255230311E-13 
    6.8068073107223031E-25 
    6.2826118367901147E-57 
   4.9118506319116984E-146 
    0.0000000000000000E+00 
    1.3945740630882266E-02 
    8.6003190899007122E-03 
    4.3154219915677158E-03 
    1.7415125498198370E-03 
    5.2796377678401146E-04 
    1.0662945257338681E-04 
    1.1656938930014913E-05 
    4.7268884659187309E-07 
    3.4388092169596301E-09 
    1.0036225982536303E-12 
    3.5090262072621693E-19 
    2.3190762679370679E-32 
    4.3117380399875276E-63 
   2.8984607995866619E-144 
    0.0000000000000000E+00 
    0.0000000000000000E+00 
    1.3666601211956368E-05 
    3.7883048995541593E-06 
    6.2028987969155808E-07 
    5.8526208054356762E-08 
    2.6712125894311008E-09 
    4.3165707927963434E-11 
    1.4219289598029482E-13 
    3.5481014575023110E-17 
    1.0280571858160255E-22 
    6.2674658675987120E-32 
    1.1382758612437118E-48 
    7.0546723734456752E-83 
   1.0059015028899488E-161 
    0.0000000000000000E+00 
    0.0000000000000000E+00 
    0.0000000000000000E+00 
    3.5925362219653459E-13 
    1.3262501583600020E-14 
    1.2575042032244635E-16 
    2.8859341915223056E-19 
    1.0116389553289585E-22 
    2.3603608798460695E-27 
    8.6844632165860573E-34 
    3.8608797610759979E-43 
    1.3621955434839449E-57 
    1.3868749797991697E-81 
   3.0437672647336783E-125 
   9.3134128217934651E-214 
    0.0000000000000000E+00 
    0.0000000000000000E+00 
    0.0000000000000000E+00 
    0.0000000000000000E+00 
    3.7540095100208018E-32 
    7.5492486899574709E-36 
    4.5125188759671391E-41 
    6.8779556396692635E-48 
    7.9058078844601918E-57 
    7.8055949587947159E-69 
    1.5758383386231581E-85 
   6.8784283396043713E-110 
   1.5079986508954078E-147 
   4.2561391380408857E-210 
    0.0000000000000000E+00 
    0.0000000000000000E+00 
    0.0000000000000000E+00 
    0.0000000000000000E+00 
    0.0000000000000000E+00 
    0.0000000000000000E+00 
    9.5970499284430029E-80 
    2.8016439475966690E-89 
   8.9623197900192299E-103 
   2.1074815415054144E-120 
   1.5704803316521093E-143 
   1.2768670092149766E-174 
   5.1400182106512152E-218 
   1.8044870713084590E-281 
    0.0000000000000000E+00 
    0.0000000000000000E+00 
    0.0000000000000000E+00 
    0.0000000000000000E+00 
    0.0000000000000000E+00 
    0.0000000000000000E+00 
    0.0000000000000000E+00 
    0.0000000000000000E+00 
   6.5185743201378432E-199 
   1.5839133928960731E-223 
   1.9857526102916365E-258 
   5.1981636984506393E-304 
    0.0000000000000000E+00 
    0.0000000000000000E+00 
    0.0000000000000000E+00 
    0.0000000000000000E+00 
    0.0000000000000000E+00 
    0.0000000000000000E+00 
    0.0000000000000000E+00 
    0.0000000000000000E+00 
    0.0000000000000000E+00 
    0.0000000000000000E+00 
    0.0000000000000000E+00 
    0.0000000000000000E+00 
    0.0000000000000000E+00 
    0.0000000000000000E+00 
    0.0000000000000000E+00 
    0.0000000000000000E+00 
    0.0000000000000000E+00 
    0.0000000000000000E+00 
    0.0000000000000000E+00 
    0.0000000000000000E+00 
    0.0000000000000000E+00 
    0.0000000000000000E+00 
    0.0000000000000000E+00 
    0.0000000000000000E+00 
    0.0000000000000000E+00 
    0.0000000000000000E+00 
    0.0000000000000000E+00 
    0.0000000000000000E+00 
