# vtk DataFile Version 2.0
Pressure Field Data 
ASCII 
DATASET UNSTRUCTURED_GRID 

POINTS 289 double 

    0.0000000000000000E+00     0.0000000000000000E+00     0.0000000000000000E+00 
    1.0000000000000000E+00     0.0000000000000000E+00     0.0000000000000000E+00 
    1.0000000000000000E+00     1.0000000000000000E+00     0.0000000000000000E+00 
    0.0000000000000000E+00     1.0000000000000000E+00     0.0000000000000000E+00 
    6.2499999999872928E-02     0.0000000000000000E+00     0.0000000000000000E+00 
    1.2499999999977310E-01     0.0000000000000000E+00     0.0000000000000000E+00 
    1.8749999999959341E-01     0.0000000000000000E+00     0.0000000000000000E+00 
    2.4999999999941089E-01     0.0000000000000000E+00     0.0000000000000000E+00 
    3.1249999999922851E-01     0.0000000000000000E+00     0.0000000000000000E+00 
    3.7499999999904610E-01     0.0000000000000000E+00     0.0000000000000000E+00 
    4.3749999999886358E-01     0.0000000000000000E+00     0.0000000000000000E+00 
    4.9999999999869210E-01     0.0000000000000000E+00     0.0000000000000000E+00 
    5.6249999999884603E-01     0.0000000000000000E+00     0.0000000000000000E+00 
    6.2499999999901090E-01     0.0000000000000000E+00     0.0000000000000000E+00 
    6.8749999999917577E-01     0.0000000000000000E+00     0.0000000000000000E+00 
    7.4999999999934064E-01     0.0000000000000000E+00     0.0000000000000000E+00 
    8.1249999999950551E-01     0.0000000000000000E+00     0.0000000000000000E+00 
    8.7499999999967026E-01     0.0000000000000000E+00     0.0000000000000000E+00 
    9.3749999999983513E-01     0.0000000000000000E+00     0.0000000000000000E+00 
    1.0000000000000000E+00     6.2499999999872928E-02     0.0000000000000000E+00 
    1.0000000000000000E+00     1.2499999999977310E-01     0.0000000000000000E+00 
    1.0000000000000000E+00     1.8749999999959341E-01     0.0000000000000000E+00 
    1.0000000000000000E+00     2.4999999999941089E-01     0.0000000000000000E+00 
    1.0000000000000000E+00     3.1249999999922851E-01     0.0000000000000000E+00 
    1.0000000000000000E+00     3.7499999999904610E-01     0.0000000000000000E+00 
    1.0000000000000000E+00     4.3749999999886358E-01     0.0000000000000000E+00 
    1.0000000000000000E+00     4.9999999999869210E-01     0.0000000000000000E+00 
    1.0000000000000000E+00     5.6249999999884603E-01     0.0000000000000000E+00 
    1.0000000000000000E+00     6.2499999999901090E-01     0.0000000000000000E+00 
    1.0000000000000000E+00     6.8749999999917577E-01     0.0000000000000000E+00 
    1.0000000000000000E+00     7.4999999999934064E-01     0.0000000000000000E+00 
    1.0000000000000000E+00     8.1249999999950551E-01     0.0000000000000000E+00 
    1.0000000000000000E+00     8.7499999999967026E-01     0.0000000000000000E+00 
    1.0000000000000000E+00     9.3749999999983513E-01     0.0000000000000000E+00 
    9.3749999999973976E-01     1.0000000000000000E+00     0.0000000000000000E+00 
    8.7499999999950118E-01     1.0000000000000000E+00     0.0000000000000000E+00 
    8.1249999999991318E-01     1.0000000000000000E+00     0.0000000000000000E+00 
    7.5000000000034706E-01     1.0000000000000000E+00     0.0000000000000000E+00 
    6.8750000000078049E-01     1.0000000000000000E+00     0.0000000000000000E+00 
    6.2500000000121403E-01     1.0000000000000000E+00     0.0000000000000000E+00 
    5.6250000000164757E-01     1.0000000000000000E+00     0.0000000000000000E+00 
    5.0000000000205946E-01     1.0000000000000000E+00     0.0000000000000000E+00 
    4.3750000000182099E-01     1.0000000000000000E+00     0.0000000000000000E+00 
    3.7500000000156092E-01     1.0000000000000000E+00     0.0000000000000000E+00 
    3.1250000000130068E-01     1.0000000000000000E+00     0.0000000000000000E+00 
    2.5000000000104050E-01     1.0000000000000000E+00     0.0000000000000000E+00 
    1.8750000000078040E-01     1.0000000000000000E+00     0.0000000000000000E+00 
    1.2500000000052031E-01     1.0000000000000000E+00     0.0000000000000000E+00 
    6.2500000000260125E-02     1.0000000000000000E+00     0.0000000000000000E+00 
    0.0000000000000000E+00     9.3749999999973976E-01     0.0000000000000000E+00 
    0.0000000000000000E+00     8.7499999999950118E-01     0.0000000000000000E+00 
    0.0000000000000000E+00     8.1249999999991318E-01     0.0000000000000000E+00 
    0.0000000000000000E+00     7.5000000000034706E-01     0.0000000000000000E+00 
    0.0000000000000000E+00     6.8750000000078049E-01     0.0000000000000000E+00 
    0.0000000000000000E+00     6.2500000000121403E-01     0.0000000000000000E+00 
    0.0000000000000000E+00     5.6250000000164757E-01     0.0000000000000000E+00 
    0.0000000000000000E+00     5.0000000000205946E-01     0.0000000000000000E+00 
    0.0000000000000000E+00     4.3750000000182099E-01     0.0000000000000000E+00 
    0.0000000000000000E+00     3.7500000000156092E-01     0.0000000000000000E+00 
    0.0000000000000000E+00     3.1250000000130068E-01     0.0000000000000000E+00 
    0.0000000000000000E+00     2.5000000000104050E-01     0.0000000000000000E+00 
    0.0000000000000000E+00     1.8750000000078040E-01     0.0000000000000000E+00 
    0.0000000000000000E+00     1.2500000000052031E-01     0.0000000000000000E+00 
    0.0000000000000000E+00     6.2500000000260125E-02     0.0000000000000000E+00 
    6.2499999999897131E-02     6.2500000000235922E-02     0.0000000000000000E+00 
    6.2499999999921327E-02     1.2500000000047351E-01     0.0000000000000000E+00 
    6.2499999999945530E-02     1.8750000000070621E-01     0.0000000000000000E+00 
    6.2499999999969733E-02     2.5000000000093858E-01     0.0000000000000000E+00 
    6.2499999999993928E-02     3.1250000000117117E-01     0.0000000000000000E+00 
    6.2500000000018124E-02     3.7500000000140382E-01     0.0000000000000000E+00 
    6.2500000000042327E-02     4.3750000000163619E-01     0.0000000000000000E+00 
    6.2500000000066530E-02     5.0000000000184897E-01     0.0000000000000000E+00 
    6.2500000000090733E-02     5.6250000000147260E-01     0.0000000000000000E+00 
    6.2500000000114922E-02     6.2500000000107636E-01     0.0000000000000000E+00 
    6.2500000000139125E-02     6.8750000000068034E-01     0.0000000000000000E+00 
    6.2500000000163328E-02     7.5000000000028411E-01     0.0000000000000000E+00 
    6.2500000000187531E-02     8.1249999999988787E-01     0.0000000000000000E+00 
    6.2500000000211720E-02     8.7499999999951172E-01     0.0000000000000000E+00 
    6.2500000000235922E-02     9.3749999999974565E-01     0.0000000000000000E+00 
    1.2499999999981980E-01     6.2500000000211733E-02     0.0000000000000000E+00 
    1.2499999999986650E-01     1.2500000000042691E-01     0.0000000000000000E+00 
    1.2499999999991319E-01     1.8750000000063199E-01     0.0000000000000000E+00 
    1.2499999999995989E-01     2.5000000000083678E-01     0.0000000000000000E+00 
    1.2500000000000661E-01     3.1250000000104172E-01     0.0000000000000000E+00 
    1.2500000000005329E-01     3.7500000000124661E-01     0.0000000000000000E+00 
    1.2500000000010000E-01     4.3750000000145117E-01     0.0000000000000000E+00 
    1.2500000000014669E-01     5.0000000000163858E-01     0.0000000000000000E+00 
    1.2500000000019340E-01     5.6250000000129741E-01     0.0000000000000000E+00 
    1.2500000000024011E-01     6.2500000000093847E-01     0.0000000000000000E+00 
    1.2500000000028680E-01     6.8750000000057998E-01     0.0000000000000000E+00 
    1.2500000000033351E-01     7.5000000000022127E-01     0.0000000000000000E+00 
    1.2500000000038020E-01     8.1249999999986211E-01     0.0000000000000000E+00 
    1.2500000000042691E-01     8.7499999999952238E-01     0.0000000000000000E+00 
    1.2500000000047359E-01     9.3749999999975164E-01     0.0000000000000000E+00 
    1.8749999999966760E-01     6.2500000000187531E-02     0.0000000000000000E+00 
    1.8749999999974179E-01     1.2500000000038020E-01     0.0000000000000000E+00 
    1.8749999999981601E-01     1.8750000000055780E-01     0.0000000000000000E+00 
    1.8749999999989009E-01     2.5000000000073502E-01     0.0000000000000000E+00 
    1.8749999999996431E-01     3.1250000000091221E-01     0.0000000000000000E+00 
    1.8750000000003850E-01     3.7500000000108941E-01     0.0000000000000000E+00 
    1.8750000000011269E-01     4.3750000000126649E-01     0.0000000000000000E+00 
    1.8750000000018691E-01     5.0000000000142808E-01     0.0000000000000000E+00 
    1.8750000000026110E-01     5.6250000000112244E-01     0.0000000000000000E+00 
    1.8750000000033529E-01     6.2500000000080080E-01     0.0000000000000000E+00 
    1.8750000000040951E-01     6.8750000000047962E-01     0.0000000000000000E+00 
    1.8750000000048361E-01     7.5000000000015843E-01     0.0000000000000000E+00 
    1.8750000000055780E-01     8.1249999999983680E-01     0.0000000000000000E+00 
    1.8750000000063199E-01     8.7499999999953304E-01     0.0000000000000000E+00 
    1.8750000000070621E-01     9.3749999999975764E-01     0.0000000000000000E+00 
    2.4999999999951281E-01     6.2500000000163314E-02     0.0000000000000000E+00 
    2.4999999999961461E-01     1.2500000000033351E-01     0.0000000000000000E+00 
    2.4999999999971650E-01     1.8750000000048361E-01     0.0000000000000000E+00 
    2.4999999999981831E-01     2.5000000000063310E-01     0.0000000000000000E+00 
    2.4999999999992020E-01     3.1250000000078260E-01     0.0000000000000000E+00 
    2.5000000000002198E-01     3.7500000000093209E-01     0.0000000000000000E+00 
    2.5000000000012390E-01     4.3750000000108180E-01     0.0000000000000000E+00 
    2.5000000000022571E-01     5.0000000000121769E-01     0.0000000000000000E+00 
    2.5000000000032763E-01     5.6250000000094724E-01     0.0000000000000000E+00 
    2.5000000000042938E-01     6.2500000000066314E-01     0.0000000000000000E+00 
    2.5000000000053119E-01     6.8750000000037925E-01     0.0000000000000000E+00 
[...]
CELL_DATA 256 
SCALARS Pressure double 1 
LOOKUP_TABLE default 

    7.7473413992479967E-01 
    7.7277124639990413E-01 
    7.7093691485690874E-01 
    7.6925204620711163E-01 
    7.6771240217715264E-01 
    7.6631276062479359E-01 
    7.6504827426415001E-01 
    7.6391481190533528E-01 
    7.6290905031964396E-01 
    7.6202848411785773E-01 
    7.6127140413535832E-01 
    7.6063685496498989E-01 
    7.6012454350549186E-01 
    7.5973454553871822E-01 
    7.5946611974261380E-01 
    7.5931403543638099E-01 
    7.4515445237642586E-01 
    7.4506091499990079E-01 
    7.4489542734616765E-01 
    7.4467856792958020E-01 
    7.4442610239257034E-01 
    7.4415147111172031E-01 
    7.4386628413767208E-01 
    7.4358064425958514E-01 
    7.4330339197621986E-01 
    7.4304229963256296E-01 
    7.4280422430997739E-01 
    7.4259521541541706E-01 
    7.4242054167821658E-01 
    7.4228449986753042E-01 
    7.4218961040049225E-01 
    7.4213545865877495E-01 
    7.1702028443119104E-01 
    7.1700142648108289E-01 
    7.1696497655683422E-01 
    7.1691314098058834E-01 
    7.1684847700276766E-01 
    7.1677378668488800E-01 
    7.1669203347898314E-01 
    7.1660626614343259E-01 
    7.1651955706947856E-01 
    7.1643495176622440E-01 
    7.1635542119033124E-01 
    7.1628379744278592E-01 
    7.1622264021845006E-01 
    7.1617389573990298E-01 
    7.1613814056738745E-01 
    7.1611590530969360E-01 
    6.8537186044776532E-01 
    6.8536196833237506E-01 
    6.8534284369603904E-01 
    6.8531554643668302E-01 
    6.8528123988200829E-01 
    6.8524117363678294E-01 
    6.8519667898309755E-01 
    6.8514915507092711E-01 
    6.8510004903615607E-01 
    6.8505082817654495E-01 
    6.8500293365882370E-01 
    6.8495768501701781E-01 
    6.8491605224029373E-01 
    6.8487808423591201E-01 
    6.8484156541410501E-01 
    6.8481099980136495E-01 
    6.4996298335785885E-01 
    6.4995472378338559E-01 
    6.4993875893403230E-01 
    6.4991595303701444E-01 
    6.4988722431557555E-01 
    6.4985351943313430E-01 
    6.4981581501552843E-01 
    6.4977511349292194E-01 
    6.4973242920152596E-01 
    6.4968875810607707E-01 
    6.4964501206988667E-01 
    6.4960186586300650E-01 
    6.4955937750112802E-01 
    6.4951600002779797E-01 
    6.4946609228109509E-01 
    6.4942110129485220E-01 
    6.1094646565821431E-01 
    6.1093861962969231E-01 
    6.1092343555921491E-01 
    6.1090171306617458E-01 
    6.1087431187124919E-01 
    6.1084211590316140E-01 
    6.1080603229013286E-01 
    6.1076698850591615E-01 
    6.1072591856980918E-01 
    6.1068372682277872E-01 
    6.1064120062110439E-01 
    6.1059879434753150E-01 
    6.1055606390779171E-01 
    6.1051009421567515E-01 
    6.1045564931156915E-01 
    6.1041163869149373E-01 
    5.6843439028470066E-01 
    5.6842612264412962E-01 
    5.6841003379058641E-01 
    5.6838683951937652E-01 
    5.6835731486538488E-01 
    5.6832224793929520E-01 
    5.6828243018302749E-01 
    5.6823864501765831E-01 
    5.6819164031491010E-01 
    5.6814206412567214E-01 
    5.6809031315701841E-01 
    5.6803615138202701E-01 
    5.6797765376173592E-01 
    5.6790830464706654E-01 
    5.6783359658418509E-01 
    5.6778968807640628E-01 
    5.2249795178145220E-01 
    5.2248884312712762E-01 
    5.2247100051560436E-01 
    5.2244504303844530E-01 
    5.2241164642259341E-01 
    5.2237148770427544E-01 
    5.2232522364328426E-01 
    5.2227346375492589E-01 
    5.2221671562267802E-01 
    5.2215526415269675E-01 
    5.2208888486578042E-01 
    5.2201608978736813E-01 
    5.2193196668034614E-01 
    5.2182889105186403E-01 
    5.2173288732537482E-01 
    5.2168653198212211E-01 
    4.7311231109455254E-01 
    4.7310166441928869E-01 
    4.7308063732332717E-01 
    4.7304970002068059E-01 
    4.7300936561381418E-01 
    4.7296012196801940E-01 
    4.7290238845789762E-01 
    4.7283645329938567E-01 
    4.7276235101689984E-01 
    4.7267959397279902E-01 
    4.7258651760474935E-01 
    4.7247856323167531E-01 
    4.7234648176725236E-01 
    4.7220395741142240E-01 
    4.7210413735838724E-01 
    4.7206117663623570E-01 
    4.2011123967880981E-01 
    4.2009693445186508E-01 
    4.2006833912959252E-01 
    4.2002555754837562E-01 
    4.1996865901017733E-01 
    4.1989757320956195E-01 
    4.1981197701554884E-01 
    4.1971110230241687E-01 
    4.1959335618724630E-01 
    4.1945552043071593E-01 
    4.1929127286929235E-01 
    4.1909295495270665E-01 
    4.1887532384782045E-01 
    4.1869918773773840E-01 
    4.1859891544164157E-01 
    4.1855554138702561E-01 
    3.6313418407804976E-01 
    3.6311082715847559E-01 
    3.6306343172134908E-01 
    3.6299103647332986E-01 
    3.6289232582335218E-01 
    3.6276537874819592E-01 
    3.6260734190546007E-01 
    3.6241410439634070E-01 
    3.6218063450781052E-01 
    3.6190443817414808E-01 
    3.6159553039627584E-01 
    3.6128777521199873E-01 
    3.6103939809771440E-01 
    3.6087949270300534E-01 
    3.6078641418603558E-01 
    3.6074117165576081E-01 
    3.0143431721653347E-01 
    3.0138367853373099E-01 
    3.0128075088189471E-01 
    3.0112375504995970E-01 
    3.0091181790595889E-01 
    3.0064637905463104E-01 
    3.0033320700529009E-01 
    2.9998453884922338E-01 
    2.9962038348567765E-01 
    2.9926865796812713E-01 
    2.9896372838184904E-01 
    2.9873541643996643E-01 
    2.9858668424519574E-01 
    2.9849244537818792E-01 
    2.9843251402114429E-01 
    2.9840260771463556E-01 
    2.3452492562400448E-01 
    2.3446264270078820E-01 
    2.3434555768997503E-01 
    2.3418558819452712E-01 
    2.3399677354185541E-01 
    2.3379461623667647E-01 
    2.3359554493211901E-01 
    2.3341620700081939E-01 
    2.3327208432756458E-01 
    2.3317420138511155E-01 
    2.3312238596045184E-01 
    2.3310103839408242E-01 
    2.3309074470667165E-01 
    2.3308274264038803E-01 
    2.3307667343761787E-01 
    2.3307341313103042E-01 
    1.6818023877843088E-01 
    1.6815572613175267E-01 
    1.6811141884985184E-01 
    1.6805433554833421E-01 
    1.6799190474081321E-01 
    1.6793063674731837E-01 
    1.6787460275556954E-01 
    1.6782404970778619E-01 
    1.6777520124706694E-01 
    1.6772253014411026E-01 
    1.6766299098972631E-01 
    1.6759870251842282E-01 
    1.6753564225874207E-01 
    1.6748068075788669E-01 
    1.6743994323587974E-01 
    1.6741818789331966E-01 
    1.0857635424841929E-01 
    1.0846089756770486E-01 
    1.0822979155837716E-01 
    1.0788366128120633E-01 
    1.0742509892333534E-01 
    1.0685922941177974E-01 
    1.0619437133550250E-01 
    1.0544279597231494E-01 
    1.0462146750941656E-01 
    1.0375260020048915E-01 
    1.0286404257810158E-01 
    1.0198977428193537E-01 
    1.0117077207661328E-01 
    1.0045622099045387E-01 
    9.9904995089139179E-02 
    9.9587428400085234E-02 
    6.3282720592736555E-02 
    6.2829998977232404E-02 
    6.1921217752581782E-02 
    6.0549543573999311E-02 
    5.8704642045483146E-02 
    5.6372586447292636E-02 
    5.3535680286640457E-02 
    5.0172190370470951E-02 
    4.6255994725558441E-02 
    4.1756144365231916E-02 
    3.6636329446640616E-02 
    3.0854237396736643E-02 
    2.4360789977983008E-02 
    1.7099242738245642E-02 
    9.0041257159878714E-03 
    0.0000000000000000E+00 

SCALARS Saturarion double 1 
LOOKUP_TABLE default 

    1.0000000000000000E+00 
    9.5518884950548177E-01 
    9.2762117684495593E-01 
    9.0166810285198162E-01 
    8.7616146174377296E-01 
    8.5062222675692301E-01 
    8.2473882153953604E-01 
    7.9823239736375340E-01 
    7.7079220758223244E-01 
    7.4201855855218135E-01 
    7.1134159359034765E-01 
    6.7786828865928317E-01 
    6.4002791415839111E-01 
    5.9451572831956667E-01 
    5.3174825058166075E-01 
    4.0598466496519409E-01 
    8.4303297344326455E-01 
    8.2847910251756207E-01 
    8.1185728523488787E-01 
    7.9442928406791391E-01 
    7.7627740931860267E-01 
    7.5737527960152196E-01 
    7.3763400866234230E-01 
    7.1690232308092061E-01 
    6.9494879401013654E-01 
    6.7142315273061171E-01 
    6.4577816423904555E-01 
    6.1709911723635646E-01 
    5.8366914329837360E-01 
    5.4157325309653059E-01 
    4.7885858511393131E-01 
    3.4140945684461160E-01 
    7.5672990613558178E-01 
    7.4592960997602153E-01 
    7.3290501301039013E-01 
    7.1898338491179115E-01 
    7.0432694867410817E-01 
    6.8890132401362436E-01 
    6.7260142857761629E-01 
    6.5526233884151919E-01 
    6.3664038358110620E-01 
    6.1636884967887717E-01 
    5.9386623934456295E-01 
    5.6812724453523811E-01 
    5.3716654717450874E-01 
    4.9623949410182155E-01 
    4.3095164462596364E-01 
    2.6729397077073258E-01 
    6.9458428411093498E-01 
    6.8577955829088899E-01 
    6.7481628248600622E-01 
    6.6294663216482130E-01 
    6.5036470363993626E-01 
    6.3703847579926631E-01 
    6.2285423538899731E-01 
    6.0763433453371607E-01 
    5.9111790070688652E-01 
    5.7291017966450475E-01 
    5.5237226437794340E-01 
    5.2836011634198787E-01 
    4.9852186373819163E-01 
    4.5711366372558282E-01 
    3.8689336192765900E-01 
    1.7491242009422878E-01 
    6.4523212543983088E-01 
    6.3779061063935050E-01 
    6.2830300491941060E-01 
    6.1789851056765932E-01 
    6.0678317370178392E-01 
    5.9493192690696162E-01 
    5.8222860508489127E-01 
    5.6848544490273534E-01 
    5.5342127697710553E-01 
    5.3660080978586289E-01 
    5.1729632388452951E-01 
    4.9414961448124167E-01 
    4.6425533008551667E-01 
    4.2029165840548444E-01 
    3.3852719068500797E-01 
    7.3118270320884859E-02 
    6.0350361682968545E-01 
    5.9707481745944835E-01 
    5.8872952051031180E-01 
    5.7946395273455586E-01 
    5.6948079069639856E-01 
    5.5875941916149952E-01 
    5.4718157183504956E-01 
    5.3454820884531229E-01 
    5.2055205786185266E-01 
    5.0470142631784409E-01 
    4.8614063779112837E-01 
    4.6319530504888934E-01 
    4.3209887307628292E-01 
    3.8268248314657233E-01 
    2.7233233925959577E-01 
    1.7799624742812541E-02 
    5.6652787835595986E-01 
    5.6087940578011564E-01 
    5.5344739303898316E-01 
    5.4510034022368192E-01 
    5.3602756400057960E-01 
    5.2620890634349204E-01 
    5.1552228239348230E-01 
    5.0375478378929095E-01 
    4.9056627241713174E-01 
    4.7539105050615860E-01 
    4.5719921735263713E-01 
    4.3386321744978834E-01 
    4.0024509266610930E-01 
    3.4061326866160396E-01 
    1.6884893481879878E-01 
    2.6517157295964490E-03 
    5.3234204313552513E-01 
    5.2729563636289134E-01 
    5.2059041694605557E-01 
    5.1297804124001278E-01 
    5.0462725074174797E-01 
    4.9551242873776835E-01 
    4.8550191188881270E-01 
    4.7436011021356395E-01 
    4.6169657357671834E-01 
    4.4683157081957930E-01 
    4.2845610293370917E-01 
    4.0365898589725663E-01 
    3.6455919271355164E-01 
    2.8042725001239832E-01 
    5.0670242328828059E-02 
    8.7530051968334770E-05 
    4.9924214355666008E-01 
    4.9463930643634840E-01 
    4.8848437930992966E-01 
    4.8142303020718835E-01 
    4.7359678905266428E-01 
    4.6496565981891252E-01 
    4.5537622625649582E-01 
    4.4454974652101481E-01 
    4.3200500383266427E-01 
    4.1685476178751885E-01 
    3.9725302894926173E-01 
    3.6861576658223677E-01 
    3.1605431623601110E-01 
    1.6860123371501218E-01 
    4.5474050654566453E-03 
    1.9489876814780059E-07 
    4.6517521472036610E-01 
    4.6083192428260344E-01 
    4.5500596450916780E-01 
    4.4824428179361248E-01 
    4.4065014004789937E-01 
    4.3214999452186253E-01 
    4.2253696058594592E-01 
    4.1143114381953289E-01 
    3.9814042201771094E-01 
    3.8127862512906530E-01 
    3.5759691629131740E-01 
    3.1754442972866082E-01 
    2.2276211216034031E-01 
    3.2033560038581557E-02 
    2.8794913506891790E-05 
    6.2206467584907268E-13 
    4.2662268400212688E-01 
    4.2221065323424783E-01 
    4.1628099675148278E-01 
    4.0927696569310867E-01 
    4.0122644011368136E-01 
    3.9195289952268614E-01 
    3.8106840534465575E-01 
    3.6783818856687489E-01 
    3.5079059887736574E-01 
    3.2656254215196773E-01 
    2.8599928402121549E-01 
    2.0100947981085560E-01 
    5.2016980800747764E-02 
    2.6124839581764955E-04 
    1.1020022823762334E-10 
    1.3662612233089891E-26 
    3.7520754114534122E-01 
    3.6977461550556434E-01 
    3.6237307470599051E-01 
    3.5325819898280236E-01 
    3.4216760679114711E-01 
    3.2841644736660158E-01 
    3.1067573234426460E-01 
    2.8638441282714450E-01 
    2.5049605744160930E-01 
    1.9400571502318126E-01 
    1.1069750574279985E-01 
    2.7507183669350142E-02 
    4.5026194681914769E-04 
    9.7775459255318502E-10 
    1.5214209032883228E-24 
    9.7650949468443049E-62 
    2.8413010223476559E-01 
    2.7367645519195710E-01 
    2.5890764266969696E-01 
    2.3980306443659918E-01 
    2.1559838768664574E-01 
    1.8529445503233066E-01 
    1.4833416511824862E-01 
    1.0569008448399056E-01 
    6.1391573803039334E-02 
    2.3985339845966999E-02 
    3.9810927454420478E-03 
    7.7761497987075922E-05 
    2.0643824402378992E-09 
    1.5415227728235323E-23 
    4.8690079160853929E-60 
   2.6532350040848394E-152 
    1.0570634801921611E-01 
    9.1067238583196139E-02 
    7.3334549137240287E-02 
    5.4776928535722649E-02 
    3.7100474113622758E-02 
    2.1893903128602638E-02 
    1.0544760417069692E-02 
    3.6984332204056782E-03 
    7.5991252507183601E-04 
    5.7766522646987418E-05 
    5.3470415314181488E-07 
    2.3801112500286143E-11 
    7.0808948907720841E-23 
    9.8467422263726741E-58 
   2.4547928450227009E-145 
    0.0000000000000000E+00 
    3.7172458593939649E-03 
    2.3750973044986451E-03 
    1.2639367123007434E-03 
    5.5393573231662366E-04 
    1.9004306775277589E-04 
    4.6436080382864550E-05 
    6.8916938466844919E-06 
    4.6663165914267489E-07 
    8.3148640524418165E-09 
    1.2201024575086767E-11 
    8.4228236439237093E-17 
    8.3136606251457239E-28 
    8.3129139481675863E-57 
   3.0256311938161788E-142 
    0.0000000000000000E+00 
    0.0000000000000000E+00 
    4.2382744852397904E-07 
    1.3542292703146511E-07 
    2.7479418096713827E-08 
    3.4542646045394918E-09 
    2.3691696978871547E-10 
    6.9680439964838747E-12 
    5.8425157439352551E-14 
    6.7495190098626179E-17 
    2.6703862243095215E-21 
    1.8324867694150218E-28 
    1.6189396079665281E-41 
    2.3445214667620340E-69 
   3.2089591037204986E-142 
    0.0000000000000000E+00 
    0.0000000000000000E+00 
    0.0000000000000000E+00 
