# vtk DataFile Version 2.0
Pressure Field Data 
ASCII 
DATASET UNSTRUCTURED_GRID 

POINTS 289 double 

    0.0000000000000000E+00     0.0000000000000000E+00     0.0000000000000000E+00 
    1.0000000000000000E+00     0.0000000000000000E+00     0.0000000000000000E+00 
    1.0000000000000000E+00     1.0000000000000000E+00     0.0000000000000000E+00 
    0.0000000000000000E+00     1.0000000000000000E+00     0.0000000000000000E+00 
    6.2499999999872928E-02     0.0000000000000000E+00     0.0000000000000000E+00 
    1.2499999999977310E-01     0.0000000000000000E+00     0.0000000000000000E+00 
    1.8749999999959341E-01     0.0000000000000000E+00     0.0000000000000000E+00 
    2.4999999999941089E-01     0.0000000000000000E+00     0.0000000000000000E+00 
    3.1249999999922851E-01     0.0000000000000000E+00     0.0000000000000000E+00 
    3.7499999999904610E-01     0.0000000000000000E+00     0.0000000000000000E+00 
    4.3749999999886358E-01     0.0000000000000000E+00     0.0000000000000000E+00 
    4.9999999999869210E-01     0.0000000000000000E+00     0.0000000000000000E+00 
    5.6249999999884603E-01     0.0000000000000000E+00     0.0000000000000000E+00 
    6.2499999999901090E-01     0.0000000000000000E+00     0.0000000000000000E+00 
    6.8749999999917577E-01     0.0000000000000000E+00     0.0000000000000000E+00 
    7.4999999999934064E-01     0.0000000000000000E+00     0.0000000000000000E+00 
    8.1249999999950551E-01     0.0000000000000000E+00     0.0000000000000000E+00 
    8.7499999999967026E-01     0.0000000000000000E+00     0.0000000000000000E+00 
    9.3749999999983513E-01     0.0000000000000000E+00     0.0000000000000000E+00 
    1.0000000000000000E+00     6.2499999999872928E-02     0.0000000000000000E+00 
    1.0000000000000000E+00     1.2499999999977310E-01     0.0000000000000000E+00 
    1.0000000000000000E+00     1.8749999999959341E-01     0.0000000000000000E+00 
    1.0000000000000000E+00     2.4999999999941089E-01     0.0000000000000000E+00 
    1.0000000000000000E+00     3.1249999999922851E-01     0.0000000000000000E+00 
    1.0000000000000000E+00     3.7499999999904610E-01     0.0000000000000000E+00 
    1.0000000000000000E+00     4.3749999999886358E-01     0.0000000000000000E+00 
    1.0000000000000000E+00     4.9999999999869210E-01     0.0000000000000000E+00 
    1.0000000000000000E+00     5.6249999999884603E-01     0.0000000000000000E+00 
    1.0000000000000000E+00     6.2499999999901090E-01     0.0000000000000000E+00 
    1.0000000000000000E+00     6.8749999999917577E-01     0.0000000000000000E+00 
    1.0000000000000000E+00     7.4999999999934064E-01     0.0000000000000000E+00 
    1.0000000000000000E+00     8.1249999999950551E-01     0.0000000000000000E+00 
    1.0000000000000000E+00     8.7499999999967026E-01     0.0000000000000000E+00 
    1.0000000000000000E+00     9.3749999999983513E-01     0.0000000000000000E+00 
    9.3749999999973976E-01     1.0000000000000000E+00     0.0000000000000000E+00 
    8.7499999999950118E-01     1.0000000000000000E+00     0.0000000000000000E+00 
    8.1249999999991318E-01     1.0000000000000000E+00     0.0000000000000000E+00 
    7.5000000000034706E-01     1.0000000000000000E+00     0.0000000000000000E+00 
    6.8750000000078049E-01     1.0000000000000000E+00     0.0000000000000000E+00 
    6.2500000000121403E-01     1.0000000000000000E+00     0.0000000000000000E+00 
    5.6250000000164757E-01     1.0000000000000000E+00     0.0000000000000000E+00 
    5.0000000000205946E-01     1.0000000000000000E+00     0.0000000000000000E+00 
    4.3750000000182099E-01     1.0000000000000000E+00     0.0000000000000000E+00 
    3.7500000000156092E-01     1.0000000000000000E+00     0.0000000000000000E+00 
    3.1250000000130068E-01     1.0000000000000000E+00     0.0000000000000000E+00 
    2.5000000000104050E-01     1.0000000000000000E+00     0.0000000000000000E+00 
    1.8750000000078040E-01     1.0000000000000000E+00     0.0000000000000000E+00 
    1.2500000000052031E-01     1.0000000000000000E+00     0.0000000000000000E+00 
    6.2500000000260125E-02     1.0000000000000000E+00     0.0000000000000000E+00 
    0.0000000000000000E+00     9.3749999999973976E-01     0.0000000000000000E+00 
    0.0000000000000000E+00     8.7499999999950118E-01     0.0000000000000000E+00 
    0.0000000000000000E+00     8.1249999999991318E-01     0.0000000000000000E+00 
    0.0000000000000000E+00     7.5000000000034706E-01     0.0000000000000000E+00 
    0.0000000000000000E+00     6.8750000000078049E-01     0.0000000000000000E+00 
    0.0000000000000000E+00     6.2500000000121403E-01     0.0000000000000000E+00 
    0.0000000000000000E+00     5.6250000000164757E-01     0.0000000000000000E+00 
    0.0000000000000000E+00     5.0000000000205946E-01     0.0000000000000000E+00 
    0.0000000000000000E+00     4.3750000000182099E-01     0.0000000000000000E+00 
    0.0000000000000000E+00     3.7500000000156092E-01     0.0000000000000000E+00 
    0.0000000000000000E+00     3.1250000000130068E-01     0.0000000000000000E+00 
    0.0000000000000000E+00     2.5000000000104050E-01     0.0000000000000000E+00 
    0.0000000000000000E+00     1.8750000000078040E-01     0.0000000000000000E+00 
    0.0000000000000000E+00     1.2500000000052031E-01     0.0000000000000000E+00 
    0.0000000000000000E+00     6.2500000000260125E-02     0.0000000000000000E+00 
    6.2499999999897131E-02     6.2500000000235922E-02     0.0000000000000000E+00 
    6.2499999999921327E-02     1.2500000000047351E-01     0.0000000000000000E+00 
    6.2499999999945530E-02     1.8750000000070621E-01     0.0000000000000000E+00 
    6.2499999999969733E-02     2.5000000000093858E-01     0.0000000000000000E+00 
    6.2499999999993928E-02     3.1250000000117117E-01     0.0000000000000000E+00 
    6.2500000000018124E-02     3.7500000000140382E-01     0.0000000000000000E+00 
    6.2500000000042327E-02     4.3750000000163619E-01     0.0000000000000000E+00 
    6.2500000000066530E-02     5.0000000000184897E-01     0.0000000000000000E+00 
    6.2500000000090733E-02     5.6250000000147260E-01     0.0000000000000000E+00 
    6.2500000000114922E-02     6.2500000000107636E-01     0.0000000000000000E+00 
    6.2500000000139125E-02     6.8750000000068034E-01     0.0000000000000000E+00 
    6.2500000000163328E-02     7.5000000000028411E-01     0.0000000000000000E+00 
    6.2500000000187531E-02     8.1249999999988787E-01     0.0000000000000000E+00 
    6.2500000000211720E-02     8.7499999999951172E-01     0.0000000000000000E+00 
    6.2500000000235922E-02     9.3749999999974565E-01     0.0000000000000000E+00 
    1.2499999999981980E-01     6.2500000000211733E-02     0.0000000000000000E+00 
    1.2499999999986650E-01     1.2500000000042691E-01     0.0000000000000000E+00 
    1.2499999999991319E-01     1.8750000000063199E-01     0.0000000000000000E+00 
    1.2499999999995989E-01     2.5000000000083678E-01     0.0000000000000000E+00 
    1.2500000000000661E-01     3.1250000000104172E-01     0.0000000000000000E+00 
    1.2500000000005329E-01     3.7500000000124661E-01     0.0000000000000000E+00 
    1.2500000000010000E-01     4.3750000000145117E-01     0.0000000000000000E+00 
    1.2500000000014669E-01     5.0000000000163858E-01     0.0000000000000000E+00 
    1.2500000000019340E-01     5.6250000000129741E-01     0.0000000000000000E+00 
    1.2500000000024011E-01     6.2500000000093847E-01     0.0000000000000000E+00 
    1.2500000000028680E-01     6.8750000000057998E-01     0.0000000000000000E+00 
    1.2500000000033351E-01     7.5000000000022127E-01     0.0000000000000000E+00 
    1.2500000000038020E-01     8.1249999999986211E-01     0.0000000000000000E+00 
    1.2500000000042691E-01     8.7499999999952238E-01     0.0000000000000000E+00 
    1.2500000000047359E-01     9.3749999999975164E-01     0.0000000000000000E+00 
    1.8749999999966760E-01     6.2500000000187531E-02     0.0000000000000000E+00 
    1.8749999999974179E-01     1.2500000000038020E-01     0.0000000000000000E+00 
    1.8749999999981601E-01     1.8750000000055780E-01     0.0000000000000000E+00 
    1.8749999999989009E-01     2.5000000000073502E-01     0.0000000000000000E+00 
    1.8749999999996431E-01     3.1250000000091221E-01     0.0000000000000000E+00 
    1.8750000000003850E-01     3.7500000000108941E-01     0.0000000000000000E+00 
    1.8750000000011269E-01     4.3750000000126649E-01     0.0000000000000000E+00 
    1.8750000000018691E-01     5.0000000000142808E-01     0.0000000000000000E+00 
    1.8750000000026110E-01     5.6250000000112244E-01     0.0000000000000000E+00 
    1.8750000000033529E-01     6.2500000000080080E-01     0.0000000000000000E+00 
    1.8750000000040951E-01     6.8750000000047962E-01     0.0000000000000000E+00 
    1.8750000000048361E-01     7.5000000000015843E-01     0.0000000000000000E+00 
    1.8750000000055780E-01     8.1249999999983680E-01     0.0000000000000000E+00 
    1.8750000000063199E-01     8.7499999999953304E-01     0.0000000000000000E+00 
    1.8750000000070621E-01     9.3749999999975764E-01     0.0000000000000000E+00 
    2.4999999999951281E-01     6.2500000000163314E-02     0.0000000000000000E+00 
    2.4999999999961461E-01     1.2500000000033351E-01     0.0000000000000000E+00 
    2.4999999999971650E-01     1.8750000000048361E-01     0.0000000000000000E+00 
    2.4999999999981831E-01     2.5000000000063310E-01     0.0000000000000000E+00 
    2.4999999999992020E-01     3.1250000000078260E-01     0.0000000000000000E+00 
    2.5000000000002198E-01     3.7500000000093209E-01     0.0000000000000000E+00 
    2.5000000000012390E-01     4.3750000000108180E-01     0.0000000000000000E+00 
    2.5000000000022571E-01     5.0000000000121769E-01     0.0000000000000000E+00 
    2.5000000000032763E-01     5.6250000000094724E-01     0.0000000000000000E+00 
    2.5000000000042938E-01     6.2500000000066314E-01     0.0000000000000000E+00 
    2.5000000000053119E-01     6.8750000000037925E-01     0.0000000000000000E+00 
[...]
CELL_DATA 256 
SCALARS Pressure double 1 
LOOKUP_TABLE default 

    7.5272146474125046E-01 
    7.5076666638266776E-01 
    7.4894541080459076E-01 
    7.4727552499351868E-01 
    7.4575190344997322E-01 
    7.4436870990791049E-01 
    7.4312060348436115E-01 
    7.4200303313820504E-01 
    7.4101230622893111E-01 
    7.4014558464730928E-01 
    7.3940085493764951E-01 
    7.3877688332488012E-01 
    7.3827313502901437E-01 
    7.3788953904521204E-01 
    7.3762553126635788E-01 
    7.3747672235033568E-01 
    7.2368999470843931E-01 
    7.2359884452951595E-01 
    7.2343777825694244E-01 
    7.2322679063896311E-01 
    7.2298130299691399E-01 
    7.2271444139623298E-01 
    7.2243751658223954E-01 
    7.2216034272701812E-01 
    7.2189148075068310E-01 
    7.2163843189851484E-01 
    7.2140779147750922E-01 
    7.2120536134122970E-01 
    7.2103619508444061E-01 
    7.2090446664852659E-01 
    7.2081280569366823E-01 
    7.2076097233828651E-01 
    6.9639037492135647E-01 
    6.9637285257502124E-01 
    6.9633898014666384E-01 
    6.9629080054639414E-01 
    6.9623070278836674E-01 
    6.9616132100453254E-01 
    6.9608545023933532E-01 
    6.9600597114900997E-01 
    6.9592578992055332E-01 
    6.9584779060120827E-01 
    6.9577479339025694E-01 
    6.9570950479154259E-01 
    6.9565442195080751E-01 
    6.9561158918939425E-01 
    6.9558203526637952E-01 
    6.9556542686175171E-01 
    6.6581125417154996E-01 
    6.6580259645385464E-01 
    6.6578587595676952E-01 
    6.6576204437301589E-01 
    6.6573215543441333E-01 
    6.6569735497800386E-01 
    6.6565887752381192E-01 
    6.6561803476809200E-01 
    6.6557620031324949E-01 
    6.6553479056801235E-01 
    6.6549523592616655E-01 
    6.6545892371488202E-01 
    6.6542706247134564E-01 
    6.6540034557165528E-01 
    6.6537824186840677E-01 
    6.6536198902718691E-01 
    6.3168430645414664E-01 
    6.3167710341030481E-01 
    6.3166319278649274E-01 
    6.3164333984376364E-01 
    6.3161835693674750E-01 
    6.3158908562931348E-01 
    6.3155639958025300E-01 
    6.3152120207287055E-01 
    6.3148441622372209E-01 
    6.3144696396206090E-01 
    6.3140972129282169E-01 
    6.3137341561252647E-01 
    6.3133837455840991E-01 
    6.3130388843339758E-01 
    6.3126655837065293E-01 
    6.3123275218409469E-01 
    5.9417418683903422E-01 
    5.9416733197946425E-01 
    5.9415407560455757E-01 
    5.9413512208589891E-01 
    5.9411122214475454E-01 
    5.9408314431015241E-01 
    5.9405167496557132E-01 
    5.9401761617379933E-01 
    5.9398177480044911E-01 
    5.9394493514910784E-01 
    5.9390779543997696E-01 
    5.9387081570912614E-01 
    5.9383383343735063E-01 
    5.9379502895967218E-01 
    5.9374823486299344E-01 
    5.9370555588433815E-01 
    5.5341458650920483E-01 
    5.5340777844196942E-01 
    5.5339458649943707E-01 
    5.5337568177466934E-01 
    5.5335179423785763E-01 
    5.5332367720808651E-01 
    5.5329210424459163E-01 
    5.5325786635155128E-01 
    5.5322175974552457E-01 
    5.5318455243623921E-01 
    5.5314690139104716E-01 
    5.5310914328169536E-01 
    5.5307072999694973E-01 
    5.5302857992165511E-01 
    5.5297868091702385E-01 
    5.5294003711162854E-01 
    5.0946929904874860E-01 
    5.0946184144606776E-01 
    5.0944729496129726E-01 
    5.0942625442082801E-01 
    5.0939936877981928E-01 
    5.0936729752509224E-01 
    5.0933069892826821E-01 
    5.0929021755267045E-01 
    5.0924645677338487E-01 
    5.0919991583388391E-01 
    5.0915084091746732E-01 
    5.0909884431539576E-01 
    5.0904181673624349E-01 
    5.0897283693097428E-01 
    5.0889936930749147E-01 
    5.0885820389684755E-01 
    4.6237412600619038E-01 
    4.6236581512771657E-01 
    4.6234950205108549E-01 
    4.6232570182490917E-01 
    4.6229498202104818E-01 
    4.6225791213195300E-01 
    4.6221504176436262E-01 
    4.6216687401507117E-01 
    4.6211381301516835E-01 
    4.6205604865166150E-01 
    4.6199328032755987E-01 
    4.6192397646103162E-01 
    4.6184319364778664E-01 
    4.6174386474096107E-01 
    4.6165267710877905E-01 
    4.6160921613894590E-01 
    4.1205916896046335E-01 
    4.1204926622788007E-01 
    4.1202966964710969E-01 
    4.1200075728314983E-01 
    4.1196294526132660E-01 
    4.1191662523282135E-01 
    4.1186212191179433E-01 
    4.1179963158581823E-01 
    4.1172910329596302E-01 
    4.1164997961769512E-01 
    4.1156056196159196E-01 
    4.1145632893371070E-01 
    4.1132820867818631E-01 
    4.1119092227541865E-01 
    4.1109646894998314E-01 
    4.1105608837314228E-01 
    3.5831844828013626E-01 
    3.5830464001000273E-01 
    3.5827699246896955E-01 
    3.5823553542157449E-01 
    3.5818026205933984E-01 
    3.5811102900799108E-01 
    3.5802744392486363E-01 
    3.5792867504822995E-01 
    3.5781307853522398E-01 
    3.5767742300416316E-01 
    3.5751549208919459E-01 
    3.5731996932059296E-01 
    3.5710609855642000E-01 
    3.5693426495564379E-01 
    3.5683700484953873E-01 
    3.5679496978534070E-01 
    3.0075761555207603E-01 
    3.0073367279081492E-01 
    3.0068509765307028E-01 
    3.0061092732170630E-01 
    3.0050986894236525E-01 
    3.0038005617891178E-01 
    3.0021874301291207E-01 
    3.0002203844188718E-01 
    2.9978537143724698E-01 
    2.9950704640936587E-01 
    2.9919786565057815E-01 
    2.9889179207129563E-01 
    2.9864617761443185E-01 
    2.9848875747779940E-01 
    2.9839714516182425E-01 
    2.9835250808956948E-01 
    2.3863309006021408E-01 
    2.3857732944005300E-01 
    2.3846466911767361E-01 
    2.3829422716930682E-01 
    2.3806631552159591E-01 
    2.3778376764878609E-01 
    2.3745377379173255E-01 
    2.3708973312313167E-01 
    2.3671230134477808E-01 
    2.3634947535297246E-01 
    2.3603518694413284E-01 
    2.3579871502150185E-01 
    2.3564288857271459E-01 
    2.3554276681436134E-01 
    2.3547854712264171E-01 
    2.3544638252232136E-01 
    1.7192539745692745E-01 
    1.7184630263766315E-01 
    1.7169542432871251E-01 
    1.7148463953398474E-01 
    1.7122838589599584E-01 
    1.7094327975962711E-01 
    1.7064781345337943E-01 
    1.7036169492131728E-01 
    1.7010421516285029E-01 
    1.6989066539187872E-01 
    1.6972586233007525E-01 
    1.6959972976910639E-01 
    1.6949740925494997E-01 
    1.6941438156527650E-01 
    1.6935492000207458E-01 
    1.6932379692766955E-01 
    1.0880867756973679E-01 
    1.0867695096710317E-01 
    1.0841929809834987E-01 
    1.0804502499071462E-01 
    1.0756565930301655E-01 
    1.0699411339055609E-01 
    1.0634386288735763E-01 
    1.0562820380807769E-01 
    1.0485991933222968E-01 
    1.0405223410662137E-01 
    1.0322245068717942E-01 
    1.0239759168467745E-01 
    1.0161696301155955E-01 
    1.0093039268055209E-01 
    1.0039744400158618E-01 
    1.0008890389301729E-01 
    6.2955642516006521E-02 
    6.2507416790165096E-02 
    6.1608909216934127E-02 
    6.0254167254856501E-02 
    5.8433190756364328E-02 
    5.6131382461438097E-02 
    5.3329175704845994E-02 
    5.0002101471921336E-02 
    4.6121290205229329E-02 
    4.1653870350281924E-02 
    3.6562586896743215E-02 
    3.0804710187927926E-02 
    2.4330904681464045E-02 
    1.7084238591701870E-02 
    8.9991109610528877E-03 
    0.0000000000000000E+00 

SCALARS Saturarion double 1 
LOOKUP_TABLE default 

    1.0000000000000000E+00 
    9.5816407755748645E-01 
    9.3221326579441344E-01 
    9.0763800967314956E-01 
    8.8335847450817384E-01 
    8.5893140431301274E-01 
    8.3406626148065721E-01 
    8.0849982115297681E-01 
    7.8193526509773670E-01 
    7.5398761555719551E-01 
    7.2410569900242427E-01 
    6.9142605795713519E-01 
    6.5443993377790921E-01 
    6.1002950758372887E-01 
    5.4946342210123134E-01 
    4.3217975294395100E-01 
    8.4970957772392608E-01 
    8.3590285471531567E-01 
    8.2008516633003359E-01 
    8.0341518268727785E-01 
    7.8597645832209562E-01 
    7.6774730788182111E-01 
    7.4864442341220772E-01 
    7.2852307952052064E-01 
    7.0716014557939999E-01 
    6.8421713521916738E-01 
    6.5916619111119568E-01 
    6.3113093446907464E-01 
    5.9848981535116075E-01 
    5.5763567979179751E-01 
    4.9783940050082576E-01 
    3.7309479716377147E-01 
    7.6612914518335962E-01 
    7.5574664010895076E-01 
    7.4320928044456214E-01 
    7.2976779868264763E-01 
    7.1557445628643168E-01 
    7.0059583221456856E-01 
    6.8473060243964001E-01 
    6.6781943488212248E-01 
    6.4962691081977120E-01 
    6.2979976508020230E-01 
    6.0778166778680631E-01 
    5.8262291968168689E-01 
    5.5248499980331744E-01 
    5.1307546152479544E-01 
    4.5153722366503612E-01 
    3.0839294388644756E-01 
    7.0579768784236785E-01 
    6.9724828835814257E-01 
    6.8659874313106850E-01 
    6.7505233807317222E-01 
    6.6279155793484390E-01 
    6.4978356116029201E-01 
    6.3591795930302319E-01 
    6.2102352578142239E-01 
    6.0485020447248283E-01 
    5.8702263525043863E-01 
    5.6694102326575535E-01 
    5.4355170167013167E-01 
    5.1474027738602457E-01 
    4.7545908753774446E-01 
    4.1079304250153553E-01 
    2.3215873216716823E-01 
    6.5791397893790526E-01 
    6.5063479375550526E-01 
    6.4135429319063209E-01 
    6.3117454410712226E-01 
    6.2029203335545025E-01 
    6.0868078793393487E-01 
    5.9622881802445482E-01 
    5.8275745334788631E-01 
    5.6800222388651000E-01 
    5.5155973259066715E-01 
    5.3276944499422974E-01 
    5.1043220862426419E-01 
    4.8206408991947630E-01 
    4.4162891464876636E-01 
    3.7108328284254261E-01 
    1.3518158325649829E-01 
    6.1755392760250183E-01 
    6.1123003166485435E-01 
    6.0302047917632651E-01 
    5.9391120681432341E-01 
    5.8409858965864958E-01 
    5.7356172368468095E-01 
    5.6218759178964073E-01 
    5.4978912109947231E-01 
    5.3608237883343102E-01 
    5.2062260659275961E-01 
    5.0265707589177078E-01 
    4.8076413523792233E-01 
    4.5187984644358697E-01 
    4.0822422695106297E-01 
    3.2319053370779655E-01 
    4.7393543113425710E-02 
    5.8203487590623015E-01 
    5.7645859646807052E-01 
    5.6911792323897981E-01 
    5.6088391397088211E-01 
    5.5194337887931622E-01 
    5.4227733388201516E-01 
    5.3177079810406014E-01 
    5.2022677660468464E-01 
    5.0733728160112734E-01 
    4.9260396088434605E-01 
    4.7515055032862163E-01 
    4.5324564523310312E-01 
    4.2295226349378462E-01 
    3.7341002906075643E-01 
    2.5411721839402768E-01 
    1.1442889938975645E-02 
    5.4960071614866579E-01 
    5.4461888589909879E-01 
    5.3799190960974497E-01 
    5.3048342742371990E-01 
    5.2226459701727224E-01 
    5.1331488818353710E-01 
    5.0351528447343041E-01 
    4.9265613871641478E-01 
    4.8039935166281050E-01 
    4.6617760817680254E-01 
    4.4894925328870167E-01 
    4.2654209122911962E-01 
    3.9362386328106247E-01 
    3.3326523464269814E-01 
    1.4661333852026223E-01 
    1.6201829939917745E-03 
    5.1886001131775616E-01 
    5.1434364154597212E-01 
    5.0829098859981736E-01 
    5.0136795073874019E-01 
    4.9372512759435050E-01 
    4.8533520635547311E-01 
    4.7606927818883576E-01 
    4.6569599278761842E-01 
    4.5382972213598272E-01 
    4.3979478798252331E-01 
    4.2227966763172570E-01 
    3.9833416199292798E-01 
    3.5979156553584551E-01 
    2.7303364524974405E-01 
    3.9485199510316489E-02 
    4.6860852439189300E-05 
    4.8841853992399070E-01 
    4.8424273668479811E-01 
    4.7862168937972249E-01 
    4.7213185628170429E-01 
    4.6489806339654532E-01 
    4.5687819461972856E-01 
    4.4792180099781032E-01 
    4.3775601356257487E-01 
    4.2590863801173323E-01 
    4.1150566510967845E-01 
    3.9271547297661707E-01 
    3.6493384160743919E-01 
    3.1285300439526276E-01 
    1.6019127419702292E-01 
    3.5174122124004927E-03 
    1.0699744195819788E-07 
    4.5636270649056926E-01 
    4.5236638568763171E-01 
    4.4697912430528025E-01 
    4.4069227853677440E-01 
    4.3359450050988901E-01 
    4.2561017010797042E-01 
    4.1653579686518699E-01 
    4.0599926335631464E-01 
    3.9332262154591929E-01 
    3.7714591683730736E-01 
    3.5426411455283280E-01 
    3.1516055860475123E-01 
    2.2075833373742326E-01 
    2.9092393306720400E-02 
    2.1793467563602852E-05 
    3.2343332860467839E-13 
    4.1912021058178522E-01 
    4.1499045465901485E-01 
    4.0942047605213205E-01 
    4.0280775997956714E-01 
    3.9516699923114440E-01 
    3.8631884097881231E-01 
    3.7587828137260648E-01 
    3.6311903804244328E-01 
    3.4658963351955918E-01 
    3.2298091116126748E-01 
    2.8329426539985947E-01 
    1.9975038196321479E-01 
    5.1379508673157701E-02 
    2.2642019051225432E-04 
    7.5368836593243008E-11 
    5.4436371180100469E-27 
    3.6770085347462317E-01 
    3.6249475173180701E-01 
    3.5538902570252978E-01 
    3.4659431181087236E-01 
    3.3583429376173252E-01 
    3.2242071192853122E-01 
    3.0503253974111483E-01 
    2.8114109987188257E-01 
    2.4581261088788284E-01 
    1.9041323158068879E-01 
    1.0913492244925871E-01 
    2.7467090219691653E-02 
    4.4143436514148046E-04 
    7.8224084631194642E-10 
    8.7501103070857170E-25 
    2.5194931158577032E-62 
    2.7215802238643161E-01 
    2.6205331721495795E-01 
    2.4787014444461544E-01 
    2.2951671617004810E-01 
    2.0623803069166072E-01 
    1.7708103893096125E-01 
    1.4154836342037458E-01 
    1.0066810945622730E-01 
    5.8411007765036431E-02 
    2.2908839932561403E-02 
    3.8722142973098847E-03 
    7.8506918923600377E-05 
    1.9688134190791270E-09 
    1.6273231155012269E-23 
    2.7521619168244150E-59 
   5.0614266666515809E-149 
    8.7774910397224210E-02 
    7.5594810065016421E-02 
    6.0960705783215725E-02 
    4.5620668399820818E-02 
    3.0966799711078092E-02 
    1.8327722397501505E-02 
    8.8659241260144600E-03 
    3.1330739806284084E-03 
    6.5320361301318154E-04 
    5.1202879436709012E-05 
    5.0514825295695798E-07 
    2.5126933951929997E-11 
    6.5840097388982531E-23 
    8.2901199895576024E-57 
   2.7592259455589917E-142 
    0.0000000000000000E+00 
    1.7413391277740990E-03 
    1.1212906124514045E-03 
    6.0684429856423003E-04 
    2.7226728783967411E-04 
    9.6216386108502540E-05 
    2.4387501281589032E-05 
    3.7860997392702908E-06 
    2.7159035647513009E-07 
    5.2552343691639616E-09 
    8.7956650992788890E-12 
    7.6881336652656593E-17 
    1.1105384974056648E-27 
    8.9819402118047805E-57 
   4.8717630812054782E-141 
    0.0000000000000000E+00 
    0.0000000000000000E+00 
