# vtk DataFile Version 2.0
Pressure Field Data 
ASCII 
DATASET UNSTRUCTURED_GRID 

POINTS 289 double 

    0.0000000000000000E+00     0.0000000000000000E+00     0.0000000000000000E+00 
    1.0000000000000000E+00     0.0000000000000000E+00     0.0000000000000000E+00 
    1.0000000000000000E+00     1.0000000000000000E+00     0.0000000000000000E+00 
    0.0000000000000000E+00     1.0000000000000000E+00     0.0000000000000000E+00 
    6.2499999999872928E-02     0.0000000000000000E+00     0.0000000000000000E+00 
    1.2499999999977310E-01     0.0000000000000000E+00     0.0000000000000000E+00 
    1.8749999999959341E-01     0.0000000000000000E+00     0.0000000000000000E+00 
    2.4999999999941089E-01     0.0000000000000000E+00     0.0000000000000000E+00 
    3.1249999999922851E-01     0.0000000000000000E+00     0.0000000000000000E+00 
    3.7499999999904610E-01     0.0000000000000000E+00     0.0000000000000000E+00 
    4.3749999999886358E-01     0.0000000000000000E+00     0.0000000000000000E+00 
    4.9999999999869210E-01     0.0000000000000000E+00     0.0000000000000000E+00 
    5.6249999999884603E-01     0.0000000000000000E+00     0.0000000000000000E+00 
    6.2499999999901090E-01     0.0000000000000000E+00     0.0000000000000000E+00 
    6.8749999999917577E-01     0.0000000000000000E+00     0.0000000000000000E+00 
    7.4999999999934064E-01     0.0000000000000000E+00     0.0000000000000000E+00 
    8.1249999999950551E-01     0.0000000000000000E+00     0.0000000000000000E+00 
    8.7499999999967026E-01     0.0000000000000000E+00     0.0000000000000000E+00 
    9.3749999999983513E-01     0.0000000000000000E+00     0.0000000000000000E+00 
    1.0000000000000000E+00     6.2499999999872928E-02     0.0000000000000000E+00 
    1.0000000000000000E+00     1.2499999999977310E-01     0.0000000000000000E+00 
    1.0000000000000000E+00     1.8749999999959341E-01     0.0000000000000000E+00 
    1.0000000000000000E+00     2.4999999999941089E-01     0.0000000000000000E+00 
    1.0000000000000000E+00     3.1249999999922851E-01     0.0000000000000000E+00 
    1.0000000000000000E+00     3.7499999999904610E-01     0.0000000000000000E+00 
    1.0000000000000000E+00     4.3749999999886358E-01     0.0000000000000000E+00 
    1.0000000000000000E+00     4.9999999999869210E-01     0.0000000000000000E+00 
    1.0000000000000000E+00     5.6249999999884603E-01     0.0000000000000000E+00 
    1.0000000000000000E+00     6.2499999999901090E-01     0.0000000000000000E+00 
    1.0000000000000000E+00     6.8749999999917577E-01     0.0000000000000000E+00 
    1.0000000000000000E+00     7.4999999999934064E-01     0.0000000000000000E+00 
    1.0000000000000000E+00     8.1249999999950551E-01     0.0000000000000000E+00 
    1.0000000000000000E+00     8.7499999999967026E-01     0.0000000000000000E+00 
    1.0000000000000000E+00     9.3749999999983513E-01     0.0000000000000000E+00 
    9.3749999999973976E-01     1.0000000000000000E+00     0.0000000000000000E+00 
    8.7499999999950118E-01     1.0000000000000000E+00     0.0000000000000000E+00 
    8.1249999999991318E-01     1.0000000000000000E+00     0.0000000000000000E+00 
    7.5000000000034706E-01     1.0000000000000000E+00     0.0000000000000000E+00 
    6.8750000000078049E-01     1.0000000000000000E+00     0.0000000000000000E+00 
    6.2500000000121403E-01     1.0000000000000000E+00     0.0000000000000000E+00 
    5.6250000000164757E-01     1.0000000000000000E+00     0.0000000000000000E+00 
    5.0000000000205946E-01     1.0000000000000000E+00     0.0000000000000000E+00 
    4.3750000000182099E-01     1.0000000000000000E+00     0.0000000000000000E+00 
    3.7500000000156092E-01     1.0000000000000000E+00     0.0000000000000000E+00 
    3.1250000000130068E-01     1.0000000000000000E+00     0.0000000000000000E+00 
    2.5000000000104050E-01     1.0000000000000000E+00     0.0000000000000000E+00 
    1.8750000000078040E-01     1.0000000000000000E+00     0.0000000000000000E+00 
    1.2500000000052031E-01     1.0000000000000000E+00     0.0000000000000000E+00 
    6.2500000000260125E-02     1.0000000000000000E+00     0.0000000000000000E+00 
    0.0000000000000000E+00     9.3749999999973976E-01     0.0000000000000000E+00 
    0.0000000000000000E+00     8.7499999999950118E-01     0.0000000000000000E+00 
    0.0000000000000000E+00     8.1249999999991318E-01     0.0000000000000000E+00 
    0.0000000000000000E+00     7.5000000000034706E-01     0.0000000000000000E+00 
    0.0000000000000000E+00     6.8750000000078049E-01     0.0000000000000000E+00 
    0.0000000000000000E+00     6.2500000000121403E-01     0.0000000000000000E+00 
    0.0000000000000000E+00     5.6250000000164757E-01     0.0000000000000000E+00 
    0.0000000000000000E+00     5.0000000000205946E-01     0.0000000000000000E+00 
    0.0000000000000000E+00     4.3750000000182099E-01     0.0000000000000000E+00 
    0.0000000000000000E+00     3.7500000000156092E-01     0.0000000000000000E+00 
    0.0000000000000000E+00     3.1250000000130068E-01     0.0000000000000000E+00 
    0.0000000000000000E+00     2.5000000000104050E-01     0.0000000000000000E+00 
    0.0000000000000000E+00     1.8750000000078040E-01     0.0000000000000000E+00 
    0.0000000000000000E+00     1.2500000000052031E-01     0.0000000000000000E+00 
    0.0000000000000000E+00     6.2500000000260125E-02     0.0000000000000000E+00 
    6.2499999999897131E-02     6.2500000000235922E-02     0.0000000000000000E+00 
    6.2499999999921327E-02     1.2500000000047351E-01     0.0000000000000000E+00 
    6.2499999999945530E-02     1.8750000000070621E-01     0.0000000000000000E+00 
    6.2499999999969733E-02     2.5000000000093858E-01     0.0000000000000000E+00 
    6.2499999999993928E-02     3.1250000000117117E-01     0.0000000000000000E+00 
    6.2500000000018124E-02     3.7500000000140382E-01     0.0000000000000000E+00 
    6.2500000000042327E-02     4.3750000000163619E-01     0.0000000000000000E+00 
    6.2500000000066530E-02     5.0000000000184897E-01     0.0000000000000000E+00 
    6.2500000000090733E-02     5.6250000000147260E-01     0.0000000000000000E+00 
    6.2500000000114922E-02     6.2500000000107636E-01     0.0000000000000000E+00 
    6.2500000000139125E-02     6.8750000000068034E-01     0.0000000000000000E+00 
    6.2500000000163328E-02     7.5000000000028411E-01     0.0000000000000000E+00 
    6.2500000000187531E-02     8.1249999999988787E-01     0.0000000000000000E+00 
    6.2500000000211720E-02     8.7499999999951172E-01     0.0000000000000000E+00 
    6.2500000000235922E-02     9.3749999999974565E-01     0.0000000000000000E+00 
    1.2499999999981980E-01     6.2500000000211733E-02     0.0000000000000000E+00 
    1.2499999999986650E-01     1.2500000000042691E-01     0.0000000000000000E+00 
    1.2499999999991319E-01     1.8750000000063199E-01     0.0000000000000000E+00 
    1.2499999999995989E-01     2.5000000000083678E-01     0.0000000000000000E+00 
    1.2500000000000661E-01     3.1250000000104172E-01     0.0000000000000000E+00 
    1.2500000000005329E-01     3.7500000000124661E-01     0.0000000000000000E+00 
    1.2500000000010000E-01     4.3750000000145117E-01     0.0000000000000000E+00 
    1.2500000000014669E-01     5.0000000000163858E-01     0.0000000000000000E+00 
    1.2500000000019340E-01     5.6250000000129741E-01     0.0000000000000000E+00 
    1.2500000000024011E-01     6.2500000000093847E-01     0.0000000000000000E+00 
    1.2500000000028680E-01     6.8750000000057998E-01     0.0000000000000000E+00 
    1.2500000000033351E-01     7.5000000000022127E-01     0.0000000000000000E+00 
    1.2500000000038020E-01     8.1249999999986211E-01     0.0000000000000000E+00 
    1.2500000000042691E-01     8.7499999999952238E-01     0.0000000000000000E+00 
    1.2500000000047359E-01     9.3749999999975164E-01     0.0000000000000000E+00 
    1.8749999999966760E-01     6.2500000000187531E-02     0.0000000000000000E+00 
    1.8749999999974179E-01     1.2500000000038020E-01     0.0000000000000000E+00 
    1.8749999999981601E-01     1.8750000000055780E-01     0.0000000000000000E+00 
    1.8749999999989009E-01     2.5000000000073502E-01     0.0000000000000000E+00 
    1.8749999999996431E-01     3.1250000000091221E-01     0.0000000000000000E+00 
    1.8750000000003850E-01     3.7500000000108941E-01     0.0000000000000000E+00 
    1.8750000000011269E-01     4.3750000000126649E-01     0.0000000000000000E+00 
    1.8750000000018691E-01     5.0000000000142808E-01     0.0000000000000000E+00 
    1.8750000000026110E-01     5.6250000000112244E-01     0.0000000000000000E+00 
    1.8750000000033529E-01     6.2500000000080080E-01     0.0000000000000000E+00 
    1.8750000000040951E-01     6.8750000000047962E-01     0.0000000000000000E+00 
    1.8750000000048361E-01     7.5000000000015843E-01     0.0000000000000000E+00 
    1.8750000000055780E-01     8.1249999999983680E-01     0.0000000000000000E+00 
    1.8750000000063199E-01     8.7499999999953304E-01     0.0000000000000000E+00 
    1.8750000000070621E-01     9.3749999999975764E-01     0.0000000000000000E+00 
    2.4999999999951281E-01     6.2500000000163314E-02     0.0000000000000000E+00 
    2.4999999999961461E-01     1.2500000000033351E-01     0.0000000000000000E+00 
    2.4999999999971650E-01     1.8750000000048361E-01     0.0000000000000000E+00 
    2.4999999999981831E-01     2.5000000000063310E-01     0.0000000000000000E+00 
    2.4999999999992020E-01     3.1250000000078260E-01     0.0000000000000000E+00 
    2.5000000000002198E-01     3.7500000000093209E-01     0.0000000000000000E+00 
    2.5000000000012390E-01     4.3750000000108180E-01     0.0000000000000000E+00 
    2.5000000000022571E-01     5.0000000000121769E-01     0.0000000000000000E+00 
    2.5000000000032763E-01     5.6250000000094724E-01     0.0000000000000000E+00 
    2.5000000000042938E-01     6.2500000000066314E-01     0.0000000000000000E+00 
    2.5000000000053119E-01     6.8750000000037925E-01     0.0000000000000000E+00 
[...]
CELL_DATA 256 
SCALARS Pressure double 1 
LOOKUP_TABLE default 

    9.4000287183593856E-01 
    9.3786709670798174E-01 
    9.3570448797212169E-01 
    9.3362791574024095E-01 
    9.3165860638297338E-01 
    9.2980830198682696E-01 
    9.2808479074895911E-01 
    9.2649368381715158E-01 
    9.2503899273816825E-01 
    9.2372286966103678E-01 
    9.2254404605243334E-01 
    9.2149338711368622E-01 
    9.2055015060084933E-01 
    9.1972366088750812E-01 
    9.1915006454546411E-01 
    9.1887786185349851E-01 
    8.9943540633267816E-01 
    8.9926393276339167E-01 
    8.9894890896342383E-01 
    8.9853012482597239E-01 
    8.9803244370030477E-01 
    8.9747666070798426E-01 
    8.9688035978949421E-01 
    8.9625800180588444E-01 
    8.9562039607466004E-01 
    8.9497317521578668E-01 
    8.9431468835902050E-01 
    8.9364601385491071E-01 
    8.9299696056751288E-01 
    8.9245908556263598E-01 
    8.9210901012532584E-01 
    8.9194173682294986E-01 
    8.5403633993163564E-01 
    8.5395910916841244E-01 
    8.5380664314619970E-01 
    8.5358398635371313E-01 
    8.5329582193020304E-01 
    8.5294560309858580E-01 
    8.5253491236839352E-01 
    8.5206265665076231E-01 
    8.5152617300412037E-01 
    8.5093026075087419E-01 
    8.5030023720007997E-01 
    8.4969365465219804E-01 
    8.4919181287992984E-01 
    8.4883754988282634E-01 
    8.4861518300576655E-01 
    8.4850558206023841E-01 
    7.9952389892259312E-01 
    7.9943659284607504E-01 
    7.9925940931379624E-01 
    7.9899029935175458E-01 
    7.9862764184421375E-01 
    7.9817261289766628E-01 
    7.9763384568206408E-01 
    7.9703179264911506E-01 
    7.9640033614926076E-01 
    7.9578941186805197E-01 
    7.9525674448329287E-01 
    7.9483891178957666E-01 
    7.9453567279502579E-01 
    7.9432167785943641E-01 
    7.9418041177263465E-01 
    7.9410980952415655E-01 
    7.3604276556197568E-01 
    7.3592550381340160E-01 
    7.3569968873125613E-01 
    7.3538387539576899E-01 
    7.3500347515694464E-01 
    7.3458893575747175E-01 
    7.3417390436204344E-01 
    7.3379177482255387E-01 
    7.3346989661624962E-01 
    7.3322242069073229E-01 
    7.3304313910343677E-01 
    7.3291067976200786E-01 
    7.3280829140421444E-01 
    7.3273126444978887E-01 
    7.3267967685534630E-01 
    7.3265381214846104E-01 
    6.6856938343516492E-01 
    6.6853538440337534E-01 
    6.6848044664963047E-01 
    6.6842238710683699E-01 
    6.6837753362297347E-01 
    6.6835785004539416E-01 
    6.6836782415160856E-01 
    6.6840223776716556E-01 
    6.6844840513510884E-01 
    6.6849361045791456E-01 
    6.6853122433617806E-01 
    6.6856026614076625E-01 
    6.6858181343077172E-01 
    6.6859699497890224E-01 
    6.6860665318235846E-01 
    6.6861134409585277E-01 
    6.0423155736145118E-01 
    6.0426335843391576E-01 
    6.0432282867962395E-01 
    6.0440242030375679E-01 
    6.0449258178385090E-01 
    6.0458410650241057E-01 
    6.0467026025634485E-01 
    6.0474753818136429E-01 
    6.0481492622573241E-01 
    6.0487260054440928E-01 
    6.0492103189493585E-01 
    6.0496067330629855E-01 
    6.0499191118937723E-01 
    6.0501505997544369E-01 
    6.0503035850558673E-01 
    6.0503796740731897E-01 
    5.4203710207919431E-01 
    5.4204456439489679E-01 
    5.4205735245539077E-01 
    5.4207321277634390E-01 
    5.4209068092942869E-01 
    5.4210882136818161E-01 
    5.4212695684334788E-01 
    5.4214454085632169E-01 
    5.4216111929806121E-01 
    5.4217631884759609E-01 
    5.4218983721892466E-01 
    5.4220143330106574E-01 
    5.4221091864922732E-01 
    5.4221815056437161E-01 
    5.4222302666988287E-01 
    5.4222548090930867E-01 
    4.7962639917444622E-01 
    4.7962715115538790E-01 
    4.7962859198765578E-01 
    4.7963061920288574E-01 
    4.7963311206291120E-01 
    4.7963594272919341E-01 
    4.7963898294380281E-01 
    4.7964210835982185E-01 
    4.7964520167294916E-01 
    4.7964815497161228E-01 
    4.7965087146181190E-01 
    4.7965326669396580E-01 
    4.7965526941102665E-01 
    4.7965682211685101E-01 
    4.7965788144303279E-01 
    4.7965841837402162E-01 
    4.1714097667794470E-01 
    4.1714106138654872E-01 
    4.1714122652026375E-01 
    4.1714146399942265E-01 
    4.1714176269746200E-01 
    4.1714210925983791E-01 
    4.1714248890332628E-01 
    4.1714288615254941E-01 
    4.1714328549433827E-01 
    4.1714367194211904E-01 
    4.1714403150940421E-01 
    4.1714435159636398E-01 
    4.1714462129670937E-01 
    4.1714483163385291E-01 
    4.1714497573574982E-01 
    4.1714504895721599E-01 
    3.5464708330544176E-01 
    3.5464692910661649E-01 
    3.5464662650848394E-01 
    3.5464618690788402E-01 
    3.5464562689837731E-01 
    3.5464496767922704E-01 
    3.5464423428934994E-01 
    3.5464345468870451E-01 
    3.5464265871653411E-01 
    3.5464187696218613E-01 
    3.5464113958955251E-01 
    3.5464047516018943E-01 
    3.5463990950258822E-01 
    3.5463946467551832E-01 
    3.5463915807156260E-01 
    3.5463900170266793E-01 
    2.9216860980358234E-01 
    2.9216763675739538E-01 
    2.9216572674346075E-01 
    2.9216295070701842E-01 
    2.9215941206366652E-01 
    2.9215524317127872E-01 
    2.9215060075218013E-01 
    2.9214566037736533E-01 
    2.9214061015645387E-01 
    2.9213564381083856E-01 
    2.9213095334266032E-01 
    2.9212672154781649E-01 
    2.9212311465537621E-01 
    2.9212027540572799E-01 
    2.9211831690128170E-01 
    2.9211731757055548E-01 
    2.2978744091225006E-01 
    2.2978204118297307E-01 
    2.2977142922917770E-01 
    2.2975597519713950E-01 
    2.2973622213251510E-01 
    2.2971287133441090E-01 
    2.2968676278663111E-01 
    2.2965885067568517E-01 
    2.2963017406677205E-01 
    2.2960182291577541E-01 
    2.2957489976232673E-01 
    2.2955047769506859E-01 
    2.2952955552898005E-01 
    2.2951301161574356E-01 
    2.2950155835900807E-01 
    2.2949570037397540E-01 
    1.6794624494423710E-01 
    1.6791766806037597E-01 
    1.6786133953915858E-01 
    1.6777890294587358E-01 
    1.6767280554935976E-01 
    1.6754627446507869E-01 
    1.6740328113768529E-01 
    1.6724849077068438E-01 
    1.6708719218543011E-01 
    1.6692520226590152E-01 
    1.6676873756292573E-01 
    1.6662424372536128E-01 
    1.6649817111734100E-01 
    1.6639668217566198E-01 
    1.6632527264643762E-01 
    1.6628828467858897E-01 
    1.0896273736162609E-01 
    1.0882845867339300E-01 
    1.0856205705586970E-01 
    1.0816791101743942E-01 
    1.0765275774282689E-01 
    1.0702590190689658E-01 
    1.0629950344933134E-01 
    1.0548895269085216E-01 
    1.0461334373131576E-01 
    1.0369605996053831E-01 
    1.0276548882219017E-01 
    1.0185588680097717E-01 
    1.0100842007133952E-01 
    1.0027241148986132E-01 
    9.9706830796012447E-02 
    9.9382072198836061E-02 
    6.3407098603112291E-02 
    6.2951542215532272E-02 
    6.2037216663378004E-02 
    6.0657642707304595E-02 
    5.8802966068135266E-02 
    5.6459791512224772E-02 
    5.3610955852373569E-02 
    5.0235234716558878E-02 
    4.6306976400998325E-02 
    4.1795654412126688E-02 
    3.6665328367772219E-02 
    3.0874000718875486E-02 
    2.4372854209160057E-02 
    1.7105352040825392E-02 
    9.0061792780020446E-03 
    0.0000000000000000E+00 

SCALARS Saturarion double 1 
LOOKUP_TABLE default 

    1.0000000000000000E+00 
    8.8937973088829714E-01 
    8.3202563273347407E-01 
    7.8358892224397192E-01 
    7.4002254787486865E-01 
    6.9952818349332069E-01 
    6.6098001306581866E-01 
    6.2349193098581357E-01 
    5.8619500166199079E-01 
    5.4799882100819852E-01 
    5.0710042909162101E-01 
    4.5951887270067748E-01 
    3.9339201672157237E-01 
    2.6253876455200503E-01 
    4.5968116696192850E-02 
    1.3205541958534605E-04 
    7.2388133512877884E-01 
    6.9575937102407037E-01 
    6.6561985123180745E-01 
    6.3654391706908042E-01 
    6.0816708270715814E-01 
    5.8006559165191107E-01 
    5.5176414169298260E-01 
    5.2264808810030083E-01 
    4.9177800195412430E-01 
    4.5743633310751436E-01 
    4.1578791384552555E-01 
    3.5596695649461191E-01 
    2.3942089642197009E-01 
    4.9936284147839044E-02 
    2.8335883555764553E-04 
    2.4332859756216276E-10 
    5.8515121459286734E-01 
    5.6778513719784762E-01 
    5.4723568517436272E-01 
    5.2584684693785910E-01 
    5.0379191065202833E-01 
    4.8075585361948386E-01 
    4.5611262639008665E-01 
    4.2873910290059070E-01 
    3.9639709024005959E-01 
    3.5386699618647133E-01 
    2.8664531345937511E-01 
    1.6153306243720916E-01 
    2.9163120885807300E-02 
    2.2928707354757580E-04 
    5.4990799489071784E-10 
    2.0730545694713859E-24 
    4.7622718117179536E-01 
    4.6228476999762441E-01 
    4.4477837541524218E-01 
    4.2519155486184973E-01 
    4.0339511553890811E-01 
    3.7841428282685069E-01 
    3.4814947617511927E-01 
    3.0819256969874659E-01 
    2.4924337429064483E-01 
    1.6019145786168434E-01 
    6.2357213003134397E-02 
    7.6791999620973161E-03 
    5.7497285618222265E-05 
    2.7362598889400900E-10 
    5.4614501636885284E-24 
    1.3275449020577299E-58 
    3.6085677570362529E-01 
    3.4409863587569528E-01 
    3.2118533393972187E-01 
    2.9239755904552517E-01 
    2.5609726045185027E-01 
    2.0998657471949356E-01 
    1.5377436541329129E-01 
    9.3156717270605455E-02 
    4.0234188616339747E-02 
    9.0396165685731888E-03 
    5.7377383798412466E-04 
    2.2593033016032972E-06 
    1.0825441700648116E-11 
    9.2603374367624050E-25 
    4.9628127992960292E-58 
   1.0342960824917364E-141 
    1.8756353669465975E-01 
    1.5882222592285319E-01 
    1.2316806566666021E-01 
    8.6551311948065271E-02 
    5.3085057883005715E-02 
    2.6582171122724652E-02 
    9.7514882549719611E-03 
    2.1805700806619625E-03 
    2.0865773923595980E-04 
    4.3315043314277149E-06 
    4.2487148998954797E-09 
    5.2424534863541499E-15 
    4.2188322697287826E-28 
    6.7969569970831238E-60 
   8.9457383335879845E-141 
    0.0000000000000000E+00 
    2.1797978490877813E-02 
    1.2636876244503173E-02 
    5.7432259688809150E-03 
    2.0360000623371594E-03 
    5.1854413297146166E-04 
    8.1882887937293028E-05 
    6.2460877178382734E-06 
    1.4629154498972490E-07 
    4.5288870050284136E-10 
    3.5909096088484540E-14 
    1.6228168963040571E-21 
    7.2771806267772103E-36 
    1.0002044078985864E-67 
   5.0089926538395520E-145 
    0.0000000000000000E+00 
    0.0000000000000000E+00 
    6.0683197460458712E-05 
    1.4916950414222335E-05 
    2.0478184497312859E-06 
    1.5736765429261735E-07 
    5.5574436881454196E-09 
    6.3389010352547205E-11 
    1.2664413146048403E-13 
    1.4834738402765295E-17 
    1.4316773693155749E-23 
    1.8514077072235423E-33 
    4.5169108247301144E-51 
    7.0772765540324673E-86 
   1.0747977979276080E-162 
    0.0000000000000000E+00 
    0.0000000000000000E+00 
    0.0000000000000000E+00 
    4.8336580695609660E-11 
    1.6693654337600882E-12 
    1.4407351965657040E-14 
    3.1710125551985134E-17 
    1.1214864972721227E-20 
    2.7308065571580437E-25 
    1.0468579152395680E-31 
    4.9997197189102851E-41 
    2.6497098731296728E-55 
    6.4729363399375270E-79 
   9.0950275249828818E-121 
   7.7462768940622367E-205 
    0.0000000000000000E+00 
    0.0000000000000000E+00 
    0.0000000000000000E+00 
    0.0000000000000000E+00 
    3.8552601803995965E-25 
    1.3911989726819439E-28 
    1.9218938038608138E-33 
    1.1070918590246336E-39 
    8.9367316688458772E-48 
    1.3264644835763265E-58 
    1.1558363653882948E-73 
    1.6111596912804988E-95 
   3.1119020985143961E-129 
   6.2190698838623376E-185 
   1.6465378705906383E-284 
    0.0000000000000000E+00 
    0.0000000000000000E+00 
    0.0000000000000000E+00 
    0.0000000000000000E+00 
    0.0000000000000000E+00 
    2.6617755849564327E-57 
    2.5963839881371697E-65 
    1.2874395613122757E-76 
    4.1980062613540546E-91 
   6.7056025793652204E-110 
   4.4677410652126834E-135 
   4.5353110573013884E-170 
   4.9855477696318407E-221 
   3.9113485505022406E-300 
    0.0000000000000000E+00 
    0.0000000000000000E+00 
    0.0000000000000000E+00 
    0.0000000000000000E+00 
    0.0000000000000000E+00 
    0.0000000000000000E+00 
    0.0000000000000000E+00 
   6.0388764957292907E-130 
   2.0924354140809829E-148 
   1.8604343835635619E-174 
   8.1402853631910758E-208 
   3.8911049060227818E-251 
   3.6720721361213071E-309 
    0.0000000000000000E+00 
    0.0000000000000000E+00 
    0.0000000000000000E+00 
    0.0000000000000000E+00 
    0.0000000000000000E+00 
    0.0000000000000000E+00 
    0.0000000000000000E+00 
    0.0000000000000000E+00 
    0.0000000000000000E+00 
    0.0000000000000000E+00 
   9.9378797732882959E-293 
    0.0000000000000000E+00 
    0.0000000000000000E+00 
    0.0000000000000000E+00 
    0.0000000000000000E+00 
    0.0000000000000000E+00 
    0.0000000000000000E+00 
    0.0000000000000000E+00 
    0.0000000000000000E+00 
    0.0000000000000000E+00 
    0.0000000000000000E+00 
    0.0000000000000000E+00 
    0.0000000000000000E+00 
    0.0000000000000000E+00 
    0.0000000000000000E+00 
    0.0000000000000000E+00 
    0.0000000000000000E+00 
    0.0000000000000000E+00 
    0.0000000000000000E+00 
    0.0000000000000000E+00 
    0.0000000000000000E+00 
    0.0000000000000000E+00 
    0.0000000000000000E+00 
    0.0000000000000000E+00 
    0.0000000000000000E+00 
    0.0000000000000000E+00 
    0.0000000000000000E+00 
    0.0000000000000000E+00 
    0.0000000000000000E+00 
    0.0000000000000000E+00 
    0.0000000000000000E+00 
    0.0000000000000000E+00 
    0.0000000000000000E+00 
    0.0000000000000000E+00 
    0.0000000000000000E+00 
    0.0000000000000000E+00 
    0.0000000000000000E+00 
    0.0000000000000000E+00 
    0.0000000000000000E+00 
    0.0000000000000000E+00 
    0.0000000000000000E+00 
    0.0000000000000000E+00 
    0.0000000000000000E+00 
    0.0000000000000000E+00 
    0.0000000000000000E+00 
    0.0000000000000000E+00 
    0.0000000000000000E+00 
    0.0000000000000000E+00 
    0.0000000000000000E+00 
    0.0000000000000000E+00 
    0.0000000000000000E+00 
    0.0000000000000000E+00 
    0.0000000000000000E+00 
    0.0000000000000000E+00 
    0.0000000000000000E+00 
    0.0000000000000000E+00 
    0.0000000000000000E+00 
    0.0000000000000000E+00 
    0.0000000000000000E+00 
    0.0000000000000000E+00 
    0.0000000000000000E+00 
    0.0000000000000000E+00 
    0.0000000000000000E+00 
    0.0000000000000000E+00 
