# vtk DataFile Version 2.0
Pressure Field Data 
ASCII 
DATASET UNSTRUCTURED_GRID 

POINTS 289 double 

    0.0000000000000000E+00     0.0000000000000000E+00     0.0000000000000000E+00 
    1.0000000000000000E+00     0.0000000000000000E+00     0.0000000000000000E+00 
    1.0000000000000000E+00     1.0000000000000000E+00     0.0000000000000000E+00 
    0.0000000000000000E+00     1.0000000000000000E+00     0.0000000000000000E+00 
    6.2499999999872928E-02     0.0000000000000000E+00     0.0000000000000000E+00 
    1.2499999999977310E-01     0.0000000000000000E+00     0.0000000000000000E+00 
    1.8749999999959341E-01     0.0000000000000000E+00     0.0000000000000000E+00 
    2.4999999999941089E-01     0.0000000000000000E+00     0.0000000000000000E+00 
    3.1249999999922851E-01     0.0000000000000000E+00     0.0000000000000000E+00 
    3.7499999999904610E-01     0.0000000000000000E+00     0.0000000000000000E+00 
    4.3749999999886358E-01     0.0000000000000000E+00     0.0000000000000000E+00 
    4.9999999999869210E-01     0.0000000000000000E+00     0.0000000000000000E+00 
    5.6249999999884603E-01     0.0000000000000000E+00     0.0000000000000000E+00 
    6.2499999999901090E-01     0.0000000000000000E+00     0.0000000000000000E+00 
    6.8749999999917577E-01     0.0000000000000000E+00     0.0000000000000000E+00 
    7.4999999999934064E-01     0.0000000000000000E+00     0.0000000000000000E+00 
    8.1249999999950551E-01     0.0000000000000000E+00     0.0000000000000000E+00 
    8.7499999999967026E-01     0.0000000000000000E+00     0.0000000000000000E+00 
    9.3749999999983513E-01     0.0000000000000000E+00     0.0000000000000000E+00 
    1.0000000000000000E+00     6.2499999999872928E-02     0.0000000000000000E+00 
    1.0000000000000000E+00     1.2499999999977310E-01     0.0000000000000000E+00 
    1.0000000000000000E+00     1.8749999999959341E-01     0.0000000000000000E+00 
    1.0000000000000000E+00     2.4999999999941089E-01     0.0000000000000000E+00 
    1.0000000000000000E+00     3.1249999999922851E-01     0.0000000000000000E+00 
    1.0000000000000000E+00     3.7499999999904610E-01     0.0000000000000000E+00 
    1.0000000000000000E+00     4.3749999999886358E-01     0.0000000000000000E+00 
    1.0000000000000000E+00     4.9999999999869210E-01     0.0000000000000000E+00 
    1.0000000000000000E+00     5.6249999999884603E-01     0.0000000000000000E+00 
    1.0000000000000000E+00     6.2499999999901090E-01     0.0000000000000000E+00 
    1.0000000000000000E+00     6.8749999999917577E-01     0.0000000000000000E+00 
    1.0000000000000000E+00     7.4999999999934064E-01     0.0000000000000000E+00 
    1.0000000000000000E+00     8.1249999999950551E-01     0.0000000000000000E+00 
    1.0000000000000000E+00     8.7499999999967026E-01     0.0000000000000000E+00 
    1.0000000000000000E+00     9.3749999999983513E-01     0.0000000000000000E+00 
    9.3749999999973976E-01     1.0000000000000000E+00     0.0000000000000000E+00 
    8.7499999999950118E-01     1.0000000000000000E+00     0.0000000000000000E+00 
    8.1249999999991318E-01     1.0000000000000000E+00     0.0000000000000000E+00 
    7.5000000000034706E-01     1.0000000000000000E+00     0.0000000000000000E+00 
    6.8750000000078049E-01     1.0000000000000000E+00     0.0000000000000000E+00 
    6.2500000000121403E-01     1.0000000000000000E+00     0.0000000000000000E+00 
    5.6250000000164757E-01     1.0000000000000000E+00     0.0000000000000000E+00 
    5.0000000000205946E-01     1.0000000000000000E+00     0.0000000000000000E+00 
    4.3750000000182099E-01     1.0000000000000000E+00     0.0000000000000000E+00 
    3.7500000000156092E-01     1.0000000000000000E+00     0.0000000000000000E+00 
    3.1250000000130068E-01     1.0000000000000000E+00     0.0000000000000000E+00 
    2.5000000000104050E-01     1.0000000000000000E+00     0.0000000000000000E+00 
    1.8750000000078040E-01     1.0000000000000000E+00     0.0000000000000000E+00 
    1.2500000000052031E-01     1.0000000000000000E+00     0.0000000000000000E+00 
    6.2500000000260125E-02     1.0000000000000000E+00     0.0000000000000000E+00 
    0.0000000000000000E+00     9.3749999999973976E-01     0.0000000000000000E+00 
    0.0000000000000000E+00     8.7499999999950118E-01     0.0000000000000000E+00 
    0.0000000000000000E+00     8.1249999999991318E-01     0.0000000000000000E+00 
    0.0000000000000000E+00     7.5000000000034706E-01     0.0000000000000000E+00 
    0.0000000000000000E+00     6.8750000000078049E-01     0.0000000000000000E+00 
    0.0000000000000000E+00     6.2500000000121403E-01     0.0000000000000000E+00 
    0.0000000000000000E+00     5.6250000000164757E-01     0.0000000000000000E+00 
    0.0000000000000000E+00     5.0000000000205946E-01     0.0000000000000000E+00 
    0.0000000000000000E+00     4.3750000000182099E-01     0.0000000000000000E+00 
    0.0000000000000000E+00     3.7500000000156092E-01     0.0000000000000000E+00 
    0.0000000000000000E+00     3.1250000000130068E-01     0.0000000000000000E+00 
    0.0000000000000000E+00     2.5000000000104050E-01     0.0000000000000000E+00 
    0.0000000000000000E+00     1.8750000000078040E-01     0.0000000000000000E+00 
    0.0000000000000000E+00     1.2500000000052031E-01     0.0000000000000000E+00 
    0.0000000000000000E+00     6.2500000000260125E-02     0.0000000000000000E+00 
    6.2499999999897131E-02     6.2500000000235922E-02     0.0000000000000000E+00 
    6.2499999999921327E-02     1.2500000000047351E-01     0.0000000000000000E+00 
    6.2499999999945530E-02     1.8750000000070621E-01     0.0000000000000000E+00 
    6.2499999999969733E-02     2.5000000000093858E-01     0.0000000000000000E+00 
    6.2499999999993928E-02     3.1250000000117117E-01     0.0000000000000000E+00 
    6.2500000000018124E-02     3.7500000000140382E-01     0.0000000000000000E+00 
    6.2500000000042327E-02     4.3750000000163619E-01     0.0000000000000000E+00 
    6.2500000000066530E-02     5.0000000000184897E-01     0.0000000000000000E+00 
    6.2500000000090733E-02     5.6250000000147260E-01     0.0000000000000000E+00 
    6.2500000000114922E-02     6.2500000000107636E-01     0.0000000000000000E+00 
    6.2500000000139125E-02     6.8750000000068034E-01     0.0000000000000000E+00 
    6.2500000000163328E-02     7.5000000000028411E-01     0.0000000000000000E+00 
    6.2500000000187531E-02     8.1249999999988787E-01     0.0000000000000000E+00 
    6.2500000000211720E-02     8.7499999999951172E-01     0.0000000000000000E+00 
    6.2500000000235922E-02     9.3749999999974565E-01     0.0000000000000000E+00 
    1.2499999999981980E-01     6.2500000000211733E-02     0.0000000000000000E+00 
    1.2499999999986650E-01     1.2500000000042691E-01     0.0000000000000000E+00 
    1.2499999999991319E-01     1.8750000000063199E-01     0.0000000000000000E+00 
    1.2499999999995989E-01     2.5000000000083678E-01     0.0000000000000000E+00 
    1.2500000000000661E-01     3.1250000000104172E-01     0.0000000000000000E+00 
    1.2500000000005329E-01     3.7500000000124661E-01     0.0000000000000000E+00 
    1.2500000000010000E-01     4.3750000000145117E-01     0.0000000000000000E+00 
    1.2500000000014669E-01     5.0000000000163858E-01     0.0000000000000000E+00 
    1.2500000000019340E-01     5.6250000000129741E-01     0.0000000000000000E+00 
    1.2500000000024011E-01     6.2500000000093847E-01     0.0000000000000000E+00 
    1.2500000000028680E-01     6.8750000000057998E-01     0.0000000000000000E+00 
    1.2500000000033351E-01     7.5000000000022127E-01     0.0000000000000000E+00 
    1.2500000000038020E-01     8.1249999999986211E-01     0.0000000000000000E+00 
    1.2500000000042691E-01     8.7499999999952238E-01     0.0000000000000000E+00 
    1.2500000000047359E-01     9.3749999999975164E-01     0.0000000000000000E+00 
    1.8749999999966760E-01     6.2500000000187531E-02     0.0000000000000000E+00 
    1.8749999999974179E-01     1.2500000000038020E-01     0.0000000000000000E+00 
    1.8749999999981601E-01     1.8750000000055780E-01     0.0000000000000000E+00 
    1.8749999999989009E-01     2.5000000000073502E-01     0.0000000000000000E+00 
    1.8749999999996431E-01     3.1250000000091221E-01     0.0000000000000000E+00 
    1.8750000000003850E-01     3.7500000000108941E-01     0.0000000000000000E+00 
    1.8750000000011269E-01     4.3750000000126649E-01     0.0000000000000000E+00 
    1.8750000000018691E-01     5.0000000000142808E-01     0.0000000000000000E+00 
    1.8750000000026110E-01     5.6250000000112244E-01     0.0000000000000000E+00 
    1.8750000000033529E-01     6.2500000000080080E-01     0.0000000000000000E+00 
    1.8750000000040951E-01     6.8750000000047962E-01     0.0000000000000000E+00 
    1.8750000000048361E-01     7.5000000000015843E-01     0.0000000000000000E+00 
    1.8750000000055780E-01     8.1249999999983680E-01     0.0000000000000000E+00 
    1.8750000000063199E-01     8.7499999999953304E-01     0.0000000000000000E+00 
    1.8750000000070621E-01     9.3749999999975764E-01     0.0000000000000000E+00 
    2.4999999999951281E-01     6.2500000000163314E-02     0.0000000000000000E+00 
    2.4999999999961461E-01     1.2500000000033351E-01     0.0000000000000000E+00 
    2.4999999999971650E-01     1.8750000000048361E-01     0.0000000000000000E+00 
    2.4999999999981831E-01     2.5000000000063310E-01     0.0000000000000000E+00 
    2.4999999999992020E-01     3.1250000000078260E-01     0.0000000000000000E+00 
    2.5000000000002198E-01     3.7500000000093209E-01     0.0000000000000000E+00 
    2.5000000000012390E-01     4.3750000000108180E-01     0.0000000000000000E+00 
    2.5000000000022571E-01     5.0000000000121769E-01     0.0000000000000000E+00 
    2.5000000000032763E-01     5.6250000000094724E-01     0.0000000000000000E+00 
    2.5000000000042938E-01     6.2500000000066314E-01     0.0000000000000000E+00 
    2.5000000000053119E-01     6.8750000000037925E-01     0.0000000000000000E+00 
[...]
CELL_DATA 256 
SCALARS Pressure double 1 
LOOKUP_TABLE default 

    8.9049543396786401E-01 
    8.8845282194838993E-01 
    8.8647820912649000E-01 
    8.8462896578324446E-01 
    8.8291122829231217E-01 
    8.8132695546757656E-01 
    8.7987690523649009E-01 
    8.7856156421434983E-01 
    8.7738152862493568E-01 
    8.7633765864610835E-01 
    8.7543107366363848E-01 
    8.7466290057388263E-01 
    8.7403336278271537E-01 
    8.7353880715500898E-01 
    8.7316664539771061E-01 
    8.7295214771166785E-01 
    8.5566270065671191E-01 
    8.5553954878224792E-01 
    8.5531845474355128E-01 
    8.5502733413419507E-01 
    8.5468595631186250E-01 
    8.5431128031684678E-01 
    8.5391813289386320E-01 
    8.5351956562900122E-01 
    8.5312707745723104E-01 
    8.5275072471838997E-01 
    8.5239906187327863E-01 
    8.5207869999729524E-01 
    8.5179281090186687E-01 
    8.5153733471949611E-01 
    8.5131379718874045E-01 
    8.5117853455767101E-01 
    8.1942225232478461E-01 
    8.1938521292009792E-01 
    8.1931345379024667E-01 
    8.1921117546885247E-01 
    8.1908291411299650E-01 
    8.1893332061237201E-01 
    8.1876707853135422E-01 
    8.1858878464753448E-01 
    8.1840278642644670E-01 
    8.1821291447489397E-01 
    8.1802192760996184E-01 
    8.1783014159569256E-01 
    8.1763220043138618E-01 
    8.1742285925492519E-01 
    8.1723947233147887E-01 
    8.1714483434227703E-01 
    7.7717303085176637E-01 
    7.7714538889217555E-01 
    7.7709134579340045E-01 
    7.7701310772137533E-01 
    7.7691299680221815E-01 
    7.7679328721648866E-01 
    7.7665613471598394E-01 
    7.7650343952742718E-01 
    7.7633655728367168E-01 
    7.7615565527007924E-01 
    7.7595819377564101E-01 
    7.7573615516152061E-01 
    7.7548514217651099E-01 
    7.7524084301684870E-01 
    7.7507272291683194E-01 
    7.7499714666855468E-01 
    7.2865767185230679E-01 
    7.2862739164096257E-01 
    7.2856736915202935E-01 
    7.2847870692488992E-01 
    7.2836243227765085E-01 
    7.2821922936005201E-01 
    7.2804916674541842E-01 
    7.2785118438943630E-01 
    7.2762208719708354E-01 
    7.2735516759645780E-01 
    7.2704353658749032E-01 
    7.2669860601287839E-01 
    7.2637128447492771E-01 
    7.2612859935888197E-01 
    7.2598563364349356E-01 
    7.2591976379202983E-01 
    6.7386850634528883E-01 
    6.7382587349315426E-01 
    6.7373948323765454E-01 
    6.7360782942503827E-01 
    6.7342854523950457E-01 
    6.7319799942827951E-01 
    6.7291147697314790E-01 
    6.7256545299728976E-01 
    6.7216388597598875E-01 
    6.7172575716875060E-01 
    6.7128883436772169E-01 
    6.7090975095677730E-01 
    6.7062996339947745E-01 
    6.7044579088678791E-01 
    6.7033161565811838E-01 
    6.7027483562047618E-01 
    6.1246320095275431E-01 
    6.1238340931376500E-01 
    6.1222300867983948E-01 
    6.1198392207688090E-01 
    6.1167291393733170E-01 
    6.1130319076655382E-01 
    6.1089478463366187E-01 
    6.1047403747057893E-01 
    6.1007289527146857E-01 
    6.0972491988639133E-01 
    6.0945472501466269E-01 
    6.0926527320031976E-01 
    6.0913541604903010E-01 
    6.0904344630683238E-01 
    6.0898239840387713E-01 
    6.0895190482363082E-01 
    5.4536706827000581E-01 
    5.4530879008200039E-01 
    5.4520354944197458E-01 
    5.4506824771684914E-01 
    5.4492102100479245E-01 
    5.4477995375336319E-01 
    5.4466186462213351E-01 
    5.4458005977518575E-01 
    5.4453986659278963E-01 
    5.4453377322221597E-01 
    5.4454452662153530E-01 
    5.4455748269328574E-01 
    5.4456726272415590E-01 
    5.4457378952403102E-01 
    5.4457775125684549E-01 
    5.4457961601936544E-01 
    4.7944379822269734E-01 
    4.7946145650711375E-01 
    4.7949980224364680E-01 
    4.7956150885948001E-01 
    4.7964592065043105E-01 
    4.7974788235884624E-01 
    4.7985834554960027E-01 
    4.7996706634240344E-01 
    4.8006612145667293E-01 
    4.8015171326805861E-01 
    4.8022325547314665E-01 
    4.8028142292790083E-01 
    4.8032700518141380E-01 
    4.8036063982077698E-01 
    4.8038280113958187E-01 
    4.8039380348777150E-01 
    4.1691639164039090E-01 
    4.1693359728278201E-01 
    4.1696345584328398E-01 
    4.1700043797829961E-01 
    4.1704024061266004E-01 
    4.1708006955735344E-01 
    4.1711833323981473E-01 
    4.1715415567627351E-01 
    4.1718698929584219E-01 
    4.1721642711767554E-01 
    4.1724214856772024E-01 
    4.1726390518320944E-01 
    4.1728150905507366E-01 
    4.1729482217361941E-01 
    4.1730374808412346E-01 
    4.1730822579506199E-01 
    3.5461196307744247E-01 
    3.5461350374330391E-01 
    3.5461640769380870E-01 
    3.5462041422274049E-01 
    3.5462524331643225E-01 
    3.5463061798446860E-01 
    3.5463627888580840E-01 
    3.5464199214245956E-01 
    3.5464755183481916E-01 
    3.5465277989797811E-01 
    3.5465752511960830E-01 
    3.5466166180097991E-01 
    3.5466508826057230E-01 
    3.5466772533062418E-01 
    3.5466951498521732E-01 
    3.5467041921193287E-01 
    2.9216266969993127E-01 
    2.9216193945646579E-01 
    2.9216050255052611E-01 
    2.9215840653128911E-01 
    2.9215572280562152E-01 
    2.9215254548290970E-01 
    2.9214898907307679E-01 
    2.9214518503839276E-01 
    2.9214127729382633E-01 
    2.9213741683117334E-01 
    2.9213375569735178E-01 
    2.9213044059665966E-01 
    2.9212760642013802E-01 
    2.9212537003346850E-01 
    2.9212382467407300E-01 
    2.9212303531227851E-01 
    2.2978640067035025E-01 
    2.2978104142059297E-01 
    2.2977050873715896E-01 
    2.2975516948293589E-01 
    2.2973556199919121E-01 
    2.2971238169347544E-01 
    2.2968646174545132E-01 
    2.2965874892255320E-01 
    2.2963027456150373E-01 
    2.2960212088121992E-01 
    2.2957538296214813E-01 
    2.2955112697526889E-01 
    2.2953034559451313E-01 
    2.2951391200890844E-01 
    2.2950253460283795E-01 
    2.2949671524133144E-01 
    1.6794605661212328E-01 
    1.6791748675237730E-01 
    1.6786117200268227E-01 
    1.6777875538674367E-01 
    1.6767268338988506E-01 
    1.6754618213485942E-01 
    1.6740322190521531E-01 
    1.6724846662180964E-01 
    1.6708720375260303E-01 
    1.6692524881004550E-01 
    1.6676881700767393E-01 
    1.6662435274152465E-01 
    1.6649830525373796E-01 
    1.6639683603093200E-01 
    1.6632544007518787E-01 
    1.6628845902419478E-01 
    1.0896269852778141E-01 
    1.0882842107905207E-01 
    1.0856202189253042E-01 
    1.0816787938249335E-01 
    1.0765273059718540E-01 
    1.0702588003800269E-01 
    1.0629948744098565E-01 
    1.0548894290099574E-01 
    1.0461334027858758E-01 
    1.0369606272007398E-01 
    1.0276549743076874E-01 
    1.0185590067126660E-01 
    1.0100843841465228E-01 
    1.0027243334652010E-01 
    9.9706855072152836E-02 
    9.9382097708244355E-02 
    6.3407085317159939E-02 
    6.2951529185058849E-02 
    6.2037204134022181E-02 
    6.0657630905406199E-02 
    5.8802955192024789E-02 
    5.6459781724597508E-02 
    5.3610947274042184E-02 
    5.0235227421823514E-02 
    4.6306970414810175E-02 
    4.1795649709151173E-02 
    3.6665324873384218E-02 
    3.0873998312045341E-02 
    2.4372852727116565E-02 
    1.7105351285314992E-02 
    9.0061790229030419E-03 
    0.0000000000000000E+00 

SCALARS Saturarion double 1 
LOOKUP_TABLE default 

    1.0000000000000000E+00 
    9.2514233237081789E-01 
    8.8265886861424625E-01 
    8.4477908309601746E-01 
    8.0923596508203866E-01 
    7.7506188730569947E-01 
    7.4164505040213058E-01 
    7.0848593362983736E-01 
    6.7508610634763744E-01 
    6.4085587716243508E-01 
    6.0497780090685860E-01 
    5.6610564983860967E-01 
    5.2147423323091957E-01 
    4.6341643209052691E-01 
    3.6158954836012447E-01 
    1.2360227789006002E-01 
    7.8366985848877824E-01 
    7.6235621754293725E-01 
    7.3876766202571986E-01 
    7.1511889934476813E-01 
    6.9138080238652178E-01 
    6.6741477848586961E-01 
    6.4302723706570519E-01 
    6.1795832283444263E-01 
    5.9184419713134517E-01 
    5.6413679446109111E-01 
    5.3392004967650319E-01 
    4.9942122536411065E-01 
    4.5643002902162316E-01 
    3.9185308064889313E-01 
    2.5230512988749981E-01 
    2.5818980764195698E-02 
    6.7290609764398479E-01 
    6.5875241446209976E-01 
    6.4189225372809988E-01 
    6.2426664188064851E-01 
    6.0610521760012681E-01 
    5.8733711447153614E-01 
    5.6778409475523695E-01 
    5.4717000539488236E-01 
    5.2506976314393516E-01 
    5.0077958541565104E-01 
    4.7298749081256408E-01 
    4.3879606875730409E-01 
    3.9025809027221198E-01 
    2.9939749279209638E-01 
    9.1707318571903076E-02 
    6.4881193522746058E-04 
    5.9279161105157985E-01 
    5.8204125081136493E-01 
    5.6872024653158348E-01 
    5.5438347733729898E-01 
    5.3929950387484638E-01 
    5.2341157474055933E-01 
    5.0651621278221481E-01 
    4.8826401653103763E-01 
    4.6806645441245959E-01 
    4.4483690340477378E-01 
    4.1624693093996290E-01 
    3.7627421856491822E-01 
    3.0546647556905032E-01 
    1.4205624004729517E-01 
    4.7801251913970715E-03 
    1.6916460677614650E-07 
    5.2585401227626694E-01 
    5.1702653443578239E-01 
    5.0580838556423324E-01 
    4.9340985060549691E-01 
    4.8005772528801677E-01 
    4.6565605437765195E-01 
    4.4990391865758039E-01 
    4.3223489396469017E-01 
    4.1156820540274869E-01 
    3.8558946215594031E-01 
    3.4843155919846847E-01 
    2.8186249145826348E-01 
    1.3907992810541953E-01 
    9.6839485941149425E-03 
    2.0281053174316825E-06 
    3.7793180956275839E-16 
    4.6194384236131608E-01 
    4.5393925225798820E-01 
    4.4355724952422876E-01 
    4.3168398700179150E-01 
    4.1838458732746037E-01 
    4.0332783890898821E-01 
    3.8574863492085310E-01 
    3.6407834780811088E-01 
    3.3485207456150878E-01 
    2.8950644140050991E-01 
    2.0743952772929397E-01 
    8.2967557560614122E-02 
    6.4576931113206667E-03 
    4.4140547846528999E-06 
    5.2758608184628268E-15 
    4.4360361776957102E-38 
    3.8771394534675047E-01 
    3.7838913725147821E-01 
    3.6578564932810487E-01 
    3.5024107942571869E-01 
    3.3102265110258738E-01 
    3.0638565376747307E-01 
    2.7304442890919212E-01 
    2.2567087860690896E-01 
    1.5982771459392731E-01 
    8.3268995092124487E-02 
    2.2342388244046500E-02 
    1.2439018632516663E-03 
    1.2512764094979803E-06 
    1.2277703060954510E-14 
    6.1870344692753019E-37 
    2.3852340472147480E-94 
    2.6679115382246110E-01 
    2.4822571822406270E-01 
    2.2225708584828058E-01 
    1.8992323233266517E-01 
    1.5191318631076040E-01 
    1.1017021185937872E-01 
    6.8551031144346158E-02 
    3.3032274421368801E-02 
    1.0168747702454874E-02 
    1.3675145521453368E-03 
    3.3547870553734666E-05 
    1.7033523492057446E-08 
    3.5385849351178962E-16 
    1.8023950106575767E-36 
    4.4403112675812542E-93 
   9.4513781314554168E-240 
    7.1046835699453706E-02 
    5.3590394970140301E-02 
    3.5484563032027530E-02 
    2.0375737670070011E-02 
    9.6875107274826382E-03 
    3.5238573936870669E-03 
    8.5441410808626624E-04 
    1.0797518858599129E-04 
    4.4610365132747588E-06 
    2.2161653765516345E-08 
    1.4461027562026654E-12 
    4.0560143147321133E-21 
    7.8795013078756728E-41 
    1.6626687636660744E-92 
   5.3940986037277301E-237 
    0.0000000000000000E+00 
    1.0787841870308940E-03 
    4.7543037494534056E-04 
    1.4893512751988291E-04 
    3.2664547556319429E-05 
    4.4726036517238676E-06 
    3.1082582561116411E-07 
    7.6524117614426452E-09 
    3.5124038127307615E-11 
    8.5571163705606943E-15 
    8.5927341014488027E-21 
    1.0455618025026144E-31 
    7.7744460270714824E-54 
   9.3717235782233081E-105 
   2.1092629883565272E-237 
    0.0000000000000000E+00 
    0.0000000000000000E+00 
    1.9637845026550003E-08 
    2.3385222048870734E-09 
    1.1562110512724205E-10 
    2.2842515595797852E-12 
    1.3298376540930928E-14 
    1.3253683597099673E-17 
    8.8823797560695309E-22 
    7.2183267077286602E-28 
    2.7770067044117818E-37 
    6.3994970228702560E-53 
    1.9431486766619044E-81 
   3.7271063544922296E-139 
   4.7188698291152649E-271 
    0.0000000000000000E+00 
    0.0000000000000000E+00 
    0.0000000000000000E+00 
    2.4897613604065370E-20 
    1.0290089592162793E-22 
    4.3506893212318750E-26 
    1.7030557151684495E-30 
    2.8124451397660368E-36 
    4.7463547686364328E-44 
    6.7186315608306149E-55 
    9.1901278457931122E-71 
    2.5348646126286055E-95 
   2.2574741224003829E-136 
   8.6454253349186081E-211 
    0.0000000000000000E+00 
    0.0000000000000000E+00 
    0.0000000000000000E+00 
    0.0000000000000000E+00 
    0.0000000000000000E+00 
    4.0847092265502399E-50 
    2.8660243257648335E-56 
    5.3861961113464800E-65 
    2.1625129989867835E-76 
    2.3234833567099646E-91 
   1.5043145594922883E-111 
   8.8277316826328793E-140 
   3.9728360802662652E-181 
   1.8336010495683716E-245 
    0.0000000000000000E+00 
    0.0000000000000000E+00 
    0.0000000000000000E+00 
    0.0000000000000000E+00 
    0.0000000000000000E+00 
    0.0000000000000000E+00 
    0.0000000000000000E+00 
   1.1856687375535002E-124 
   1.4823370643813667E-140 
   4.0360034538368637E-163 
   1.3690092563778457E-192 
   2.4392262780305446E-231 
   1.2791049316464529E-283 
    0.0000000000000000E+00 
    0.0000000000000000E+00 
    0.0000000000000000E+00 
    0.0000000000000000E+00 
    0.0000000000000000E+00 
    0.0000000000000000E+00 
    0.0000000000000000E+00 
    0.0000000000000000E+00 
    0.0000000000000000E+00 
    0.0000000000000000E+00 
   1.0756696551264441E-310 
    0.0000000000000000E+00 
    0.0000000000000000E+00 
    0.0000000000000000E+00 
    0.0000000000000000E+00 
    0.0000000000000000E+00 
    0.0000000000000000E+00 
    0.0000000000000000E+00 
    0.0000000000000000E+00 
    0.0000000000000000E+00 
    0.0000000000000000E+00 
    0.0000000000000000E+00 
    0.0000000000000000E+00 
    0.0000000000000000E+00 
    0.0000000000000000E+00 
    0.0000000000000000E+00 
    0.0000000000000000E+00 
    0.0000000000000000E+00 
    0.0000000000000000E+00 
    0.0000000000000000E+00 
    0.0000000000000000E+00 
    0.0000000000000000E+00 
    0.0000000000000000E+00 
    0.0000000000000000E+00 
    0.0000000000000000E+00 
    0.0000000000000000E+00 
    0.0000000000000000E+00 
    0.0000000000000000E+00 
    0.0000000000000000E+00 
    0.0000000000000000E+00 
    0.0000000000000000E+00 
    0.0000000000000000E+00 
