# vtk DataFile Version 2.0
Pressure Field Data 
ASCII 
DATASET UNSTRUCTURED_GRID 

POINTS 289 double 

    0.0000000000000000E+00     0.0000000000000000E+00     0.0000000000000000E+00 
    1.0000000000000000E+00     0.0000000000000000E+00     0.0000000000000000E+00 
    1.0000000000000000E+00     1.0000000000000000E+00     0.0000000000000000E+00 
    0.0000000000000000E+00     1.0000000000000000E+00     0.0000000000000000E+00 
    6.2499999999872928E-02     0.0000000000000000E+00     0.0000000000000000E+00 
    1.2499999999977310E-01     0.0000000000000000E+00     0.0000000000000000E+00 
    1.8749999999959341E-01     0.0000000000000000E+00     0.0000000000000000E+00 
    2.4999999999941089E-01     0.0000000000000000E+00     0.0000000000000000E+00 
    3.1249999999922851E-01     0.0000000000000000E+00     0.0000000000000000E+00 
    3.7499999999904610E-01     0.0000000000000000E+00     0.0000000000000000E+00 
    4.3749999999886358E-01     0.0000000000000000E+00     0.0000000000000000E+00 
    4.9999999999869210E-01     0.0000000000000000E+00     0.0000000000000000E+00 
    5.6249999999884603E-01     0.0000000000000000E+00     0.0000000000000000E+00 
    6.2499999999901090E-01     0.0000000000000000E+00     0.0000000000000000E+00 
    6.8749999999917577E-01     0.0000000000000000E+00     0.0000000000000000E+00 
    7.4999999999934064E-01     0.0000000000000000E+00     0.0000000000000000E+00 
    8.1249999999950551E-01     0.0000000000000000E+00     0.0000000000000000E+00 
    8.7499999999967026E-01     0.0000000000000000E+00     0.0000000000000000E+00 
    9.3749999999983513E-01     0.0000000000000000E+00     0.0000000000000000E+00 
    1.0000000000000000E+00     6.2499999999872928E-02     0.0000000000000000E+00 
    1.0000000000000000E+00     1.2499999999977310E-01     0.0000000000000000E+00 
    1.0000000000000000E+00     1.8749999999959341E-01     0.0000000000000000E+00 
    1.0000000000000000E+00     2.4999999999941089E-01     0.0000000000000000E+00 
    1.0000000000000000E+00     3.1249999999922851E-01     0.0000000000000000E+00 
    1.0000000000000000E+00     3.7499999999904610E-01     0.0000000000000000E+00 
    1.0000000000000000E+00     4.3749999999886358E-01     0.0000000000000000E+00 
    1.0000000000000000E+00     4.9999999999869210E-01     0.0000000000000000E+00 
    1.0000000000000000E+00     5.6249999999884603E-01     0.0000000000000000E+00 
    1.0000000000000000E+00     6.2499999999901090E-01     0.0000000000000000E+00 
    1.0000000000000000E+00     6.8749999999917577E-01     0.0000000000000000E+00 
    1.0000000000000000E+00     7.4999999999934064E-01     0.0000000000000000E+00 
    1.0000000000000000E+00     8.1249999999950551E-01     0.0000000000000000E+00 
    1.0000000000000000E+00     8.7499999999967026E-01     0.0000000000000000E+00 
    1.0000000000000000E+00     9.3749999999983513E-01     0.0000000000000000E+00 
    9.3749999999973976E-01     1.0000000000000000E+00     0.0000000000000000E+00 
    8.7499999999950118E-01     1.0000000000000000E+00     0.0000000000000000E+00 
    8.1249999999991318E-01     1.0000000000000000E+00     0.0000000000000000E+00 
    7.5000000000034706E-01     1.0000000000000000E+00     0.0000000000000000E+00 
    6.8750000000078049E-01     1.0000000000000000E+00     0.0000000000000000E+00 
    6.2500000000121403E-01     1.0000000000000000E+00     0.0000000000000000E+00 
    5.6250000000164757E-01     1.0000000000000000E+00     0.0000000000000000E+00 
    5.0000000000205946E-01     1.0000000000000000E+00     0.0000000000000000E+00 
    4.3750000000182099E-01     1.0000000000000000E+00     0.0000000000000000E+00 
    3.7500000000156092E-01     1.0000000000000000E+00     0.0000000000000000E+00 
    3.1250000000130068E-01     1.0000000000000000E+00     0.0000000000000000E+00 
    2.5000000000104050E-01     1.0000000000000000E+00     0.0000000000000000E+00 
    1.8750000000078040E-01     1.0000000000000000E+00     0.0000000000000000E+00 
    1.2500000000052031E-01     1.0000000000000000E+00     0.0000000000000000E+00 
    6.2500000000260125E-02     1.0000000000000000E+00     0.0000000000000000E+00 
    0.0000000000000000E+00     9.3749999999973976E-01     0.0000000000000000E+00 
    0.0000000000000000E+00     8.7499999999950118E-01     0.0000000000000000E+00 
    0.0000000000000000E+00     8.1249999999991318E-01     0.0000000000000000E+00 
    0.0000000000000000E+00     7.5000000000034706E-01     0.0000000000000000E+00 
    0.0000000000000000E+00     6.8750000000078049E-01     0.0000000000000000E+00 
    0.0000000000000000E+00     6.2500000000121403E-01     0.0000000000000000E+00 
    0.0000000000000000E+00     5.6250000000164757E-01     0.0000000000000000E+00 
    0.0000000000000000E+00     5.0000000000205946E-01     0.0000000000000000E+00 
    0.0000000000000000E+00     4.3750000000182099E-01     0.0000000000000000E+00 
    0.0000000000000000E+00     3.7500000000156092E-01     0.0000000000000000E+00 
    0.0000000000000000E+00     3.1250000000130068E-01     0.0000000000000000E+00 
    0.0000000000000000E+00     2.5000000000104050E-01     0.0000000000000000E+00 
    0.0000000000000000E+00     1.8750000000078040E-01     0.0000000000000000E+00 
    0.0000000000000000E+00     1.2500000000052031E-01     0.0000000000000000E+00 
    0.0000000000000000E+00     6.2500000000260125E-02     0.0000000000000000E+00 
    6.2499999999897131E-02     6.2500000000235922E-02     0.0000000000000000E+00 
    6.2499999999921327E-02     1.2500000000047351E-01     0.0000000000000000E+00 
    6.2499999999945530E-02     1.8750000000070621E-01     0.0000000000000000E+00 
    6.2499999999969733E-02     2.5000000000093858E-01     0.0000000000000000E+00 
    6.2499999999993928E-02     3.1250000000117117E-01     0.0000000000000000E+00 
    6.2500000000018124E-02     3.7500000000140382E-01     0.0000000000000000E+00 
    6.2500000000042327E-02     4.3750000000163619E-01     0.0000000000000000E+00 
    6.2500000000066530E-02     5.0000000000184897E-01     0.0000000000000000E+00 
    6.2500000000090733E-02     5.6250000000147260E-01     0.0000000000000000E+00 
    6.2500000000114922E-02     6.2500000000107636E-01     0.0000000000000000E+00 
    6.2500000000139125E-02     6.8750000000068034E-01     0.0000000000000000E+00 
    6.2500000000163328E-02     7.5000000000028411E-01     0.0000000000000000E+00 
    6.2500000000187531E-02     8.1249999999988787E-01     0.0000000000000000E+00 
    6.2500000000211720E-02     8.7499999999951172E-01     0.0000000000000000E+00 
    6.2500000000235922E-02     9.3749999999974565E-01     0.0000000000000000E+00 
    1.2499999999981980E-01     6.2500000000211733E-02     0.0000000000000000E+00 
    1.2499999999986650E-01     1.2500000000042691E-01     0.0000000000000000E+00 
    1.2499999999991319E-01     1.8750000000063199E-01     0.0000000000000000E+00 
    1.2499999999995989E-01     2.5000000000083678E-01     0.0000000000000000E+00 
    1.2500000000000661E-01     3.1250000000104172E-01     0.0000000000000000E+00 
    1.2500000000005329E-01     3.7500000000124661E-01     0.0000000000000000E+00 
    1.2500000000010000E-01     4.3750000000145117E-01     0.0000000000000000E+00 
    1.2500000000014669E-01     5.0000000000163858E-01     0.0000000000000000E+00 
    1.2500000000019340E-01     5.6250000000129741E-01     0.0000000000000000E+00 
    1.2500000000024011E-01     6.2500000000093847E-01     0.0000000000000000E+00 
    1.2500000000028680E-01     6.8750000000057998E-01     0.0000000000000000E+00 
    1.2500000000033351E-01     7.5000000000022127E-01     0.0000000000000000E+00 
    1.2500000000038020E-01     8.1249999999986211E-01     0.0000000000000000E+00 
    1.2500000000042691E-01     8.7499999999952238E-01     0.0000000000000000E+00 
    1.2500000000047359E-01     9.3749999999975164E-01     0.0000000000000000E+00 
    1.8749999999966760E-01     6.2500000000187531E-02     0.0000000000000000E+00 
    1.8749999999974179E-01     1.2500000000038020E-01     0.0000000000000000E+00 
    1.8749999999981601E-01     1.8750000000055780E-01     0.0000000000000000E+00 
    1.8749999999989009E-01     2.5000000000073502E-01     0.0000000000000000E+00 
    1.8749999999996431E-01     3.1250000000091221E-01     0.0000000000000000E+00 
    1.8750000000003850E-01     3.7500000000108941E-01     0.0000000000000000E+00 
    1.8750000000011269E-01     4.3750000000126649E-01     0.0000000000000000E+00 
    1.8750000000018691E-01     5.0000000000142808E-01     0.0000000000000000E+00 
    1.8750000000026110E-01     5.6250000000112244E-01     0.0000000000000000E+00 
    1.8750000000033529E-01     6.2500000000080080E-01     0.0000000000000000E+00 
    1.8750000000040951E-01     6.8750000000047962E-01     0.0000000000000000E+00 
    1.8750000000048361E-01     7.5000000000015843E-01     0.0000000000000000E+00 
    1.8750000000055780E-01     8.1249999999983680E-01     0.0000000000000000E+00 
    1.8750000000063199E-01     8.7499999999953304E-01     0.0000000000000000E+00 
    1.8750000000070621E-01     9.3749999999975764E-01     0.0000000000000000E+00 
    2.4999999999951281E-01     6.2500000000163314E-02     0.0000000000000000E+00 
    2.4999999999961461E-01     1.2500000000033351E-01     0.0000000000000000E+00 
    2.4999999999971650E-01     1.8750000000048361E-01     0.0000000000000000E+00 
    2.4999999999981831E-01     2.5000000000063310E-01     0.0000000000000000E+00 
    2.4999999999992020E-01     3.1250000000078260E-01     0.0000000000000000E+00 
    2.5000000000002198E-01     3.7500000000093209E-01     0.0000000000000000E+00 
    2.5000000000012390E-01     4.3750000000108180E-01     0.0000000000000000E+00 
    2.5000000000022571E-01     5.0000000000121769E-01     0.0000000000000000E+00 
    2.5000000000032763E-01     5.6250000000094724E-01     0.0000000000000000E+00 
    2.5000000000042938E-01     6.2500000000066314E-01     0.0000000000000000E+00 
    2.5000000000053119E-01     6.8750000000037925E-01     0.0000000000000000E+00 
[...]
CELL_DATA 256 
SCALARS Pressure double 1 
LOOKUP_TABLE default 

    9.6902675980043396E-01 
    9.6674939498811108E-01 
    9.6425212727699561E-01 
    9.6175395448476275E-01 
    9.5930007141688312E-01 
    9.5691405461351009E-01 
    9.5460714526248380E-01 
    9.5237897964380258E-01 
    9.5021710971322015E-01 
    9.4811741352179979E-01 
    9.4608682523834531E-01 
    9.4426420725017257E-01 
    9.4286276025152382E-01 
    9.4185899495870773E-01 
    9.4119256402664475E-01 
    9.4086003795895956E-01 
    9.2058071766134442E-01 
    9.2030385999760211E-01 
    9.1976771239466482E-01 
    9.1903207988875768E-01 
    9.1812214968535633E-01 
    9.1705624356085258E-01 
    9.1585415691947758E-01 
    9.1454643111858946E-01 
    9.1317482431971297E-01 
    9.1181701371720159E-01 
    9.1058824640222868E-01 
    9.0956657195001922E-01 
    9.0877399348566801E-01 
    9.0819106607742806E-01 
    9.0780207800376223E-01 
    9.0760743119080223E-01 
    8.6262844657974169E-01 
    8.6243245394310741E-01 
    8.6204054282258658E-01 
    8.6146972914347275E-01 
    8.6075008236239292E-01 
    8.5992345114899205E-01 
    8.5904530522075651E-01 
    8.5818312124222407E-01 
    8.5739827541449321E-01 
    8.5673088018323740E-01 
    8.5619099082278927E-01 
    8.5575766008299581E-01 
    8.5541215667880743E-01 
    8.5515172717367771E-01 
    8.5497746609042169E-01 
    8.5489014312907963E-01 
    7.9551817097887989E-01 
    7.9540248057828866E-01 
    7.9519568166743348E-01 
    7.9493622565507860E-01 
    7.9466298448050221E-01 
    7.9440904107766930E-01 
    7.9419660737311237E-01 
    7.9403163225578588E-01 
    7.9390353664281899E-01 
    7.9379641070793883E-01 
    7.9370155620762295E-01 
    7.9361843961263689E-01 
    7.9354914463475967E-01 
    7.9349554616135287E-01 
    7.9345904198561645E-01 
    7.9344055893869536E-01 
    7.2953276283300361E-01 
    7.2954942414346480E-01 
    7.2958689156448964E-01 
    7.2964615355010254E-01 
    7.2972122797011929E-01 
    7.2980162553019590E-01 
    7.2987731853855908E-01 
    7.2994250391046989E-01 
    7.2999585758205165E-01 
    7.3003843243450350E-01 
    7.3007180961990015E-01 
    7.3009742649696341E-01 
    7.3011648215126868E-01 
    7.3012993538196613E-01 
    7.3013850499929644E-01 
    7.3014267006497335E-01 
    6.6696582015861294E-01 
    6.6698247357237295E-01 
    6.6700972963894256E-01 
    6.6704119265212003E-01 
    6.6707302655295997E-01 
    6.6710344312107495E-01 
    6.6713169925547522E-01 
    6.6715745333200238E-01 
    6.6718050843671084E-01 
    6.6720074433039467E-01 
    6.6721809568040580E-01 
    6.6723253565715213E-01 
    6.6724406202860653E-01 
    6.6725268593930587E-01 
    6.6725842317833695E-01 
    6.6726128777063765E-01 
    6.0461605260344731E-01 
    6.0461748535479665E-01 
    6.0462012752757943E-01 
    6.0462369788290915E-01 
    6.0462793535301174E-01 
    6.0463259833745331E-01 
    6.0463746832673249E-01 
    6.0464235197686800E-01 
    6.0464708090011188E-01 
    6.0465151059380040E-01 
    6.0465551906738935E-01 
    6.0465900534653028E-01 
    6.0466188798144171E-01 
    6.0466410366348033E-01 
    6.0466560603040487E-01 
    6.0466636472077839E-01 
    5.4213858283449201E-01 
    5.4213876984789355E-01 
    5.4213913303319883E-01 
    5.4213965273715581E-01 
    5.4214030293578341E-01 
    5.4214105335414153E-01 
    5.4214187131450098E-01 
    5.4214272331093205E-01 
    5.4214357631903343E-01 
    5.4214439886712396E-01 
    5.4214516189918738E-01 
    5.4214583945885220E-01 
    5.4214640922154544E-01 
    5.4214685289908104E-01 
    5.4214715653752876E-01 
    5.4214731072541178E-01 
    4.7964241197603580E-01 
    4.7964243724635813E-01 
    4.7964248667703835E-01 
    4.7964255812431089E-01 
    4.7964264854547733E-01 
    4.7964275417069219E-01 
    4.7964287069511219E-01 
    4.7964299347807421E-01 
    4.7964311773910001E-01 
    4.7964323874329540E-01 
    4.7964335197101871E-01 
    4.7964345326852115E-01 
    4.7964353897765372E-01 
    4.7964360604374123E-01 
    4.7964365210139781E-01 
    4.7964367553844428E-01 
    4.1714371406592538E-01 
    4.1714368860888945E-01 
    4.1714363866157705E-01 
    4.1714356612202075E-01 
    4.1714347375027411E-01 
    4.1714336506676430E-01 
    4.1714324422156240E-01 
    4.1714311583889468E-01 
    4.1714298484230300E-01 
    4.1714285626679776E-01 
    4.1714273506508176E-01 
    4.1714262591537171E-01 
    4.1714253303849663E-01 
    4.1714246003176642E-01 
    4.1714240972655936E-01 
    4.1714238407570697E-01 
    3.5464756184375235E-01 
    3.5464738899908471E-01 
    3.5464704987049983E-01 
    3.5464655733875289E-01 
    3.5464593013141293E-01 
    3.5464519213205203E-01 
    3.5464437149455735E-01 
    3.5464349959212743E-01 
    3.5464260983685408E-01 
    3.5464173641136693E-01 
    3.5464091295856381E-01 
    3.5464017127870934E-01 
    3.5463954008487397E-01 
    3.5463904386747436E-01 
    3.5463870191627450E-01 
    3.5463852754337538E-01 
    2.9216869407646590E-01 
    2.9216771778098732E-01 
    2.9216580139565346E-01 
    2.9216301611478285E-01 
    2.9215946571465640E-01 
    2.9215528301068039E-01 
    2.9215062526107177E-01 
    2.9214566862970609E-01 
    2.9214060185275831E-01 
    2.9213561928755089E-01 
    2.9213091355719140E-01 
    2.9212666804011050E-01 
    2.9212304948770690E-01 
    2.9212020108316539E-01 
    2.9211823627590883E-01 
    2.9211723373303405E-01 
    2.2978745584886995E-01 
    2.2978205554845113E-01 
    2.2977144247444897E-01 
    2.2975598681642367E-01 
    2.2973623168282323E-01 
    2.2971287845259081E-01 
    2.2968676720329359E-01 
    2.2965885222548188E-01 
    2.2963017269464173E-01 
    2.2960181867893611E-01 
    2.2957489282795587E-01 
    2.2955046833377848E-01 
    2.2952954410435369E-01 
    2.2951299857034219E-01 
    2.2950154419739000E-01 
    2.2949568564337530E-01 
    1.6794624765878341E-01 
    1.6791767067424246E-01 
    1.6786134195554184E-01 
    1.6777890507557269E-01 
    1.6767280731420850E-01 
    1.6754627580095077E-01 
    1.6740328199695700E-01 
    1.6724849112406068E-01 
    1.6708719202306416E-01 
    1.6692520159776589E-01 
    1.6676873641842210E-01 
    1.6662424215218460E-01 
    1.6649816917964269E-01 
    1.6639667995158322E-01 
    1.6632527022510793E-01 
    1.6628828215670524E-01 
    1.0896273792208080E-01 
    1.0882845921599302E-01 
    1.0856205756344689E-01 
    1.0816791147417235E-01 
    1.0765275813484904E-01 
    1.0702590222282934E-01 
    1.0629950368072121E-01 
    1.0548895283249525E-01 
    1.0461334378145755E-01 
    1.0369605992094065E-01 
    1.0276548869806314E-01 
    1.0185588660077843E-01 
    1.0100841980644916E-01 
    1.0027241117414437E-01 
    9.9706830445286207E-02 
    9.9382071830262500E-02 
    6.3407098794944897E-02 
    6.2951542403678659E-02 
    6.2037216844293641E-02 
    6.0657642877722864E-02 
    5.8802966225193043E-02 
    5.6459791653572386E-02 
    5.3610955976265175E-02 
    5.0235234821919501E-02 
    4.6306976487465137E-02 
    4.1795654480062949E-02 
    3.6665328418253262E-02 
    3.0874000753647376E-02 
    2.4372854230572505E-02 
    1.7105352051741428E-02 
    9.0061792816879989E-03 
    0.0000000000000000E+00 

SCALARS Saturarion double 1 
LOOKUP_TABLE default 

    1.0000000000000000E+00 
    8.3269517319895747E-01 
    7.5649051814275770E-01 
    6.9620490357505882E-01 
    6.4425420289713797E-01 
    5.9717909077288800E-01 
    5.5267320346218995E-01 
    5.0850402589402421E-01 
    4.6130932931955371E-01 
    4.0337521835357709E-01 
    3.0964273714793644E-01 
    1.1993502010633389E-01 
    3.9370097656085540E-03 
    3.3854125730477020E-07 
    2.2450604134662810E-17 
    1.2870955945252469E-42 
    6.3937227479914238E-01 
    6.0135353135719805E-01 
    5.6163770829552262E-01 
    5.2400382315667737E-01 
    4.8689989431172087E-01 
    4.4840090315975839E-01 
    4.0542808533312702E-01 
    3.5166189686737459E-01 
    2.7192563508544759E-01 
    1.4554608618920123E-01 
    3.4218889415120170E-02 
    1.1439420182838504E-03 
    1.3514558700022255E-07 
    1.4486446346762422E-17 
    1.9187585063333464E-42 
   6.0430387814420708E-104 
    4.4716109677567484E-01 
    4.2067601769841401E-01 
    3.8733109869918586E-01 
    3.4873371448509211E-01 
    3.0252156121840024E-01 
    2.4429514981057973E-01 
    1.7125778118384927E-01 
    9.3371972967228184E-02 
    3.2597641001540945E-02 
    4.2758460713654637E-03 
    9.1532147900522074E-05 
    1.5038497325579164E-08 
    2.9043309241382850E-18 
    8.7096449798892447E-43 
   9.8677866822120872E-104 
   4.0551952034942723E-254 
    2.5011417955922888E-01 
    2.1378559329816321E-01 
    1.6681025411207995E-01 
    1.1718184330224972E-01 
    7.1052730011293419E-02 
    3.4233775198410740E-02 
    1.1302479985705917E-02 
    2.0293720886000351E-03 
    1.2170722819614723E-04 
    8.3577186025106744E-07 
    9.5470734158412537E-11 
    4.1033247638412696E-20 
    4.0277997186139255E-44 
   2.2115306523729480E-104 
   8.7155942352971705E-254 
    0.0000000000000000E+00 
    4.9245057361292935E-02 
    2.9559057901558487E-02 
    1.3759544578276776E-02 
    4.9625720072447241E-03 
    1.2646847833520719E-03 
    1.9046647951177943E-04 
    1.2557059742757806E-05 
    2.1447858575430584E-07 
    2.8024019210979899E-10 
    3.1715852347079716E-15 
    1.4460610478885806E-24 
    8.1141025826459849E-48 
   4.8385817628753327E-107 
   4.4053619598307350E-255 
    0.0000000000000000E+00 
    0.0000000000000000E+00 
    6.1458673540809865E-04 
    1.6729141248229376E-04 
    2.5706441102020040E-05 
    2.2925239233925321E-06 
    9.5435587202339726E-08 
    1.2370333088926917E-09 
    2.5798350053119212E-12 
    2.4134654888533234E-16 
    5.5390433105611578E-23 
    3.7490415815847376E-34 
    8.6103364680779666E-57 
   1.9262723441218439E-114 
   2.0288879842758603E-260 
    0.0000000000000000E+00 
    0.0000000000000000E+00 
    0.0000000000000000E+00 
    2.5831894530582568E-08 
    1.3402024493636633E-09 
    1.9600919803558256E-11 
    8.7008182757844989E-14 
    7.0721952595822786E-17 
    4.2616423495764579E-21 
    4.2306924233479825E-27 
    2.8526070990230755E-36 
    2.0881999362457796E-51 
    9.0170222497400435E-77 
   1.8841815953642916E-132 
   3.2736837868228266E-275 
    0.0000000000000000E+00 
    0.0000000000000000E+00 
    0.0000000000000000E+00 
    0.0000000000000000E+00 
    7.1636941984151066E-18 
    1.0322875530237001E-20 
    9.0228555125182704E-25 
    5.5670589345082561E-30 
    7.6106181530174216E-37 
    3.1038226302678324E-46 
    1.0889813265777378E-59 
    1.2992291863398785E-80 
   1.0729581404251790E-114 
   2.8745694272031726E-173 
   2.7226651757191462E-311 
    0.0000000000000000E+00 
    0.0000000000000000E+00 
    0.0000000000000000E+00 
    0.0000000000000000E+00 
    0.0000000000000000E+00 
    1.7678955061393574E-38 
    1.0044590708446383E-44 
    1.1377510478361624E-53 
    3.4700350945833365E-65 
    2.1179061691593680E-80 
   2.9664984860843544E-101 
   1.7679025382470690E-131 
   4.6791839484186957E-179 
   4.3935746850478452E-255 
    0.0000000000000000E+00 
    0.0000000000000000E+00 
    0.0000000000000000E+00 
    0.0000000000000000E+00 
    0.0000000000000000E+00 
    0.0000000000000000E+00 
    0.0000000000000000E+00 
    8.9722810023691203E-83 
    1.7966287188857394E-96 
   3.7029208960322467E-116 
   1.4560851778004465E-141 
   3.5001126620092596E-175 
   1.9333209490053903E-221 
   1.7936859795425703E-289 
    0.0000000000000000E+00 
    0.0000000000000000E+00 
    0.0000000000000000E+00 
    0.0000000000000000E+00 
    0.0000000000000000E+00 
    0.0000000000000000E+00 
    0.0000000000000000E+00 
    0.0000000000000000E+00 
    0.0000000000000000E+00 
   9.3952460698315841E-178 
   1.0137427342645504E-207 
   6.0334824464265328E-251 
   7.4823852966441413E-307 
    0.0000000000000000E+00 
    0.0000000000000000E+00 
    0.0000000000000000E+00 
    0.0000000000000000E+00 
    0.0000000000000000E+00 
    0.0000000000000000E+00 
    0.0000000000000000E+00 
    0.0000000000000000E+00 
    0.0000000000000000E+00 
    0.0000000000000000E+00 
    0.0000000000000000E+00 
    0.0000000000000000E+00 
    0.0000000000000000E+00 
    0.0000000000000000E+00 
    0.0000000000000000E+00 
    0.0000000000000000E+00 
    0.0000000000000000E+00 
    0.0000000000000000E+00 
    0.0000000000000000E+00 
    0.0000000000000000E+00 
    0.0000000000000000E+00 
    0.0000000000000000E+00 
    0.0000000000000000E+00 
    0.0000000000000000E+00 
    0.0000000000000000E+00 
    0.0000000000000000E+00 
    0.0000000000000000E+00 
    0.0000000000000000E+00 
    0.0000000000000000E+00 
    0.0000000000000000E+00 
    0.0000000000000000E+00 
    0.0000000000000000E+00 
    0.0000000000000000E+00 
    0.0000000000000000E+00 
    0.0000000000000000E+00 
    0.0000000000000000E+00 
    0.0000000000000000E+00 
    0.0000000000000000E+00 
    0.0000000000000000E+00 
    0.0000000000000000E+00 
    0.0000000000000000E+00 
    0.0000000000000000E+00 
    0.0000000000000000E+00 
    0.0000000000000000E+00 
    0.0000000000000000E+00 
    0.0000000000000000E+00 
    0.0000000000000000E+00 
    0.0000000000000000E+00 
    0.0000000000000000E+00 
    0.0000000000000000E+00 
    0.0000000000000000E+00 
    0.0000000000000000E+00 
    0.0000000000000000E+00 
    0.0000000000000000E+00 
    0.0000000000000000E+00 
    0.0000000000000000E+00 
    0.0000000000000000E+00 
    0.0000000000000000E+00 
    0.0000000000000000E+00 
    0.0000000000000000E+00 
    0.0000000000000000E+00 
    0.0000000000000000E+00 
    0.0000000000000000E+00 
    0.0000000000000000E+00 
    0.0000000000000000E+00 
    0.0000000000000000E+00 
    0.0000000000000000E+00 
    0.0000000000000000E+00 
    0.0000000000000000E+00 
    0.0000000000000000E+00 
    0.0000000000000000E+00 
    0.0000000000000000E+00 
    0.0000000000000000E+00 
    0.0000000000000000E+00 
    0.0000000000000000E+00 
    0.0000000000000000E+00 
    0.0000000000000000E+00 
    0.0000000000000000E+00 
    0.0000000000000000E+00 
    0.0000000000000000E+00 
    0.0000000000000000E+00 
    0.0000000000000000E+00 
    0.0000000000000000E+00 
    0.0000000000000000E+00 
    0.0000000000000000E+00 
    0.0000000000000000E+00 
    0.0000000000000000E+00 
    0.0000000000000000E+00 
    0.0000000000000000E+00 
    0.0000000000000000E+00 
    0.0000000000000000E+00 
    0.0000000000000000E+00 
