# vtk DataFile Version 2.0
Pressure Field Data 
ASCII 
DATASET UNSTRUCTURED_GRID 

POINTS 289 double 

    0.0000000000000000E+00     0.0000000000000000E+00     0.0000000000000000E+00 
    1.0000000000000000E+00     0.0000000000000000E+00     0.0000000000000000E+00 
    1.0000000000000000E+00     1.0000000000000000E+00     0.0000000000000000E+00 
    0.0000000000000000E+00     1.0000000000000000E+00     0.0000000000000000E+00 
    6.2499999999872928E-02     0.0000000000000000E+00     0.0000000000000000E+00 
    1.2499999999977310E-01     0.0000000000000000E+00     0.0000000000000000E+00 
    1.8749999999959341E-01     0.0000000000000000E+00     0.0000000000000000E+00 
    2.4999999999941089E-01     0.0000000000000000E+00     0.0000000000000000E+00 
    3.1249999999922851E-01     0.0000000000000000E+00     0.0000000000000000E+00 
    3.7499999999904610E-01     0.0000000000000000E+00     0.0000000000000000E+00 
    4.3749999999886358E-01     0.0000000000000000E+00     0.0000000000000000E+00 
    4.9999999999869210E-01     0.0000000000000000E+00     0.0000000000000000E+00 
    5.6249999999884603E-01     0.0000000000000000E+00     0.0000000000000000E+00 
    6.2499999999901090E-01     0.0000000000000000E+00     0.0000000000000000E+00 
    6.8749999999917577E-01     0.0000000000000000E+00     0.0000000000000000E+00 
    7.4999999999934064E-01     0.0000000000000000E+00     0.0000000000000000E+00 
    8.1249999999950551E-01     0.0000000000000000E+00     0.0000000000000000E+00 
    8.7499999999967026E-01     0.0000000000000000E+00     0.0000000000000000E+00 
    9.3749999999983513E-01     0.0000000000000000E+00     0.0000000000000000E+00 
    1.0000000000000000E+00     6.2499999999872928E-02     0.0000000000000000E+00 
    1.0000000000000000E+00     1.2499999999977310E-01     0.0000000000000000E+00 
    1.0000000000000000E+00     1.8749999999959341E-01     0.0000000000000000E+00 
    1.0000000000000000E+00     2.4999999999941089E-01     0.0000000000000000E+00 
    1.0000000000000000E+00     3.1249999999922851E-01     0.0000000000000000E+00 
    1.0000000000000000E+00     3.7499999999904610E-01     0.0000000000000000E+00 
    1.0000000000000000E+00     4.3749999999886358E-01     0.0000000000000000E+00 
    1.0000000000000000E+00     4.9999999999869210E-01     0.0000000000000000E+00 
    1.0000000000000000E+00     5.6249999999884603E-01     0.0000000000000000E+00 
    1.0000000000000000E+00     6.2499999999901090E-01     0.0000000000000000E+00 
    1.0000000000000000E+00     6.8749999999917577E-01     0.0000000000000000E+00 
    1.0000000000000000E+00     7.4999999999934064E-01     0.0000000000000000E+00 
    1.0000000000000000E+00     8.1249999999950551E-01     0.0000000000000000E+00 
    1.0000000000000000E+00     8.7499999999967026E-01     0.0000000000000000E+00 
    1.0000000000000000E+00     9.3749999999983513E-01     0.0000000000000000E+00 
    9.3749999999973976E-01     1.0000000000000000E+00     0.0000000000000000E+00 
    8.7499999999950118E-01     1.0000000000000000E+00     0.0000000000000000E+00 
    8.1249999999991318E-01     1.0000000000000000E+00     0.0000000000000000E+00 
    7.5000000000034706E-01     1.0000000000000000E+00     0.0000000000000000E+00 
    6.8750000000078049E-01     1.0000000000000000E+00     0.0000000000000000E+00 
    6.2500000000121403E-01     1.0000000000000000E+00     0.0000000000000000E+00 
    5.6250000000164757E-01     1.0000000000000000E+00     0.0000000000000000E+00 
    5.0000000000205946E-01     1.0000000000000000E+00     0.0000000000000000E+00 
    4.3750000000182099E-01     1.0000000000000000E+00     0.0000000000000000E+00 
    3.7500000000156092E-01     1.0000000000000000E+00     0.0000000000000000E+00 
    3.1250000000130068E-01     1.0000000000000000E+00     0.0000000000000000E+00 
    2.5000000000104050E-01     1.0000000000000000E+00     0.0000000000000000E+00 
    1.8750000000078040E-01     1.0000000000000000E+00     0.0000000000000000E+00 
    1.2500000000052031E-01     1.0000000000000000E+00     0.0000000000000000E+00 
    6.2500000000260125E-02     1.0000000000000000E+00     0.0000000000000000E+00 
    0.0000000000000000E+00     9.3749999999973976E-01     0.0000000000000000E+00 
    0.0000000000000000E+00     8.7499999999950118E-01     0.0000000000000000E+00 
    0.0000000000000000E+00     8.1249999999991318E-01     0.0000000000000000E+00 
    0.0000000000000000E+00     7.5000000000034706E-01     0.0000000000000000E+00 
    0.0000000000000000E+00     6.8750000000078049E-01     0.0000000000000000E+00 
    0.0000000000000000E+00     6.2500000000121403E-01     0.0000000000000000E+00 
    0.0000000000000000E+00     5.6250000000164757E-01     0.0000000000000000E+00 
    0.0000000000000000E+00     5.0000000000205946E-01     0.0000000000000000E+00 
    0.0000000000000000E+00     4.3750000000182099E-01     0.0000000000000000E+00 
    0.0000000000000000E+00     3.7500000000156092E-01     0.0000000000000000E+00 
    0.0000000000000000E+00     3.1250000000130068E-01     0.0000000000000000E+00 
    0.0000000000000000E+00     2.5000000000104050E-01     0.0000000000000000E+00 
    0.0000000000000000E+00     1.8750000000078040E-01     0.0000000000000000E+00 
    0.0000000000000000E+00     1.2500000000052031E-01     0.0000000000000000E+00 
    0.0000000000000000E+00     6.2500000000260125E-02     0.0000000000000000E+00 
    6.2499999999897131E-02     6.2500000000235922E-02     0.0000000000000000E+00 
    6.2499999999921327E-02     1.2500000000047351E-01     0.0000000000000000E+00 
    6.2499999999945530E-02     1.8750000000070621E-01     0.0000000000000000E+00 
    6.2499999999969733E-02     2.5000000000093858E-01     0.0000000000000000E+00 
    6.2499999999993928E-02     3.1250000000117117E-01     0.0000000000000000E+00 
    6.2500000000018124E-02     3.7500000000140382E-01     0.0000000000000000E+00 
    6.2500000000042327E-02     4.3750000000163619E-01     0.0000000000000000E+00 
    6.2500000000066530E-02     5.0000000000184897E-01     0.0000000000000000E+00 
    6.2500000000090733E-02     5.6250000000147260E-01     0.0000000000000000E+00 
    6.2500000000114922E-02     6.2500000000107636E-01     0.0000000000000000E+00 
    6.2500000000139125E-02     6.8750000000068034E-01     0.0000000000000000E+00 
    6.2500000000163328E-02     7.5000000000028411E-01     0.0000000000000000E+00 
    6.2500000000187531E-02     8.1249999999988787E-01     0.0000000000000000E+00 
    6.2500000000211720E-02     8.7499999999951172E-01     0.0000000000000000E+00 
    6.2500000000235922E-02     9.3749999999974565E-01     0.0000000000000000E+00 
    1.2499999999981980E-01     6.2500000000211733E-02     0.0000000000000000E+00 
    1.2499999999986650E-01     1.2500000000042691E-01     0.0000000000000000E+00 
    1.2499999999991319E-01     1.8750000000063199E-01     0.0000000000000000E+00 
    1.2499999999995989E-01     2.5000000000083678E-01     0.0000000000000000E+00 
    1.2500000000000661E-01     3.1250000000104172E-01     0.0000000000000000E+00 
    1.2500000000005329E-01     3.7500000000124661E-01     0.0000000000000000E+00 
    1.2500000000010000E-01     4.3750000000145117E-01     0.0000000000000000E+00 
    1.2500000000014669E-01     5.0000000000163858E-01     0.0000000000000000E+00 
    1.2500000000019340E-01     5.6250000000129741E-01     0.0000000000000000E+00 
    1.2500000000024011E-01     6.2500000000093847E-01     0.0000000000000000E+00 
    1.2500000000028680E-01     6.8750000000057998E-01     0.0000000000000000E+00 
    1.2500000000033351E-01     7.5000000000022127E-01     0.0000000000000000E+00 
    1.2500000000038020E-01     8.1249999999986211E-01     0.0000000000000000E+00 
    1.2500000000042691E-01     8.7499999999952238E-01     0.0000000000000000E+00 
    1.2500000000047359E-01     9.3749999999975164E-01     0.0000000000000000E+00 
    1.8749999999966760E-01     6.2500000000187531E-02     0.0000000000000000E+00 
    1.8749999999974179E-01     1.2500000000038020E-01     0.0000000000000000E+00 
    1.8749999999981601E-01     1.8750000000055780E-01     0.0000000000000000E+00 
    1.8749999999989009E-01     2.5000000000073502E-01     0.0000000000000000E+00 
    1.8749999999996431E-01     3.1250000000091221E-01     0.0000000000000000E+00 
    1.8750000000003850E-01     3.7500000000108941E-01     0.0000000000000000E+00 
    1.8750000000011269E-01     4.3750000000126649E-01     0.0000000000000000E+00 
    1.8750000000018691E-01     5.0000000000142808E-01     0.0000000000000000E+00 
    1.8750000000026110E-01     5.6250000000112244E-01     0.0000000000000000E+00 
    1.8750000000033529E-01     6.2500000000080080E-01     0.0000000000000000E+00 
    1.8750000000040951E-01     6.8750000000047962E-01     0.0000000000000000E+00 
    1.8750000000048361E-01     7.5000000000015843E-01     0.0000000000000000E+00 
    1.8750000000055780E-01     8.1249999999983680E-01     0.0000000000000000E+00 
    1.8750000000063199E-01     8.7499999999953304E-01     0.0000000000000000E+00 
    1.8750000000070621E-01     9.3749999999975764E-01     0.0000000000000000E+00 
    2.4999999999951281E-01     6.2500000000163314E-02     0.0000000000000000E+00 
    2.4999999999961461E-01     1.2500000000033351E-01     0.0000000000000000E+00 
    2.4999999999971650E-01     1.8750000000048361E-01     0.0000000000000000E+00 
    2.4999999999981831E-01     2.5000000000063310E-01     0.0000000000000000E+00 
    2.4999999999992020E-01     3.1250000000078260E-01     0.0000000000000000E+00 
    2.5000000000002198E-01     3.7500000000093209E-01     0.0000000000000000E+00 
    2.5000000000012390E-01     4.3750000000108180E-01     0.0000000000000000E+00 
    2.5000000000022571E-01     5.0000000000121769E-01     0.0000000000000000E+00 
    2.5000000000032763E-01     5.6250000000094724E-01     0.0000000000000000E+00 
    2.5000000000042938E-01     6.2500000000066314E-01     0.0000000000000000E+00 
    2.5000000000053119E-01     6.8750000000037925E-01     0.0000000000000000E+00 
[...]
CELL_DATA 256 
SCALARS Pressure double 1 
LOOKUP_TABLE default 

    9.4694860557640681E-01 
    9.4478984940922062E-01 
    9.4257703147024852E-01 
    9.4043858445453177E-01 
    9.3839971005539202E-01 
    9.3647455607577446E-01 
    9.3467244994210452E-01 
    9.3299984134680791E-01 
    9.3146075711744447E-01 
    9.3005599705252640E-01 
    9.2878014446813095E-01 
    9.2761567852975912E-01 
    9.2654978492178153E-01 
    9.2564791205026253E-01 
    9.2505451201364142E-01 
    9.2477255689672289E-01 
    9.0503960801161287E-01 
    9.0485374265002805E-01 
    9.0450985145075791E-01 
    9.0405099601772965E-01 
    9.0350298344875801E-01 
    9.0288699052883237E-01 
    9.0222035998558858E-01 
    9.0151637361213122E-01 
    9.0078313408616451E-01 
    9.0002209819353296E-01 
    8.9923472501615886E-01 
    8.9844248217626421E-01 
    8.9771482492391175E-01 
    8.9715075095509256E-01 
    8.9679104754596550E-01 
    8.9661731691447932E-01 
    8.5747175761327354E-01 
    8.5737990194409741E-01 
    8.5719722156467504E-01 
    8.5692784027548796E-01 
    8.5657500264055442E-01 
    8.5614005004571170E-01 
    8.5562245359945088E-01 
    8.5502243384265764E-01 
    8.5434919735131021E-01 
    8.5362947807068490E-01 
    8.5291453176878107E-01 
    8.5228361264446195E-01 
    8.5179497827690576E-01 
    8.5145209570325009E-01 
    8.5123162457935830E-01 
    8.5112150776179385E-01 
    8.0010190082800758E-01 
    7.9998925941885124E-01 
    7.9976130578674665E-01 
    7.9941897991500899E-01 
    7.9896896798323847E-01 
    7.9842676842718341E-01 
    7.9781835208898710E-01 
    7.9718050672574914E-01 
    7.9656123612607477E-01 
    7.9601123441031063E-01 
    7.9556492216289953E-01 
    7.9522813566160411E-01 
    7.9497905129970881E-01 
    7.9479649264994157E-01 
    7.9467485046309272E-01 
    7.9461401906232165E-01 
    7.3418972100992985E-01 
    7.3408439780687873E-01 
    7.3388992877715742E-01 
    7.3363299104246393E-01 
    7.3334377856892441E-01 
    7.3305286781439294E-01 
    7.3278810184680288E-01 
    7.3257074481841666E-01 
    7.3241015124940034E-01 
    7.3229906804641764E-01 
    7.3221910387949807E-01 
    7.3215555190810688E-01 
    7.3210373411824525E-01 
    7.3206395562688009E-01 
    7.3203699919985743E-01 
    7.3202339029410868E-01 
    6.6743652015763411E-01 
    6.6743615869160711E-01 
    6.6744393977542527E-01 
    6.6746955382712014E-01 
    6.6751818449555611E-01 
    6.6758819116092982E-01 
    6.6767127722222086E-01 
    6.6775602689887814E-01 
    6.6783315803469923E-01 
    6.6789842468024818E-01 
    6.6795152871277419E-01 
    6.6799360826895404E-01 
    6.6802585218864285E-01 
    6.6804921231015824E-01 
    6.6806439580926125E-01 
    6.6807187096274934E-01 
    6.0432973750565511E-01 
    6.0435615045667601E-01 
    6.0440200844087744E-01 
    6.0445832732139759E-01 
    6.0451767543152468E-01 
    6.0457523573684846E-01 
    6.0462857151120419E-01 
    6.0467675794340436E-01 
    6.0471954194640976E-01 
    6.0475687581348070E-01 
    6.0478876617101263E-01 
    6.0481524341098702E-01 
    6.0483635007707148E-01 
    6.0485213123468762E-01 
    6.0486262698018300E-01 
    6.0486786699478157E-01 
    5.4208997506772261E-01 
    5.4209301106171981E-01 
    5.4209847869101613E-01 
    5.4210569256226349E-01 
    5.4211410505588042E-01 
    5.4212324988910987E-01 
    5.4213271533607976E-01 
    5.4214214119258275E-01 
    5.4215121775585284E-01 
    5.4215968240246215E-01 
    5.4216731539010476E-01 
    5.4217393594200047E-01 
    5.4217939881236166E-01 
    5.4218359137132921E-01 
    5.4218643124078636E-01 
    5.4218786450389411E-01 
    4.7963445506182312E-01 
    4.7963482109854749E-01 
    4.7963552979213897E-01 
    4.7963654004478834E-01 
    4.7963779910543791E-01 
    4.7963924700533767E-01 
    4.7964082006500769E-01 
    4.7964245378897341E-01 
    4.7964408523148677E-01 
    4.7964565488823885E-01 
    4.7964710818405659E-01 
    4.7964839662663644E-01 
    4.7964947868723434E-01 
    4.7965032045929051E-01 
    4.7965089613661849E-01 
    4.7965118834390008E-01 
    4.1714233961922537E-01 
    4.1714236865236815E-01 
    4.1714242527405931E-01 
    4.1714250673783870E-01 
    4.1714260923009094E-01 
    4.1714272814456133E-01 
    4.1714285836440795E-01 
    4.1714299453065501E-01 
    4.1714313128333230E-01 
    4.1714326346758468E-01 
    4.1714338630194109E-01 
    4.1714349550964547E-01 
    4.1714358741651514E-01 
    4.1714365902032863E-01 
    4.1714370803737555E-01 
    4.1714373293166546E-01 
    3.5464732084670192E-01 
    3.5464715735136332E-01 
    3.5464683654716439E-01 
    3.5464637058358106E-01 
    3.5464577713296247E-01 
    3.5464507874616036E-01 
    3.5464430202374891E-01 
    3.5464347662931600E-01 
    3.5464263417766800E-01 
    3.5464180703651949E-01 
    3.5464102708503192E-01 
    3.5464032447611565E-01 
    3.5463972645141767E-01 
    3.5463925625802695E-01 
    3.5463893221384901E-01 
    3.5463876696406832E-01 
    2.9216865159615879E-01 
    2.9216767693636031E-01 
    2.9216576375872810E-01 
    2.9216298313284506E-01 
    2.9215943865421423E-01 
    2.9215526290867488E-01 
    2.9215061288522570E-01 
    2.9214566444949386E-01 
    2.9214060602203090E-01 
    2.9213563163937745E-01 
    2.9213093361100023E-01 
    2.9212669502074973E-01 
    2.9212308235560880E-01 
    2.9212023857440655E-01 
    2.9211827695061532E-01 
    2.9211727603029863E-01 
    2.2978744831730344E-01 
    2.2978204830474580E-01 
    2.2977143579535880E-01 
    2.2975598095692218E-01 
    2.2973622686628040E-01 
    2.2971287486218100E-01 
    2.2968676497496654E-01 
    2.2965885144276402E-01 
    2.2963017338546410E-01 
    2.2960182081460484E-01 
    2.2957489632429778E-01 
    2.2955047305441145E-01 
    2.2952954986595109E-01 
    2.2951300514968548E-01 
    2.2950155133993783E-01 
    2.2949569307302081E-01 
    1.6794624628983604E-01 
    1.6791766935605851E-01 
    1.6786134073693137E-01 
    1.6777890400151454E-01 
    1.6767280642412019E-01 
    1.6754627512717329E-01 
    1.6740328156351258E-01 
    1.6724849094573099E-01 
    1.6708719210482448E-01 
    1.6692520193459651E-01 
    1.6676873699550362E-01 
    1.6662424294546968E-01 
    1.6649817015678137E-01 
    1.6639668107316682E-01 
    1.6632527144618292E-01 
    1.6628828342849922E-01 
    1.0896273763940721E-01 
    1.0882845894232306E-01 
    1.0856205730743808E-01 
    1.0816791124380319E-01 
    1.0765275793711240E-01 
    1.0702590206346366E-01 
    1.0629950356398991E-01 
    1.0548895276102319E-01 
    1.0461334375613010E-01 
    1.0369605994086988E-01 
    1.0276548876062207E-01 
    1.0185588670170215E-01 
    1.0100841993999875E-01 
    1.0027241133332752E-01 
    9.9706830622125833E-02 
    9.9382072016103218E-02 
    6.3407098698180925E-02 
    6.2951542308773784E-02 
    6.2037216753035501E-02 
    6.0657642791758969E-02 
    5.8802966145967431E-02 
    5.6459791582270172E-02 
    5.3610955913766987E-02 
    5.0235234768767685E-02 
    4.6306976443842886E-02 
    4.1795654445787311E-02 
    3.6665328392782214E-02 
    3.0874000736100624E-02 
    2.4372854219765344E-02 
    1.7105352046230295E-02 
    9.0061792798259432E-03 
    0.0000000000000000E+00 

SCALARS Saturarion double 1 
LOOKUP_TABLE default 

    1.0000000000000000E+00 
    8.7993334696728021E-01 
    8.1908714092248325E-01 
    7.6834570906895161E-01 
    7.2312247196145729E-01 
    6.8136873974623080E-01 
    6.4180160025426636E-01 
    6.0340492277586488E-01 
    5.6515423827800426E-01 
    5.2568168974094309E-01 
    4.8250665088607592E-01 
    4.2953143210344397E-01 
    3.4641562064077286E-01 
    1.6570925878129145E-01 
    8.9152922303551013E-03 
    1.6822047147352832E-06 
    7.0917623255753459E-01 
    6.7938279193254425E-01 
    6.4766978439401901E-01 
    6.1729650044978057E-01 
    5.8777424237909015E-01 
    5.5856541064326604E-01 
    5.2906002527523432E-01 
    4.9843261464662153E-01 
    4.6532723236975548E-01 
    4.2702156035627370E-01 
    3.7672749178838072E-01 
    2.9311245037484918E-01 
    1.2852217719680389E-01 
    7.7890599287014743E-03 
    2.9486242302856776E-06 
    4.5810973492748758E-15 
    5.6256013347828360E-01 
    5.4423572163641731E-01 
    5.2251209955334987E-01 
    4.9977490224155641E-01 
    4.7610661829267431E-01 
    4.5098285076409267E-01 
    4.2336185052728581E-01 
    3.9123047054489379E-01 
    3.5023154725857231E-01 
    2.8966616057555494E-01 
    1.8675445385270581E-01 
    5.9554168599238060E-02 
    3.2363591440835904E-03 
    1.7980739195693346E-06 
    8.5874211319566275E-15 
    7.4040006633883307E-36 
    4.4300644857948468E-01 
    4.2726438756276841E-01 
    4.0714236709407498E-01 
    3.8390152993318238E-01 
    3.5685696171198655E-01 
    3.2394828064844677E-01 
    2.8115961858463695E-01 
    2.2205266495020498E-01 
    1.4384051880283841E-01 
    6.3918534809058597E-02 
    1.2877356872103939E-02 
    4.5577945803191395E-04 
    2.4637931194894880E-07 
    2.7812666331383073E-15 
    1.6764997088605799E-35 
    2.3040094805922836E-86 
    3.0401552476009402E-01 
    2.8113519535713966E-01 
    2.4943295856068376E-01 
    2.1029328786570223E-01 
    1.6448054149074351E-01 
    1.1479148673310324E-01 
    6.6953123020841221E-02 
    2.8827326425630913E-02 
    7.3089546035765623E-03 
    7.2150789612153757E-04 
    1.0726586736743471E-05 
    2.7893966825325735E-09 
    3.0231487092261757E-17 
    1.4310371152968522E-36 
    8.0716373231645898E-86 
   5.7578068508684930E-209 
    1.0561725960497056E-01 
    7.9433108878618541E-02 
    5.1904524345217827E-02 
    2.9148029675564565E-02 
    1.3337685765261337E-02 
    4.5476224096302276E-03 
    9.9148527036542131E-04 
    1.0515947546082334E-04 
    3.3284947112828980E-06 
    1.1258745925849642E-08 
    4.4504958198440397E-13 
    8.8532378834657053E-22 
    5.5261160221143271E-41 
    4.0858348490866259E-88 
   5.7138691261203848E-208 
    0.0000000000000000E+00 
    4.2114105071712708E-03 
    1.8598896920669218E-03 
    5.7906236639059861E-04 
    1.2735372095859613E-04 
    1.7640201728082356E-05 
    1.2462500557422558E-06 
    3.1085552577485418E-08 
    1.4539094386865155E-10 
    3.9219610146606464E-14 
    4.9016019861031184E-20 
    1.6871058735457440E-30 
    1.6203745254351697E-51 
    1.1288321118337207E-97 
   9.0602127468535046E-213 
    0.0000000000000000E+00 
    0.0000000000000000E+00 
    1.3541961030595255E-06 
    1.8729092596260620E-07 
    1.1443521623864446E-08 
    3.1556482549372144E-10 
    2.9919790975001833E-12 
    5.8726764810195077E-15 
    1.0089038865689975E-18 
    3.4663259337923167E-24 
    1.2921173723949947E-32 
    1.5361747420665704E-46 
    1.9593852169594547E-71 
   1.5214903435808079E-121 
   7.8600881367209024E-233 
    0.0000000000000000E+00 
    0.0000000000000000E+00 
    0.0000000000000000E+00 
    1.2427946280821092E-14 
    1.2351401216689145E-16 
    1.8431355252062276E-19 
    4.4043473056308712E-23 
    8.8048786037654636E-28 
    4.4732993065404584E-34 
    7.9845249854048953E-43 
    1.4538398231225659E-55 
    2.4331058795392782E-75 
   7.2467632307675309E-108 
   3.6229537251873088E-167 
   4.4478318691737970E-285 
    0.0000000000000000E+00 
    0.0000000000000000E+00 
    0.0000000000000000E+00 
    0.0000000000000000E+00 
    8.5778884123222899E-33 
    2.0811444042359656E-37 
    6.3905547438016982E-44 
    2.9227302550603622E-52 
    4.3215470156714686E-63 
    1.3469131943421437E-77 
    8.9661844867317136E-98 
   2.4534326452222434E-127 
   2.9682956170979980E-173 
   5.4432939519455599E-249 
    0.0000000000000000E+00 
    0.0000000000000000E+00 
    0.0000000000000000E+00 
    0.0000000000000000E+00 
    0.0000000000000000E+00 
    0.0000000000000000E+00 
    1.7285801896517682E-73 
    4.9185311494572140E-84 
    6.3506304984260701E-99 
   5.5134542686892417E-118 
   9.6301733409629266E-143 
   6.7473981308329899E-176 
   3.6605319580242387E-222 
   2.5687188217012835E-290 
    0.0000000000000000E+00 
    0.0000000000000000E+00 
    0.0000000000000000E+00 
    0.0000000000000000E+00 
    0.0000000000000000E+00 
    0.0000000000000000E+00 
    0.0000000000000000E+00 
    0.0000000000000000E+00 
   5.1819758087141759E-164 
   6.4693460705671997E-188 
   1.0687303576747239E-221 
   6.1325492915109067E-265 
   3.7944241600607735E-321 
    0.0000000000000000E+00 
    0.0000000000000000E+00 
    0.0000000000000000E+00 
    0.0000000000000000E+00 
    0.0000000000000000E+00 
    0.0000000000000000E+00 
    0.0000000000000000E+00 
    0.0000000000000000E+00 
    0.0000000000000000E+00 
    0.0000000000000000E+00 
    0.0000000000000000E+00 
    0.0000000000000000E+00 
    0.0000000000000000E+00 
    0.0000000000000000E+00 
    0.0000000000000000E+00 
    0.0000000000000000E+00 
    0.0000000000000000E+00 
    0.0000000000000000E+00 
    0.0000000000000000E+00 
    0.0000000000000000E+00 
    0.0000000000000000E+00 
    0.0000000000000000E+00 
    0.0000000000000000E+00 
    0.0000000000000000E+00 
    0.0000000000000000E+00 
    0.0000000000000000E+00 
    0.0000000000000000E+00 
    0.0000000000000000E+00 
    0.0000000000000000E+00 
    0.0000000000000000E+00 
    0.0000000000000000E+00 
    0.0000000000000000E+00 
    0.0000000000000000E+00 
    0.0000000000000000E+00 
    0.0000000000000000E+00 
    0.0000000000000000E+00 
    0.0000000000000000E+00 
    0.0000000000000000E+00 
    0.0000000000000000E+00 
    0.0000000000000000E+00 
    0.0000000000000000E+00 
    0.0000000000000000E+00 
    0.0000000000000000E+00 
    0.0000000000000000E+00 
    0.0000000000000000E+00 
    0.0000000000000000E+00 
    0.0000000000000000E+00 
    0.0000000000000000E+00 
    0.0000000000000000E+00 
    0.0000000000000000E+00 
    0.0000000000000000E+00 
    0.0000000000000000E+00 
    0.0000000000000000E+00 
    0.0000000000000000E+00 
    0.0000000000000000E+00 
    0.0000000000000000E+00 
    0.0000000000000000E+00 
    0.0000000000000000E+00 
    0.0000000000000000E+00 
    0.0000000000000000E+00 
    0.0000000000000000E+00 
    0.0000000000000000E+00 
    0.0000000000000000E+00 
    0.0000000000000000E+00 
    0.0000000000000000E+00 
    0.0000000000000000E+00 
    0.0000000000000000E+00 
    0.0000000000000000E+00 
    0.0000000000000000E+00 
    0.0000000000000000E+00 
    0.0000000000000000E+00 
    0.0000000000000000E+00 
    0.0000000000000000E+00 
    0.0000000000000000E+00 
    0.0000000000000000E+00 
