# vtk DataFile Version 2.0
Pressure Field Data 
ASCII 
DATASET UNSTRUCTURED_GRID 

POINTS 289 double 

    0.0000000000000000E+00     0.0000000000000000E+00     0.0000000000000000E+00 
    1.0000000000000000E+00     0.0000000000000000E+00     0.0000000000000000E+00 
    1.0000000000000000E+00     1.0000000000000000E+00     0.0000000000000000E+00 
    0.0000000000000000E+00     1.0000000000000000E+00     0.0000000000000000E+00 
    6.2499999999872928E-02     0.0000000000000000E+00     0.0000000000000000E+00 
    1.2499999999977310E-01     0.0000000000000000E+00     0.0000000000000000E+00 
    1.8749999999959341E-01     0.0000000000000000E+00     0.0000000000000000E+00 
    2.4999999999941089E-01     0.0000000000000000E+00     0.0000000000000000E+00 
    3.1249999999922851E-01     0.0000000000000000E+00     0.0000000000000000E+00 
    3.7499999999904610E-01     0.0000000000000000E+00     0.0000000000000000E+00 
    4.3749999999886358E-01     0.0000000000000000E+00     0.0000000000000000E+00 
    4.9999999999869210E-01     0.0000000000000000E+00     0.0000000000000000E+00 
    5.6249999999884603E-01     0.0000000000000000E+00     0.0000000000000000E+00 
    6.2499999999901090E-01     0.0000000000000000E+00     0.0000000000000000E+00 
    6.8749999999917577E-01     0.0000000000000000E+00     0.0000000000000000E+00 
    7.4999999999934064E-01     0.0000000000000000E+00     0.0000000000000000E+00 
    8.1249999999950551E-01     0.0000000000000000E+00     0.0000000000000000E+00 
    8.7499999999967026E-01     0.0000000000000000E+00     0.0000000000000000E+00 
    9.3749999999983513E-01     0.0000000000000000E+00     0.0000000000000000E+00 
    1.0000000000000000E+00     6.2499999999872928E-02     0.0000000000000000E+00 
    1.0000000000000000E+00     1.2499999999977310E-01     0.0000000000000000E+00 
    1.0000000000000000E+00     1.8749999999959341E-01     0.0000000000000000E+00 
    1.0000000000000000E+00     2.4999999999941089E-01     0.0000000000000000E+00 
    1.0000000000000000E+00     3.1249999999922851E-01     0.0000000000000000E+00 
    1.0000000000000000E+00     3.7499999999904610E-01     0.0000000000000000E+00 
    1.0000000000000000E+00     4.3749999999886358E-01     0.0000000000000000E+00 
    1.0000000000000000E+00     4.9999999999869210E-01     0.0000000000000000E+00 
    1.0000000000000000E+00     5.6249999999884603E-01     0.0000000000000000E+00 
    1.0000000000000000E+00     6.2499999999901090E-01     0.0000000000000000E+00 
    1.0000000000000000E+00     6.8749999999917577E-01     0.0000000000000000E+00 
    1.0000000000000000E+00     7.4999999999934064E-01     0.0000000000000000E+00 
    1.0000000000000000E+00     8.1249999999950551E-01     0.0000000000000000E+00 
    1.0000000000000000E+00     8.7499999999967026E-01     0.0000000000000000E+00 
    1.0000000000000000E+00     9.3749999999983513E-01     0.0000000000000000E+00 
    9.3749999999973976E-01     1.0000000000000000E+00     0.0000000000000000E+00 
    8.7499999999950118E-01     1.0000000000000000E+00     0.0000000000000000E+00 
    8.1249999999991318E-01     1.0000000000000000E+00     0.0000000000000000E+00 
    7.5000000000034706E-01     1.0000000000000000E+00     0.0000000000000000E+00 
    6.8750000000078049E-01     1.0000000000000000E+00     0.0000000000000000E+00 
    6.2500000000121403E-01     1.0000000000000000E+00     0.0000000000000000E+00 
    5.6250000000164757E-01     1.0000000000000000E+00     0.0000000000000000E+00 
    5.0000000000205946E-01     1.0000000000000000E+00     0.0000000000000000E+00 
    4.3750000000182099E-01     1.0000000000000000E+00     0.0000000000000000E+00 
    3.7500000000156092E-01     1.0000000000000000E+00     0.0000000000000000E+00 
    3.1250000000130068E-01     1.0000000000000000E+00     0.0000000000000000E+00 
    2.5000000000104050E-01     1.0000000000000000E+00     0.0000000000000000E+00 
    1.8750000000078040E-01     1.0000000000000000E+00     0.0000000000000000E+00 
    1.2500000000052031E-01     1.0000000000000000E+00     0.0000000000000000E+00 
    6.2500000000260125E-02     1.0000000000000000E+00     0.0000000000000000E+00 
    0.0000000000000000E+00     9.3749999999973976E-01     0.0000000000000000E+00 
    0.0000000000000000E+00     8.7499999999950118E-01     0.0000000000000000E+00 
    0.0000000000000000E+00     8.1249999999991318E-01     0.0000000000000000E+00 
    0.0000000000000000E+00     7.5000000000034706E-01     0.0000000000000000E+00 
    0.0000000000000000E+00     6.8750000000078049E-01     0.0000000000000000E+00 
    0.0000000000000000E+00     6.2500000000121403E-01     0.0000000000000000E+00 
    0.0000000000000000E+00     5.6250000000164757E-01     0.0000000000000000E+00 
    0.0000000000000000E+00     5.0000000000205946E-01     0.0000000000000000E+00 
    0.0000000000000000E+00     4.3750000000182099E-01     0.0000000000000000E+00 
    0.0000000000000000E+00     3.7500000000156092E-01     0.0000000000000000E+00 
    0.0000000000000000E+00     3.1250000000130068E-01     0.0000000000000000E+00 
    0.0000000000000000E+00     2.5000000000104050E-01     0.0000000000000000E+00 
    0.0000000000000000E+00     1.8750000000078040E-01     0.0000000000000000E+00 
    0.0000000000000000E+00     1.2500000000052031E-01     0.0000000000000000E+00 
    0.0000000000000000E+00     6.2500000000260125E-02     0.0000000000000000E+00 
    6.2499999999897131E-02     6.2500000000235922E-02     0.0000000000000000E+00 
    6.2499999999921327E-02     1.2500000000047351E-01     0.0000000000000000E+00 
    6.2499999999945530E-02     1.8750000000070621E-01     0.0000000000000000E+00 
    6.2499999999969733E-02     2.5000000000093858E-01     0.0000000000000000E+00 
    6.2499999999993928E-02     3.1250000000117117E-01     0.0000000000000000E+00 
    6.2500000000018124E-02     3.7500000000140382E-01     0.0000000000000000E+00 
    6.2500000000042327E-02     4.3750000000163619E-01     0.0000000000000000E+00 
    6.2500000000066530E-02     5.0000000000184897E-01     0.0000000000000000E+00 
    6.2500000000090733E-02     5.6250000000147260E-01     0.0000000000000000E+00 
    6.2500000000114922E-02     6.2500000000107636E-01     0.0000000000000000E+00 
    6.2500000000139125E-02     6.8750000000068034E-01     0.0000000000000000E+00 
    6.2500000000163328E-02     7.5000000000028411E-01     0.0000000000000000E+00 
    6.2500000000187531E-02     8.1249999999988787E-01     0.0000000000000000E+00 
    6.2500000000211720E-02     8.7499999999951172E-01     0.0000000000000000E+00 
    6.2500000000235922E-02     9.3749999999974565E-01     0.0000000000000000E+00 
    1.2499999999981980E-01     6.2500000000211733E-02     0.0000000000000000E+00 
    1.2499999999986650E-01     1.2500000000042691E-01     0.0000000000000000E+00 
    1.2499999999991319E-01     1.8750000000063199E-01     0.0000000000000000E+00 
    1.2499999999995989E-01     2.5000000000083678E-01     0.0000000000000000E+00 
    1.2500000000000661E-01     3.1250000000104172E-01     0.0000000000000000E+00 
    1.2500000000005329E-01     3.7500000000124661E-01     0.0000000000000000E+00 
    1.2500000000010000E-01     4.3750000000145117E-01     0.0000000000000000E+00 
    1.2500000000014669E-01     5.0000000000163858E-01     0.0000000000000000E+00 
    1.2500000000019340E-01     5.6250000000129741E-01     0.0000000000000000E+00 
    1.2500000000024011E-01     6.2500000000093847E-01     0.0000000000000000E+00 
    1.2500000000028680E-01     6.8750000000057998E-01     0.0000000000000000E+00 
    1.2500000000033351E-01     7.5000000000022127E-01     0.0000000000000000E+00 
    1.2500000000038020E-01     8.1249999999986211E-01     0.0000000000000000E+00 
    1.2500000000042691E-01     8.7499999999952238E-01     0.0000000000000000E+00 
    1.2500000000047359E-01     9.3749999999975164E-01     0.0000000000000000E+00 
    1.8749999999966760E-01     6.2500000000187531E-02     0.0000000000000000E+00 
    1.8749999999974179E-01     1.2500000000038020E-01     0.0000000000000000E+00 
    1.8749999999981601E-01     1.8750000000055780E-01     0.0000000000000000E+00 
    1.8749999999989009E-01     2.5000000000073502E-01     0.0000000000000000E+00 
    1.8749999999996431E-01     3.1250000000091221E-01     0.0000000000000000E+00 
    1.8750000000003850E-01     3.7500000000108941E-01     0.0000000000000000E+00 
    1.8750000000011269E-01     4.3750000000126649E-01     0.0000000000000000E+00 
    1.8750000000018691E-01     5.0000000000142808E-01     0.0000000000000000E+00 
    1.8750000000026110E-01     5.6250000000112244E-01     0.0000000000000000E+00 
    1.8750000000033529E-01     6.2500000000080080E-01     0.0000000000000000E+00 
    1.8750000000040951E-01     6.8750000000047962E-01     0.0000000000000000E+00 
    1.8750000000048361E-01     7.5000000000015843E-01     0.0000000000000000E+00 
    1.8750000000055780E-01     8.1249999999983680E-01     0.0000000000000000E+00 
    1.8750000000063199E-01     8.7499999999953304E-01     0.0000000000000000E+00 
    1.8750000000070621E-01     9.3749999999975764E-01     0.0000000000000000E+00 
    2.4999999999951281E-01     6.2500000000163314E-02     0.0000000000000000E+00 
    2.4999999999961461E-01     1.2500000000033351E-01     0.0000000000000000E+00 
    2.4999999999971650E-01     1.8750000000048361E-01     0.0000000000000000E+00 
    2.4999999999981831E-01     2.5000000000063310E-01     0.0000000000000000E+00 
    2.4999999999992020E-01     3.1250000000078260E-01     0.0000000000000000E+00 
    2.5000000000002198E-01     3.7500000000093209E-01     0.0000000000000000E+00 
    2.5000000000012390E-01     4.3750000000108180E-01     0.0000000000000000E+00 
    2.5000000000022571E-01     5.0000000000121769E-01     0.0000000000000000E+00 
    2.5000000000032763E-01     5.6250000000094724E-01     0.0000000000000000E+00 
    2.5000000000042938E-01     6.2500000000066314E-01     0.0000000000000000E+00 
    2.5000000000053119E-01     6.8750000000037925E-01     0.0000000000000000E+00 
[...]
CELL_DATA 256 
SCALARS Pressure double 1 
LOOKUP_TABLE default 

    9.2656924508043248E-01 
    9.2446778957313225E-01 
    9.2237733637360708E-01 
    9.2038883878148881E-01 
    9.1851772172700463E-01 
    9.1677207481259004E-01 
    9.1515717266403185E-01 
    9.1367694629867058E-01 
    9.1233456028660054E-01 
    9.1113250180786964E-01 
    9.1007209565729452E-01 
    9.0915177910940692E-01 
    9.0836218564077831E-01 
    9.0768487917738871E-01 
    9.0716258791908333E-01 
    9.0690156165320257E-01 
    8.8805647775471941E-01 
    8.8790461096305051E-01 
    8.8762823829983284E-01 
    8.8726245573673468E-01 
    8.8683037472919568E-01 
    8.8635164275974077E-01 
    8.8584327284663267E-01 
    8.8531994316977403E-01 
    8.8479399362933930E-01 
    8.8427499216447170E-01 
    8.8376836580663654E-01 
    8.8327218528676554E-01 
    8.8278205913866881E-01 
    8.8232593664237202E-01 
    8.8199405163458433E-01 
    8.8183526639017762E-01 
    8.4596848484777054E-01 
    8.4590917575254565E-01 
    8.4579315449115611E-01 
    8.4562574187769968E-01 
    8.4541236672777054E-01 
    8.4515808627936018E-01 
    8.4486733787270596E-01 
    8.4454342096259383E-01 
    8.4418748026511559E-01 
    8.4379670007640462E-01 
    8.4336511220648946E-01 
    8.4290060009188672E-01 
    8.4244892603017740E-01 
    8.4209191369494851E-01 
    8.4187043477994528E-01 
    8.4176657479096328E-01 
    7.9590425467498960E-01 
    7.9584694787297872E-01 
    7.9573231590934279E-01 
    7.9556111622976100E-01 
    7.9533347286175926E-01 
    7.9504816800947342E-01 
    7.9470215175212988E-01 
    7.9429129649616415E-01 
    7.9381596470324656E-01 
    7.9329140054049030E-01 
    7.9275390477538354E-01 
    7.9226701289393420E-01 
    7.9188943339692830E-01 
    7.9163224627173179E-01 
    7.9147161495127216E-01 
    7.9139189113645758E-01 
    7.3756122721227158E-01 
    7.3747489034816172E-01 
    7.3729941964197465E-01 
    7.3703335748982590E-01 
    7.3667886606440525E-01 
    7.3624492895561688E-01 
    7.3574977724681190E-01 
    7.3522121397453588E-01 
    7.3469684949704528E-01 
    7.3422155195781147E-01 
    7.3383262317554343E-01 
    7.3354344204610655E-01 
    7.3333763685374509E-01 
    7.3319086579244375E-01 
    7.3309349399150103E-01 
    7.3304484793650049E-01 
    6.7174953424196349E-01 
    6.7165807958262047E-01 
    6.7148841358850742E-01 
    6.7126210652073370E-01 
    6.7100381492025718E-01 
    6.7073927952966506E-01 
    6.7049342009951329E-01 
    6.7028765353779152E-01 
    6.7013544542349557E-01 
    6.7003574357853268E-01 
    6.6997217716809621E-01 
    6.6992636331280264E-01 
    6.6988989088222350E-01 
    6.6986185253362518E-01 
    6.6984281837242521E-01 
    6.6983319924775186E-01 
    6.0498481220234923E-01 
    6.0498331848414888E-01 
    6.0498812674298197E-01 
    6.0500888075359593E-01 
    6.0505223387632068E-01 
    6.0511914551267665E-01 
    6.0520359106969390E-01 
    6.0529442881977080E-01 
    6.0538050772526930E-01 
    6.0545523796652134E-01 
    6.0551695045141396E-01 
    6.0556635805793935E-01 
    6.0560455038291428E-01 
    6.0563242279595386E-01 
    6.0565063910071215E-01 
    6.0565963810628975E-01 
    5.4180699108787123E-01 
    5.4183396222303581E-01 
    5.4188139239363864E-01 
    5.4194057327290768E-01 
    5.4200385356569281E-01 
    5.4206589571248764E-01 
    5.4212376959072461E-01 
    5.4217625734574637E-01 
    5.4222298536647995E-01 
    5.4226385798828658E-01 
    5.4229884850608889E-01 
    5.4232795729593808E-01 
    5.4235120108810064E-01 
    5.4236860388642094E-01 
    5.4238018974711133E-01 
    5.4238597754001072E-01 
    4.7958672110088946E-01 
    4.7958984013052636E-01 
    4.7959551445436432E-01 
    4.7960307738038560E-01 
    4.7961196485367441E-01 
    4.7962168022762491E-01 
    4.7963177802524282E-01 
    4.7964186532656217E-01 
    4.7965160274289936E-01 
    4.7966070153842905E-01 
    4.7966891938087924E-01 
    4.7967605630277727E-01 
    4.7968195117776247E-01 
    4.7968647874013831E-01 
    4.7968954717288470E-01 
    4.7969109628391871E-01 
    4.1713451262308110E-01 
    4.1713487601431254E-01 
    4.1713557995354905E-01 
    4.1713658392467651E-01 
    4.1713783552150424E-01 
    4.1713927491864639E-01 
    4.1714083849486383E-01 
    4.1714246184052500E-01 
    4.1714408220022603E-01 
    4.1714564039664981E-01 
    4.1714708231101971E-01 
    4.1714836000108763E-01 
    4.1714943252859010E-01 
    4.1715026655704596E-01 
    4.1715083677016712E-01 
    4.1715112615086475E-01 
    3.5464596826291900E-01 
    3.5464585835948526E-01 
    3.5464564237536511E-01 
    3.5464532790296416E-01 
    3.5464492615796928E-01 
    3.5464445170214876E-01 
    3.5464392202009287E-01 
    3.5464335695051119E-01 
    3.5464277798526828E-01 
    3.5464220746025510E-01 
    3.5464166767137650E-01 
    3.5464117995591832E-01 
    3.5464076378409060E-01 
    3.5464043590742672E-01 
    3.5464020960982490E-01 
    3.5464009410322167E-01 
    2.9216841423425183E-01 
    2.9216744877328626E-01 
    2.9216555362528274E-01 
    2.9216279914065213E-01 
    2.9215928787700579E-01 
    2.9215515110915857E-01 
    2.9215054429788190E-01 
    2.9214564162661588E-01 
    2.9214062974730642E-01 
    2.9213570091043189E-01 
    2.9213104568969450E-01 
    2.9212684554768115E-01 
    2.9212326552324219E-01 
    2.9212044735155895E-01 
    2.9211850334963085E-01 
    2.9211751140716657E-01 
    2.2978740629397335E-01 
    2.2978200789091235E-01 
    2.2977139853788736E-01 
    2.2975594827995216E-01 
    2.2973620001608247E-01 
    2.2971285485914700E-01 
    2.2968675257458721E-01 
    2.2965884710705620E-01 
    2.2963017726586593E-01 
    2.2960183274689286E-01 
    2.2957491583560852E-01 
    2.2955049938199398E-01 
    2.2952958198684831E-01 
    2.2951304182015433E-01 
    2.2950159114308344E-01 
    2.2949573447284011E-01 
    1.6794623865541380E-01 
    1.6791766200494140E-01 
    1.6786133394149344E-01 
    1.6777889801269477E-01 
    1.6767280146175495E-01 
    1.6754627137154041E-01 
    1.6740327914841299E-01 
    1.6724848995337221E-01 
    1.6708719256269844E-01 
    1.6692520381446568E-01 
    1.6676874021452831E-01 
    1.6662424736942627E-01 
    1.6649817560524344E-01 
    1.6639668732644602E-01 
    1.6632527825376264E-01 
    1.6628829051863786E-01 
    1.0896273606338257E-01 
    1.0882845741651630E-01 
    1.0856205588013473E-01 
    1.0816790995949870E-01 
    1.0765275683480081E-01 
    1.0702590117513862E-01 
    1.0629950291341574E-01 
    1.0548895236282300E-01 
    1.0461334361522601E-01 
    1.0369606005229633E-01 
    1.0276548910971905E-01 
    1.0185588726468076E-01 
    1.0100842068485667E-01 
    1.0027241222107933E-01 
    9.9706831608300697E-02 
    9.9382073052452516E-02 
    6.3407098158765662E-02 
    6.2951541779724618E-02 
    6.2037216244320008E-02 
    6.0657642312563029E-02 
    5.8802965704342153E-02 
    5.6459791184822410E-02 
    5.3610955565405530E-02 
    5.0235234472514649E-02 
    4.6306976200717734E-02 
    4.1795654254767840E-02 
    3.6665328250843940E-02 
    3.0874000638333194E-02 
    2.4372854159561294E-02 
    1.7105352015539001E-02 
    9.0061792694629845E-03 
    0.0000000000000000E+00 

SCALARS Saturarion double 1 
LOOKUP_TABLE default 

    1.0000000000000000E+00 
    9.0304788684524251E-01 
    8.5104757341812376E-01 
    8.0626605590691980E-01 
    7.6539055404110734E-01 
    7.2696507234491659E-01 
    6.9007576469054466E-01 
    6.5400055392627565E-01 
    6.1804119967421900E-01 
    5.8136751080602955E-01 
    5.4274189388195837E-01 
    4.9978658740486059E-01 
    4.4643794270972315E-01 
    3.6142489293084212E-01 
    1.6854695935939984E-01 
    6.8775407807810870E-03 
    7.4583007353914677E-01 
    7.2020034618647388E-01 
    6.9242079429377634E-01 
    6.6527764662808553E-01 
    6.3855884296121923E-01 
    6.1197193097857261E-01 
    5.8517969705638628E-01 
    5.5775704427961770E-01 
    5.2909756721000289E-01 
    4.9820412068120234E-01 
    4.6314072433169096E-01 
    4.1929650101361787E-01 
    3.5229422184115328E-01 
    2.0616549880004809E-01 
    1.9128075067389182E-02 
    8.6504130351953912E-06 
    6.1803220471060316E-01 
    6.0191353608586340E-01 
    5.8282809466814389E-01 
    5.6300651018576398E-01 
    5.4267648648652655E-01 
    5.2167414040957849E-01 
    4.9965608971436642E-01 
    4.7605858779785903E-01 
    4.4989974929031668E-01 
    4.1922969565316176E-01 
    3.7937375856243677E-01 
    3.1602757526032110E-01 
    1.8254008410462874E-01 
    2.2633260889126781E-02 
    2.8624641965063193E-05 
    3.4427748878498867E-13 
    5.2187934510746037E-01 
    5.0958425520839823E-01 
    4.9432732928929546E-01 
    4.7770527367996496E-01 
    4.5991401322131586E-01 
    4.4067456346205036E-01 
    4.1932518699868965E-01 
    3.9455681630406325E-01 
    3.6353622226094684E-01 
    3.1913192345932234E-01 
    2.4117761190185485E-01 
    1.0891842420589597E-01 
    1.2106912420619138E-02 
    2.6977779177147278E-05 
    1.3734382163352177E-12 
    1.0644517644911736E-31 
    4.3155890885082293E-01 
    4.2001229353516700E-01 
    4.0502212257533587E-01 
    3.8750232409373725E-01 
    3.6704707838343470E-01 
    3.4225368465625272E-01 
    3.1013573563155772E-01 
    2.6464076823644800E-01 
    1.9660042414110501E-01 
    1.0866817507602990E-01 
    3.2531200640389613E-02 
    2.3082918187823961E-03 
    5.0501139484677286E-06 
    8.1273076281991467E-13 
    5.2184690304456455E-31 
    1.4502367717760208E-77 
    3.1665602810201071E-01 
    2.9886149716329580E-01 
    2.7372322838224400E-01 
    2.4138760785965649E-01 
    2.0100674921833753E-01 
    1.5297548341261261E-01 
    1.0093275841292185E-01 
    5.2389018689066785E-02 
    1.7641380452615242E-02 
    2.6834312658362645E-03 
    8.2499857113756703E-05 
    7.7910255176550253E-08 
    1.2003851660226189E-14 
    9.1587959102984912E-32 
    1.1679610284970538E-76 
   4.8901041040937925E-190 
    1.2516771155402767E-01 
    9.9232856793841293E-02 
    7.0085691104981002E-02 
    4.3526133890311812E-02 
    2.2674480348607536E-02 
    9.1554422805120387E-03 
    2.5104581078412300E-03 
    3.6826418188365699E-04 
    1.8629893537855757E-05 
    1.3083411812651882E-07 
    1.7229420614684436E-11 
    3.4235549272905942E-19 
    2.5538189396895136E-36 
    6.5172193720851700E-79 
   1.6467418548296488E-188 
    0.0000000000000000E+00 
    5.6908231270795129E-03 
    2.7677315855613709E-03 
    9.8596513238714172E-04 
    2.5451323568975742E-04 
    4.2826614429574757E-05 
    3.8700062855733600E-06 
    1.3389928148342776E-07 
    9.8226820662492655E-10 
    5.0069089873189837E-13 
    1.7435796670619678E-18 
    3.3539906286051807E-28 
    1.7684792027612169E-47 
    4.8312924011933223E-90 
   1.3747172993818886E-194 
    0.0000000000000000E+00 
    0.0000000000000000E+00 
    1.5168627401791422E-06 
    2.3574295766200778E-07 
    1.6814915040425645E-08 
    5.4390007418161571E-10 
    6.1106307805827100E-12 
    1.4580461169228093E-14 
    3.2250181383554274E-18 
    1.5403370583318227E-23 
    9.3296838704039147E-32 
    3.0293811690551131E-45 
    2.5611505747541300E-69 
   1.3741720925617833E-116 
   2.4154024528755648E-221 
    0.0000000000000000E+00 
    0.0000000000000000E+00 
    0.0000000000000000E+00 
    2.8631444148662126E-15 
    2.7995700114425892E-17 
    4.0147768885815501E-20 
    8.3737866439583055E-24 
    1.3108524328327121E-28 
    4.6984283879748122E-35 
    5.1808949774504995E-44 
    4.6306575110592711E-57 
    3.9072496740083047E-77 
   6.1240226549863537E-110 
   1.0688869960891524E-168 
   1.7522262490781004E-283 
    0.0000000000000000E+00 
    0.0000000000000000E+00 
    0.0000000000000000E+00 
    0.0000000000000000E+00 
    4.3442499987252585E-36 
    5.5642015264761418E-41 
    6.8247259384064172E-48 
    8.1845190428416133E-57 
    1.9702100886527456E-68 
    5.6418193858090291E-84 
   1.4338160250469531E-105 
   5.0896926370146215E-137 
   3.8354961487198331E-185 
   3.0034833002984129E-264 
    0.0000000000000000E+00 
    0.0000000000000000E+00 
    0.0000000000000000E+00 
    0.0000000000000000E+00 
    0.0000000000000000E+00 
    0.0000000000000000E+00 
    6.4586860231944913E-85 
    1.3062500532571935E-96 
   4.0200850042086886E-113 
   2.2142385478961590E-134 
   5.4214825314664998E-162 
   6.7025253224783046E-199 
   3.1272980418764150E-250 
    0.0000000000000000E+00 
    0.0000000000000000E+00 
    0.0000000000000000E+00 
    0.0000000000000000E+00 
    0.0000000000000000E+00 
    0.0000000000000000E+00 
    0.0000000000000000E+00 
    0.0000000000000000E+00 
    0.0000000000000000E+00 
   1.0553011530685790E-197 
   3.0346679319811326E-225 
   4.0265321316850705E-264 
   4.8832518801029594E-314 
    0.0000000000000000E+00 
    0.0000000000000000E+00 
    0.0000000000000000E+00 
    0.0000000000000000E+00 
    0.0000000000000000E+00 
    0.0000000000000000E+00 
    0.0000000000000000E+00 
    0.0000000000000000E+00 
    0.0000000000000000E+00 
    0.0000000000000000E+00 
    0.0000000000000000E+00 
    0.0000000000000000E+00 
    0.0000000000000000E+00 
    0.0000000000000000E+00 
    0.0000000000000000E+00 
    0.0000000000000000E+00 
    0.0000000000000000E+00 
    0.0000000000000000E+00 
    0.0000000000000000E+00 
    0.0000000000000000E+00 
    0.0000000000000000E+00 
    0.0000000000000000E+00 
    0.0000000000000000E+00 
    0.0000000000000000E+00 
    0.0000000000000000E+00 
    0.0000000000000000E+00 
    0.0000000000000000E+00 
    0.0000000000000000E+00 
    0.0000000000000000E+00 
    0.0000000000000000E+00 
    0.0000000000000000E+00 
    0.0000000000000000E+00 
    0.0000000000000000E+00 
    0.0000000000000000E+00 
    0.0000000000000000E+00 
    0.0000000000000000E+00 
    0.0000000000000000E+00 
    0.0000000000000000E+00 
    0.0000000000000000E+00 
    0.0000000000000000E+00 
    0.0000000000000000E+00 
    0.0000000000000000E+00 
    0.0000000000000000E+00 
    0.0000000000000000E+00 
    0.0000000000000000E+00 
    0.0000000000000000E+00 
    0.0000000000000000E+00 
    0.0000000000000000E+00 
    0.0000000000000000E+00 
    0.0000000000000000E+00 
    0.0000000000000000E+00 
    0.0000000000000000E+00 
    0.0000000000000000E+00 
    0.0000000000000000E+00 
    0.0000000000000000E+00 
    0.0000000000000000E+00 
    0.0000000000000000E+00 
    0.0000000000000000E+00 
    0.0000000000000000E+00 
    0.0000000000000000E+00 
