# vtk DataFile Version 2.0
Pressure Field Data 
ASCII 
DATASET UNSTRUCTURED_GRID 

POINTS 289 double 

    0.0000000000000000E+00     0.0000000000000000E+00     0.0000000000000000E+00 
    1.0000000000000000E+00     0.0000000000000000E+00     0.0000000000000000E+00 
    1.0000000000000000E+00     1.0000000000000000E+00     0.0000000000000000E+00 
    0.0000000000000000E+00     1.0000000000000000E+00     0.0000000000000000E+00 
    6.2499999999872928E-02     0.0000000000000000E+00     0.0000000000000000E+00 
    1.2499999999977310E-01     0.0000000000000000E+00     0.0000000000000000E+00 
    1.8749999999959341E-01     0.0000000000000000E+00     0.0000000000000000E+00 
    2.4999999999941089E-01     0.0000000000000000E+00     0.0000000000000000E+00 
    3.1249999999922851E-01     0.0000000000000000E+00     0.0000000000000000E+00 
    3.7499999999904610E-01     0.0000000000000000E+00     0.0000000000000000E+00 
    4.3749999999886358E-01     0.0000000000000000E+00     0.0000000000000000E+00 
    4.9999999999869210E-01     0.0000000000000000E+00     0.0000000000000000E+00 
    5.6249999999884603E-01     0.0000000000000000E+00     0.0000000000000000E+00 
    6.2499999999901090E-01     0.0000000000000000E+00     0.0000000000000000E+00 
    6.8749999999917577E-01     0.0000000000000000E+00     0.0000000000000000E+00 
    7.4999999999934064E-01     0.0000000000000000E+00     0.0000000000000000E+00 
    8.1249999999950551E-01     0.0000000000000000E+00     0.0000000000000000E+00 
    8.7499999999967026E-01     0.0000000000000000E+00     0.0000000000000000E+00 
    9.3749999999983513E-01     0.0000000000000000E+00     0.0000000000000000E+00 
    1.0000000000000000E+00     6.2499999999872928E-02     0.0000000000000000E+00 
    1.0000000000000000E+00     1.2499999999977310E-01     0.0000000000000000E+00 
    1.0000000000000000E+00     1.8749999999959341E-01     0.0000000000000000E+00 
    1.0000000000000000E+00     2.4999999999941089E-01     0.0000000000000000E+00 
    1.0000000000000000E+00     3.1249999999922851E-01     0.0000000000000000E+00 
    1.0000000000000000E+00     3.7499999999904610E-01     0.0000000000000000E+00 
    1.0000000000000000E+00     4.3749999999886358E-01     0.0000000000000000E+00 
    1.0000000000000000E+00     4.9999999999869210E-01     0.0000000000000000E+00 
    1.0000000000000000E+00     5.6249999999884603E-01     0.0000000000000000E+00 
    1.0000000000000000E+00     6.2499999999901090E-01     0.0000000000000000E+00 
    1.0000000000000000E+00     6.8749999999917577E-01     0.0000000000000000E+00 
    1.0000000000000000E+00     7.4999999999934064E-01     0.0000000000000000E+00 
    1.0000000000000000E+00     8.1249999999950551E-01     0.0000000000000000E+00 
    1.0000000000000000E+00     8.7499999999967026E-01     0.0000000000000000E+00 
    1.0000000000000000E+00     9.3749999999983513E-01     0.0000000000000000E+00 
    9.3749999999973976E-01     1.0000000000000000E+00     0.0000000000000000E+00 
    8.7499999999950118E-01     1.0000000000000000E+00     0.0000000000000000E+00 
    8.1249999999991318E-01     1.0000000000000000E+00     0.0000000000000000E+00 
    7.5000000000034706E-01     1.0000000000000000E+00     0.0000000000000000E+00 
    6.8750000000078049E-01     1.0000000000000000E+00     0.0000000000000000E+00 
    6.2500000000121403E-01     1.0000000000000000E+00     0.0000000000000000E+00 
    5.6250000000164757E-01     1.0000000000000000E+00     0.0000000000000000E+00 
    5.0000000000205946E-01     1.0000000000000000E+00     0.0000000000000000E+00 
    4.3750000000182099E-01     1.0000000000000000E+00     0.0000000000000000E+00 
    3.7500000000156092E-01     1.0000000000000000E+00     0.0000000000000000E+00 
    3.1250000000130068E-01     1.0000000000000000E+00     0.0000000000000000E+00 
    2.5000000000104050E-01     1.0000000000000000E+00     0.0000000000000000E+00 
    1.8750000000078040E-01     1.0000000000000000E+00     0.0000000000000000E+00 
    1.2500000000052031E-01     1.0000000000000000E+00     0.0000000000000000E+00 
    6.2500000000260125E-02     1.0000000000000000E+00     0.0000000000000000E+00 
    0.0000000000000000E+00     9.3749999999973976E-01     0.0000000000000000E+00 
    0.0000000000000000E+00     8.7499999999950118E-01     0.0000000000000000E+00 
    0.0000000000000000E+00     8.1249999999991318E-01     0.0000000000000000E+00 
    0.0000000000000000E+00     7.5000000000034706E-01     0.0000000000000000E+00 
    0.0000000000000000E+00     6.8750000000078049E-01     0.0000000000000000E+00 
    0.0000000000000000E+00     6.2500000000121403E-01     0.0000000000000000E+00 
    0.0000000000000000E+00     5.6250000000164757E-01     0.0000000000000000E+00 
    0.0000000000000000E+00     5.0000000000205946E-01     0.0000000000000000E+00 
    0.0000000000000000E+00     4.3750000000182099E-01     0.0000000000000000E+00 
    0.0000000000000000E+00     3.7500000000156092E-01     0.0000000000000000E+00 
    0.0000000000000000E+00     3.1250000000130068E-01     0.0000000000000000E+00 
    0.0000000000000000E+00     2.5000000000104050E-01     0.0000000000000000E+00 
    0.0000000000000000E+00     1.8750000000078040E-01     0.0000000000000000E+00 
    0.0000000000000000E+00     1.2500000000052031E-01     0.0000000000000000E+00 
    0.0000000000000000E+00     6.2500000000260125E-02     0.0000000000000000E+00 
    6.2499999999897131E-02     6.2500000000235922E-02     0.0000000000000000E+00 
    6.2499999999921327E-02     1.2500000000047351E-01     0.0000000000000000E+00 
    6.2499999999945530E-02     1.8750000000070621E-01     0.0000000000000000E+00 
    6.2499999999969733E-02     2.5000000000093858E-01     0.0000000000000000E+00 
    6.2499999999993928E-02     3.1250000000117117E-01     0.0000000000000000E+00 
    6.2500000000018124E-02     3.7500000000140382E-01     0.0000000000000000E+00 
    6.2500000000042327E-02     4.3750000000163619E-01     0.0000000000000000E+00 
    6.2500000000066530E-02     5.0000000000184897E-01     0.0000000000000000E+00 
    6.2500000000090733E-02     5.6250000000147260E-01     0.0000000000000000E+00 
    6.2500000000114922E-02     6.2500000000107636E-01     0.0000000000000000E+00 
    6.2500000000139125E-02     6.8750000000068034E-01     0.0000000000000000E+00 
    6.2500000000163328E-02     7.5000000000028411E-01     0.0000000000000000E+00 
    6.2500000000187531E-02     8.1249999999988787E-01     0.0000000000000000E+00 
    6.2500000000211720E-02     8.7499999999951172E-01     0.0000000000000000E+00 
    6.2500000000235922E-02     9.3749999999974565E-01     0.0000000000000000E+00 
    1.2499999999981980E-01     6.2500000000211733E-02     0.0000000000000000E+00 
    1.2499999999986650E-01     1.2500000000042691E-01     0.0000000000000000E+00 
    1.2499999999991319E-01     1.8750000000063199E-01     0.0000000000000000E+00 
    1.2499999999995989E-01     2.5000000000083678E-01     0.0000000000000000E+00 
    1.2500000000000661E-01     3.1250000000104172E-01     0.0000000000000000E+00 
    1.2500000000005329E-01     3.7500000000124661E-01     0.0000000000000000E+00 
    1.2500000000010000E-01     4.3750000000145117E-01     0.0000000000000000E+00 
    1.2500000000014669E-01     5.0000000000163858E-01     0.0000000000000000E+00 
    1.2500000000019340E-01     5.6250000000129741E-01     0.0000000000000000E+00 
    1.2500000000024011E-01     6.2500000000093847E-01     0.0000000000000000E+00 
    1.2500000000028680E-01     6.8750000000057998E-01     0.0000000000000000E+00 
    1.2500000000033351E-01     7.5000000000022127E-01     0.0000000000000000E+00 
    1.2500000000038020E-01     8.1249999999986211E-01     0.0000000000000000E+00 
    1.2500000000042691E-01     8.7499999999952238E-01     0.0000000000000000E+00 
    1.2500000000047359E-01     9.3749999999975164E-01     0.0000000000000000E+00 
    1.8749999999966760E-01     6.2500000000187531E-02     0.0000000000000000E+00 
    1.8749999999974179E-01     1.2500000000038020E-01     0.0000000000000000E+00 
    1.8749999999981601E-01     1.8750000000055780E-01     0.0000000000000000E+00 
    1.8749999999989009E-01     2.5000000000073502E-01     0.0000000000000000E+00 
    1.8749999999996431E-01     3.1250000000091221E-01     0.0000000000000000E+00 
    1.8750000000003850E-01     3.7500000000108941E-01     0.0000000000000000E+00 
    1.8750000000011269E-01     4.3750000000126649E-01     0.0000000000000000E+00 
    1.8750000000018691E-01     5.0000000000142808E-01     0.0000000000000000E+00 
    1.8750000000026110E-01     5.6250000000112244E-01     0.0000000000000000E+00 
    1.8750000000033529E-01     6.2500000000080080E-01     0.0000000000000000E+00 
    1.8750000000040951E-01     6.8750000000047962E-01     0.0000000000000000E+00 
    1.8750000000048361E-01     7.5000000000015843E-01     0.0000000000000000E+00 
    1.8750000000055780E-01     8.1249999999983680E-01     0.0000000000000000E+00 
    1.8750000000063199E-01     8.7499999999953304E-01     0.0000000000000000E+00 
    1.8750000000070621E-01     9.3749999999975764E-01     0.0000000000000000E+00 
    2.4999999999951281E-01     6.2500000000163314E-02     0.0000000000000000E+00 
    2.4999999999961461E-01     1.2500000000033351E-01     0.0000000000000000E+00 
    2.4999999999971650E-01     1.8750000000048361E-01     0.0000000000000000E+00 
    2.4999999999981831E-01     2.5000000000063310E-01     0.0000000000000000E+00 
    2.4999999999992020E-01     3.1250000000078260E-01     0.0000000000000000E+00 
    2.5000000000002198E-01     3.7500000000093209E-01     0.0000000000000000E+00 
    2.5000000000012390E-01     4.3750000000108180E-01     0.0000000000000000E+00 
    2.5000000000022571E-01     5.0000000000121769E-01     0.0000000000000000E+00 
    2.5000000000032763E-01     5.6250000000094724E-01     0.0000000000000000E+00 
    2.5000000000042938E-01     6.2500000000066314E-01     0.0000000000000000E+00 
    2.5000000000053119E-01     6.8750000000037925E-01     0.0000000000000000E+00 
[...]
CELL_DATA 256 
SCALARS Pressure double 1 
LOOKUP_TABLE default 

    9.0599420818525367E-01 
    9.0393042627459219E-01 
    9.0191529275295024E-01 
    9.0001764117857275E-01 
    8.9824682228464836E-01 
    8.9660694978309119E-01 
    8.9510039996867996E-01 
    8.9372893017629307E-01 
    8.9249414132415361E-01 
    8.9139764606984506E-01 
    8.9044098856960019E-01 
    8.8962511985521808E-01 
    8.8894866823953855E-01 
    8.8840280997603094E-01 
    8.8797658960575765E-01 
    8.8774148904806882E-01 
    8.6981667002069163E-01 
    8.6968391692456837E-01 
    8.6944451299191716E-01 
    8.6912880808504067E-01 
    8.6875778235212198E-01 
    8.6834941170098745E-01 
    8.6791940413506707E-01 
    8.6748155599103138E-01 
    8.6704793827858906E-01 
    8.6662891423743704E-01 
    8.6623285592745625E-01 
    8.6586511616777317E-01 
    8.6552503057733932E-01 
    8.6520561232143456E-01 
    8.6493332369652653E-01 
    8.6478585979208200E-01 
    8.3144995460132698E-01 
    8.3140596209990092E-01 
    8.3132050960609516E-01 
    8.3119831978057379E-01 
    8.3104441044441701E-01 
    8.3086381116280494E-01 
    8.3066146283775111E-01 
    8.3044204288387236E-01 
    8.3020967975197357E-01 
    8.2996740275061653E-01 
    8.2971587879698783E-01 
    8.2945051839525208E-01 
    8.2916369951293245E-01 
    8.2887676841816327E-01 
    8.2866481950604853E-01 
    8.2856615844525672E-01 
    7.8637381035956433E-01 
    7.8633779613763788E-01 
    7.8626689716098319E-01 
    7.8616329907039351E-01 
    7.8602921810053050E-01 
    7.8586663099925091E-01 
    7.8567707885952065E-01 
    7.8546127650626041E-01 
    7.8521827568080038E-01 
    7.8494380763453053E-01 
    7.8462967839336040E-01 
    7.8427752619572988E-01 
    7.8392454945106060E-01 
    7.8364560006635708E-01 
    7.8347704984216238E-01 
    7.8339976510596843E-01 
    7.3431060979541873E-01 
    7.3426684092801475E-01 
    7.3417897199446625E-01 
    7.3404686386048501E-01 
    7.3386976927739878E-01 
    7.3364574049564513E-01 
    7.3337107548153402E-01 
    7.3304051460482833E-01 
    7.3265117653070988E-01 
    7.3221247156175495E-01 
    7.3175424093743480E-01 
    7.3133249217636076E-01 
    7.3100542941030411E-01 
    7.3078690279255443E-01 
    7.3065279188702736E-01 
    7.3058653312093358E-01 
    6.7515268093994985E-01 
    6.7507903291477322E-01 
    6.7492893729590830E-01 
    6.7470016401065891E-01 
    6.7439323820449937E-01 
    6.7401435837398760E-01 
    6.7357799231552007E-01 
    6.7310762610658281E-01 
    6.7263572089405710E-01 
    6.7220281156969819E-01 
    6.7184655538476334E-01 
    6.7158378931211204E-01 
    6.7140130847964186E-01 
    6.7127379692900824E-01 
    6.7118953297737116E-01 
    6.7114745736960202E-01 
    6.0920548545378106E-01 
    6.0912357680235940E-01 
    6.0897141881329631E-01 
    6.0876776075981642E-01 
    6.0853405883543099E-01 
    6.0829297078928224E-01 
    6.0806702147551417E-01 
    6.0787659620081036E-01 
    6.0773618956277364E-01 
    6.0764779064690733E-01 
    6.0759719658786882E-01 
    6.0756479360993798E-01 
    6.0753989111923168E-01 
    6.0752063620229824E-01 
    6.0750748794422615E-01 
    6.0750082085547474E-01 
    5.4245905035374065E-01 
    5.4245904421031266E-01 
    5.4246591954038192E-01 
    5.4248843668795799E-01 
    5.4253308109752596E-01 
    5.4260151489216368E-01 
    5.4268890629238054E-01 
    5.4278483930358923E-01 
    5.4287767356553662E-01 
    5.4295955886490377E-01 
    5.4302783119302589E-01 
    5.4308281950841031E-01 
    5.4312552789590085E-01 
    5.4315681731828702E-01 
    5.4317732597901058E-01 
    5.4318747548373469E-01 
    4.7930441381102967E-01 
    4.7933062534603244E-01 
    4.7937701738423821E-01 
    4.7943544414292000E-01 
    4.7949856498404880E-01 
    4.7956103261507382E-01 
    4.7961972607429632E-01 
    4.7967322958134284E-01 
    4.7972104232293789E-01 
    4.7976299532376782E-01 
    4.7979900857397223E-01 
    4.7982903739301297E-01 
    4.7985306123343058E-01 
    4.7987107460082035E-01 
    4.7988307961405496E-01 
    4.7988908060490876E-01 
    4.1708757709867456E-01 
    4.1709055794383448E-01 
    4.1709603271987788E-01 
    4.1710339859868989E-01 
    4.1711211539915938E-01 
    4.1712169237531543E-01 
    4.1713168321613275E-01 
    4.1714169139297996E-01 
    4.1715137293529109E-01 
    4.1716043443324341E-01 
    4.1716862914673675E-01 
    4.1717575314010064E-01 
    4.1718164187398582E-01 
    4.1718616729911939E-01 
    4.1718923548745485E-01 
    4.1719078483120364E-01 
    3.5463823098703945E-01 
    3.5463844910523279E-01 
    3.5463886901273978E-01 
    3.5463946227108212E-01 
    3.5464019313380080E-01 
    3.5464102226735361E-01 
    3.5464190963737663E-01 
    3.5464281670640158E-01 
    3.5464370798365036E-01 
    3.5464455198860712E-01 
    3.5464532173244834E-01 
    3.5464599483504633E-01 
    3.5464655338968948E-01 
    3.5464698367723929E-01 
    3.5464727581953048E-01 
    3.5464742344804623E-01 
    2.9216707437628747E-01 
    2.9216616185338351E-01 
    2.9216437026902525E-01 
    2.9216176550756712E-01 
    2.9215844378507405E-01 
    2.9215452851236684E-01 
    2.9215016615840411E-01 
    2.9214552119746001E-01 
    2.9214077026118151E-01 
    2.9213609565554322E-01 
    2.9213167844250204E-01 
    2.9212769132546973E-01 
    2.9212429161475323E-01 
    2.9212161458118147E-01 
    2.9211976752914998E-01 
    2.9211882492837005E-01 
    2.2978717004777194E-01 
    2.2978178074699571E-01 
    2.2977118923526868E-01 
    2.2975576484758087E-01 
    2.2973604945772561E-01 
    2.2971274288294236E-01 
    2.2968668337755979E-01 
    2.2965882322195236E-01 
    2.2963019947469979E-01 
    2.2960190006275588E-01 
    2.2957502555167247E-01 
    2.2955064718429014E-01 
    2.2952976212536758E-01 
    2.2951324733109016E-01 
    2.2950181411363041E-01 
    2.2949596633885461E-01 
    1.6794619579250494E-01 
    1.6791762073568237E-01 
    1.6786129579756420E-01 
    1.6777886440433756E-01 
    1.6767277362319175E-01 
    1.6754625031343123E-01 
    1.6740326561919308E-01 
    1.6724848441091844E-01 
    1.6708719515734072E-01 
    1.6692521438389965E-01 
    1.6676875829071908E-01 
    1.6662427219714052E-01 
    1.6649820617142053E-01 
    1.6639672239923300E-01 
    1.6632531642970211E-01 
    1.6628833027622097E-01 
    1.0896272721878404E-01 
    1.0882844885392205E-01 
    1.0856204787067084E-01 
    1.0816790275295936E-01 
    1.0765275065002627E-01 
    1.0702589619159807E-01 
    1.0629949926431931E-01 
    1.0548895013002627E-01 
    1.0461334282611892E-01 
    1.0369606067879060E-01 
    1.0276549106936700E-01 
    1.0185589042387644E-01 
    1.0100842486399172E-01 
    1.0027241720145223E-01 
    9.9706837140512858E-02 
    9.9382078865970142E-02 
    6.3407095132049465E-02 
    6.2951538811187244E-02 
    6.2037213389902021E-02 
    6.0657639623814881E-02 
    5.8802963226441726E-02 
    5.6459788954838476E-02 
    5.3610953610873646E-02 
    5.0235232810380476E-02 
    4.6306974836687907E-02 
    4.1795653183093133E-02 
    3.6665327454542679E-02 
    3.0874000089845883E-02 
    2.4372853821811098E-02 
    1.7105351843357080E-02 
    9.0061792113237810E-03 
    0.0000000000000000E+00 

SCALARS Saturarion double 1 
LOOKUP_TABLE default 

    1.0000000000000000E+00 
    9.1715317071188041E-01 
    8.7109772181765777E-01 
    8.3056480264377663E-01 
    7.9293121757656704E-01 
    7.5706351230167446E-01 
    7.2224712756073040E-01 
    6.8790747430987709E-01 
    6.5348142362021133E-01 
    6.1830818882956329E-01 
    5.8145968273358939E-01 
    5.4134031483726686E-01 
    4.9442702145965822E-01 
    4.3009121770258135E-01 
    3.0408906613830194E-01 
    6.1314749487817746E-02 
    7.6957940301760364E-01 
    7.4665516480668237E-01 
    7.2148277996772170E-01 
    6.9649707327529842E-01 
    6.7161184453987133E-01 
    6.4663996018138059E-01 
    6.2134390524656735E-01 
    5.9541648370693301E-01 
    5.6842994006948111E-01 
    5.3972687390909879E-01 
    5.0815926860962468E-01 
    4.7135455413570793E-01 
    4.2317207964109932E-01 
    3.4217536322176212E-01 
    1.5147336105712245E-01 
    4.0299742884769302E-03 
    6.5268619432792629E-01 
    6.3780480070935897E-01 
    6.2012488894375284E-01 
    6.0170679540277561E-01 
    5.8278669487052293E-01 
    5.6327128104218360E-01 
    5.4294264090028865E-01 
    5.2145937996274982E-01 
    4.9827845337125698E-01 
    4.7245281881774043E-01 
    4.4208118364361737E-01 
    4.0250789452134350E-01 
    3.3903167004617585E-01 
    1.9762787352660513E-01 
    1.6705437982210126E-02 
    5.0998075353877782E-06 
    5.6725633397209607E-01 
    5.5602594063599431E-01 
    5.4212015952641579E-01 
    5.2712698556032400E-01 
    5.1131333213414065E-01 
    4.9458715320699831E-01 
    4.7666928961430016E-01 
    4.5706273456446977E-01 
    4.3486821442399126E-01 
    4.0824578911274240E-01 
    3.7267058096849770E-01 
    3.1439009508636589E-01 
    1.8935721706197878E-01 
    2.5887793070733862E-02 
    3.3938913656980963E-05 
    4.4259365509352878E-13 
    4.9354176916262954E-01 
    4.8411953450268969E-01 
    4.7212747514591408E-01 
    4.5874139825706489E-01 
    4.4412472651232804E-01 
    4.2804176196907756E-01 
    4.0990205519350659E-01 
    3.8850942373349562E-01 
    3.6126544463040605E-01 
    3.2175612855714131E-01 
    2.5234755915426810E-01 
    1.2636974663878547E-01 
    1.6931157783261312E-02 
    5.1386037925682071E-05 
    3.6980275556058874E-12 
    4.7338445057379558E-31 
    4.1739736928460885E-01 
    4.0785480666674412E-01 
    3.9526082394579654E-01 
    3.8026454270586074E-01 
    3.6245864909233599E-01 
    3.4058311341117520E-01 
    3.1202585654870413E-01 
    2.7157435189827517E-01 
    2.1043926448557249E-01 
    1.2587811963994161E-01 
    4.3557417177974740E-02 
    4.0312018914149990E-03 
    1.4069424749579633E-05 
    4.8907733453941575E-12 
    4.1772981743351728E-30 
    2.5253694976827989E-77 
    3.1077912119191975E-01 
    2.9472178573067942E-01 
    2.7195020075735554E-01 
    2.4251373703856227E-01 
    2.0548412432446467E-01 
    1.6073466139988221E-01 
    1.1076365440926697E-01 
    6.1792964907822399E-02 
    2.3536449028304467E-02 
    4.3839593056717282E-03 
    1.9266848165090509E-04 
    3.3113551829562454E-07 
    1.4304591464661792E-13 
    3.7562017624743332E-30 
    3.1564067593159310E-76 
   2.6136503322385692E-195 
    1.2131762120453114E-01 
    9.7664793593889299E-02 
    7.0770773894415828E-02 
    4.5596959933997795E-02 
    2.5037928273552217E-02 
    1.0916734019955300E-02 
    3.3587216646198742E-03 
    5.8900784928306391E-04 
    3.9368238285548194E-05 
    4.3725412900066473E-07 
    1.1910160028302207E-10 
    7.2638749871896171E-18 
    2.3653536063992094E-34 
    5.2431754341369361E-77 
   1.7273373545908550E-193 
    0.0000000000000000E+00 
    5.0807809063729420E-03 
    2.5881444554741576E-03 
    9.8896152903139314E-04 
    2.7966842774830662E-04 
    5.3089849168473337E-05 
    5.6720413635166387E-06 
    2.4975093379426228E-07 
    2.5959104124329900E-09 
    2.2087611943927876E-12 
    1.6317974161109617E-17 
    8.1358048939114822E-27 
    1.2010389937253641E-45 
    2.7657618917464461E-88 
   5.4735717379819165E-197 
    0.0000000000000000E+00 
    0.0000000000000000E+00 
    9.9035692038225991E-07 
    1.6851515304647661E-07 
    1.3673840694339336E-08 
    5.1440267284294160E-10 
    6.9204432999474977E-12 
    2.0723269062501879E-14 
    6.1297461952832217E-18 
    4.1592814444932634E-23 
    3.7754161668182764E-31 
    1.6609231756858097E-44 
    8.5617009318616717E-69 
   3.2851989625918850E-117 
   3.2692215740411135E-226 
    0.0000000000000000E+00 
    0.0000000000000000E+00 
    0.0000000000000000E+00 
    4.7781715388249014E-16 
    4.9130567114648978E-18 
    7.4244214668153282E-21 
    1.5377122209790710E-24 
    2.2034834675132492E-29 
    6.4257377443020091E-36 
    4.6382822073317806E-45 
    1.7833574645412055E-58 
    3.0729533619383105E-79 
   1.0641487328440405E-113 
   8.7312800469676224E-176 
   5.1731361060063146E-299 
    0.0000000000000000E+00 
    0.0000000000000000E+00 
    0.0000000000000000E+00 
    0.0000000000000000E+00 
    2.6778651178313442E-39 
    2.0981533317450939E-44 
    1.1863426413862651E-51 
    4.1476407329270241E-61 
    1.6244402557369003E-73 
    3.1520218252705734E-90 
   1.3296724150507690E-113 
   9.4185566076861642E-148 
   1.9711646290542379E-200 
   9.2805736939801956E-288 
    0.0000000000000000E+00 
    0.0000000000000000E+00 
    0.0000000000000000E+00 
    0.0000000000000000E+00 
    0.0000000000000000E+00 
    0.0000000000000000E+00 
    9.7722199301158216E-97 
   1.1225999871659019E-109 
   5.0234062788884901E-128 
   7.2176204678818903E-152 
   4.6587987023169695E-183 
   5.1551240131400379E-225 
   1.6961615930579112E-283 
    0.0000000000000000E+00 
    0.0000000000000000E+00 
    0.0000000000000000E+00 
    0.0000000000000000E+00 
    0.0000000000000000E+00 
    0.0000000000000000E+00 
    0.0000000000000000E+00 
    0.0000000000000000E+00 
    0.0000000000000000E+00 
   2.4878045730653782E-236 
   1.7380854438995583E-268 
   5.5687517899747067E-314 
    0.0000000000000000E+00 
    0.0000000000000000E+00 
    0.0000000000000000E+00 
    0.0000000000000000E+00 
    0.0000000000000000E+00 
    0.0000000000000000E+00 
    0.0000000000000000E+00 
    0.0000000000000000E+00 
    0.0000000000000000E+00 
    0.0000000000000000E+00 
    0.0000000000000000E+00 
    0.0000000000000000E+00 
    0.0000000000000000E+00 
    0.0000000000000000E+00 
    0.0000000000000000E+00 
    0.0000000000000000E+00 
    0.0000000000000000E+00 
    0.0000000000000000E+00 
    0.0000000000000000E+00 
    0.0000000000000000E+00 
    0.0000000000000000E+00 
    0.0000000000000000E+00 
    0.0000000000000000E+00 
    0.0000000000000000E+00 
    0.0000000000000000E+00 
    0.0000000000000000E+00 
    0.0000000000000000E+00 
    0.0000000000000000E+00 
    0.0000000000000000E+00 
    0.0000000000000000E+00 
    0.0000000000000000E+00 
    0.0000000000000000E+00 
    0.0000000000000000E+00 
    0.0000000000000000E+00 
    0.0000000000000000E+00 
    0.0000000000000000E+00 
    0.0000000000000000E+00 
    0.0000000000000000E+00 
    0.0000000000000000E+00 
    0.0000000000000000E+00 
    0.0000000000000000E+00 
    0.0000000000000000E+00 
    0.0000000000000000E+00 
    0.0000000000000000E+00 
    0.0000000000000000E+00 
