# vtk DataFile Version 2.0
Pressure Field Data 
ASCII 
DATASET UNSTRUCTURED_GRID 

POINTS 289 double 

    0.0000000000000000E+00     0.0000000000000000E+00     0.0000000000000000E+00 
    1.0000000000000000E+00     0.0000000000000000E+00     0.0000000000000000E+00 
    1.0000000000000000E+00     1.0000000000000000E+00     0.0000000000000000E+00 
    0.0000000000000000E+00     1.0000000000000000E+00     0.0000000000000000E+00 
    6.2499999999872928E-02     0.0000000000000000E+00     0.0000000000000000E+00 
    1.2499999999977310E-01     0.0000000000000000E+00     0.0000000000000000E+00 
    1.8749999999959341E-01     0.0000000000000000E+00     0.0000000000000000E+00 
    2.4999999999941089E-01     0.0000000000000000E+00     0.0000000000000000E+00 
    3.1249999999922851E-01     0.0000000000000000E+00     0.0000000000000000E+00 
    3.7499999999904610E-01     0.0000000000000000E+00     0.0000000000000000E+00 
    4.3749999999886358E-01     0.0000000000000000E+00     0.0000000000000000E+00 
    4.9999999999869210E-01     0.0000000000000000E+00     0.0000000000000000E+00 
    5.6249999999884603E-01     0.0000000000000000E+00     0.0000000000000000E+00 
    6.2499999999901090E-01     0.0000000000000000E+00     0.0000000000000000E+00 
    6.8749999999917577E-01     0.0000000000000000E+00     0.0000000000000000E+00 
    7.4999999999934064E-01     0.0000000000000000E+00     0.0000000000000000E+00 
    8.1249999999950551E-01     0.0000000000000000E+00     0.0000000000000000E+00 
    8.7499999999967026E-01     0.0000000000000000E+00     0.0000000000000000E+00 
    9.3749999999983513E-01     0.0000000000000000E+00     0.0000000000000000E+00 
    1.0000000000000000E+00     6.2499999999872928E-02     0.0000000000000000E+00 
    1.0000000000000000E+00     1.2499999999977310E-01     0.0000000000000000E+00 
    1.0000000000000000E+00     1.8749999999959341E-01     0.0000000000000000E+00 
    1.0000000000000000E+00     2.4999999999941089E-01     0.0000000000000000E+00 
    1.0000000000000000E+00     3.1249999999922851E-01     0.0000000000000000E+00 
    1.0000000000000000E+00     3.7499999999904610E-01     0.0000000000000000E+00 
    1.0000000000000000E+00     4.3749999999886358E-01     0.0000000000000000E+00 
    1.0000000000000000E+00     4.9999999999869210E-01     0.0000000000000000E+00 
    1.0000000000000000E+00     5.6249999999884603E-01     0.0000000000000000E+00 
    1.0000000000000000E+00     6.2499999999901090E-01     0.0000000000000000E+00 
    1.0000000000000000E+00     6.8749999999917577E-01     0.0000000000000000E+00 
    1.0000000000000000E+00     7.4999999999934064E-01     0.0000000000000000E+00 
    1.0000000000000000E+00     8.1249999999950551E-01     0.0000000000000000E+00 
    1.0000000000000000E+00     8.7499999999967026E-01     0.0000000000000000E+00 
    1.0000000000000000E+00     9.3749999999983513E-01     0.0000000000000000E+00 
    9.3749999999973976E-01     1.0000000000000000E+00     0.0000000000000000E+00 
    8.7499999999950118E-01     1.0000000000000000E+00     0.0000000000000000E+00 
    8.1249999999991318E-01     1.0000000000000000E+00     0.0000000000000000E+00 
    7.5000000000034706E-01     1.0000000000000000E+00     0.0000000000000000E+00 
    6.8750000000078049E-01     1.0000000000000000E+00     0.0000000000000000E+00 
    6.2500000000121403E-01     1.0000000000000000E+00     0.0000000000000000E+00 
    5.6250000000164757E-01     1.0000000000000000E+00     0.0000000000000000E+00 
    5.0000000000205946E-01     1.0000000000000000E+00     0.0000000000000000E+00 
    4.3750000000182099E-01     1.0000000000000000E+00     0.0000000000000000E+00 
    3.7500000000156092E-01     1.0000000000000000E+00     0.0000000000000000E+00 
    3.1250000000130068E-01     1.0000000000000000E+00     0.0000000000000000E+00 
    2.5000000000104050E-01     1.0000000000000000E+00     0.0000000000000000E+00 
    1.8750000000078040E-01     1.0000000000000000E+00     0.0000000000000000E+00 
    1.2500000000052031E-01     1.0000000000000000E+00     0.0000000000000000E+00 
    6.2500000000260125E-02     1.0000000000000000E+00     0.0000000000000000E+00 
    0.0000000000000000E+00     9.3749999999973976E-01     0.0000000000000000E+00 
    0.0000000000000000E+00     8.7499999999950118E-01     0.0000000000000000E+00 
    0.0000000000000000E+00     8.1249999999991318E-01     0.0000000000000000E+00 
    0.0000000000000000E+00     7.5000000000034706E-01     0.0000000000000000E+00 
    0.0000000000000000E+00     6.8750000000078049E-01     0.0000000000000000E+00 
    0.0000000000000000E+00     6.2500000000121403E-01     0.0000000000000000E+00 
    0.0000000000000000E+00     5.6250000000164757E-01     0.0000000000000000E+00 
    0.0000000000000000E+00     5.0000000000205946E-01     0.0000000000000000E+00 
    0.0000000000000000E+00     4.3750000000182099E-01     0.0000000000000000E+00 
    0.0000000000000000E+00     3.7500000000156092E-01     0.0000000000000000E+00 
    0.0000000000000000E+00     3.1250000000130068E-01     0.0000000000000000E+00 
    0.0000000000000000E+00     2.5000000000104050E-01     0.0000000000000000E+00 
    0.0000000000000000E+00     1.8750000000078040E-01     0.0000000000000000E+00 
    0.0000000000000000E+00     1.2500000000052031E-01     0.0000000000000000E+00 
    0.0000000000000000E+00     6.2500000000260125E-02     0.0000000000000000E+00 
    6.2499999999897131E-02     6.2500000000235922E-02     0.0000000000000000E+00 
    6.2499999999921327E-02     1.2500000000047351E-01     0.0000000000000000E+00 
    6.2499999999945530E-02     1.8750000000070621E-01     0.0000000000000000E+00 
    6.2499999999969733E-02     2.5000000000093858E-01     0.0000000000000000E+00 
    6.2499999999993928E-02     3.1250000000117117E-01     0.0000000000000000E+00 
    6.2500000000018124E-02     3.7500000000140382E-01     0.0000000000000000E+00 
    6.2500000000042327E-02     4.3750000000163619E-01     0.0000000000000000E+00 
    6.2500000000066530E-02     5.0000000000184897E-01     0.0000000000000000E+00 
    6.2500000000090733E-02     5.6250000000147260E-01     0.0000000000000000E+00 
    6.2500000000114922E-02     6.2500000000107636E-01     0.0000000000000000E+00 
    6.2500000000139125E-02     6.8750000000068034E-01     0.0000000000000000E+00 
    6.2500000000163328E-02     7.5000000000028411E-01     0.0000000000000000E+00 
    6.2500000000187531E-02     8.1249999999988787E-01     0.0000000000000000E+00 
    6.2500000000211720E-02     8.7499999999951172E-01     0.0000000000000000E+00 
    6.2500000000235922E-02     9.3749999999974565E-01     0.0000000000000000E+00 
    1.2499999999981980E-01     6.2500000000211733E-02     0.0000000000000000E+00 
    1.2499999999986650E-01     1.2500000000042691E-01     0.0000000000000000E+00 
    1.2499999999991319E-01     1.8750000000063199E-01     0.0000000000000000E+00 
    1.2499999999995989E-01     2.5000000000083678E-01     0.0000000000000000E+00 
    1.2500000000000661E-01     3.1250000000104172E-01     0.0000000000000000E+00 
    1.2500000000005329E-01     3.7500000000124661E-01     0.0000000000000000E+00 
    1.2500000000010000E-01     4.3750000000145117E-01     0.0000000000000000E+00 
    1.2500000000014669E-01     5.0000000000163858E-01     0.0000000000000000E+00 
    1.2500000000019340E-01     5.6250000000129741E-01     0.0000000000000000E+00 
    1.2500000000024011E-01     6.2500000000093847E-01     0.0000000000000000E+00 
    1.2500000000028680E-01     6.8750000000057998E-01     0.0000000000000000E+00 
    1.2500000000033351E-01     7.5000000000022127E-01     0.0000000000000000E+00 
    1.2500000000038020E-01     8.1249999999986211E-01     0.0000000000000000E+00 
    1.2500000000042691E-01     8.7499999999952238E-01     0.0000000000000000E+00 
    1.2500000000047359E-01     9.3749999999975164E-01     0.0000000000000000E+00 
    1.8749999999966760E-01     6.2500000000187531E-02     0.0000000000000000E+00 
    1.8749999999974179E-01     1.2500000000038020E-01     0.0000000000000000E+00 
    1.8749999999981601E-01     1.8750000000055780E-01     0.0000000000000000E+00 
    1.8749999999989009E-01     2.5000000000073502E-01     0.0000000000000000E+00 
    1.8749999999996431E-01     3.1250000000091221E-01     0.0000000000000000E+00 
    1.8750000000003850E-01     3.7500000000108941E-01     0.0000000000000000E+00 
    1.8750000000011269E-01     4.3750000000126649E-01     0.0000000000000000E+00 
    1.8750000000018691E-01     5.0000000000142808E-01     0.0000000000000000E+00 
    1.8750000000026110E-01     5.6250000000112244E-01     0.0000000000000000E+00 
    1.8750000000033529E-01     6.2500000000080080E-01     0.0000000000000000E+00 
    1.8750000000040951E-01     6.8750000000047962E-01     0.0000000000000000E+00 
    1.8750000000048361E-01     7.5000000000015843E-01     0.0000000000000000E+00 
    1.8750000000055780E-01     8.1249999999983680E-01     0.0000000000000000E+00 
    1.8750000000063199E-01     8.7499999999953304E-01     0.0000000000000000E+00 
    1.8750000000070621E-01     9.3749999999975764E-01     0.0000000000000000E+00 
    2.4999999999951281E-01     6.2500000000163314E-02     0.0000000000000000E+00 
    2.4999999999961461E-01     1.2500000000033351E-01     0.0000000000000000E+00 
    2.4999999999971650E-01     1.8750000000048361E-01     0.0000000000000000E+00 
    2.4999999999981831E-01     2.5000000000063310E-01     0.0000000000000000E+00 
    2.4999999999992020E-01     3.1250000000078260E-01     0.0000000000000000E+00 
    2.5000000000002198E-01     3.7500000000093209E-01     0.0000000000000000E+00 
    2.5000000000012390E-01     4.3750000000108180E-01     0.0000000000000000E+00 
    2.5000000000022571E-01     5.0000000000121769E-01     0.0000000000000000E+00 
    2.5000000000032763E-01     5.6250000000094724E-01     0.0000000000000000E+00 
    2.5000000000042938E-01     6.2500000000066314E-01     0.0000000000000000E+00 
    2.5000000000053119E-01     6.8750000000037925E-01     0.0000000000000000E+00 
[...]
CELL_DATA 256 
SCALARS Pressure double 1 
LOOKUP_TABLE default 

    8.6469429725879166E-01 
    8.6267839862809415E-01 
    8.6075302425568445E-01 
    8.5896212723551302E-01 
    8.5730804170281805E-01 
    8.5579013574068830E-01 
    8.5440718390899340E-01 
    8.5315807613311379E-01 
    8.5204209414983190E-01 
    8.5105902418999746E-01 
    8.5020917759488868E-01 
    8.4949329821871733E-01 
    8.4891217648413086E-01 
    8.4846527270743444E-01 
    8.4814655654459770E-01 
    8.4796026837479577E-01 
    8.3158636295909849E-01 
    8.3147425916498863E-01 
    8.3127405224551998E-01 
    8.3101087191427214E-01 
    8.3070302717564926E-01 
    8.3036621735780058E-01 
    8.3001414096641024E-01 
    8.2965884390516975E-01 
    8.2931096058611142E-01 
    8.2897987886194535E-01 
    8.2867381500531034E-01 
    8.2839971756564579E-01 
    8.2816272794988011E-01 
    8.2796441056491610E-01 
    8.2779993448785594E-01 
    8.2769075962308725E-01 
    7.9804317006629222E-01 
    7.9801338702924673E-01 
    7.9795578792789534E-01 
    7.9787385550812207E-01 
    7.9777142723729466E-01 
    7.9765252827559319E-01 
    7.9752129276976214E-01 
    7.9738187157420981E-01 
    7.9723833265079203E-01 
    7.9709453259103547E-01 
    7.9695389644502834E-01 
    7.9681893034681694E-01 
    7.9668997300259825E-01 
    7.9656221608600775E-01 
    7.9643506754682014E-01 
    7.9635074257722482E-01 
    7.5936373658516609E-01 
    7.5934394380517845E-01 
    7.5930549138002534E-01 
    7.5925028927216254E-01 
    7.5918038272506316E-01 
    7.5909786190608775E-01 
    7.5900484122661271E-01 
    7.5890341496628300E-01 
    7.5879556797993142E-01 
    7.5868299355897850E-01 
    7.5856668393117566E-01 
    7.5844590826700542E-01 
    7.5831565177613014E-01 
    7.5816809207186409E-01 
    7.5803018476111461E-01 
    7.5795815839234115E-01 
    7.1530418732886336E-01 
    7.1528485449667656E-01 
    7.1524700402340680E-01 
    7.1519203074436544E-01 
    7.1512140419715720E-01 
    7.1503655133613986E-01 
    7.1493880385778186E-01 
    7.1482930624418739E-01 
    7.1470881972607725E-01 
    7.1457728465284542E-01 
    7.1443277813213735E-01 
    7.1426910231207741E-01 
    7.1407715215373924E-01 
    7.1387703860067830E-01 
    7.1373391773928163E-01 
    7.1367053060276342E-01 
    6.6594879832657539E-01 
    6.6592600106712752E-01 
    6.6588078803270589E-01 
    6.6581391313386329E-01 
    6.6572609663786364E-01 
    6.6561783933326801E-01 
    6.6548924498717255E-01 
    6.6533970130173858E-01 
    6.6516722570470876E-01 
    6.6496715599358225E-01 
    6.6473099589856166E-01 
    6.6445633016591776E-01 
    6.6417401438239632E-01 
    6.6395362670523206E-01 
    6.6382529717014860E-01 
    6.6376781961686349E-01 
    6.1121246207034052E-01 
    6.1117971409169980E-01 
    6.1111349506557078E-01 
    6.1101285407082828E-01 
    6.1087628596875665E-01 
    6.1070130846246151E-01 
    6.1048402196291052E-01 
    6.1021910073680141E-01 
    6.0990221311327297E-01 
    6.0953803734569600E-01 
    6.0915034952702696E-01 
    6.0878793273788556E-01 
    6.0850789724132126E-01 
    6.0832566907578256E-01 
    6.0821609619658068E-01 
    6.0816214233292176E-01 
    5.5062500977181661E-01 
    5.5056185576636540E-01 
    5.5043325041627600E-01 
    5.5023721545333582E-01 
    5.4997392669548550E-01 
    5.4964800180591222E-01 
    5.4927086054738028E-01 
    5.4886198141159193E-01 
    5.4844887308509782E-01 
    5.4806647895421057E-01 
    5.4775061597780228E-01 
    5.4752080897660504E-01 
    5.4736711698433060E-01 
    5.4726325191631608E-01 
    5.4719510857135423E-01 
    5.4716110031768717E-01 
    4.8407979056819023E-01 
    4.8401171174132751E-01 
    4.8388549363902150E-01 
    4.8371674946888249E-01 
    4.8352322279484322E-01 
    4.8332367085369948E-01 
    4.8313695680913044E-01 
    4.8298074052625761E-01 
    4.8286878614387546E-01 
    4.8280535879571645E-01 
    4.8277949384385554E-01 
    4.8277125109629454E-01 
    4.8276704192404651E-01 
    4.8276342204415523E-01 
    4.8276069226319113E-01 
    4.8275923295592660E-01 
    4.1735656977749325E-01 
    4.1736170728215494E-01 
    4.1737705921794244E-01 
    4.1740915799861372E-01 
    4.1746293417985914E-01 
    4.1753973056577631E-01 
    4.1763570759627727E-01 
    4.1774183775255747E-01 
    4.1784674481214384E-01 
    4.1794132143554735E-01 
    4.1802135959795467E-01 
    4.1808638819226962E-01 
    4.1813720536950111E-01 
    4.1817461806617762E-01 
    4.1819922858539299E-01 
    4.1821143488793600E-01 
    3.5431632508276240E-01 
    3.5434018560319741E-01 
    3.5438281294072216E-01 
    3.5443728083692294E-01 
    3.5449715312933450E-01 
    3.5455742217333663E-01 
    3.5461484503758367E-01 
    3.5466770888218840E-01 
    3.5471526597110958E-01 
    3.5475720050021969E-01 
    3.5479334058658352E-01 
    3.5482357150520266E-01 
    3.5484781761692852E-01 
    3.5486603183431409E-01 
    3.5487818657483949E-01 
    3.5488426709022974E-01 
    2.9211394848413658E-01 
    2.9211575981960020E-01 
    2.9211903872910283E-01 
    2.9212334800783474E-01 
    2.9212829419667968E-01 
    2.9213353628804617E-01 
    2.9213878881108790E-01 
    2.9214382608097450E-01 
    2.9214848178149505E-01 
    2.9215264268890995E-01 
    2.9215623925415174E-01 
    2.9215923550757400E-01 
    2.9216161929838935E-01 
    2.9216339328841257E-01 
    2.9216456707780103E-01 
    2.9216515084353584E-01 
    2.2977823732602085E-01 
    2.2977321661843431E-01 
    2.2976334181628885E-01 
    2.2974894469447918E-01 
    2.2973051681363657E-01 
    2.2970869888495254E-01 
    2.2968426481465004E-01 
    2.2965810042774920E-01 
    2.2963117690390841E-01 
    2.2960451909488711E-01 
    2.2957916910366913E-01 
    2.2955614577061986E-01 
    2.2953640105907219E-01 
    2.2952077480597888E-01 
    2.2950994994614796E-01 
    2.2950441117848991E-01 
    1.6794459753796931E-01 
    1.6791608312631226E-01 
    1.6785987690011478E-01 
    1.6777761728611626E-01 
    1.6767174421479589E-01 
    1.6754547564368374E-01 
    1.6740277247803914E-01 
    1.6724828846847578E-01 
    1.6708730054436055E-01 
    1.6692561372052042E-01 
    1.6676943313629838E-01 
    1.6662519388349983E-01 
    1.6649933697428432E-01 
    1.6639801699731002E-01 
    1.6632672359719242E-01 
    1.6628979475209837E-01 
    1.0896239891491115E-01 
    1.0882813108822080E-01 
    1.0856175076401128E-01 
    1.0816763560988420E-01 
    1.0765252159503494E-01 
    1.0702571185557817E-01 
    1.0629936453314975E-01 
    1.0548886796422087E-01 
    1.0461331415709953E-01 
    1.0369608438414463E-01 
    1.0276556402637925E-01 
    1.0185600763781717E-01 
    1.0100857966514547E-01 
    1.0027260150271630E-01 
    9.9707041745597316E-02 
    9.9382293816796821E-02 
    6.3406982961675185E-02 
    6.2951428802147949E-02 
    6.2037107619764345E-02 
    6.0657540005944040E-02 
    5.8802871436089768E-02 
    5.6459706364651793E-02 
    5.3610881238310558E-02 
    5.0235171279027026E-02 
    4.6306924352888607E-02 
    4.1795613528700169E-02 
    3.6665297995958572E-02 
    3.0873979802914685E-02 
    2.4372841331524096E-02 
    1.7105345476799851E-02 
    9.0061770618181190E-03 
    0.0000000000000000E+00 

SCALARS Saturarion double 1 
LOOKUP_TABLE default 

    1.0000000000000000E+00 
    9.3528199709928572E-01 
    8.9755994817587903E-01 
    8.6333685109568947E-01 
    8.3075954581538158E-01 
    7.9905050552386470E-01 
    7.6771584181742258E-01 
    7.3634221187662541E-01 
    7.0450394573264996E-01 
    6.7168603665411597E-01 
    6.3717441246689888E-01 
    5.9983126534149200E-01 
    5.5748745811312417E-01 
    5.0473604525899396E-01 
    4.2200691848453703E-01 
    2.2069221831562813E-01 
    8.0240022510114906E-01 
    7.8323013078840531E-01 
    7.6179259323988546E-01 
    7.4000165945913499E-01 
    7.1788493774154960E-01 
    6.9535446000444268E-01 
    6.7226219108851881E-01 
    6.4839531239495374E-01 
    6.2344898053309672E-01 
    5.9696810511428566E-01 
    5.6822064005953543E-01 
    5.3588372423436748E-01 
    4.9710498507369388E-01 
    4.4400461149099119E-01 
    3.4797723588835522E-01 
    1.0485543812326285E-01 
    6.9951191055674478E-01 
    6.8635298571955006E-01 
    6.7061713474506846E-01 
    6.5406891872448170E-01 
    6.3692194665544044E-01 
    6.1912401228249236E-01 
    6.0053089482605382E-01 
    5.8091964454018452E-01 
    5.5995590964239650E-01 
    5.3711229222240298E-01 
    5.1147605546485042E-01 
    4.8123265542845634E-01 
    4.4204382150367011E-01 
    3.8115262729609145E-01 
    2.4721199778016606E-01 
    1.9650008286491744E-02 
    6.2564610227514139E-01 
    6.1547992287120878E-01 
    6.0286221761795900E-01 
    5.8927975722590420E-01 
    5.7498615406798270E-01 
    5.5994365272152080E-01 
    5.4399770636047107E-01 
    5.2689250497226991E-01 
    5.0822428639122674E-01 
    4.8731419331179671E-01 
    4.6288203441007048E-01 
    4.3211742378706280E-01 
    3.8764781745857679E-01 
    3.0454609324552373E-01 
    1.0041506716791131E-01 
    7.0842775664022592E-04 
    5.6562327904461041E-01 
    5.5730520119898408E-01 
    5.4672375823781982E-01 
    5.3509546581813838E-01 
    5.2266310165194352E-01 
    5.0938733658310309E-01 
    4.9508953651920895E-01 
    4.7945224765606648E-01 
    4.6193626437781909E-01 
    4.4155486598836635E-01 
    4.1625490963469486E-01 
    3.8096035631356095E-01 
    3.1999284623862517E-01 
    1.7420531337940767E-01 
    8.4478791844733968E-03 
    7.5759896766972907E-07 
    5.1191879686849795E-01 
    5.0476358938221655E-01 
    4.9550833249315102E-01 
    4.8512828375219402E-01 
    4.7381838607771298E-01 
    4.6150240605028353E-01 
    4.4792827325383722E-01 
    4.3262474524041516E-01 
    4.1471701184814691E-01 
    3.9241193673944008E-01 
    3.6141652900271726E-01 
    3.0897234644714289E-01 
    1.9131408334412472E-01 
    2.3926757781825576E-02 
    1.7611544538823285E-05 
    1.1799317750834036E-13 
    4.5837782547338984E-01 
    4.5171199324798256E-01 
    4.4297633671775283E-01 
    4.3291891349802658E-01 
    4.2162000122099602E-01 
    4.0885195338971558E-01 
    3.9408053487017758E-01 
    3.7624953697200353E-01 
    3.5313158447328163E-01 
    3.1937557217316759E-01 
    2.6034828217957334E-01 
    1.4562918911169992E-01 
    2.2701785114259389E-02 
    6.3086811854953854E-05 
    3.5922304687044449E-12 
    1.3450077065277815E-30 
    3.9510697080690982E-01 
    3.8752536171454094E-01 
    3.7732977302657666E-01 
    3.6492074298923949E-01 
    3.4990430970761499E-01 
    3.3121401016720636E-01 
    3.0672084247109627E-01 
    2.7229407131974015E-01 
    2.2057768473967310E-01 
    1.4495753397266853E-01 
    5.9678115713636987E-02 
    7.5628589128263340E-03 
    3.8991146188731815E-05 
    1.4287167298838701E-11 
    3.9817210162175393E-29 
    1.1217219597211438E-73 
    2.9415911047076776E-01 
    2.8007973109314160E-01 
    2.6015718391884357E-01 
    2.3448043897792678E-01 
    2.0227601397711148E-01 
    1.6317091430724007E-01 
    1.1839323348586804E-01 
    7.2113603581901539E-02 
    3.2111898806051753E-02 
    7.8398850763736552E-03 
    5.5553422761392152E-04 
    2.1468979814969643E-06 
    3.1577046756859864E-12 
    2.3501286606116070E-28 
    2.4561455302665410E-72 
   4.2692374664940924E-184 
    1.0780018185712595E-01 
    8.8427533176733505E-02 
    6.6151625137712555E-02 
    4.4665592052045330E-02 
    2.6289122758203810E-02 
    1.2732668168291786E-02 
    4.6025478005862486E-03 
    1.0448574686246703E-03 
    1.0689289507321052E-04 
    2.4750600953334510E-06 
    2.5121734373063509E-09 
    1.6319151013285057E-15 
    2.4515458454946929E-30 
    9.1097399243114373E-71 
   1.0267560206579083E-181 
    0.0000000000000000E+00 
    3.7837330707382786E-03 
    2.0737243323968257E-03 
    8.8564617103921287E-04 
    2.9085442525634544E-04 
    6.7817866662842191E-05 
    9.7615817103121204E-06 
    6.7493864630704637E-07 
    1.4338001302155649E-08 
    3.9877179507835228E-11 
    2.3338901949555151E-15 
    4.5109511536648537E-23 
    5.3861818301956821E-39 
    1.2353568947689700E-76 
   3.3718335349639700E-178 
    0.0000000000000000E+00 
    0.0000000000000000E+00 
    5.0681757456602254E-07 
    1.0645174722627182E-07 
    1.1830144530330895E-08 
    6.7516268106915464E-10 
    1.6064835596537325E-11 
    1.1013002690791112E-13 
    1.1330936561169244E-16 
    5.5264833387089726E-21 
    1.3501888058659462E-27 
    1.5326911071388895E-38 
    1.8757386210872819E-58 
    2.4613531163312003E-99 
   2.2810871908194465E-195 
    0.0000000000000000E+00 
    0.0000000000000000E+00 
    0.0000000000000000E+00 
    9.9957326120606599E-17 
    1.8223689794099821E-18 
    6.4805144640786168E-21 
    4.1641514488985664E-24 
    2.8045769296965166E-28 
    7.5343733442621463E-34 
    1.5216272263143198E-41 
    1.1135201462228063E-52 
    8.7797303947668528E-70 
    4.6444891677350818E-98 
   1.0416295369274779E-149 
   3.8041966980650538E-255 
    0.0000000000000000E+00 
    0.0000000000000000E+00 
    0.0000000000000000E+00 
    0.0000000000000000E+00 
    5.3187308866628526E-41 
    1.8445422066952673E-45 
    9.5151948526513898E-52 
    5.9852926822364096E-60 
    1.1305613982339936E-70 
    5.2775034556377094E-85 
   7.3484585251555705E-105 
   1.1093613986911887E-133 
   5.5358816667186599E-178 
   1.0609085230706695E-251 
    0.0000000000000000E+00 
    0.0000000000000000E+00 
    0.0000000000000000E+00 
    0.0000000000000000E+00 
    0.0000000000000000E+00 
    0.0000000000000000E+00 
   1.1242640217342281E-101 
   3.8896894928137438E-113 
   2.5554243295182134E-129 
   1.9829865771475498E-150 
   4.5703718254960888E-178 
   4.0668329585390750E-215 
   1.3863577343526593E-266 
    0.0000000000000000E+00 
    0.0000000000000000E+00 
    0.0000000000000000E+00 
    0.0000000000000000E+00 
    0.0000000000000000E+00 
    0.0000000000000000E+00 
    0.0000000000000000E+00 
    0.0000000000000000E+00 
    0.0000000000000000E+00 
   1.0857278808901879E-253 
   2.9393430262865848E-283 
    0.0000000000000000E+00 
    0.0000000000000000E+00 
    0.0000000000000000E+00 
    0.0000000000000000E+00 
    0.0000000000000000E+00 
    0.0000000000000000E+00 
    0.0000000000000000E+00 
    0.0000000000000000E+00 
    0.0000000000000000E+00 
    0.0000000000000000E+00 
    0.0000000000000000E+00 
    0.0000000000000000E+00 
    0.0000000000000000E+00 
    0.0000000000000000E+00 
