# vtk DataFile Version 2.0
Pressure Field Data 
ASCII 
DATASET UNSTRUCTURED_GRID 

POINTS 289 double 

    0.0000000000000000E+00     0.0000000000000000E+00     0.0000000000000000E+00 
    1.0000000000000000E+00     0.0000000000000000E+00     0.0000000000000000E+00 
    1.0000000000000000E+00     1.0000000000000000E+00     0.0000000000000000E+00 
    0.0000000000000000E+00     1.0000000000000000E+00     0.0000000000000000E+00 
    6.2499999999872928E-02     0.0000000000000000E+00     0.0000000000000000E+00 
    1.2499999999977310E-01     0.0000000000000000E+00     0.0000000000000000E+00 
    1.8749999999959341E-01     0.0000000000000000E+00     0.0000000000000000E+00 
    2.4999999999941089E-01     0.0000000000000000E+00     0.0000000000000000E+00 
    3.1249999999922851E-01     0.0000000000000000E+00     0.0000000000000000E+00 
    3.7499999999904610E-01     0.0000000000000000E+00     0.0000000000000000E+00 
    4.3749999999886358E-01     0.0000000000000000E+00     0.0000000000000000E+00 
    4.9999999999869210E-01     0.0000000000000000E+00     0.0000000000000000E+00 
    5.6249999999884603E-01     0.0000000000000000E+00     0.0000000000000000E+00 
    6.2499999999901090E-01     0.0000000000000000E+00     0.0000000000000000E+00 
    6.8749999999917577E-01     0.0000000000000000E+00     0.0000000000000000E+00 
    7.4999999999934064E-01     0.0000000000000000E+00     0.0000000000000000E+00 
    8.1249999999950551E-01     0.0000000000000000E+00     0.0000000000000000E+00 
    8.7499999999967026E-01     0.0000000000000000E+00     0.0000000000000000E+00 
    9.3749999999983513E-01     0.0000000000000000E+00     0.0000000000000000E+00 
    1.0000000000000000E+00     6.2499999999872928E-02     0.0000000000000000E+00 
    1.0000000000000000E+00     1.2499999999977310E-01     0.0000000000000000E+00 
    1.0000000000000000E+00     1.8749999999959341E-01     0.0000000000000000E+00 
    1.0000000000000000E+00     2.4999999999941089E-01     0.0000000000000000E+00 
    1.0000000000000000E+00     3.1249999999922851E-01     0.0000000000000000E+00 
    1.0000000000000000E+00     3.7499999999904610E-01     0.0000000000000000E+00 
    1.0000000000000000E+00     4.3749999999886358E-01     0.0000000000000000E+00 
    1.0000000000000000E+00     4.9999999999869210E-01     0.0000000000000000E+00 
    1.0000000000000000E+00     5.6249999999884603E-01     0.0000000000000000E+00 
    1.0000000000000000E+00     6.2499999999901090E-01     0.0000000000000000E+00 
    1.0000000000000000E+00     6.8749999999917577E-01     0.0000000000000000E+00 
    1.0000000000000000E+00     7.4999999999934064E-01     0.0000000000000000E+00 
    1.0000000000000000E+00     8.1249999999950551E-01     0.0000000000000000E+00 
    1.0000000000000000E+00     8.7499999999967026E-01     0.0000000000000000E+00 
    1.0000000000000000E+00     9.3749999999983513E-01     0.0000000000000000E+00 
    9.3749999999973976E-01     1.0000000000000000E+00     0.0000000000000000E+00 
    8.7499999999950118E-01     1.0000000000000000E+00     0.0000000000000000E+00 
    8.1249999999991318E-01     1.0000000000000000E+00     0.0000000000000000E+00 
    7.5000000000034706E-01     1.0000000000000000E+00     0.0000000000000000E+00 
    6.8750000000078049E-01     1.0000000000000000E+00     0.0000000000000000E+00 
    6.2500000000121403E-01     1.0000000000000000E+00     0.0000000000000000E+00 
    5.6250000000164757E-01     1.0000000000000000E+00     0.0000000000000000E+00 
    5.0000000000205946E-01     1.0000000000000000E+00     0.0000000000000000E+00 
    4.3750000000182099E-01     1.0000000000000000E+00     0.0000000000000000E+00 
    3.7500000000156092E-01     1.0000000000000000E+00     0.0000000000000000E+00 
    3.1250000000130068E-01     1.0000000000000000E+00     0.0000000000000000E+00 
    2.5000000000104050E-01     1.0000000000000000E+00     0.0000000000000000E+00 
    1.8750000000078040E-01     1.0000000000000000E+00     0.0000000000000000E+00 
    1.2500000000052031E-01     1.0000000000000000E+00     0.0000000000000000E+00 
    6.2500000000260125E-02     1.0000000000000000E+00     0.0000000000000000E+00 
    0.0000000000000000E+00     9.3749999999973976E-01     0.0000000000000000E+00 
    0.0000000000000000E+00     8.7499999999950118E-01     0.0000000000000000E+00 
    0.0000000000000000E+00     8.1249999999991318E-01     0.0000000000000000E+00 
    0.0000000000000000E+00     7.5000000000034706E-01     0.0000000000000000E+00 
    0.0000000000000000E+00     6.8750000000078049E-01     0.0000000000000000E+00 
    0.0000000000000000E+00     6.2500000000121403E-01     0.0000000000000000E+00 
    0.0000000000000000E+00     5.6250000000164757E-01     0.0000000000000000E+00 
    0.0000000000000000E+00     5.0000000000205946E-01     0.0000000000000000E+00 
    0.0000000000000000E+00     4.3750000000182099E-01     0.0000000000000000E+00 
    0.0000000000000000E+00     3.7500000000156092E-01     0.0000000000000000E+00 
    0.0000000000000000E+00     3.1250000000130068E-01     0.0000000000000000E+00 
    0.0000000000000000E+00     2.5000000000104050E-01     0.0000000000000000E+00 
    0.0000000000000000E+00     1.8750000000078040E-01     0.0000000000000000E+00 
    0.0000000000000000E+00     1.2500000000052031E-01     0.0000000000000000E+00 
    0.0000000000000000E+00     6.2500000000260125E-02     0.0000000000000000E+00 
    6.2499999999897131E-02     6.2500000000235922E-02     0.0000000000000000E+00 
    6.2499999999921327E-02     1.2500000000047351E-01     0.0000000000000000E+00 
    6.2499999999945530E-02     1.8750000000070621E-01     0.0000000000000000E+00 
    6.2499999999969733E-02     2.5000000000093858E-01     0.0000000000000000E+00 
    6.2499999999993928E-02     3.1250000000117117E-01     0.0000000000000000E+00 
    6.2500000000018124E-02     3.7500000000140382E-01     0.0000000000000000E+00 
    6.2500000000042327E-02     4.3750000000163619E-01     0.0000000000000000E+00 
    6.2500000000066530E-02     5.0000000000184897E-01     0.0000000000000000E+00 
    6.2500000000090733E-02     5.6250000000147260E-01     0.0000000000000000E+00 
    6.2500000000114922E-02     6.2500000000107636E-01     0.0000000000000000E+00 
    6.2500000000139125E-02     6.8750000000068034E-01     0.0000000000000000E+00 
    6.2500000000163328E-02     7.5000000000028411E-01     0.0000000000000000E+00 
    6.2500000000187531E-02     8.1249999999988787E-01     0.0000000000000000E+00 
    6.2500000000211720E-02     8.7499999999951172E-01     0.0000000000000000E+00 
    6.2500000000235922E-02     9.3749999999974565E-01     0.0000000000000000E+00 
    1.2499999999981980E-01     6.2500000000211733E-02     0.0000000000000000E+00 
    1.2499999999986650E-01     1.2500000000042691E-01     0.0000000000000000E+00 
    1.2499999999991319E-01     1.8750000000063199E-01     0.0000000000000000E+00 
    1.2499999999995989E-01     2.5000000000083678E-01     0.0000000000000000E+00 
    1.2500000000000661E-01     3.1250000000104172E-01     0.0000000000000000E+00 
    1.2500000000005329E-01     3.7500000000124661E-01     0.0000000000000000E+00 
    1.2500000000010000E-01     4.3750000000145117E-01     0.0000000000000000E+00 
    1.2500000000014669E-01     5.0000000000163858E-01     0.0000000000000000E+00 
    1.2500000000019340E-01     5.6250000000129741E-01     0.0000000000000000E+00 
    1.2500000000024011E-01     6.2500000000093847E-01     0.0000000000000000E+00 
    1.2500000000028680E-01     6.8750000000057998E-01     0.0000000000000000E+00 
    1.2500000000033351E-01     7.5000000000022127E-01     0.0000000000000000E+00 
    1.2500000000038020E-01     8.1249999999986211E-01     0.0000000000000000E+00 
    1.2500000000042691E-01     8.7499999999952238E-01     0.0000000000000000E+00 
    1.2500000000047359E-01     9.3749999999975164E-01     0.0000000000000000E+00 
    1.8749999999966760E-01     6.2500000000187531E-02     0.0000000000000000E+00 
    1.8749999999974179E-01     1.2500000000038020E-01     0.0000000000000000E+00 
    1.8749999999981601E-01     1.8750000000055780E-01     0.0000000000000000E+00 
    1.8749999999989009E-01     2.5000000000073502E-01     0.0000000000000000E+00 
    1.8749999999996431E-01     3.1250000000091221E-01     0.0000000000000000E+00 
    1.8750000000003850E-01     3.7500000000108941E-01     0.0000000000000000E+00 
    1.8750000000011269E-01     4.3750000000126649E-01     0.0000000000000000E+00 
    1.8750000000018691E-01     5.0000000000142808E-01     0.0000000000000000E+00 
    1.8750000000026110E-01     5.6250000000112244E-01     0.0000000000000000E+00 
    1.8750000000033529E-01     6.2500000000080080E-01     0.0000000000000000E+00 
    1.8750000000040951E-01     6.8750000000047962E-01     0.0000000000000000E+00 
    1.8750000000048361E-01     7.5000000000015843E-01     0.0000000000000000E+00 
    1.8750000000055780E-01     8.1249999999983680E-01     0.0000000000000000E+00 
    1.8750000000063199E-01     8.7499999999953304E-01     0.0000000000000000E+00 
    1.8750000000070621E-01     9.3749999999975764E-01     0.0000000000000000E+00 
    2.4999999999951281E-01     6.2500000000163314E-02     0.0000000000000000E+00 
    2.4999999999961461E-01     1.2500000000033351E-01     0.0000000000000000E+00 
    2.4999999999971650E-01     1.8750000000048361E-01     0.0000000000000000E+00 
    2.4999999999981831E-01     2.5000000000063310E-01     0.0000000000000000E+00 
    2.4999999999992020E-01     3.1250000000078260E-01     0.0000000000000000E+00 
    2.5000000000002198E-01     3.7500000000093209E-01     0.0000000000000000E+00 
    2.5000000000012390E-01     4.3750000000108180E-01     0.0000000000000000E+00 
    2.5000000000022571E-01     5.0000000000121769E-01     0.0000000000000000E+00 
    2.5000000000032763E-01     5.6250000000094724E-01     0.0000000000000000E+00 
    2.5000000000042938E-01     6.2500000000066314E-01     0.0000000000000000E+00 
    2.5000000000053119E-01     6.8750000000037925E-01     0.0000000000000000E+00 
[...]
CELL_DATA 256 
SCALARS Pressure double 1 
LOOKUP_TABLE default 

    7.3570249700678381E-01 
    7.3375313097784256E-01 
    7.3194052305996427E-01 
    7.3028051000581429E-01 
    7.2876742837076214E-01 
    7.2739504629195972E-01 
    7.2615770409933666E-01 
    7.2505057885695523E-01 
    7.2406973815106890E-01 
    7.2321212756431019E-01 
    7.2247553556600952E-01 
    7.2185854669744887E-01 
    7.2136046648195085E-01 
    7.2098111841807011E-01 
    7.2072002170949234E-01 
    7.2057336420879226E-01 
    7.0703870313451422E-01 
    7.0694908363827991E-01 
    7.0679084703016259E-01 
    7.0658361401163183E-01 
    7.0634258347496615E-01 
    7.0608067777757133E-01 
    7.0580901307300581E-01 
    7.0553721530017954E-01 
    7.0527366244523904E-01 
    7.0502567769392843E-01 
    7.0479968345085375E-01 
    7.0460131615030908E-01 
    7.0443548071695394E-01 
    7.0430625117290158E-01 
    7.0421628831791960E-01 
    7.0416558871281199E-01 
    6.8029842218239189E-01 
    6.8028172090018668E-01 
    6.8024942919304454E-01 
    6.8020348400165964E-01 
    6.8014616403350481E-01 
    6.8007999159064181E-01 
    6.8000764776435063E-01 
    6.7993189738618820E-01 
    6.7985552946054451E-01 
    6.7978131036206413E-01 
    6.7971194408475533E-01 
    6.7965002769983707E-01 
    6.7959797071268768E-01 
    6.7955779081171608E-01 
    6.7953061381954305E-01 
    6.7951592590971521E-01 
    6.5043708112758591E-01 
    6.5042919511964736E-01 
    6.5041397477657648E-01 
    6.5039230005679449E-01 
    6.5036515088723312E-01 
    6.5033360119645978E-01 
    6.5029881572276904E-01 
    6.5026203926636772E-01 
    6.5022458321313592E-01 
    6.5018781000819370E-01 
    6.5015311171825607E-01 
    6.5012186957693918E-01 
    6.5009535823748532E-01 
    6.5007450874779305E-01 
    6.5005943746934924E-01 
    6.5005010657574636E-01 
    6.1716890673043256E-01 
    6.1716245297725381E-01 
    6.1715000721495394E-01 
    6.1713227846544860E-01 
    6.1711002158250627E-01 
    6.1708402453004629E-01 
    6.1705511274176772E-01 
    6.1702414858159182E-01 
    6.1699202525829666E-01 
    6.1695965299144051E-01 
    6.1692792892736492E-01 
    6.1689766691424375E-01 
    6.1686942474620909E-01 
    6.1684307379014691E-01 
    6.1681678054017275E-01 
    6.1679389236656046E-01 
    5.8065411897864794E-01 
    5.8064785134920915E-01 
    5.8063573254530276E-01 
    5.8061840418272848E-01 
    5.8059654586584442E-01 
    5.8057085116225471E-01 
    5.8054202818685163E-01 
    5.8051079767204439E-01 
    5.8047788347876816E-01 
    5.8044398957080634E-01 
    5.8040974807801138E-01 
    5.8037559772782021E-01 
    5.8034148339009439E-01 
    5.8030606786858130E-01 
    5.8026445485438127E-01 
    5.8022565040717811E-01 
    5.4104736618799620E-01 
    5.4104125997730856E-01 
    5.4102944399456843E-01 
    5.4101253948988837E-01 
    5.4099121900141300E-01 
    5.4096617587655749E-01 
    5.4093812270168318E-01 
    5.4090778993876154E-01 
    5.4087591696091719E-01 
    5.4084322672775786E-01 
    5.4081036320850806E-01 
    5.4077773564816545E-01 
    5.4074510976684953E-01 
    5.4071044816304337E-01 
    5.4066755117463716E-01 
    5.4062921406883024E-01 
    4.9841917707022093E-01 
    4.9841277117043170E-01 
    4.9840032214480945E-01 
    4.9838240926510058E-01 
    4.9835966809315974E-01 
    4.9833275414002132E-01 
    4.9830233659988127E-01 
    4.9826909314436724E-01 
    4.9823369513542748E-01 
    4.9819676985324279E-01 
    4.9815880763412745E-01 
    4.9811992401914673E-01 
    4.9807919378532012E-01 
    4.9803259795765709E-01 
    4.9797944813624029E-01 
    4.9794337488147472E-01 
    4.5280640652898241E-01 
    4.5279921435409015E-01 
    4.5278514017450100E-01 
    4.5276469054978713E-01 
    4.5273842214391363E-01 
    4.5270689879225728E-01 
    4.5267067678814760E-01 
    4.5263028904087871E-01 
    4.5258621307246866E-01 
    4.5253879966420302E-01 
    4.5248810334866707E-01 
    4.5243343858405483E-01 
    4.5237206431721266E-01 
    4.5229584139232626E-01 
    4.5221733833609595E-01 
    4.5217657563063601E-01 
    4.0420183617812400E-01 
    4.0419369766485758E-01 
    4.0417767330724247E-01 
    4.0415419441992206E-01 
    4.0412374117942318E-01 
    4.0408679306839707E-01 
    4.0404380375423915E-01 
    4.0399516932119012E-01 
    4.0394116724004897E-01 
    4.0388182335210343E-01 
    4.0381658970399453E-01 
    4.0374346166279590E-01 
    4.0365641349583797E-01 
    4.0355208603196063E-01 
    4.0346362870853325E-01 
    4.0342288413310973E-01 
    3.5247672427902244E-01 
    3.5246648781850370E-01 
    3.5244615509902094E-01 
    3.5241600330487893E-01 
    3.5237633855299344E-01 
    3.5232743049630882E-01 
    3.5226945977991386E-01 
    3.5220243882769470E-01 
    3.5212606010137437E-01 
    3.5203936708494787E-01 
    3.5193995287797253E-01 
    3.5182198070809356E-01 
    3.5167780425017592E-01 
    3.5153291006508108E-01 
    3.5144014241926913E-01 
    3.5140112074378460E-01 
    2.9736753905623986E-01 
    2.9735167143187224E-01 
    2.9731980539669123E-01 
    2.9727183816255676E-01 
    2.9720761805473173E-01 
    2.9712682333216572E-01 
    2.9702880879555471E-01 
    2.9691234269327110E-01 
    2.9677511096742992E-01 
    2.9661282096872776E-01 
    2.9641858332014187E-01 
    2.9619084141834540E-01 
    2.9595925241391902E-01 
    2.9578615253247026E-01 
    2.9568904035963511E-01 
    2.9564571840270581E-01 
    2.3843292837290272E-01 
    2.3839989956555380E-01 
    2.3833300482025055E-01 
    2.3823114410099430E-01 
    2.3809290999781335E-01 
    2.3791635840378650E-01 
    2.3769889295577382E-01 
    2.3743773046007821E-01 
    2.3713224510323491E-01 
    2.3678985609612666E-01 
    2.3643358233285675E-01 
    2.3610652583948802E-01 
    2.3585960883934323E-01 
    2.3570351798988243E-01 
    2.3561056320620352E-01 
    2.3556444558600656E-01 
    1.7513165926586349E-01 
    1.7504394451414432E-01 
    1.7487009336980092E-01 
    1.7461411862118498E-01 
    1.7428294872403380E-01 
    1.7388741187397538E-01 
    1.7344314189602975E-01 
    1.7297109722240939E-01 
    1.7249784688503597E-01 
    1.7205554459237751E-01 
    1.7167790520765530E-01 
    1.7138679755154193E-01 
    1.7117751727894451E-01 
    1.7102698317915760E-01 
    1.7092410379263628E-01 
    1.7087141321516186E-01 
    1.1071702240851626E-01 
    1.1055004616134417E-01 
    1.1022254218163301E-01 
    1.0974608517922653E-01 
    1.0913663211217356E-01 
    1.0841480751313065E-01 
    1.0760575708946681E-01 
    1.0673798132878090E-01 
    1.0584110301796951E-01 
    1.0494306669363962E-01 
    1.0406653837962934E-01 
    1.0322665312637087E-01 
    1.0244239769678126E-01 
    1.0175349355989301E-01 
    1.0121879542718761E-01 
    1.0090932309740600E-01 
    6.2813140148447646E-02 
    6.2352525203913378E-02 
    6.1432045320120497E-02 
    6.0049705369911881E-02 
    5.8200458488978840E-02 
    5.5876038059107062E-02 
    5.3064401101106246E-02 
    4.9747820618445168E-02 
    4.5899140247450829E-02 
    4.1478581667528734E-02 
    3.6436521636104724E-02 
    3.0721299945669994E-02 
    2.4281222944792805E-02 
    1.7059534651443799E-02 
    8.9909067690120519E-03 
    0.0000000000000000E+00 

SCALARS Saturarion double 1 
LOOKUP_TABLE default 

    1.0000000000000000E+00 
    9.6016136484842329E-01 
    9.3531129700762594E-01 
    9.1168382270728476E-01 
    8.8825651275884765E-01 
    8.6460887231814176E-01 
    8.4046355335758693E-01 
    8.1556710789202647E-01 
    7.8963153697711208E-01 
    7.6228136046652939E-01 
    7.3297765026808270E-01 
    7.0087632106892794E-01 
    6.6450826308142430E-01 
    6.2087051410317262E-01 
    5.6174187413997678E-01 
    4.4972248498393208E-01 
    8.5430650248811157E-01 
    8.4101135519310333E-01 
    8.2574833250744584E-01 
    8.0960635201551101E-01 
    7.9266877127077229E-01 
    7.7491640415673391E-01 
    7.5626925504891884E-01 
    7.3658671580041513E-01 
    7.1565106376415288E-01 
    6.9313162453606758E-01 
    6.6851336392025007E-01 
    6.4094477510002201E-01 
    6.0886428339809917E-01 
    5.6885333031161545E-01 
    5.1093473129945222E-01 
    3.9389174779817265E-01 
    7.7260776720767121E-01 
    7.6251811945526859E-01 
    7.5032360000577192E-01 
    7.3722180138238558E-01 
    7.2335801331759175E-01 
    7.0869931731734570E-01 
    6.9314680118654970E-01 
    6.7654478035942134E-01 
    6.5866323096432244E-01 
    6.3915760047318237E-01 
    6.1748755640556130E-01 
    5.9273785404397250E-01 
    5.6315881195731077E-01 
    5.2472924268704224E-01 
    4.6553188858243305E-01 
    3.3447916103783737E-01 
    7.1351891943451540E-01 
    7.0515155678029384E-01 
    6.9472608019401760E-01 
    6.8341069158923040E-01 
    6.7137967062910697E-01 
    6.5859943852846714E-01 
    6.4496156646722524E-01 
    6.3029864937484081E-01 
    6.1436696837899885E-01 
    5.9680229617890224E-01 
    5.7702681851008719E-01 
    5.5403669223040741E-01 
    5.2584644793672819E-01 
    4.8777945690059238E-01 
    4.2608399445352868E-01 
    2.6743859584107432E-01 
    6.6662486809236188E-01 
    6.5946300337044850E-01 
    6.5033252975207201E-01 
    6.4031491796524465E-01 
    6.2959961545819620E-01 
    6.1815970287483879E-01 
    6.0588548235214978E-01 
    5.9260342019088930E-01 
    5.7805834124531130E-01 
    5.6186422856654972E-01 
    5.4339636973941741E-01 
    5.2153856053440750E-01 
    4.9402076186413774E-01 
    4.5542556161153791E-01 
    3.8992810482187762E-01 
    1.8289428895202212E-01 
    6.2716122206829894E-01 
    6.2091433045254518E-01 
    6.1280560364718051E-01 
    6.0381151479244433E-01 
    5.9412359267781778E-01 
    5.8372052954222253E-01 
    5.7249252360053327E-01 
    5.6025979810175097E-01 
    5.4675232644191329E-01 
    5.3155257779618748E-01 
    5.1396592369820726E-01 
    4.9270909106296373E-01 
    4.6508758729132388E-01 
    4.2448956877212662E-01 
    3.5042564918207447E-01 
    8.4725046645521343E-02 
    5.9255311427887369E-01 
    5.8702754118101608E-01 
    5.7975247626362436E-01 
    5.7159847533531627E-01 
    5.6274977879121246E-01 
    5.5318756339350561E-01 
    5.4280069488276395E-01 
    5.3140108140644371E-01 
    5.1869854653209435E-01 
    5.0423129237536168E-01 
    4.8720433832677373E-01 
    4.6608851554797442E-01 
    4.3752425574612908E-01 
    3.9272601848011224E-01 
    2.9764339655576499E-01 
    2.4655404064372777E-02 
    5.6116086514902763E-01 
    5.5621733414291186E-01 
    5.4963748565418791E-01 
    5.4219113590897716E-01 
    5.3404952003720174E-01 
    5.2519371645510637E-01 
    5.1551035592431693E-01 
    5.0480207927819942E-01 
    4.9275572196766726E-01 
    4.7885674712636411E-01 
    4.6218543452991756E-01 
    4.4089013018429019E-01 
    4.1064998614831288E-01 
    3.5896929928776400E-01 
    2.1764885820875929E-01 
    5.7576588228866101E-03 
    5.3173764262073198E-01 
    5.2726261177665368E-01 
    5.2125842436917402E-01 
    5.1440225203882450E-01 
    5.0684819216881261E-01 
    4.9857373728617488E-01 
    4.8946023878849809E-01 
    4.7929679847361673E-01 
    4.6773890569437138E-01 
    4.5419970914998470E-01 
    4.3758205700613889E-01 
    4.1554322397503057E-01 
    3.8210456832672723E-01 
    3.1666213784449659E-01 
    1.0170902205288955E-01 
    5.5144600195431077E-04 
    5.0314613305298295E-01 
    4.9903584985256494E-01 
    4.9349140229089122E-01 
    4.8710553641159549E-01 
    4.8001136404756273E-01 
    4.7217756001253858E-01 
    4.6347345579355487E-01 
    4.5366380088088548E-01 
    4.4235202122730416E-01 
    4.2883228043687827E-01 
    4.1170431892429249E-01 
    3.8771602684581741E-01 
    3.4736520269910864E-01 
    2.4671126591029130E-01 
    2.0580250077972387E-02 
    9.3407475981254908E-06 
    4.7404044731865158E-01 
    4.7018270890166464E-01 
    4.6496604634842720E-01 
    4.5890447040621529E-01 
    4.5210485406079304E-01 
    4.4451809936515635E-01 
    4.3598756946372158E-01 
    4.2622935466954254E-01 
    4.1474659142004877E-01 
    4.0060277484887213E-01 
    3.8177930710108721E-01 
    3.5297993484256557E-01 
    2.9526560759870374E-01 
    1.1864509192165512E-01 
    1.2323896684930940E-03 
    7.7696153158406916E-09 
    4.4227316636463687E-01 
    4.3850004935738524E-01 
    4.3339963285556365E-01 
    4.2740704521570577E-01 
    4.2058915583616302E-01 
    4.1285436386193364E-01 
    4.0397756072860808E-01 
    3.9354702442497674E-01 
    3.8080027575878789E-01 
    3.6416629593807132E-01 
    3.3979077242222805E-01 
    2.9560556874566840E-01 
    1.8233880759318249E-01 
    1.2460661272059885E-02 
    2.2219903754430761E-06 
    1.0492976345531526E-15 
    4.0330809607015561E-01 
    3.9925476296382229E-01 
    3.9378078117893134E-01 
    3.8721874058441402E-01 
    3.7953993438868588E-01 
    3.7050893690403752E-01 
    3.5964432766126370E-01 
    3.4602759034723030E-01 
    3.2777577574309785E-01 
    3.0049167207161981E-01 
    2.5221050014745233E-01 
    1.5301228446225401E-01 
    2.4361575971882987E-02 
    2.5967345303194899E-05 
    2.9672922154788727E-13 
    4.3186522330117564E-33 
    3.4412332844229132E-01 
    3.3861254481551051E-01 
    3.3109107576580943E-01 
    3.2162964470372174E-01 
    3.0979049756745852E-01 
    2.9462518534596660E-01 
    2.7436121734041308E-01 
    2.4574302448893184E-01 
    2.0329124988243483E-01 
    1.4144535478046397E-01 
    6.6392967975757236E-02 
    1.0820959053907226E-02 
    5.6289628534242850E-05 
    4.2256947783950690E-12 
    2.1488715403537187E-30 
    2.0140808486828664E-76 
    2.1772216934155975E-01 
    2.0695178755697607E-01 
    1.9231250766861263E-01 
    1.7367194932303043E-01 
    1.5057969548375530E-01 
    1.2281312739933631E-01 
    9.1103819511251904E-02 
    5.7968825027613781E-02 
    2.8298159758371220E-02 
    8.4112062963426458E-03 
    8.8183515524120095E-04 
    6.6021915770741835E-06 
    1.0406101942665168E-11 
    1.2427763018021553E-28 
    1.7222293414910879E-71 
   1.0089341149576627E-179 
    3.1017178067388039E-02 
    2.5586322971935402E-02 
    1.9563749192792020E-02 
    1.3700438874505729E-02 
    8.5415693293418096E-03 
    4.5148067428564262E-03 
    1.8657583306861225E-03 
    5.2317193014010297E-04 
    7.6266589238113642E-05 
    3.3090371466667516E-06 
    1.0787510037465410E-08 
    4.8130825684835688E-14 
    1.2504945320868438E-28 
    2.7964189482041856E-70 
   7.7022416218624464E-176 
    0.0000000000000000E+00 
