# vtk DataFile Version 2.0
Pressure Field Data 
ASCII 
DATASET UNSTRUCTURED_GRID 

POINTS 289 double 

    0.0000000000000000E+00     0.0000000000000000E+00     0.0000000000000000E+00 
    1.0000000000000000E+00     0.0000000000000000E+00     0.0000000000000000E+00 
    1.0000000000000000E+00     1.0000000000000000E+00     0.0000000000000000E+00 
    0.0000000000000000E+00     1.0000000000000000E+00     0.0000000000000000E+00 
    6.2499999999872928E-02     0.0000000000000000E+00     0.0000000000000000E+00 
    1.2499999999977310E-01     0.0000000000000000E+00     0.0000000000000000E+00 
    1.8749999999959341E-01     0.0000000000000000E+00     0.0000000000000000E+00 
    2.4999999999941089E-01     0.0000000000000000E+00     0.0000000000000000E+00 
    3.1249999999922851E-01     0.0000000000000000E+00     0.0000000000000000E+00 
    3.7499999999904610E-01     0.0000000000000000E+00     0.0000000000000000E+00 
    4.3749999999886358E-01     0.0000000000000000E+00     0.0000000000000000E+00 
    4.9999999999869210E-01     0.0000000000000000E+00     0.0000000000000000E+00 
    5.6249999999884603E-01     0.0000000000000000E+00     0.0000000000000000E+00 
    6.2499999999901090E-01     0.0000000000000000E+00     0.0000000000000000E+00 
    6.8749999999917577E-01     0.0000000000000000E+00     0.0000000000000000E+00 
    7.4999999999934064E-01     0.0000000000000000E+00     0.0000000000000000E+00 
    8.1249999999950551E-01     0.0000000000000000E+00     0.0000000000000000E+00 
    8.7499999999967026E-01     0.0000000000000000E+00     0.0000000000000000E+00 
    9.3749999999983513E-01     0.0000000000000000E+00     0.0000000000000000E+00 
    1.0000000000000000E+00     6.2499999999872928E-02     0.0000000000000000E+00 
    1.0000000000000000E+00     1.2499999999977310E-01     0.0000000000000000E+00 
    1.0000000000000000E+00     1.8749999999959341E-01     0.0000000000000000E+00 
    1.0000000000000000E+00     2.4999999999941089E-01     0.0000000000000000E+00 
    1.0000000000000000E+00     3.1249999999922851E-01     0.0000000000000000E+00 
    1.0000000000000000E+00     3.7499999999904610E-01     0.0000000000000000E+00 
    1.0000000000000000E+00     4.3749999999886358E-01     0.0000000000000000E+00 
    1.0000000000000000E+00     4.9999999999869210E-01     0.0000000000000000E+00 
    1.0000000000000000E+00     5.6249999999884603E-01     0.0000000000000000E+00 
    1.0000000000000000E+00     6.2499999999901090E-01     0.0000000000000000E+00 
    1.0000000000000000E+00     6.8749999999917577E-01     0.0000000000000000E+00 
    1.0000000000000000E+00     7.4999999999934064E-01     0.0000000000000000E+00 
    1.0000000000000000E+00     8.1249999999950551E-01     0.0000000000000000E+00 
    1.0000000000000000E+00     8.7499999999967026E-01     0.0000000000000000E+00 
    1.0000000000000000E+00     9.3749999999983513E-01     0.0000000000000000E+00 
    9.3749999999973976E-01     1.0000000000000000E+00     0.0000000000000000E+00 
    8.7499999999950118E-01     1.0000000000000000E+00     0.0000000000000000E+00 
    8.1249999999991318E-01     1.0000000000000000E+00     0.0000000000000000E+00 
    7.5000000000034706E-01     1.0000000000000000E+00     0.0000000000000000E+00 
    6.8750000000078049E-01     1.0000000000000000E+00     0.0000000000000000E+00 
    6.2500000000121403E-01     1.0000000000000000E+00     0.0000000000000000E+00 
    5.6250000000164757E-01     1.0000000000000000E+00     0.0000000000000000E+00 
    5.0000000000205946E-01     1.0000000000000000E+00     0.0000000000000000E+00 
    4.3750000000182099E-01     1.0000000000000000E+00     0.0000000000000000E+00 
    3.7500000000156092E-01     1.0000000000000000E+00     0.0000000000000000E+00 
    3.1250000000130068E-01     1.0000000000000000E+00     0.0000000000000000E+00 
    2.5000000000104050E-01     1.0000000000000000E+00     0.0000000000000000E+00 
    1.8750000000078040E-01     1.0000000000000000E+00     0.0000000000000000E+00 
    1.2500000000052031E-01     1.0000000000000000E+00     0.0000000000000000E+00 
    6.2500000000260125E-02     1.0000000000000000E+00     0.0000000000000000E+00 
    0.0000000000000000E+00     9.3749999999973976E-01     0.0000000000000000E+00 
    0.0000000000000000E+00     8.7499999999950118E-01     0.0000000000000000E+00 
    0.0000000000000000E+00     8.1249999999991318E-01     0.0000000000000000E+00 
    0.0000000000000000E+00     7.5000000000034706E-01     0.0000000000000000E+00 
    0.0000000000000000E+00     6.8750000000078049E-01     0.0000000000000000E+00 
    0.0000000000000000E+00     6.2500000000121403E-01     0.0000000000000000E+00 
    0.0000000000000000E+00     5.6250000000164757E-01     0.0000000000000000E+00 
    0.0000000000000000E+00     5.0000000000205946E-01     0.0000000000000000E+00 
    0.0000000000000000E+00     4.3750000000182099E-01     0.0000000000000000E+00 
    0.0000000000000000E+00     3.7500000000156092E-01     0.0000000000000000E+00 
    0.0000000000000000E+00     3.1250000000130068E-01     0.0000000000000000E+00 
    0.0000000000000000E+00     2.5000000000104050E-01     0.0000000000000000E+00 
    0.0000000000000000E+00     1.8750000000078040E-01     0.0000000000000000E+00 
    0.0000000000000000E+00     1.2500000000052031E-01     0.0000000000000000E+00 
    0.0000000000000000E+00     6.2500000000260125E-02     0.0000000000000000E+00 
    6.2499999999897131E-02     6.2500000000235922E-02     0.0000000000000000E+00 
    6.2499999999921327E-02     1.2500000000047351E-01     0.0000000000000000E+00 
    6.2499999999945530E-02     1.8750000000070621E-01     0.0000000000000000E+00 
    6.2499999999969733E-02     2.5000000000093858E-01     0.0000000000000000E+00 
    6.2499999999993928E-02     3.1250000000117117E-01     0.0000000000000000E+00 
    6.2500000000018124E-02     3.7500000000140382E-01     0.0000000000000000E+00 
    6.2500000000042327E-02     4.3750000000163619E-01     0.0000000000000000E+00 
    6.2500000000066530E-02     5.0000000000184897E-01     0.0000000000000000E+00 
    6.2500000000090733E-02     5.6250000000147260E-01     0.0000000000000000E+00 
    6.2500000000114922E-02     6.2500000000107636E-01     0.0000000000000000E+00 
    6.2500000000139125E-02     6.8750000000068034E-01     0.0000000000000000E+00 
    6.2500000000163328E-02     7.5000000000028411E-01     0.0000000000000000E+00 
    6.2500000000187531E-02     8.1249999999988787E-01     0.0000000000000000E+00 
    6.2500000000211720E-02     8.7499999999951172E-01     0.0000000000000000E+00 
    6.2500000000235922E-02     9.3749999999974565E-01     0.0000000000000000E+00 
    1.2499999999981980E-01     6.2500000000211733E-02     0.0000000000000000E+00 
    1.2499999999986650E-01     1.2500000000042691E-01     0.0000000000000000E+00 
    1.2499999999991319E-01     1.8750000000063199E-01     0.0000000000000000E+00 
    1.2499999999995989E-01     2.5000000000083678E-01     0.0000000000000000E+00 
    1.2500000000000661E-01     3.1250000000104172E-01     0.0000000000000000E+00 
    1.2500000000005329E-01     3.7500000000124661E-01     0.0000000000000000E+00 
    1.2500000000010000E-01     4.3750000000145117E-01     0.0000000000000000E+00 
    1.2500000000014669E-01     5.0000000000163858E-01     0.0000000000000000E+00 
    1.2500000000019340E-01     5.6250000000129741E-01     0.0000000000000000E+00 
    1.2500000000024011E-01     6.2500000000093847E-01     0.0000000000000000E+00 
    1.2500000000028680E-01     6.8750000000057998E-01     0.0000000000000000E+00 
    1.2500000000033351E-01     7.5000000000022127E-01     0.0000000000000000E+00 
    1.2500000000038020E-01     8.1249999999986211E-01     0.0000000000000000E+00 
    1.2500000000042691E-01     8.7499999999952238E-01     0.0000000000000000E+00 
    1.2500000000047359E-01     9.3749999999975164E-01     0.0000000000000000E+00 
    1.8749999999966760E-01     6.2500000000187531E-02     0.0000000000000000E+00 
    1.8749999999974179E-01     1.2500000000038020E-01     0.0000000000000000E+00 
    1.8749999999981601E-01     1.8750000000055780E-01     0.0000000000000000E+00 
    1.8749999999989009E-01     2.5000000000073502E-01     0.0000000000000000E+00 
    1.8749999999996431E-01     3.1250000000091221E-01     0.0000000000000000E+00 
    1.8750000000003850E-01     3.7500000000108941E-01     0.0000000000000000E+00 
    1.8750000000011269E-01     4.3750000000126649E-01     0.0000000000000000E+00 
    1.8750000000018691E-01     5.0000000000142808E-01     0.0000000000000000E+00 
    1.8750000000026110E-01     5.6250000000112244E-01     0.0000000000000000E+00 
    1.8750000000033529E-01     6.2500000000080080E-01     0.0000000000000000E+00 
    1.8750000000040951E-01     6.8750000000047962E-01     0.0000000000000000E+00 
    1.8750000000048361E-01     7.5000000000015843E-01     0.0000000000000000E+00 
    1.8750000000055780E-01     8.1249999999983680E-01     0.0000000000000000E+00 
    1.8750000000063199E-01     8.7499999999953304E-01     0.0000000000000000E+00 
    1.8750000000070621E-01     9.3749999999975764E-01     0.0000000000000000E+00 
    2.4999999999951281E-01     6.2500000000163314E-02     0.0000000000000000E+00 
    2.4999999999961461E-01     1.2500000000033351E-01     0.0000000000000000E+00 
    2.4999999999971650E-01     1.8750000000048361E-01     0.0000000000000000E+00 
    2.4999999999981831E-01     2.5000000000063310E-01     0.0000000000000000E+00 
    2.4999999999992020E-01     3.1250000000078260E-01     0.0000000000000000E+00 
    2.5000000000002198E-01     3.7500000000093209E-01     0.0000000000000000E+00 
    2.5000000000012390E-01     4.3750000000108180E-01     0.0000000000000000E+00 
    2.5000000000022571E-01     5.0000000000121769E-01     0.0000000000000000E+00 
    2.5000000000032763E-01     5.6250000000094724E-01     0.0000000000000000E+00 
    2.5000000000042938E-01     6.2500000000066314E-01     0.0000000000000000E+00 
    2.5000000000053119E-01     6.8750000000037925E-01     0.0000000000000000E+00 
[...]
CELL_DATA 256 
SCALARS Pressure double 1 
LOOKUP_TABLE default 

    9.9694253982049719E-01 
    9.9418991088933728E-01 
    9.9001325141367968E-01 
    9.8524170904525621E-01 
    9.8000475427628753E-01 
    9.7470638644598018E-01 
    9.7011998692371082E-01 
    9.6624103305078834E-01 
    9.6285084379167474E-01 
    9.5992630472995999E-01 
    9.5745006973214819E-01 
    9.5540770245552098E-01 
    9.5378747012655241E-01 
    9.5258017754755697E-01 
    9.5177903804166986E-01 
    9.5137957880312807E-01 
    9.2832590638779511E-01 
    9.2763745734324898E-01 
    9.2618344838372080E-01 
    9.2441075850117971E-01 
    9.2254978845985391E-01 
    9.2074658770621831E-01 
    9.1910552390042533E-01 
    9.1762537325536753E-01 
    9.1628582544656723E-01 
    9.1509589833904526E-01 
    9.1406329761296767E-01 
    9.1319420768891035E-01 
    9.1249349512846056E-01 
    9.1196487023552886E-01 
    9.1161101130674616E-01 
    9.1143365494937034E-01 
    8.5629589144114193E-01 
    8.5619498535714544E-01 
    8.5603890904056468E-01 
    8.5586523360457223E-01 
    8.5567575878896129E-01 
    8.5546407975111194E-01 
    8.5523395441838512E-01 
    8.5499541958831282E-01 
    8.5475873723342299E-01 
    8.5453285380359811E-01 
    8.5432544529160781E-01 
    8.5414297656133875E-01 
    8.5399075337834696E-01 
    8.5387296650814770E-01 
    8.5379272743101320E-01 
    8.5375209536079877E-01 
    7.9221910188918887E-01 
    7.9223073589224524E-01 
    7.9224284650455756E-01 
    7.9224684195793671E-01 
    7.9224104830996223E-01 
    7.9222677885931936E-01 
    7.9220586316303288E-01 
    7.9218021842026498E-01 
    7.9215175651399206E-01 
    7.9212231748481621E-01 
    7.9209361479816887E-01 
    7.9206719070609199E-01 
    7.9204438034897207E-01 
    7.9202628347425186E-01 
    7.9201374286324155E-01 
    7.9200732875657309E-01 
    7.2966128287672771E-01 
    7.2966107671975311E-01 
    7.2966040317147085E-01 
    7.2965905194748071E-01 
    7.2965695484544435E-01 
    7.2965413243853272E-01 
    7.2965067655607652E-01 
    7.2964673360277921E-01 
    7.2964248808489685E-01 
    7.2963814691322715E-01 
    7.2963392484770673E-01 
    7.2963003135516014E-01 
    7.2962665907965485E-01 
    7.2962397406933810E-01 
    7.2962210786131931E-01 
    7.2962115149423301E-01 
    6.6714656233184932E-01 
    6.6714644387778355E-01 
    6.6714620689728055E-01 
    6.6714585385225100E-01 
    6.6714539187573563E-01 
    6.6714483357220289E-01 
    6.6714419703325800E-01 
    6.6714350524378019E-01 
    6.6714278503455660E-01 
    6.6714206572673995E-01 
    6.6714137759982961E-01 
    6.6714075030014375E-01 
    6.6714021129150980E-01 
    6.6713978443460009E-01 
    6.6713948876619245E-01 
    6.6713933753480514E-01 
    6.0464368754681896E-01 
    6.0464366380245826E-01 
    6.0464361707598402E-01 
    6.0464354890556959E-01 
    6.0464346160780003E-01 
    6.0464335824708326E-01 
    6.0464324256372892E-01 
    6.0464311885935174E-01 
    6.0464299184354853E-01 
    6.0464286644961152E-01 
    6.0464274762953285E-01 
    6.0464264013992852E-01 
    6.0464254833092224E-01 
    6.0464247594965592E-01 
    6.0464242596906070E-01 
    6.0464240045098161E-01 
    5.4214318718075838E-01 
    5.4214318193848976E-01 
    5.4214317164869907E-01 
    5.4214315669438007E-01 
    5.4214313763459188E-01 
    5.4214311518570901E-01 
    5.4214309019649065E-01 
    5.4214306361751752E-01 
    5.4214303646591888E-01 
    5.4214300978664787E-01 
    5.4214298461183341E-01 
    5.4214296191991529E-01 
    5.4214294259634632E-01 
    5.4214292739762626E-01 
    5.4214291692030048E-01 
    5.4214291157635730E-01 
    4.7964321102164353E-01 
    4.7964320482660627E-01 
    4.7964319267413735E-01 
    4.7964317503004400E-01 
    4.7964315257081824E-01 
    4.7964312615788374E-01 
    4.7964309680475070E-01 
    4.7964306563829601E-01 
    4.7964303385562751E-01 
    4.7964300267816401E-01 
    4.7964297330468469E-01 
    4.7964294686515679E-01 
    4.7964292437713346E-01 
    4.7964290670642279E-01 
    4.7964289453357395E-01 
    4.7964288832750418E-01 
    4.1714385434682344E-01 
    4.1714382345776263E-01 
    4.1714376286193416E-01 
    4.1714367487890380E-01 
    4.1714356287786802E-01 
    4.1714343114994767E-01 
    4.1714328474522538E-01 
    4.1714312928050834E-01 
    4.1714297072492829E-01 
    4.1714281517139412E-01 
    4.1714266860254090E-01 
    4.1714253666013767E-01 
    4.1714242442690141E-01 
    4.1714233622930269E-01 
    4.1714227546922233E-01 
    4.1714224449125897E-01 
    3.5464758656243506E-01 
    3.5464741276569312E-01 
    3.5464707176991500E-01 
    3.5464657652828552E-01 
    3.5464594587338427E-01 
    3.5464520382219966E-01 
    3.5464437868516857E-01 
    3.5464350200902783E-01 
    3.5464260738963665E-01 
    3.5464172919651638E-01 
    3.5464090125540998E-01 
    3.5464015553841483E-01 
    3.5463952091291895E-01 
    3.5463902200033443E-01 
    3.5463867819319528E-01 
    3.5463850287431431E-01 
    2.9216869844034721E-01 
    2.9216772197721935E-01 
    2.9216580526305030E-01 
    2.9216301950483381E-01 
    2.9215946849724456E-01 
    2.9215528507908661E-01 
    2.9215062653607127E-01 
    2.9214566906260125E-01 
    2.9214060142723258E-01 
    2.9213561802027532E-01 
    2.9213091149716403E-01 
    2.9212666526675685E-01 
    2.9212304610781664E-01 
    2.9212019722678506E-01 
    2.9211823209134852E-01 
    2.9211722938117907E-01 
    2.2978745662287944E-01 
    2.2978205629289544E-01 
    2.2977144316090028E-01 
    2.2975598741868503E-01 
    2.2973623217793590E-01 
    2.2971287882171687E-01 
    2.2968676743243960E-01 
    2.2965885230603583E-01 
    2.2963017262370305E-01 
    2.2960181845942607E-01 
    2.2957489246850399E-01 
    2.2955046784838998E-01 
    2.2952954351187060E-01 
    2.2951299789371904E-01 
    2.2950154346281210E-01 
    2.2949568487925287E-01 
    1.6794624779943332E-01 
    1.6791767080967518E-01 
    1.6786134208074069E-01 
    1.6777890518591460E-01 
    1.6767280740564133E-01 
    1.6754627587014928E-01 
    1.6740328204145058E-01 
    1.6724849114232815E-01 
    1.6708719201459224E-01 
    1.6692520156306909E-01 
    1.6676873635902253E-01 
    1.6662424207055357E-01 
    1.6649816907910570E-01 
    1.6639667983619211E-01 
    1.6632527009948528E-01 
    1.6628828202586665E-01 
    1.0896273795109068E-01 
    1.0882845924407740E-01 
    1.0856205758971589E-01 
    1.0816791149780582E-01 
    1.0765275815512813E-01 
    1.0702590223916415E-01 
    1.0629950369267335E-01 
    1.0548895283979486E-01 
    1.0461334378401357E-01 
    1.0369605991884427E-01 
    1.0276548869158436E-01 
    1.0185588659035567E-01 
    1.0100841979267235E-01 
    1.0027241115773237E-01 
    9.9706830427059079E-02 
    9.9382071811110001E-02 
    6.3407098804863629E-02 
    6.2951542413406489E-02 
    6.2037216853646986E-02 
    6.0657642886532560E-02 
    5.8802966233310848E-02 
    5.6459791660876703E-02 
    5.3610955982665687E-02 
    5.0235234827360697E-02 
    4.6306976491928428E-02 
    4.1795654483567403E-02 
    3.6665328420854904E-02 
    3.0874000755437028E-02 
    2.4372854231672278E-02 
    1.7105352052300096E-02 
    9.0061792818752640E-03 
    0.0000000000000000E+00 

SCALARS Saturarion double 1 
LOOKUP_TABLE default 

    1.0000000000000000E+00 
    6.6140459390980100E-01 
    5.4166927451546076E-01 
    4.4369037134394074E-01 
    3.2850912554320449E-01 
    1.3171770465706689E-01 
    4.9002899375653417E-03 
    4.6017213366404628E-07 
    1.4871168546147601E-17 
    4.0315989056230565E-45 
   3.6560300634110697E-118 
   2.6622160534046661E-315 
    0.0000000000000000E+00 
    0.0000000000000000E+00 
    0.0000000000000000E+00 
    0.0000000000000000E+00 
    3.9811309069752193E-01 
    3.0127595543114233E-01 
    1.7389488658400107E-01 
    6.8192957297840084E-02 
    1.6761381158550463E-02 
    6.0507743729620368E-04 
    6.2589249959986427E-08 
    2.2539596529665774E-18 
    6.8443019071709361E-46 
   7.1253757589885255E-119 
   6.1664325352395648E-316 
    0.0000000000000000E+00 
    0.0000000000000000E+00 
    0.0000000000000000E+00 
    0.0000000000000000E+00 
    0.0000000000000000E+00 
    7.1454410963238207E-02 
    2.8587921977609579E-02 
    5.1010529179483094E-03 
    4.2707488643901296E-04 
    9.6787881826434106E-06 
    1.1894476212674591E-09 
    5.2627664651436727E-20 
    1.9880485145827636E-47 
   2.6192844805865826E-120 
   2.9984804520853585E-317 
    0.0000000000000000E+00 
    0.0000000000000000E+00 
    0.0000000000000000E+00 
    0.0000000000000000E+00 
    0.0000000000000000E+00 
    0.0000000000000000E+00 
    7.8936701747443598E-04 
    6.8083498774948879E-05 
    9.8524969377947154E-07 
    3.3952574747899848E-09 
    2.9233645030608915E-13 
    1.8914069084051341E-23 
    1.1050930313574665E-50 
   2.2433172242720753E-123 
   4.1738665760668508E-320 
    0.0000000000000000E+00 
    0.0000000000000000E+00 
    0.0000000000000000E+00 
    0.0000000000000000E+00 
    0.0000000000000000E+00 
    0.0000000000000000E+00 
    0.0000000000000000E+00 
    2.6208619463092167E-08 
    8.8827156697915371E-11 
    5.9774362777024334E-15 
    1.8049373695434307E-20 
    1.1667509514549176E-30 
    1.4391802496003209E-57 
   6.9633125844130903E-130 
    0.0000000000000000E+00 
    0.0000000000000000E+00 
    0.0000000000000000E+00 
    0.0000000000000000E+00 
    0.0000000000000000E+00 
    0.0000000000000000E+00 
    0.0000000000000000E+00 
    0.0000000000000000E+00 
    0.0000000000000000E+00 
    5.4795733010095296E-18 
    1.5360170736148502E-23 
    7.5120559725172629E-33 
    1.9382731067931478E-45 
    5.9151653590782178E-72 
   1.2675188534422356E-143 
    0.0000000000000000E+00 
    0.0000000000000000E+00 
    0.0000000000000000E+00 
    0.0000000000000000E+00 
    0.0000000000000000E+00 
    0.0000000000000000E+00 
    0.0000000000000000E+00 
    0.0000000000000000E+00 
    0.0000000000000000E+00 
    0.0000000000000000E+00 
    1.1765676808329663E-38 
    4.0000859206897346E-51 
    5.9931369737447207E-72 
   8.9380890088058724E-102 
   2.2596519336574353E-172 
    0.0000000000000000E+00 
    0.0000000000000000E+00 
    0.0000000000000000E+00 
    0.0000000000000000E+00 
    0.0000000000000000E+00 
    0.0000000000000000E+00 
    0.0000000000000000E+00 
    0.0000000000000000E+00 
    0.0000000000000000E+00 
    0.0000000000000000E+00 
    0.0000000000000000E+00 
    7.6616513593886783E-83 
   4.7575227055588882E-111 
   5.1201665762335718E-158 
   5.1900673265185155E-232 
    0.0000000000000000E+00 
    0.0000000000000000E+00 
    0.0000000000000000E+00 
    0.0000000000000000E+00 
    0.0000000000000000E+00 
    0.0000000000000000E+00 
    0.0000000000000000E+00 
    0.0000000000000000E+00 
    0.0000000000000000E+00 
    0.0000000000000000E+00 
    0.0000000000000000E+00 
    0.0000000000000000E+00 
   8.7618250867164940E-178 
   5.2995470069440062E-242 
    0.0000000000000000E+00 
    0.0000000000000000E+00 
    0.0000000000000000E+00 
    0.0000000000000000E+00 
    0.0000000000000000E+00 
    0.0000000000000000E+00 
    0.0000000000000000E+00 
    0.0000000000000000E+00 
    0.0000000000000000E+00 
    0.0000000000000000E+00 
    0.0000000000000000E+00 
    0.0000000000000000E+00 
    0.0000000000000000E+00 
    0.0000000000000000E+00 
    0.0000000000000000E+00 
    0.0000000000000000E+00 
    0.0000000000000000E+00 
    0.0000000000000000E+00 
    0.0000000000000000E+00 
    0.0000000000000000E+00 
    0.0000000000000000E+00 
    0.0000000000000000E+00 
    0.0000000000000000E+00 
    0.0000000000000000E+00 
    0.0000000000000000E+00 
    0.0000000000000000E+00 
    0.0000000000000000E+00 
    0.0000000000000000E+00 
    0.0000000000000000E+00 
    0.0000000000000000E+00 
    0.0000000000000000E+00 
    0.0000000000000000E+00 
    0.0000000000000000E+00 
    0.0000000000000000E+00 
    0.0000000000000000E+00 
    0.0000000000000000E+00 
    0.0000000000000000E+00 
    0.0000000000000000E+00 
    0.0000000000000000E+00 
    0.0000000000000000E+00 
    0.0000000000000000E+00 
    0.0000000000000000E+00 
    0.0000000000000000E+00 
    0.0000000000000000E+00 
    0.0000000000000000E+00 
    0.0000000000000000E+00 
    0.0000000000000000E+00 
    0.0000000000000000E+00 
    0.0000000000000000E+00 
    0.0000000000000000E+00 
    0.0000000000000000E+00 
    0.0000000000000000E+00 
    0.0000000000000000E+00 
    0.0000000000000000E+00 
    0.0000000000000000E+00 
    0.0000000000000000E+00 
    0.0000000000000000E+00 
    0.0000000000000000E+00 
    0.0000000000000000E+00 
    0.0000000000000000E+00 
    0.0000000000000000E+00 
    0.0000000000000000E+00 
    0.0000000000000000E+00 
    0.0000000000000000E+00 
    0.0000000000000000E+00 
    0.0000000000000000E+00 
    0.0000000000000000E+00 
    0.0000000000000000E+00 
    0.0000000000000000E+00 
    0.0000000000000000E+00 
    0.0000000000000000E+00 
    0.0000000000000000E+00 
    0.0000000000000000E+00 
    0.0000000000000000E+00 
    0.0000000000000000E+00 
    0.0000000000000000E+00 
    0.0000000000000000E+00 
    0.0000000000000000E+00 
    0.0000000000000000E+00 
    0.0000000000000000E+00 
    0.0000000000000000E+00 
    0.0000000000000000E+00 
    0.0000000000000000E+00 
    0.0000000000000000E+00 
    0.0000000000000000E+00 
    0.0000000000000000E+00 
    0.0000000000000000E+00 
    0.0000000000000000E+00 
    0.0000000000000000E+00 
    0.0000000000000000E+00 
    0.0000000000000000E+00 
    0.0000000000000000E+00 
    0.0000000000000000E+00 
    0.0000000000000000E+00 
    0.0000000000000000E+00 
    0.0000000000000000E+00 
    0.0000000000000000E+00 
    0.0000000000000000E+00 
    0.0000000000000000E+00 
    0.0000000000000000E+00 
    0.0000000000000000E+00 
    0.0000000000000000E+00 
    0.0000000000000000E+00 
    0.0000000000000000E+00 
    0.0000000000000000E+00 
    0.0000000000000000E+00 
    0.0000000000000000E+00 
    0.0000000000000000E+00 
    0.0000000000000000E+00 
    0.0000000000000000E+00 
    0.0000000000000000E+00 
    0.0000000000000000E+00 
    0.0000000000000000E+00 
    0.0000000000000000E+00 
    0.0000000000000000E+00 
    0.0000000000000000E+00 
    0.0000000000000000E+00 
    0.0000000000000000E+00 
    0.0000000000000000E+00 
    0.0000000000000000E+00 
    0.0000000000000000E+00 
    0.0000000000000000E+00 
    0.0000000000000000E+00 
    0.0000000000000000E+00 
    0.0000000000000000E+00 
    0.0000000000000000E+00 
