# vtk DataFile Version 2.0
Pressure Field Data 
ASCII 
DATASET UNSTRUCTURED_GRID 

POINTS 289 double 

    0.0000000000000000E+00     0.0000000000000000E+00     0.0000000000000000E+00 
    1.0000000000000000E+00     0.0000000000000000E+00     0.0000000000000000E+00 
    1.0000000000000000E+00     1.0000000000000000E+00     0.0000000000000000E+00 
    0.0000000000000000E+00     1.0000000000000000E+00     0.0000000000000000E+00 
    6.2499999999872928E-02     0.0000000000000000E+00     0.0000000000000000E+00 
    1.2499999999977310E-01     0.0000000000000000E+00     0.0000000000000000E+00 
    1.8749999999959341E-01     0.0000000000000000E+00     0.0000000000000000E+00 
    2.4999999999941089E-01     0.0000000000000000E+00     0.0000000000000000E+00 
    3.1249999999922851E-01     0.0000000000000000E+00     0.0000000000000000E+00 
    3.7499999999904610E-01     0.0000000000000000E+00     0.0000000000000000E+00 
    4.3749999999886358E-01     0.0000000000000000E+00     0.0000000000000000E+00 
    4.9999999999869210E-01     0.0000000000000000E+00     0.0000000000000000E+00 
    5.6249999999884603E-01     0.0000000000000000E+00     0.0000000000000000E+00 
    6.2499999999901090E-01     0.0000000000000000E+00     0.0000000000000000E+00 
    6.8749999999917577E-01     0.0000000000000000E+00     0.0000000000000000E+00 
    7.4999999999934064E-01     0.0000000000000000E+00     0.0000000000000000E+00 
    8.1249999999950551E-01     0.0000000000000000E+00     0.0000000000000000E+00 
    8.7499999999967026E-01     0.0000000000000000E+00     0.0000000000000000E+00 
    9.3749999999983513E-01     0.0000000000000000E+00     0.0000000000000000E+00 
    1.0000000000000000E+00     6.2499999999872928E-02     0.0000000000000000E+00 
    1.0000000000000000E+00     1.2499999999977310E-01     0.0000000000000000E+00 
    1.0000000000000000E+00     1.8749999999959341E-01     0.0000000000000000E+00 
    1.0000000000000000E+00     2.4999999999941089E-01     0.0000000000000000E+00 
    1.0000000000000000E+00     3.1249999999922851E-01     0.0000000000000000E+00 
    1.0000000000000000E+00     3.7499999999904610E-01     0.0000000000000000E+00 
    1.0000000000000000E+00     4.3749999999886358E-01     0.0000000000000000E+00 
    1.0000000000000000E+00     4.9999999999869210E-01     0.0000000000000000E+00 
    1.0000000000000000E+00     5.6249999999884603E-01     0.0000000000000000E+00 
    1.0000000000000000E+00     6.2499999999901090E-01     0.0000000000000000E+00 
    1.0000000000000000E+00     6.8749999999917577E-01     0.0000000000000000E+00 
    1.0000000000000000E+00     7.4999999999934064E-01     0.0000000000000000E+00 
    1.0000000000000000E+00     8.1249999999950551E-01     0.0000000000000000E+00 
    1.0000000000000000E+00     8.7499999999967026E-01     0.0000000000000000E+00 
    1.0000000000000000E+00     9.3749999999983513E-01     0.0000000000000000E+00 
    9.3749999999973976E-01     1.0000000000000000E+00     0.0000000000000000E+00 
    8.7499999999950118E-01     1.0000000000000000E+00     0.0000000000000000E+00 
    8.1249999999991318E-01     1.0000000000000000E+00     0.0000000000000000E+00 
    7.5000000000034706E-01     1.0000000000000000E+00     0.0000000000000000E+00 
    6.8750000000078049E-01     1.0000000000000000E+00     0.0000000000000000E+00 
    6.2500000000121403E-01     1.0000000000000000E+00     0.0000000000000000E+00 
    5.6250000000164757E-01     1.0000000000000000E+00     0.0000000000000000E+00 
    5.0000000000205946E-01     1.0000000000000000E+00     0.0000000000000000E+00 
    4.3750000000182099E-01     1.0000000000000000E+00     0.0000000000000000E+00 
    3.7500000000156092E-01     1.0000000000000000E+00     0.0000000000000000E+00 
    3.1250000000130068E-01     1.0000000000000000E+00     0.0000000000000000E+00 
    2.5000000000104050E-01     1.0000000000000000E+00     0.0000000000000000E+00 
    1.8750000000078040E-01     1.0000000000000000E+00     0.0000000000000000E+00 
    1.2500000000052031E-01     1.0000000000000000E+00     0.0000000000000000E+00 
    6.2500000000260125E-02     1.0000000000000000E+00     0.0000000000000000E+00 
    0.0000000000000000E+00     9.3749999999973976E-01     0.0000000000000000E+00 
    0.0000000000000000E+00     8.7499999999950118E-01     0.0000000000000000E+00 
    0.0000000000000000E+00     8.1249999999991318E-01     0.0000000000000000E+00 
    0.0000000000000000E+00     7.5000000000034706E-01     0.0000000000000000E+00 
    0.0000000000000000E+00     6.8750000000078049E-01     0.0000000000000000E+00 
    0.0000000000000000E+00     6.2500000000121403E-01     0.0000000000000000E+00 
    0.0000000000000000E+00     5.6250000000164757E-01     0.0000000000000000E+00 
    0.0000000000000000E+00     5.0000000000205946E-01     0.0000000000000000E+00 
    0.0000000000000000E+00     4.3750000000182099E-01     0.0000000000000000E+00 
    0.0000000000000000E+00     3.7500000000156092E-01     0.0000000000000000E+00 
    0.0000000000000000E+00     3.1250000000130068E-01     0.0000000000000000E+00 
    0.0000000000000000E+00     2.5000000000104050E-01     0.0000000000000000E+00 
    0.0000000000000000E+00     1.8750000000078040E-01     0.0000000000000000E+00 
    0.0000000000000000E+00     1.2500000000052031E-01     0.0000000000000000E+00 
    0.0000000000000000E+00     6.2500000000260125E-02     0.0000000000000000E+00 
    6.2499999999897131E-02     6.2500000000235922E-02     0.0000000000000000E+00 
    6.2499999999921327E-02     1.2500000000047351E-01     0.0000000000000000E+00 
    6.2499999999945530E-02     1.8750000000070621E-01     0.0000000000000000E+00 
    6.2499999999969733E-02     2.5000000000093858E-01     0.0000000000000000E+00 
    6.2499999999993928E-02     3.1250000000117117E-01     0.0000000000000000E+00 
    6.2500000000018124E-02     3.7500000000140382E-01     0.0000000000000000E+00 
    6.2500000000042327E-02     4.3750000000163619E-01     0.0000000000000000E+00 
    6.2500000000066530E-02     5.0000000000184897E-01     0.0000000000000000E+00 
    6.2500000000090733E-02     5.6250000000147260E-01     0.0000000000000000E+00 
    6.2500000000114922E-02     6.2500000000107636E-01     0.0000000000000000E+00 
    6.2500000000139125E-02     6.8750000000068034E-01     0.0000000000000000E+00 
    6.2500000000163328E-02     7.5000000000028411E-01     0.0000000000000000E+00 
    6.2500000000187531E-02     8.1249999999988787E-01     0.0000000000000000E+00 
    6.2500000000211720E-02     8.7499999999951172E-01     0.0000000000000000E+00 
    6.2500000000235922E-02     9.3749999999974565E-01     0.0000000000000000E+00 
    1.2499999999981980E-01     6.2500000000211733E-02     0.0000000000000000E+00 
    1.2499999999986650E-01     1.2500000000042691E-01     0.0000000000000000E+00 
    1.2499999999991319E-01     1.8750000000063199E-01     0.0000000000000000E+00 
    1.2499999999995989E-01     2.5000000000083678E-01     0.0000000000000000E+00 
    1.2500000000000661E-01     3.1250000000104172E-01     0.0000000000000000E+00 
    1.2500000000005329E-01     3.7500000000124661E-01     0.0000000000000000E+00 
    1.2500000000010000E-01     4.3750000000145117E-01     0.0000000000000000E+00 
    1.2500000000014669E-01     5.0000000000163858E-01     0.0000000000000000E+00 
    1.2500000000019340E-01     5.6250000000129741E-01     0.0000000000000000E+00 
    1.2500000000024011E-01     6.2500000000093847E-01     0.0000000000000000E+00 
    1.2500000000028680E-01     6.8750000000057998E-01     0.0000000000000000E+00 
    1.2500000000033351E-01     7.5000000000022127E-01     0.0000000000000000E+00 
    1.2500000000038020E-01     8.1249999999986211E-01     0.0000000000000000E+00 
    1.2500000000042691E-01     8.7499999999952238E-01     0.0000000000000000E+00 
    1.2500000000047359E-01     9.3749999999975164E-01     0.0000000000000000E+00 
    1.8749999999966760E-01     6.2500000000187531E-02     0.0000000000000000E+00 
    1.8749999999974179E-01     1.2500000000038020E-01     0.0000000000000000E+00 
    1.8749999999981601E-01     1.8750000000055780E-01     0.0000000000000000E+00 
    1.8749999999989009E-01     2.5000000000073502E-01     0.0000000000000000E+00 
    1.8749999999996431E-01     3.1250000000091221E-01     0.0000000000000000E+00 
    1.8750000000003850E-01     3.7500000000108941E-01     0.0000000000000000E+00 
    1.8750000000011269E-01     4.3750000000126649E-01     0.0000000000000000E+00 
    1.8750000000018691E-01     5.0000000000142808E-01     0.0000000000000000E+00 
    1.8750000000026110E-01     5.6250000000112244E-01     0.0000000000000000E+00 
    1.8750000000033529E-01     6.2500000000080080E-01     0.0000000000000000E+00 
    1.8750000000040951E-01     6.8750000000047962E-01     0.0000000000000000E+00 
    1.8750000000048361E-01     7.5000000000015843E-01     0.0000000000000000E+00 
    1.8750000000055780E-01     8.1249999999983680E-01     0.0000000000000000E+00 
    1.8750000000063199E-01     8.7499999999953304E-01     0.0000000000000000E+00 
    1.8750000000070621E-01     9.3749999999975764E-01     0.0000000000000000E+00 
    2.4999999999951281E-01     6.2500000000163314E-02     0.0000000000000000E+00 
    2.4999999999961461E-01     1.2500000000033351E-01     0.0000000000000000E+00 
    2.4999999999971650E-01     1.8750000000048361E-01     0.0000000000000000E+00 
    2.4999999999981831E-01     2.5000000000063310E-01     0.0000000000000000E+00 
    2.4999999999992020E-01     3.1250000000078260E-01     0.0000000000000000E+00 
    2.5000000000002198E-01     3.7500000000093209E-01     0.0000000000000000E+00 
    2.5000000000012390E-01     4.3750000000108180E-01     0.0000000000000000E+00 
    2.5000000000022571E-01     5.0000000000121769E-01     0.0000000000000000E+00 
    2.5000000000032763E-01     5.6250000000094724E-01     0.0000000000000000E+00 
    2.5000000000042938E-01     6.2500000000066314E-01     0.0000000000000000E+00 
    2.5000000000053119E-01     6.8750000000037925E-01     0.0000000000000000E+00 
[...]
CELL_DATA 256 
SCALARS Pressure double 1 
LOOKUP_TABLE default 

    8.4898438578011171E-01 
    8.4698119753582379E-01 
    8.4507848684772113E-01 
    8.4331424116838760E-01 
    8.4168909491136479E-01 
    8.4020124348463843E-01 
    8.3884855039367290E-01 
    8.3762915916177227E-01 
    8.3654172194545806E-01 
    8.3558548817314537E-01 
    8.3476032199582217E-01 
    8.3406664328012892E-01 
    8.3350517460428386E-01 
    8.3307600464541898E-01 
    8.3277546734559937E-01 
    8.3260075472979489E-01 
    8.1670856292403371E-01 
    8.1660130355594562E-01 
    8.1641019719152552E-01 
    8.1615916283809864E-01 
    8.1586585119588151E-01 
    8.1554538395909082E-01 
    8.1521093236338404E-01 
    8.1487405956455372E-01 
    8.1454496506282481E-01 
    8.1423266277317519E-01 
    8.1394508934095944E-01 
    8.1368909378355125E-01 
    8.1347013456498551E-01 
    8.1329115445203182E-01 
    8.1314982356800991E-01 
    8.1305696820483409E-01 
    7.8445508562276078E-01 
    7.8442827456427833E-01 
    7.8437644142032314E-01 
    7.8430273309009635E-01 
    7.8421065355133512E-01 
    7.8410391588651074E-01 
    7.8398636238668284E-01 
    7.8386187808822871E-01 
    7.8373430556409240E-01 
    7.8360734753192185E-01 
    7.8348441820688264E-01 
    7.8336833713928944E-01 
    7.8326056809852374E-01 
    7.8315925888666804E-01 
    7.8305870085285145E-01 
    7.8298368546848063E-01 
    7.4747071031871082E-01 
    7.4745382181587905E-01 
    7.4742107702312954E-01 
    7.4737418849595472E-01 
    7.4731499995534723E-01 
    7.4724541979116699E-01 
    7.4716740916228985E-01 
    7.4708295331260277E-01 
    7.4699400595486343E-01 
    7.4690238176182611E-01 
    7.4680952511295240E-01 
    7.4671595179844275E-01 
    7.4661980196491673E-01 
    7.4651384140966748E-01 
    7.4640382433006991E-01 
    7.4633621413774587E-01 
    7.0551656196170931E-01 
    7.0550079645130814E-01 
    7.0547006462870376E-01 
    7.0542569033822033E-01 
    7.0536907926941605E-01 
    7.0530163418763492E-01 
    7.0522473071507719E-01 
    7.0513967460599813E-01 
    7.0504760745932804E-01 
    7.0494929901120862E-01 
    7.0484466252706202E-01 
    7.0473152722269861E-01 
    7.0460274259246869E-01 
    7.0445400451436324E-01 
    7.0432451599882995E-01 
    7.0426227418749499E-01 
    6.5870677876253014E-01 
    6.5868948348622980E-01 
    6.5865545460970576E-01 
    6.5860567174453255E-01 
    6.5854116443761368E-01 
    6.5846289619112353E-01 
    6.5837169374278504E-01 
    6.5826813063642498E-01 
    6.5815228636297451E-01 
    6.5802320797555014E-01 
    6.5787763670014288E-01 
    6.5770754530526587E-01 
    6.5750787897232266E-01 
    6.5731340025817420E-01 
    6.5718519421202448E-01 
    6.5712927300718271E-01 
    6.0703227966095274E-01 
    6.0701006673613522E-01 
    6.0696572135613680E-01 
    6.0689951236566830E-01 
    6.0681160509414100E-01 
    6.0670185950919220E-01 
    6.0656959348827100E-01 
    6.0641315897832671E-01 
    6.0622913977016535E-01 
    6.0601118154307576E-01 
    6.0575182108808467E-01 
    6.0545880223350090E-01 
    6.0517804366371852E-01 
    6.0497306970294018E-01 
    6.0485525005157537E-01 
    6.0480149219491142E-01 
    5.5024097679004602E-01 
    5.5020545348383321E-01 
    5.5013309042507375E-01 
    5.5002198537323754E-01 
    5.4986949102722693E-01 
    5.4967195867039054E-01 
    5.4942491729947684E-01 
    5.4912477848985619E-01 
    5.4877379030430706E-01 
    5.4838736767886453E-01 
    5.4799867071484565E-01 
    5.4765952836292309E-01 
    5.4741159933202010E-01 
    5.4725234961354918E-01 
    5.4715519390694289E-01 
    5.4710691488732444E-01 
    4.8766145757761098E-01 
    4.8758934244576158E-01 
    4.8744518371037615E-01 
    4.8723153919997797E-01 
    4.8695495079307982E-01 
    4.8662723106242528E-01 
    4.8626596229947128E-01 
    4.8589415086672855E-01 
    4.8553947337094472E-01 
    4.8523169192424592E-01 
    4.8499467722127410E-01 
    4.8483336743265487E-01 
    4.8472823753720062E-01 
    4.8465606659092719E-01 
    4.8460829463385019E-01 
    4.8458443622782149E-01 
    4.2013565337457193E-01 
    4.2008969875465235E-01 
    4.2000712472990159E-01 
    4.1990174096470023E-01 
    4.1978838023759268E-01 
    4.1968193185318603E-01 
    4.1959644268973451E-01 
    4.1954341158505598E-01 
    4.1952819331765079E-01 
    4.1954518540296681E-01 
    4.1957835042286168E-01 
    4.1961180941618736E-01 
    4.1963846998491960E-01 
    4.1965765524632459E-01 
    4.1967004303190369E-01 
    4.1967611698547053E-01 
    3.5436229364196825E-01 
    3.5438308745449698E-01 
    3.5442630478655351E-01 
    3.5449303332708598E-01 
    3.5458177405073388E-01 
    3.5468753285559806E-01 
    3.5480210270273743E-01 
    3.5491592630796837E-01 
    3.5502095686854068E-01 
    3.5511267119544510E-01 
    3.5518983516571279E-01 
    3.5525283330214763E-01 
    3.5530235791352727E-01 
    3.5533899290660187E-01 
    3.5536317463119643E-01 
    3.5537519311596233E-01 
    2.9195751880134863E-01 
    2.9197142193929959E-01 
    2.9199570448895934E-01 
    2.9202601322271449E-01 
    2.9205883656152448E-01 
    2.9209176662737685E-01 
    2.9212335004458267E-01 
    2.9215276885076902E-01 
    2.9217954290538173E-01 
    2.9220335607873521E-01 
    2.9222399046296710E-01 
    2.9224130307733748E-01 
    2.9225520768844343E-01 
    2.9226565741484428E-01 
    2.9227263021334493E-01 
    2.9227611773514717E-01 
    2.2975388569345204E-01 
    2.2975003872339489E-01 
    2.2974238814421696E-01 
    2.2973107660014080E-01 
    2.2971638516800058E-01 
    2.2969874274203689E-01 
    2.2967872271519718E-01 
    2.2965702837750016E-01 
    2.2963446867645104E-01 
    2.2961192670482020E-01 
    2.2959032276557606E-01 
    2.2957057317895205E-01 
    2.2955354593387964E-01 
    2.2954001471310731E-01 
    2.2953061346534426E-01 
    2.2952579454275054E-01 
    1.6794036851695313E-01 
    1.6791202164899494E-01 
    1.6785614184361208E-01 
    1.6777435126531101E-01 
    1.6766906757553984E-01 
    1.6754348214808715E-01 
    1.6740152661710683E-01 
    1.6724782424160051E-01 
    1.6708762150569509E-01 
    1.6692669409221725E-01 
    1.6677121980615442E-01 
    1.6662760912539953E-01 
    1.6650228174926821E-01 
    1.6640137471044222E-01 
    1.6633036420039590E-01 
    1.6629357909544487E-01 
    1.0896153813837277E-01 
    1.0882729831817596E-01 
    1.0856097283488692E-01 
    1.0816693707743152E-01 
    1.0765192375114042E-01 
    1.0702523190681279E-01 
    1.0629901497146552E-01 
    1.0548865614544456E-01 
    1.0461324209198372E-01 
    1.0369614873790792E-01 
    1.0276575631574393E-01 
    1.0185631460923475E-01 
    1.0100898383388934E-01 
    1.0027308182955660E-01 
    9.9707574425634063E-02 
    9.9382853153532319E-02 
    6.3406689780259845E-02 
    6.2951141296683846E-02 
    6.2036831242897265E-02 
    6.0657279773196578E-02 
    5.8802631730458979E-02 
    5.6459490767520312E-02 
    5.3610692393194742E-02 
    5.0235010793092547E-02 
    4.6306792739463892E-02 
    4.1795510192302134E-02 
    3.6665221259685611E-02 
    3.0873926976510421E-02 
    2.4372808817010302E-02 
    1.7105328907343960E-02 
    9.0061714684571605E-03 
    0.0000000000000000E+00 

SCALARS Saturarion double 1 
LOOKUP_TABLE default 

    1.0000000000000000E+00 
    9.4009878869560182E-01 
    9.0473229049589021E-01 
    8.7236967315408154E-01 
    8.4133899799930723E-01 
    8.1094434259411641E-01 
    7.8074226327208296E-01 
    7.5035641508744355E-01 
    7.1939225314769539E-01 
    6.8736570696446031E-01 
    6.5360227153980643E-01 
    6.1703608047160541E-01 
    5.7568926277451249E-01 
    5.2486138255077730E-01 
    4.4834222590821332E-01 
    2.6760023047917619E-01 
    8.1169818297737062E-01 
    7.9359113840210527E-01 
    7.7323993302251948E-01 
    7.5240780546364427E-01 
    7.3114281692483174E-01 
    7.0937668866379233E-01 
    6.8697940244717726E-01 
    6.6375650449479739E-01 
    6.3942520623601584E-01 
    6.1356301044617467E-01 
    5.8549831997174384E-01 
    5.5404850210473300E-01 
    5.1676598505890192E-01 
    4.6722451740057608E-01 
    3.8333912571331469E-01 
    1.6163967088528125E-01 
    7.1263889072416231E-01 
    6.9999264451152310E-01 
    6.8484018042044070E-01 
    6.6885175984693168E-01 
    6.5223089690981595E-01 
    6.3493163733401148E-01 
    6.1682186307650932E-01 
    5.9769686154388868E-01 
    5.7725185713779670E-01 
    5.5501410950098440E-01 
    5.3018832444507946E-01 
    5.0125883427445128E-01 
    4.6479484602837856E-01 
    4.1131454059206773E-01 
    3.0619799531667269E-01 
    5.2259464955864185E-02 
    6.4162150322698963E-01 
    6.3174507846428674E-01 
    6.1947641970880662E-01 
    6.0625891510234831E-01 
    5.9233474842254186E-01 
    5.7766987854207397E-01 
    5.6212365476759807E-01 
    5.4546687146207817E-01 
    5.2734609701794144E-01 
    5.0718688064903894E-01 
    4.8395598071454138E-01 
    4.5551809777705987E-01 
    4.1666727477550036E-01 
    3.5177654124933622E-01 
    1.9287601637787016E-01 
    5.9844091926344973E-03 
    5.8443161375709651E-01 
    5.7631681636454168E-01 
    5.6598634318956054E-01 
    5.5464832519792162E-01 
    5.4254223407499369E-01 
    5.2963830722628413E-01 
    5.1578365271071658E-01 
    5.0071286451527053E-01 
    4.8399281356919827E-01 
    4.6487226093848166E-01 
    4.4189161554141615E-01 
    4.1175265599662059E-01 
    3.6549927217852246E-01 
    2.7007426320330308E-01 
    5.3573731309062234E-02 
    1.0410774780302313E-04 
    5.3430264690705809E-01 
    5.2737069356461996E-01 
    5.1839586057427689E-01 
    5.0837184019152215E-01 
    4.9750818541086089E-01 
    4.8576111206215156E-01 
    4.7294487965123250E-01 
    4.5872094231828581E-01 
    4.4249797716573985E-01 
    4.2316247893182601E-01 
    3.9832897380763421E-01 
    3.6185114363932580E-01 
    2.9326735637919304E-01 
    1.2339862446850908E-01 
    2.1430601977392794E-03 
    2.3152435633375875E-08 
    4.8651815661541808E-01 
    4.8030105217456798E-01 
    4.7215927992804885E-01 
    4.6289384115691562E-01 
    4.5265528419452183E-01 
    4.4134516329035051E-01 
    4.2868049112796514E-01 
    4.1412802991939818E-01 
    3.9667286155359166E-01 
    3.7415826311708561E-01 
    3.4117682597283594E-01 
    2.8087806819588740E-01 
    1.4324283746303693E-01 
    8.4160503416740463E-03 
    9.3724094889188047E-07 
    7.7771570266054624E-17 
    4.3539758127398920E-01 
    4.2924649082437322E-01 
    4.2110371605112340E-01 
    4.1157161669142056E-01 
    4.0065498331001520E-01 
    3.8803842758509294E-01 
    3.7303152156512426E-01 
    3.5425455345969226E-01 
    3.2873984697847114E-01 
    2.8929746545476293E-01 
    2.1774966882541691E-01 
    9.7451381258857606E-02 
    8.5183669272831507E-03 
    4.3252122420857467E-06 
    3.4872178315267542E-15 
    3.8670101579359041E-38 
    3.6875334333348131E-01 
    3.6081688477793522E-01 
    3.4995500652221828E-01 
    3.3636435363888428E-01 
    3.1937499925054019E-01 
    2.9750231423604806E-01 
    2.6802771817561821E-01 
    2.2652532800989741E-01 
    1.6826489106642722E-01 
    9.6073722982692206E-02 
    3.0720149296184281E-02 
    2.2865123278392723E-03 
    3.0749401975313518E-06 
    1.7719588598186993E-14 
    1.5120215082647972E-36 
    2.3968134034121949E-92 
    2.4866492295326942E-01 
    2.3200777983302318E-01 
    2.0891003176595427E-01 
    1.8032110346379870E-01 
    1.4677592026453676E-01 
    1.0964855404706216E-01 
    7.1705817562810456E-02 
    3.7676085110138938E-02 
    1.3487188693193371E-02 
    2.3588124752662231E-03 
    9.2140188868735561E-05 
    1.0209572346140803E-07 
    5.3286871374377253E-15 
    1.3809955833883586E-35 
    6.3858546522316953E-91 
   2.9086704169518692E-231 
    5.8983621365174821E-02 
    4.5327977361153141E-02 
    3.0968165162670699E-02 
    1.8610010516487502E-02 
    9.4599383156014245E-03 
    3.8060463023116674E-03 
    1.0776961684819157E-03 
    1.7485396875522200E-04 
    1.0946816676543994E-05 
    1.1328737712117251E-07 
    2.6831902725023893E-11 
    7.3296843119675809E-19 
    2.9045928066862443E-37 
    9.3669277839802334E-89 
   4.3513255978120797E-228 
    0.0000000000000000E+00 
    6.7692850899790885E-04 
    3.2071647790202841E-04 
    1.1199291381097057E-04 
    2.8378818867061735E-05 
    4.7441463608136968E-06 
    4.4169080663616043E-07 
    1.6944326044088595E-08 
    1.5787591493505929E-10 
    1.2742406891977319E-13 
    1.0087338994825812E-18 
    5.1395007264956735E-28 
    2.4336979547635117E-47 
    5.2977701014813192E-94 
   4.9705632157484739E-223 
    0.0000000000000000E+00 
    0.0000000000000000E+00 
    6.7353584038818193E-09 
    9.9155161887659022E-10 
    6.7197746444680034E-11 
    2.0181711455832161E-12 
    2.0924632070401244E-14 
    4.8325544355728124E-17 
    1.1537604190745088E-20 
    7.1921841158589877E-26 
    8.1506681519102860E-34 
    6.6381737097868459E-47 
    7.4910095406947436E-71 
   2.3830383307612587E-120 
   6.1969556517390924E-239 
    0.0000000000000000E+00 
    0.0000000000000000E+00 
    0.0000000000000000E+00 
    2.2303707041892430E-21 
    1.6879437073012620E-23 
    1.7576503670456533E-26 
    2.2833510215431655E-30 
    1.9520534746204119E-35 
    3.5714684940024783E-42 
    1.8696115166201134E-51 
    7.8031605629726970E-65 
    2.8133764040780649E-85 
   3.8991709770486243E-119 
   7.6398263994412837E-181 
   3.1729339403463558E-308 
    0.0000000000000000E+00 
    0.0000000000000000E+00 
    0.0000000000000000E+00 
    0.0000000000000000E+00 
    1.7359871531891510E-52 
    6.5870002032544509E-58 
    1.5407585838286437E-65 
    1.7492863685712103E-75 
    1.8179154877302872E-88 
   8.9903941599588808E-106 
   1.1467163016495757E-129 
   3.7356040517481304E-164 
   4.8283868905946586E-217 
   1.3563127328797140E-304 
    0.0000000000000000E+00 
    0.0000000000000000E+00 
    0.0000000000000000E+00 
    0.0000000000000000E+00 
    0.0000000000000000E+00 
    0.0000000000000000E+00 
   2.7019843067936746E-130 
   3.3383418945967599E-144 
   8.7458938498312343E-164 
   2.6346335644883352E-189 
   1.1693278395564230E-222 
   3.3614846191824306E-267 
    0.0000000000000000E+00 
    0.0000000000000000E+00 
    0.0000000000000000E+00 
    0.0000000000000000E+00 
    0.0000000000000000E+00 
    0.0000000000000000E+00 
    0.0000000000000000E+00 
    0.0000000000000000E+00 
    0.0000000000000000E+00 
    0.0000000000000000E+00 
