# vtk DataFile Version 2.0
Pressure Field Data 
ASCII 
DATASET UNSTRUCTURED_GRID 

POINTS 289 double 

    0.0000000000000000E+00     0.0000000000000000E+00     0.0000000000000000E+00 
    1.0000000000000000E+00     0.0000000000000000E+00     0.0000000000000000E+00 
    1.0000000000000000E+00     1.0000000000000000E+00     0.0000000000000000E+00 
    0.0000000000000000E+00     1.0000000000000000E+00     0.0000000000000000E+00 
    6.2499999999872928E-02     0.0000000000000000E+00     0.0000000000000000E+00 
    1.2499999999977310E-01     0.0000000000000000E+00     0.0000000000000000E+00 
    1.8749999999959341E-01     0.0000000000000000E+00     0.0000000000000000E+00 
    2.4999999999941089E-01     0.0000000000000000E+00     0.0000000000000000E+00 
    3.1249999999922851E-01     0.0000000000000000E+00     0.0000000000000000E+00 
    3.7499999999904610E-01     0.0000000000000000E+00     0.0000000000000000E+00 
    4.3749999999886358E-01     0.0000000000000000E+00     0.0000000000000000E+00 
    4.9999999999869210E-01     0.0000000000000000E+00     0.0000000000000000E+00 
    5.6249999999884603E-01     0.0000000000000000E+00     0.0000000000000000E+00 
    6.2499999999901090E-01     0.0000000000000000E+00     0.0000000000000000E+00 
    6.8749999999917577E-01     0.0000000000000000E+00     0.0000000000000000E+00 
    7.4999999999934064E-01     0.0000000000000000E+00     0.0000000000000000E+00 
    8.1249999999950551E-01     0.0000000000000000E+00     0.0000000000000000E+00 
    8.7499999999967026E-01     0.0000000000000000E+00     0.0000000000000000E+00 
    9.3749999999983513E-01     0.0000000000000000E+00     0.0000000000000000E+00 
    1.0000000000000000E+00     6.2499999999872928E-02     0.0000000000000000E+00 
    1.0000000000000000E+00     1.2499999999977310E-01     0.0000000000000000E+00 
    1.0000000000000000E+00     1.8749999999959341E-01     0.0000000000000000E+00 
    1.0000000000000000E+00     2.4999999999941089E-01     0.0000000000000000E+00 
    1.0000000000000000E+00     3.1249999999922851E-01     0.0000000000000000E+00 
    1.0000000000000000E+00     3.7499999999904610E-01     0.0000000000000000E+00 
    1.0000000000000000E+00     4.3749999999886358E-01     0.0000000000000000E+00 
    1.0000000000000000E+00     4.9999999999869210E-01     0.0000000000000000E+00 
    1.0000000000000000E+00     5.6249999999884603E-01     0.0000000000000000E+00 
    1.0000000000000000E+00     6.2499999999901090E-01     0.0000000000000000E+00 
    1.0000000000000000E+00     6.8749999999917577E-01     0.0000000000000000E+00 
    1.0000000000000000E+00     7.4999999999934064E-01     0.0000000000000000E+00 
    1.0000000000000000E+00     8.1249999999950551E-01     0.0000000000000000E+00 
    1.0000000000000000E+00     8.7499999999967026E-01     0.0000000000000000E+00 
    1.0000000000000000E+00     9.3749999999983513E-01     0.0000000000000000E+00 
    9.3749999999973976E-01     1.0000000000000000E+00     0.0000000000000000E+00 
    8.7499999999950118E-01     1.0000000000000000E+00     0.0000000000000000E+00 
    8.1249999999991318E-01     1.0000000000000000E+00     0.0000000000000000E+00 
    7.5000000000034706E-01     1.0000000000000000E+00     0.0000000000000000E+00 
    6.8750000000078049E-01     1.0000000000000000E+00     0.0000000000000000E+00 
    6.2500000000121403E-01     1.0000000000000000E+00     0.0000000000000000E+00 
    5.6250000000164757E-01     1.0000000000000000E+00     0.0000000000000000E+00 
    5.0000000000205946E-01     1.0000000000000000E+00     0.0000000000000000E+00 
    4.3750000000182099E-01     1.0000000000000000E+00     0.0000000000000000E+00 
    3.7500000000156092E-01     1.0000000000000000E+00     0.0000000000000000E+00 
    3.1250000000130068E-01     1.0000000000000000E+00     0.0000000000000000E+00 
    2.5000000000104050E-01     1.0000000000000000E+00     0.0000000000000000E+00 
    1.8750000000078040E-01     1.0000000000000000E+00     0.0000000000000000E+00 
    1.2500000000052031E-01     1.0000000000000000E+00     0.0000000000000000E+00 
    6.2500000000260125E-02     1.0000000000000000E+00     0.0000000000000000E+00 
    0.0000000000000000E+00     9.3749999999973976E-01     0.0000000000000000E+00 
    0.0000000000000000E+00     8.7499999999950118E-01     0.0000000000000000E+00 
    0.0000000000000000E+00     8.1249999999991318E-01     0.0000000000000000E+00 
    0.0000000000000000E+00     7.5000000000034706E-01     0.0000000000000000E+00 
    0.0000000000000000E+00     6.8750000000078049E-01     0.0000000000000000E+00 
    0.0000000000000000E+00     6.2500000000121403E-01     0.0000000000000000E+00 
    0.0000000000000000E+00     5.6250000000164757E-01     0.0000000000000000E+00 
    0.0000000000000000E+00     5.0000000000205946E-01     0.0000000000000000E+00 
    0.0000000000000000E+00     4.3750000000182099E-01     0.0000000000000000E+00 
    0.0000000000000000E+00     3.7500000000156092E-01     0.0000000000000000E+00 
    0.0000000000000000E+00     3.1250000000130068E-01     0.0000000000000000E+00 
    0.0000000000000000E+00     2.5000000000104050E-01     0.0000000000000000E+00 
    0.0000000000000000E+00     1.8750000000078040E-01     0.0000000000000000E+00 
    0.0000000000000000E+00     1.2500000000052031E-01     0.0000000000000000E+00 
    0.0000000000000000E+00     6.2500000000260125E-02     0.0000000000000000E+00 
    6.2499999999897131E-02     6.2500000000235922E-02     0.0000000000000000E+00 
    6.2499999999921327E-02     1.2500000000047351E-01     0.0000000000000000E+00 
    6.2499999999945530E-02     1.8750000000070621E-01     0.0000000000000000E+00 
    6.2499999999969733E-02     2.5000000000093858E-01     0.0000000000000000E+00 
    6.2499999999993928E-02     3.1250000000117117E-01     0.0000000000000000E+00 
    6.2500000000018124E-02     3.7500000000140382E-01     0.0000000000000000E+00 
    6.2500000000042327E-02     4.3750000000163619E-01     0.0000000000000000E+00 
    6.2500000000066530E-02     5.0000000000184897E-01     0.0000000000000000E+00 
    6.2500000000090733E-02     5.6250000000147260E-01     0.0000000000000000E+00 
    6.2500000000114922E-02     6.2500000000107636E-01     0.0000000000000000E+00 
    6.2500000000139125E-02     6.8750000000068034E-01     0.0000000000000000E+00 
    6.2500000000163328E-02     7.5000000000028411E-01     0.0000000000000000E+00 
    6.2500000000187531E-02     8.1249999999988787E-01     0.0000000000000000E+00 
    6.2500000000211720E-02     8.7499999999951172E-01     0.0000000000000000E+00 
    6.2500000000235922E-02     9.3749999999974565E-01     0.0000000000000000E+00 
    1.2499999999981980E-01     6.2500000000211733E-02     0.0000000000000000E+00 
    1.2499999999986650E-01     1.2500000000042691E-01     0.0000000000000000E+00 
    1.2499999999991319E-01     1.8750000000063199E-01     0.0000000000000000E+00 
    1.2499999999995989E-01     2.5000000000083678E-01     0.0000000000000000E+00 
    1.2500000000000661E-01     3.1250000000104172E-01     0.0000000000000000E+00 
    1.2500000000005329E-01     3.7500000000124661E-01     0.0000000000000000E+00 
    1.2500000000010000E-01     4.3750000000145117E-01     0.0000000000000000E+00 
    1.2500000000014669E-01     5.0000000000163858E-01     0.0000000000000000E+00 
    1.2500000000019340E-01     5.6250000000129741E-01     0.0000000000000000E+00 
    1.2500000000024011E-01     6.2500000000093847E-01     0.0000000000000000E+00 
    1.2500000000028680E-01     6.8750000000057998E-01     0.0000000000000000E+00 
    1.2500000000033351E-01     7.5000000000022127E-01     0.0000000000000000E+00 
    1.2500000000038020E-01     8.1249999999986211E-01     0.0000000000000000E+00 
    1.2500000000042691E-01     8.7499999999952238E-01     0.0000000000000000E+00 
    1.2500000000047359E-01     9.3749999999975164E-01     0.0000000000000000E+00 
    1.8749999999966760E-01     6.2500000000187531E-02     0.0000000000000000E+00 
    1.8749999999974179E-01     1.2500000000038020E-01     0.0000000000000000E+00 
    1.8749999999981601E-01     1.8750000000055780E-01     0.0000000000000000E+00 
    1.8749999999989009E-01     2.5000000000073502E-01     0.0000000000000000E+00 
    1.8749999999996431E-01     3.1250000000091221E-01     0.0000000000000000E+00 
    1.8750000000003850E-01     3.7500000000108941E-01     0.0000000000000000E+00 
    1.8750000000011269E-01     4.3750000000126649E-01     0.0000000000000000E+00 
    1.8750000000018691E-01     5.0000000000142808E-01     0.0000000000000000E+00 
    1.8750000000026110E-01     5.6250000000112244E-01     0.0000000000000000E+00 
    1.8750000000033529E-01     6.2500000000080080E-01     0.0000000000000000E+00 
    1.8750000000040951E-01     6.8750000000047962E-01     0.0000000000000000E+00 
    1.8750000000048361E-01     7.5000000000015843E-01     0.0000000000000000E+00 
    1.8750000000055780E-01     8.1249999999983680E-01     0.0000000000000000E+00 
    1.8750000000063199E-01     8.7499999999953304E-01     0.0000000000000000E+00 
    1.8750000000070621E-01     9.3749999999975764E-01     0.0000000000000000E+00 
    2.4999999999951281E-01     6.2500000000163314E-02     0.0000000000000000E+00 
    2.4999999999961461E-01     1.2500000000033351E-01     0.0000000000000000E+00 
    2.4999999999971650E-01     1.8750000000048361E-01     0.0000000000000000E+00 
    2.4999999999981831E-01     2.5000000000063310E-01     0.0000000000000000E+00 
    2.4999999999992020E-01     3.1250000000078260E-01     0.0000000000000000E+00 
    2.5000000000002198E-01     3.7500000000093209E-01     0.0000000000000000E+00 
    2.5000000000012390E-01     4.3750000000108180E-01     0.0000000000000000E+00 
    2.5000000000022571E-01     5.0000000000121769E-01     0.0000000000000000E+00 
    2.5000000000032763E-01     5.6250000000094724E-01     0.0000000000000000E+00 
    2.5000000000042938E-01     6.2500000000066314E-01     0.0000000000000000E+00 
    2.5000000000053119E-01     6.8750000000037925E-01     0.0000000000000000E+00 
[...]
CELL_DATA 256 
SCALARS Pressure double 1 
LOOKUP_TABLE default 

    8.1754328798162934E-01 
    8.1556027119093066E-01 
    8.1369246620614577E-01 
    8.1196895001024227E-01 
    8.1038781143791871E-01 
    8.0894546932563205E-01 
    8.0763838693562728E-01 
    8.0646354083042138E-01 
    8.0541857723779409E-01 
    8.0450186004597879E-01 
    8.0371247096348608E-01 
    8.0305016889205239E-01 
    8.0251525031055715E-01 
    8.0210803427025990E-01 
    8.0182692420432899E-01 
    8.0166558268960930E-01 
    7.8660705705422040E-01 
    7.8650702318506982E-01 
    7.8632944539819316E-01 
    7.8609648143639010E-01 
    7.8582480596456616E-01 
    7.8552867899057344E-01 
    7.8522048096470354E-01 
    7.8491104646430654E-01 
    7.8460991165628957E-01 
    7.8432550604393614E-01 
    7.8406529480530884E-01 
    7.8383585410693757E-01 
    7.8364280083375182E-01 
    7.8349031391080726E-01 
    7.8337968281169612E-01 
    7.8331249081112109E-01 
    7.5640620452030982E-01 
    7.5638356367640458E-01 
    7.5633979237724969E-01 
    7.5627753133940478E-01 
    7.5619977471017197E-01 
    7.5610974557654220E-01 
    7.5601081313848306E-01 
    7.5590641121315816E-01 
    7.5579996604569055E-01 
    7.5569482671137489E-01 
    7.5559417921471683E-01 
    7.5550089559590983E-01 
    7.5541718388940071E-01 
    7.5534368619389758E-01 
    7.5527742673672327E-01 
    7.5522643862047012E-01 
    7.2210328025823656E-01 
    7.2209024399971478E-01 
    7.2206501838372061E-01 
    7.2202898232977386E-01 
    7.2198363239102681E-01 
    7.2193054491581998E-01 
    7.2187136976081578E-01 
    7.2180781223837964E-01 
    7.2174160215642635E-01 
    7.2167444135963843E-01 
    7.2160790150240262E-01 
    7.2154319277103163E-01 
    7.2148058704393025E-01 
    7.2141792959620177E-01 
    7.2134891550441882E-01 
    7.2129187712492093E-01 
    6.8345470691549681E-01 
    6.8344336306707454E-01 
    6.8342137794916102E-01 
    6.8338987595155920E-01 
    6.8335005767435086E-01 
    6.8330315124441443E-01 
    6.8325040859081432E-01 
    6.8319309439974507E-01 
    6.8313245557169400E-01 
    6.8306965191604085E-01 
    6.8300559741449207E-01 
    6.8294057182589651E-01 
    6.8287320392078610E-01 
    6.8279787508466105E-01 
    6.8271546404632111E-01 
    6.8266108710270124E-01 
    6.4059223200580950E-01 
    6.4058060000058792E-01 
    6.4055792421909485E-01 
    6.4052516345496113E-01 
    6.4048334547100461E-01 
    6.4043350181939207E-01 
    6.4037664999750743E-01 
    6.4031376720808231E-01 
    6.4024573158833975E-01 
    6.4017319066779332E-01 
    6.4009625410773230E-01 
    6.4001371392644557E-01 
    6.3992093990307208E-01 
    6.3980950917456558E-01 
    6.3970249130609858E-01 
    6.3964827028956528E-01 
    5.9360825145374763E-01 
    5.9359522325597103E-01 
    5.9356961237785932E-01 
    5.9353217912306755E-01 
    5.9348373904737783E-01 
    5.9342507944374823E-01 
    5.9335691486460163E-01 
    5.9327982082729458E-01 
    5.9319409972741521E-01 
    5.9309948503465626E-01 
    5.9299442987286688E-01 
    5.9287429400413516E-01 
    5.9272943849237880E-01 
    5.9257126460393716E-01 
    5.9245594428154991E-01 
    5.9240554564848125E-01 
    5.4246062064648026E-01 
    5.4244423134079345E-01 
    5.4241162250202213E-01 
    5.4236315607478502E-01 
    5.4229917673026162E-01 
    5.4221988821916722E-01 
    5.4212523404723956E-01 
    5.4201469488481102E-01 
    5.4188688109185146E-01 
    5.4173865651001374E-01 
    5.4156347696457385E-01 
    5.4135314602585560E-01 
    5.4112194011146086E-01 
    5.4093192027012738E-01 
    5.4082177329630721E-01 
    5.4077380250729901E-01 
    4.8690379174808884E-01 
    4.8687909974065696E-01 
    4.8682915280456718E-01 
    4.8675319660586508E-01 
    4.8665013316097289E-01 
    4.8651823596214472E-01 
    4.8635476649304155E-01 
    4.8615550487871600E-01 
    4.8591480707602969E-01 
    4.8562898285265355E-01 
    4.8530724840594702E-01 
    4.8498423013108116E-01 
    4.8472060485810670E-01 
    4.8454843540182596E-01 
    4.8444763909482047E-01 
    4.8439882505656257E-01 
    4.2632574522488403E-01 
    4.2627639749903129E-01 
    4.2617553699272870E-01 
    4.2602046943423172E-01 
    4.2580896629174381E-01 
    4.2554072387995817E-01 
    4.2521975704773995E-01 
    4.2485722757019451E-01 
    4.2447334672577097E-01 
    4.2409778530919268E-01 
    4.2376839671366923E-01 
    4.2351833580893378E-01 
    4.2335215697311318E-01 
    4.2324506534009870E-01 
    4.2317667237178280E-01 
    4.2314256216265533E-01 
    3.6008121514801389E-01 
    3.6001341698104916E-01 
    3.5988543309008258E-01 
    3.5970983005502410E-01 
    3.5950181596044478E-01 
    3.5927845056811547E-01 
    3.5905794384625361E-01 
    3.5885878180834963E-01 
    3.5869813911134035E-01 
    3.5858828230316075E-01 
    3.5852921156066919E-01 
    3.5850415354340026E-01 
    3.5849230226246670E-01 
    3.5848401877174119E-01 
    3.5847824334607581E-01 
    3.5847527837185555E-01 
    2.9280791326524547E-01 
    2.9280436131113807E-01 
    2.9280251237507360E-01 
    2.9280973394593979E-01 
    2.9283312081373070E-01 
    2.9287802292407072E-01 
    2.9294620367359470E-01 
    2.9303396159528661E-01 
    2.9313176806706792E-01 
    2.9322739943429554E-01 
    2.9331147994563478E-01 
    2.9338027810262585E-01 
    2.9343381741845004E-01 
    2.9347305103732690E-01 
    2.9349876917602896E-01 
    2.9351149717137603E-01 
    2.2937800973182645E-01 
    2.2939942862805468E-01 
    2.2943828378520417E-01 
    2.2948869169168581E-01 
    2.2954439402255011E-01 
    2.2959968988096596E-01 
    2.2965027193651985E-01 
    2.2969368375920082E-01 
    2.2972919782023252E-01 
    2.2975723101076262E-01 
    2.2977869784890542E-01 
    2.2979461900082329E-01 
    2.2980597264258878E-01 
    2.2981363132050636E-01 
    2.2981830934148118E-01 
    2.2982051551396609E-01 
    1.6786956643099940E-01 
    1.6784488398223002E-01 
    1.6779577010347607E-01 
    1.6772310327092108E-01 
    1.6762861294904396E-01 
    1.6751487527626216E-01 
    1.6738527130456590E-01 
    1.6724393453126490E-01 
    1.6709568431045402E-01 
    1.6694593269004696E-01 
    1.6680055420729237E-01 
    1.6666571104970035E-01 
    1.6654762425147879E-01 
    1.6645227729795600E-01 
    1.6638503435589594E-01 
    1.6635015110953660E-01 
    1.0894781986599944E-01 
    1.0881405978141540E-01 
    1.0854866578128529E-01 
    1.0815596241417889E-01 
    1.0764261520689752E-01 
    1.0701784532596834E-01 
    1.0629372233193050E-01 
    1.0548554355798996E-01 
    1.0461231114686981E-01 
    1.0369732060575083E-01 
    1.0276887804922943E-01 
    1.0186116716126942E-01 
    1.0101529139025593E-01 
    1.0028052212887738E-01 
    9.9715789799950064E-02 
    9.9391462069666564E-02 
    6.3402087896205411E-02 
    6.2946630576512605E-02 
    6.2032498964775112E-02 
    6.0653205684878295E-02 
    5.8798884837693910E-02 
    5.6456126686823233E-02 
    5.3607751349567127E-02 
    5.0232516302493486E-02 
    4.6304750982861950E-02 
    4.1793910061582430E-02 
    3.6664035034862520E-02 
    3.0873111578000857E-02 
    2.4372307565308830E-02 
    1.7105073714369895E-02 
    9.0060853792875567E-03 
    0.0000000000000000E+00 

SCALARS Saturarion double 1 
LOOKUP_TABLE default 

    1.0000000000000000E+00 
    9.4770168659748755E-01 
    9.1618273015414620E-01 
    8.8693379691442409E-01 
    8.5854871000276978E-01 
    8.3044826019987850E-01 
    8.0226058549634782E-01 
    7.7366211320426570E-01 
    7.4430313548389027E-01 
    7.1374414198398672E-01 
    6.8136583619783109E-01 
    6.4619584047358591E-01 
    6.0648656645566112E-01 
    5.5835569754359249E-01 
    4.8949683263330218E-01 
    3.3885488492559745E-01 
    8.2701569227758265E-01 
    8.1065326775892510E-01 
    7.9211396177229898E-01 
    7.7291337841792151E-01 
    7.5312262535368135E-01 
    7.3269833782390736E-01 
    7.1153405069345599E-01 
    6.8945949505374782E-01 
    6.6622040855176667E-01 
    6.4143473978048637E-01 
    6.1450210830490137E-01 
    5.8439762345877178E-01 
    5.4911403887221744E-01 
    5.0375955126306371E-01 
    4.3253773957722652E-01 
    2.5630287979022764E-01 
    7.3420258262743121E-01 
    7.2243531427038066E-01 
    7.0829093672418397E-01 
    6.9327611649465570E-01 
    6.7757550860068694E-01 
    6.6115052487593939E-01 
    6.4388463300323884E-01 
    6.2559614418703746E-01 
    6.0601625716939189E-01 
    5.8473599400857046E-01 
    5.6109141102965343E-01 
    5.3388675286645282E-01 
    5.0061448567961742E-01 
    4.5488278136460603E-01 
    3.7633564880732157E-01 
    1.5133947513117324E-01 
    6.6762368860149601E-01 
    6.5824724676025248E-01 
    6.4658454713174951E-01 
    6.3399398348141922E-01 
    6.2069559983406974E-01 
    6.0665760160962678E-01 
    5.9175502233944799E-01 
    5.7578876501217413E-01 
    5.5846053753051139E-01 
    5.3930549246355264E-01 
    5.1753690496728089E-01 
    4.9165443270693182E-01 
    4.5832929204239697E-01 
    4.0874246419296184E-01 
    3.1163069529534404E-01 
    4.9907688116069035E-02 
    6.1451966518677248E-01 
    6.0672359801642861E-01 
    5.9678874206690713E-01 
    5.8589450938490029E-01 
    5.7426700093074057E-01 
    5.6188163479460285E-01 
    5.4860878441445016E-01 
    5.3423150906265648E-01 
    5.1841287164722738E-01 
    5.0060571187144653E-01 
    4.7983412786957375E-01 
    4.5411897744009733E-01 
    4.1879151429953476E-01 
    3.6038205456670569E-01 
    2.1701247626724438E-01 
    7.8405936275882347E-03 
    5.6901688598073519E-01 
    5.6234963150370032E-01 
    5.5370322178454290E-01 
    5.4408293797360852E-01 
    5.3370144335919412E-01 
    5.2253462758460112E-01 
    5.1044434256105597E-01 
    4.9718827849508279E-01 
    4.8237248698693047E-01 
    4.6532313064388964E-01 
    4.4476346398059202E-01 
    4.1790930765109147E-01 
    3.7752896645434791E-01 
    2.9829543522922369E-01 
    8.3982790813284386E-02 
    3.5281752699890784E-04 
    5.2761066955450275E-01 
    5.2175671876662022E-01 
    5.1407123338236949E-01 
    5.0540137101714411E-01 
    4.9593235804531260E-01 
    4.8562903117556105E-01 
    4.7433187081289435E-01 
    4.6175168207752526E-01 
    4.4739356475033981E-01 
    4.3035478078336492E-01 
    4.0878501305056436E-01 
    3.7819847094933751E-01 
    3.2476540001756454E-01 
    1.8859621831110543E-01 
    8.6251589643132308E-03 
    8.7392487069968925E-07 
    4.8738144281740037E-01 
    4.8205887926664753E-01 
    4.7501589875219241E-01 
    4.6695672024250767E-01 
    4.5802403001532710E-01 
    4.4814977513187532E-01 
    4.3711970734529770E-01 
    4.2453750914429217E-01 
    4.0968179461243265E-01 
    3.9111431467673680E-01 
    3.6550721259432223E-01 
    3.2329453579634587E-01 
    2.2803515661483104E-01 
    3.9805408881889964E-02 
    5.6630916462450151E-05 
    2.9128539029150066E-12 
    4.4454343897639342E-01 
    4.3936588236979507E-01 
    4.3247700411847334E-01 
    4.2444175180264720E-01 
    4.1532180102101307E-01 
    4.0494623936148078E-01 
    3.9291902081350061E-01 
    3.7848282743668527E-01 
    3.6011398911764747E-01 
    3.3431420215441815E-01 
    2.9156221703986618E-01 
    2.0302671083095891E-01 
    5.3106809159911325E-02 
    3.6439141296703057E-04 
    2.6641816944666923E-10 
    1.1071527916921465E-25 
    3.9138376725440133E-01 
    3.8540731341593082E-01 
    3.7733896854446586E-01 
    3.6753183143428592E-01 
    3.5575780926853895E-01 
    3.4134562366506443E-01 
    3.2295047263122179E-01 
    2.9791650149011684E-01 
    2.6081165622796493E-01 
    2.0140251575697588E-01 
    1.1269865582377317E-01 
    2.6753544752289467E-02 
    4.4912188179610914E-04 
    1.7264603077635966E-09 
    7.4481282703950201E-24 
    5.2730282836036261E-60 
    3.0487561902376331E-01 
    2.9421320911529880E-01 
    2.7914968706665877E-01 
    2.5961219008816500E-01 
    2.3462749408248440E-01 
    2.0282422323631735E-01 
    1.6314240988971168E-01 
    1.1636340976086162E-01 
    6.7077916027182521E-02 
    2.5462379668426512E-02 
    3.9243233005473686E-03 
    6.7196808916546822E-05 
    1.9120724347441354E-09 
    5.8031183116691575E-23 
    1.7104649289924056E-58 
   3.4307014442188339E-148 
    1.3308973455256279E-01 
    1.1534307943018793E-01 
    9.3516346750289248E-02 
    7.0378906004922887E-02 
    4.8005324279923926E-02 
    2.8451926329258921E-02 
    1.3655084848472155E-02 
    4.7039837451589885E-03 
    9.2223907436654248E-04 
    6.3073310625359037E-05 
    4.7081393838642110E-07 
    1.4612661907406191E-11 
    5.0258212502078086E-23 
    8.0564367399616540E-57 
   5.3279585378699595E-146 
    0.0000000000000000E+00 
    7.5780506751480974E-03 
    4.8420301174720570E-03 
    2.5705049492227060E-03 
    1.1205630056515016E-03 
    3.8006065933867674E-04 
    9.0869682488358647E-05 
    1.2916193296692629E-05 
    8.0680531646308198E-07 
    1.2266053258434144E-08 
    1.3164087501157026E-11 
    4.8948179851040314E-17 
    1.7318629579837740E-28 
    2.0318224601729472E-57 
   8.4189494005950517E-142 
    0.0000000000000000E+00 
    0.0000000000000000E+00 
    3.1891138590551445E-06 
    1.0005688279121193E-06 
    1.9673864159058419E-07 
    2.3624039561031663E-08 
    1.5129159823478406E-09 
    4.0186267359721703E-11 
    2.8465619544380548E-13 
    2.4736512114521324E-16 
    5.8656426483026104E-21 
    1.5270992080474988E-28 
    2.1436795649948242E-42 
    1.4793409997500670E-71 
   1.8754557538821150E-144 
    0.0000000000000000E+00 
    0.0000000000000000E+00 
    0.0000000000000000E+00 
    1.1844657457643567E-14 
    6.2903145881277166E-16 
    1.0239239473055544E-17 
    4.7940965119567455E-20 
    4.5484942564898714E-23 
    4.5783091369007510E-27 
    1.5732958008130679E-32 
    2.5491322692233653E-40 
    4.0609026254263697E-52 
    1.7148179940616806E-71 
   8.3048354916397678E-107 
   4.9143507589653364E-181 
    0.0000000000000000E+00 
    0.0000000000000000E+00 
    0.0000000000000000E+00 
    0.0000000000000000E+00 
    1.1013460248956527E-35 
    6.4577600167427603E-39 
    1.9007662264948913E-43 
    2.4030928212066641E-49 
    5.1726867654292232E-57 
    3.6871060318424618E-67 
    4.8723541661815545E-81 
   7.2194016867189520E-101 
   5.6419610733029850E-131 
   2.1593218830054391E-180 
   7.2518261076082892E-271 
    0.0000000000000000E+00 
    0.0000000000000000E+00 
    0.0000000000000000E+00 
    0.0000000000000000E+00 
    0.0000000000000000E+00 
