# vtk DataFile Version 2.0
Pressure Field Data 
ASCII 
DATASET UNSTRUCTURED_GRID 

POINTS 289 double 

    0.0000000000000000E+00     0.0000000000000000E+00     0.0000000000000000E+00 
    1.0000000000000000E+00     0.0000000000000000E+00     0.0000000000000000E+00 
    1.0000000000000000E+00     1.0000000000000000E+00     0.0000000000000000E+00 
    0.0000000000000000E+00     1.0000000000000000E+00     0.0000000000000000E+00 
    6.2499999999872928E-02     0.0000000000000000E+00     0.0000000000000000E+00 
    1.2499999999977310E-01     0.0000000000000000E+00     0.0000000000000000E+00 
    1.8749999999959341E-01     0.0000000000000000E+00     0.0000000000000000E+00 
    2.4999999999941089E-01     0.0000000000000000E+00     0.0000000000000000E+00 
    3.1249999999922851E-01     0.0000000000000000E+00     0.0000000000000000E+00 
    3.7499999999904610E-01     0.0000000000000000E+00     0.0000000000000000E+00 
    4.3749999999886358E-01     0.0000000000000000E+00     0.0000000000000000E+00 
    4.9999999999869210E-01     0.0000000000000000E+00     0.0000000000000000E+00 
    5.6249999999884603E-01     0.0000000000000000E+00     0.0000000000000000E+00 
    6.2499999999901090E-01     0.0000000000000000E+00     0.0000000000000000E+00 
    6.8749999999917577E-01     0.0000000000000000E+00     0.0000000000000000E+00 
    7.4999999999934064E-01     0.0000000000000000E+00     0.0000000000000000E+00 
    8.1249999999950551E-01     0.0000000000000000E+00     0.0000000000000000E+00 
    8.7499999999967026E-01     0.0000000000000000E+00     0.0000000000000000E+00 
    9.3749999999983513E-01     0.0000000000000000E+00     0.0000000000000000E+00 
    1.0000000000000000E+00     6.2499999999872928E-02     0.0000000000000000E+00 
    1.0000000000000000E+00     1.2499999999977310E-01     0.0000000000000000E+00 
    1.0000000000000000E+00     1.8749999999959341E-01     0.0000000000000000E+00 
    1.0000000000000000E+00     2.4999999999941089E-01     0.0000000000000000E+00 
    1.0000000000000000E+00     3.1249999999922851E-01     0.0000000000000000E+00 
    1.0000000000000000E+00     3.7499999999904610E-01     0.0000000000000000E+00 
    1.0000000000000000E+00     4.3749999999886358E-01     0.0000000000000000E+00 
    1.0000000000000000E+00     4.9999999999869210E-01     0.0000000000000000E+00 
    1.0000000000000000E+00     5.6249999999884603E-01     0.0000000000000000E+00 
    1.0000000000000000E+00     6.2499999999901090E-01     0.0000000000000000E+00 
    1.0000000000000000E+00     6.8749999999917577E-01     0.0000000000000000E+00 
    1.0000000000000000E+00     7.4999999999934064E-01     0.0000000000000000E+00 
    1.0000000000000000E+00     8.1249999999950551E-01     0.0000000000000000E+00 
    1.0000000000000000E+00     8.7499999999967026E-01     0.0000000000000000E+00 
    1.0000000000000000E+00     9.3749999999983513E-01     0.0000000000000000E+00 
    9.3749999999973976E-01     1.0000000000000000E+00     0.0000000000000000E+00 
    8.7499999999950118E-01     1.0000000000000000E+00     0.0000000000000000E+00 
    8.1249999999991318E-01     1.0000000000000000E+00     0.0000000000000000E+00 
    7.5000000000034706E-01     1.0000000000000000E+00     0.0000000000000000E+00 
    6.8750000000078049E-01     1.0000000000000000E+00     0.0000000000000000E+00 
    6.2500000000121403E-01     1.0000000000000000E+00     0.0000000000000000E+00 
    5.6250000000164757E-01     1.0000000000000000E+00     0.0000000000000000E+00 
    5.0000000000205946E-01     1.0000000000000000E+00     0.0000000000000000E+00 
    4.3750000000182099E-01     1.0000000000000000E+00     0.0000000000000000E+00 
    3.7500000000156092E-01     1.0000000000000000E+00     0.0000000000000000E+00 
    3.1250000000130068E-01     1.0000000000000000E+00     0.0000000000000000E+00 
    2.5000000000104050E-01     1.0000000000000000E+00     0.0000000000000000E+00 
    1.8750000000078040E-01     1.0000000000000000E+00     0.0000000000000000E+00 
    1.2500000000052031E-01     1.0000000000000000E+00     0.0000000000000000E+00 
    6.2500000000260125E-02     1.0000000000000000E+00     0.0000000000000000E+00 
    0.0000000000000000E+00     9.3749999999973976E-01     0.0000000000000000E+00 
    0.0000000000000000E+00     8.7499999999950118E-01     0.0000000000000000E+00 
    0.0000000000000000E+00     8.1249999999991318E-01     0.0000000000000000E+00 
    0.0000000000000000E+00     7.5000000000034706E-01     0.0000000000000000E+00 
    0.0000000000000000E+00     6.8750000000078049E-01     0.0000000000000000E+00 
    0.0000000000000000E+00     6.2500000000121403E-01     0.0000000000000000E+00 
    0.0000000000000000E+00     5.6250000000164757E-01     0.0000000000000000E+00 
    0.0000000000000000E+00     5.0000000000205946E-01     0.0000000000000000E+00 
    0.0000000000000000E+00     4.3750000000182099E-01     0.0000000000000000E+00 
    0.0000000000000000E+00     3.7500000000156092E-01     0.0000000000000000E+00 
    0.0000000000000000E+00     3.1250000000130068E-01     0.0000000000000000E+00 
    0.0000000000000000E+00     2.5000000000104050E-01     0.0000000000000000E+00 
    0.0000000000000000E+00     1.8750000000078040E-01     0.0000000000000000E+00 
    0.0000000000000000E+00     1.2500000000052031E-01     0.0000000000000000E+00 
    0.0000000000000000E+00     6.2500000000260125E-02     0.0000000000000000E+00 
    6.2499999999897131E-02     6.2500000000235922E-02     0.0000000000000000E+00 
    6.2499999999921327E-02     1.2500000000047351E-01     0.0000000000000000E+00 
    6.2499999999945530E-02     1.8750000000070621E-01     0.0000000000000000E+00 
    6.2499999999969733E-02     2.5000000000093858E-01     0.0000000000000000E+00 
    6.2499999999993928E-02     3.1250000000117117E-01     0.0000000000000000E+00 
    6.2500000000018124E-02     3.7500000000140382E-01     0.0000000000000000E+00 
    6.2500000000042327E-02     4.3750000000163619E-01     0.0000000000000000E+00 
    6.2500000000066530E-02     5.0000000000184897E-01     0.0000000000000000E+00 
    6.2500000000090733E-02     5.6250000000147260E-01     0.0000000000000000E+00 
    6.2500000000114922E-02     6.2500000000107636E-01     0.0000000000000000E+00 
    6.2500000000139125E-02     6.8750000000068034E-01     0.0000000000000000E+00 
    6.2500000000163328E-02     7.5000000000028411E-01     0.0000000000000000E+00 
    6.2500000000187531E-02     8.1249999999988787E-01     0.0000000000000000E+00 
    6.2500000000211720E-02     8.7499999999951172E-01     0.0000000000000000E+00 
    6.2500000000235922E-02     9.3749999999974565E-01     0.0000000000000000E+00 
    1.2499999999981980E-01     6.2500000000211733E-02     0.0000000000000000E+00 
    1.2499999999986650E-01     1.2500000000042691E-01     0.0000000000000000E+00 
    1.2499999999991319E-01     1.8750000000063199E-01     0.0000000000000000E+00 
    1.2499999999995989E-01     2.5000000000083678E-01     0.0000000000000000E+00 
    1.2500000000000661E-01     3.1250000000104172E-01     0.0000000000000000E+00 
    1.2500000000005329E-01     3.7500000000124661E-01     0.0000000000000000E+00 
    1.2500000000010000E-01     4.3750000000145117E-01     0.0000000000000000E+00 
    1.2500000000014669E-01     5.0000000000163858E-01     0.0000000000000000E+00 
    1.2500000000019340E-01     5.6250000000129741E-01     0.0000000000000000E+00 
    1.2500000000024011E-01     6.2500000000093847E-01     0.0000000000000000E+00 
    1.2500000000028680E-01     6.8750000000057998E-01     0.0000000000000000E+00 
    1.2500000000033351E-01     7.5000000000022127E-01     0.0000000000000000E+00 
    1.2500000000038020E-01     8.1249999999986211E-01     0.0000000000000000E+00 
    1.2500000000042691E-01     8.7499999999952238E-01     0.0000000000000000E+00 
    1.2500000000047359E-01     9.3749999999975164E-01     0.0000000000000000E+00 
    1.8749999999966760E-01     6.2500000000187531E-02     0.0000000000000000E+00 
    1.8749999999974179E-01     1.2500000000038020E-01     0.0000000000000000E+00 
    1.8749999999981601E-01     1.8750000000055780E-01     0.0000000000000000E+00 
    1.8749999999989009E-01     2.5000000000073502E-01     0.0000000000000000E+00 
    1.8749999999996431E-01     3.1250000000091221E-01     0.0000000000000000E+00 
    1.8750000000003850E-01     3.7500000000108941E-01     0.0000000000000000E+00 
    1.8750000000011269E-01     4.3750000000126649E-01     0.0000000000000000E+00 
    1.8750000000018691E-01     5.0000000000142808E-01     0.0000000000000000E+00 
    1.8750000000026110E-01     5.6250000000112244E-01     0.0000000000000000E+00 
    1.8750000000033529E-01     6.2500000000080080E-01     0.0000000000000000E+00 
    1.8750000000040951E-01     6.8750000000047962E-01     0.0000000000000000E+00 
    1.8750000000048361E-01     7.5000000000015843E-01     0.0000000000000000E+00 
    1.8750000000055780E-01     8.1249999999983680E-01     0.0000000000000000E+00 
    1.8750000000063199E-01     8.7499999999953304E-01     0.0000000000000000E+00 
    1.8750000000070621E-01     9.3749999999975764E-01     0.0000000000000000E+00 
    2.4999999999951281E-01     6.2500000000163314E-02     0.0000000000000000E+00 
    2.4999999999961461E-01     1.2500000000033351E-01     0.0000000000000000E+00 
    2.4999999999971650E-01     1.8750000000048361E-01     0.0000000000000000E+00 
    2.4999999999981831E-01     2.5000000000063310E-01     0.0000000000000000E+00 
    2.4999999999992020E-01     3.1250000000078260E-01     0.0000000000000000E+00 
    2.5000000000002198E-01     3.7500000000093209E-01     0.0000000000000000E+00 
    2.5000000000012390E-01     4.3750000000108180E-01     0.0000000000000000E+00 
    2.5000000000022571E-01     5.0000000000121769E-01     0.0000000000000000E+00 
    2.5000000000032763E-01     5.6250000000094724E-01     0.0000000000000000E+00 
    2.5000000000042938E-01     6.2500000000066314E-01     0.0000000000000000E+00 
    2.5000000000053119E-01     6.8750000000037925E-01     0.0000000000000000E+00 
[...]
CELL_DATA 256 
SCALARS Pressure double 1 
LOOKUP_TABLE default 

    7.2968914516767869E-01 
    7.2774152914672574E-01 
    7.2593168523636042E-01 
    7.2427482161325041E-01 
    7.2276509929055766E-01 
    7.2139616188007849E-01 
    7.2016224923131800E-01 
    7.1905845258397250E-01 
    7.1808076374403673E-01 
    7.1722605986644949E-01 
    7.1649206671783661E-01 
    7.1587731125798459E-01 
    7.1538104812966896E-01 
    7.1500306602363195E-01 
    7.1474290568987231E-01 
    7.1459693768954702E-01 
    7.0114367505681519E-01 
    7.0105453681876695E-01 
    7.0089718910435017E-01 
    7.0069113519903392E-01 
    7.0045150391660072E-01 
    7.0019115334943305E-01 
    6.9992113818560797E-01 
    6.9965102483649466E-01 
    6.9938913337199182E-01 
    6.9914273054109655E-01 
    6.9891818386207805E-01 
    6.9872107708338727E-01 
    6.9855626728465259E-01 
    6.9842779479671180E-01 
    6.9833832632720394E-01 
    6.9828794609917744E-01 
    6.7458330031507541E-01 
    6.7456685089801949E-01 
    6.7453504350382743E-01 
    6.7448978174172503E-01 
    6.7443330947857549E-01 
    6.7436811348720460E-01 
    6.7429683846071675E-01 
    6.7422221203552790E-01 
    6.7414698535216622E-01 
    6.7407388644686794E-01 
    6.7400558094206486E-01 
    6.7394462877164218E-01 
    6.7389340728575298E-01 
    6.7385391693297525E-01 
    6.7382729581468681E-01 
    6.7381301568984164E-01 
    6.4495301579089948E-01 
    6.4494536377185141E-01 
    6.4493059725830526E-01 
    6.4490957289572115E-01 
    6.4488324631197025E-01 
    6.4485266725999713E-01 
    6.4481897637883423E-01 
    6.4478339452327493E-01 
    6.4474720960086174E-01 
    6.4471176175205502E-01 
    6.4467842348268078E-01 
    6.4464856292056716E-01 
    6.4462345722239089E-01 
    6.4460407790566243E-01 
    6.4459066658702957E-01 
    6.4458291757796637E-01 
    6.1196155370598082E-01 
    6.1195534555714082E-01 
    6.1194338082636413E-01 
    6.1192635160816644E-01 
    6.1190499572025259E-01 
    6.1188008558671714E-01 
    6.1185243307729897E-01 
    6.1182288959844577E-01 
    6.1179234118069237E-01 
    6.1176169685445647E-01 
    6.1173186295848558E-01 
    6.1170368242612916E-01 
    6.1167778453067212E-01 
    6.1165421278857335E-01 
    6.1163157912728428E-01 
    6.1161238521010663E-01 
    5.7576550125279968E-01 
    5.7575942890533971E-01 
    5.7574768986488523E-01 
    5.7573090755436929E-01 
    5.7570974154072707E-01 
    5.7568486502730976E-01 
    5.7565696578949743E-01 
    5.7562674458470020E-01 
    5.7559490645714084E-01 
    5.7556213955270930E-01 
    5.7552906744275545E-01 
    5.7549613789297893E-01 
    5.7546334934516941E-01 
    5.7542953975395450E-01 
    5.7539035599235455E-01 
    5.7535376461742460E-01 
    5.3652527292598429E-01 
    5.3651934383943867E-01 
    5.3650787107478215E-01 
    5.3649145655342867E-01 
    5.3647074977538556E-01 
    5.3644641864002696E-01 
    5.3641914793885614E-01 
    5.3638963784079086E-01 
    5.3635859502729122E-01 
    5.3632670833956853E-01 
    5.3629458956409137E-01 
    5.3626262781420841E-01 
    5.3623061173171782E-01 
    5.3619666983802106E-01 
    5.3615453432324334E-01 
    5.3611597395554622E-01 
    4.9431783774009930E-01 
    4.9431174765046831E-01 
    4.9429992734854644E-01 
    4.9428294988389293E-01 
    4.9426144515073950E-01 
    4.9423606569931122E-01 
    4.9420748194657615E-01 
    4.9417637883063881E-01 
    4.9414344419462458E-01 
    4.9410933719375644E-01 
    4.9407460890683191E-01 
    4.9403949796558971E-01 
    4.9400336151826152E-01 
    4.9396292973241407E-01 
    4.9391555830460870E-01 
    4.9388078384951334E-01 
    4.4917566386260965E-01 
    4.4916881002570225E-01 
    4.4915541158693900E-01 
    4.4913597080108569E-01 
    4.4911103937453506E-01 
    4.4908117772176548E-01 
    4.4904694206548867E-01 
    4.4900887117854538E-01 
    4.4896745915923997E-01 
    4.4892309415178400E-01 
    4.4887591279260863E-01 
    4.4882542176593593E-01 
    4.4876938482703532E-01 
    4.4870055402401654E-01 
    4.4862801325362822E-01 
    4.4858887308705636E-01 
    4.0110674504933913E-01 
    4.0109905674920870E-01 
    4.0108393985318364E-01 
    4.0106183276833018E-01 
    4.0103322410377856E-01 
    4.0099860622953010E-01 
    4.0095845371830641E-01 
    4.0091319734656472E-01 
    4.0086317401658500E-01 
    4.0080851721847943E-01 
    4.0074889251241791E-01 
    4.0068277620409115E-01 
    4.0060527701108178E-01 
    4.0050989648205892E-01 
    4.0042338724144283E-01 
    4.0038243086699293E-01 
    3.5000548652869390E-01 
    3.4999603245336935E-01 
    3.4997729499606384E-01 
    3.4994959353197236E-01 
    3.4991328641546943E-01 
    3.4986871206752407E-01 
    3.4981614657525528E-01 
    3.4975574261211878E-01 
    3.4968741342784371E-01 
    3.4961058226379110E-01 
    3.4952356941594170E-01 
    3.4942195207784710E-01 
    3.4929682031188036E-01 
    3.4916357523521818E-01 
    3.4907320724466895E-01 
    3.4903480097074374E-01 
    2.9564738465329859E-01 
    2.9563317887202961E-01 
    2.9560473681456467E-01 
    2.9556210473994893E-01 
    2.9550532153268355E-01 
    2.9543431858960173E-01 
    2.9534880576961930E-01 
    2.9524808168876604E-01 
    2.9513066908414221E-01 
    2.9499356271518773E-01 
    2.9483086064344133E-01 
    2.9463547476944069E-01 
    2.9442264917012201E-01 
    2.9425240198491637E-01 
    2.9415620251056435E-01 
    2.9411456110292789E-01 
    2.3767069006401681E-01 
    2.3764214726189903E-01 
    2.3758456309729822E-01 
    2.3749737255576941E-01 
    2.3737986876910239E-01 
    2.3723094732328567E-01 
    2.3704878193641865E-01 
    2.3683050123824664E-01 
    2.3657250138312241E-01 
    2.3627380022671457E-01 
    2.3594570085333705E-01 
    2.3562265109212138E-01 
    2.3536302610829959E-01 
    2.3519527445570990E-01 
    2.3509663319279256E-01 
    2.3504831957305922E-01 
    1.7564359522845746E-01 
    1.7556434837389706E-01 
    1.7540583152302419E-01 
    1.7516914235085224E-01 
    1.7485705887110822E-01 
    1.7447515377370307E-01 
    1.7403347768993851E-01 
    1.7354835963836920E-01 
    1.7304355805980651E-01 
    1.7255101287292604E-01 
    1.7211079319332484E-01 
    1.7175960949421848E-01 
    1.7150651216663249E-01 
    1.7132954041832957E-01 
    1.7121114717149633E-01 
    1.7115075156902246E-01 
    1.1159875537946784E-01 
    1.1142156782166532E-01 
    1.1107325300387921E-01 
    1.1056478634599641E-01 
    1.0991130519057435E-01 
    1.0913291671984804E-01 
    1.0825570968933845E-01 
    1.0731191711251215E-01 
    1.0633785359674922E-01 
    1.0536971176264287E-01 
    1.0443906656462497E-01 
    1.0356700253210793E-01 
    1.0276656805093405E-01 
    1.0206769087545665E-01 
    1.0152638826880780E-01 
    1.0121362331814995E-01 
    6.2996515361702671E-02 
    6.2524159617241809E-02 
    6.1581809572626364E-02 
    6.0169637417107805E-02 
    5.8284884367772204E-02 
    5.5921522930934067E-02 
    5.3070294450605689E-02 
    4.9718371608587879E-02 
    4.5846416990205113E-02 
    4.1421140980622606E-02 
    3.6389846780854204E-02 
    3.0689925057245156E-02 
    2.4262647324526813E-02 
    1.7050342288588056E-02 
    8.9878637668033227E-03 
    0.0000000000000000E+00 

SCALARS Saturarion double 1 
LOOKUP_TABLE default 

    1.0000000000000000E+00 
    9.6080029534390798E-01 
    9.3630497891832032E-01 
    9.1298464651792299E-01 
    8.8983492344620851E-01 
    8.6644238949129715E-01 
    8.4253375961367138E-01 
    8.1785859237857073E-01 
    7.9213161825650658E-01 
    7.6498032847222497E-01 
    7.3586966103171203E-01 
    7.0396165320088455E-01 
    6.6779958550602780E-01 
    6.2441561989112204E-01 
    5.6574203600281525E-01 
    4.5533730490724889E-01 
    8.5579786265696289E-01 
    8.4266813774007554E-01 
    8.2758517635675799E-01 
    8.1161550566484164E-01 
    7.9484224495255607E-01 
    7.7724689699147187E-01 
    7.5875045307322508E-01 
    7.3921357639789975E-01 
    7.1842024985203523E-01 
    6.9604228810917790E-01 
    6.7156874247949605E-01 
    6.4415595381989332E-01 
    6.1226095944692360E-01 
    5.7252280380020770E-01 
    5.1519381829589006E-01 
    4.0048100762988342E-01 
    7.7471120553780404E-01 
    7.6471748557736452E-01 
    7.5263550241413557E-01 
    7.3964554422148310E-01 
    7.2589062568518126E-01 
    7.1133797070583160E-01 
    6.9588942853756708E-01 
    6.7939047737379665E-01 
    6.6161281759081225E-01 
    6.4221467122502929E-01 
    6.2066075060331283E-01 
    5.9604652180521900E-01 
    5.6664953298194143E-01 
    5.2853125138745882E-01 
    4.7006463065224974E-01 
    3.4261020973007189E-01 
    7.1602475737391325E-01 
    7.0771760909076664E-01 
    6.9736633225958433E-01 
    6.8612750149684854E-01 
    6.7417271123631617E-01 
    6.6146813097439283E-01 
    6.4790593695663312E-01 
    6.3331990337729793E-01 
    6.1746825069843125E-01 
    5.9999012130933904E-01 
    5.8031427201869867E-01 
    5.5745157982233862E-01 
    5.2945434759000132E-01 
    4.9175414922275656E-01 
    4.3093743971289272E-01 
    2.7816476761819453E-01 
    6.6944860870818135E-01 
    6.6232579097265110E-01 
    6.5324527423641854E-01 
    6.4328153663515875E-01 
    6.3262166050003144E-01 
    6.2123835967942975E-01 
    6.0902257657695247E-01 
    5.9580225200146752E-01 
    5.8132486242979620E-01 
    5.6520929682318732E-01 
    5.4684084698176294E-01 
    5.2512623438458128E-01 
    4.9785379961024540E-01 
    4.5977067227816898E-01 
    3.9558830540900253E-01 
    1.9794144239639064E-01 
    6.3026941307828066E-01 
    6.2404839676428947E-01 
    6.1597369036467653E-01 
    6.0701830297788761E-01 
    5.9737209156510007E-01 
    5.8701356306183805E-01 
    5.7583386283893190E-01 
    5.6365537970940882E-01 
    5.5021217220073770E-01 
    5.3509460073071802E-01 
    5.1762463839561479E-01 
    4.9655793712545671E-01 
    4.6930174818255721E-01 
    4.2955354003611018E-01 
    3.5821340842949567E-01 
    9.9949625585203039E-02 
    5.9594386857389070E-01 
    5.9043535259063185E-01 
    5.8318267461723261E-01 
    5.7505578427279203E-01 
    5.6623798368486700E-01 
    5.5671046573825622E-01 
    5.4636328286946645E-01 
    5.3501107566489525E-01 
    5.2236906090572255E-01 
    5.0798633875672505E-01 
    4.9109177211586080E-01 
    4.7021439736916942E-01 
    4.4215624048745517E-01 
    3.9868477785827861E-01 
    3.0962711100337759E-01 
    3.1190808696830004E-02 
    5.6486560569515998E-01 
    5.5993396290963793E-01 
    5.5336892276538441E-01 
    5.4594196050168731E-01 
    5.3782411288994625E-01 
    5.2899674710431310E-01 
    5.1934796170995612E-01 
    5.0868372295328135E-01 
    4.9669764343849138E-01 
    4.8288943642457077E-01 
    4.6637187131987101E-01 
    4.4537678146735737E-01 
    4.1583605037767979E-01 
    3.6626271913633063E-01 
    2.3755261828315560E-01 
    7.9163400559813697E-03 
    5.3582858406212885E-01 
    5.3136496904245190E-01 
    5.2537420491186970E-01 
    5.1853672432450626E-01 
    5.1100740330484784E-01 
    5.0276483280677176E-01 
    4.9369294191285584E-01 
    4.8358610533232793E-01 
    4.7211043719558943E-01 
    4.5870182620631800E-01 
    4.4231693991647975E-01 
    4.2076052387188823E-01 
    3.8855546569680494E-01 
    3.2770415178522783E-01 
    1.2763617685557824E-01 
    1.0348813752019200E-03 
    5.0775641799067117E-01 
    5.0366217956865811E-01 
    4.9813611512171402E-01 
    4.9177571722855340E-01 
    4.8471611308971696E-01 
    4.7692845541774698E-01 
    4.6828675315711665E-01 
    4.5856475935146390E-01 
    4.4738393537342042E-01 
    4.3407793154757923E-01 
    4.1734480756603504E-01 
    3.9422599861795926E-01 
    3.5637171904683967E-01 
    2.6770531274626147E-01 
    3.1929294529900322E-02 
    2.8036609931061234E-05 
    4.7943373441733655E-01 
    4.7560693531443365E-01 
    4.7042710141999028E-01 
    4.6441465445950125E-01 
    4.5768057653734484E-01 
    4.5018127976034950E-01 
    4.4176983549887661E-01 
    4.3218050910104483E-01 
    4.2095307457986314E-01 
    4.0723397247089055E-01 
    3.8922561018049906E-01 
    3.6236790054205198E-01 
    3.1124222020690484E-01 
    1.5504864184846520E-01 
    2.9475696328829411E-03 
    6.9293530212630681E-08 
    4.4901504308592849E-01 
    4.4531515816640416E-01 
    4.4030794287437619E-01 
    4.3443760768355638E-01 
    4.2778072601397776E-01 
    4.2026081475821814E-01 
    4.1167947596717602E-01 
    4.0167567071448579E-01 
    3.8959303914764237E-01 
    3.7411693610725277E-01 
    3.5214585473218851E-01 
    3.1441301821945578E-01 
    2.2191717259667360E-01 
    2.7874727023643971E-02 
    1.8852296329876143E-05 
    2.1835139720732102E-13 
    4.1280457462050191E-01 
    4.0895711610187852E-01 
    4.0376278483869826E-01 
    3.9757309478873920E-01 
    3.9039298927559718E-01 
    3.8204695438403685E-01 
    3.7216559425123474E-01 
    3.6005688160182825E-01 
    3.4434448682207075E-01 
    3.2189818172944101E-01 
    2.8415608965690287E-01 
    2.0365865558587304E-01 
    5.3660888389148467E-02 
    2.2844069133322103E-04 
    7.3473780949250179E-11 
    4.4975169312705638E-27 
    3.6079426292511740E-01 
    3.5603719722014893E-01 
    3.4960905875007525E-01 
    3.4166483573917700E-01 
    3.3194808464780490E-01 
    3.1983544673950126E-01 
    3.0411634777368612E-01 
    2.8240452438698077E-01 
    2.4977548716529618E-01 
    1.9673297147624297E-01 
    1.1506584716406565E-01 
    2.9820735899229615E-02 
    4.9230953050007715E-04 
    1.0463621087149182E-09 
    2.2942519923224301E-24 
    2.9482262939746047E-61 
    2.5564251707177899E-01 
    2.4716385644194308E-01 
    2.3562498743337837E-01 
    2.2065103690387411E-01 
    2.0125252803190302E-01 
    1.7599770830066913E-01 
    1.4355927872502663E-01 
    1.0414590293131797E-01 
    6.1569081401039477E-02 
    2.4645809213726291E-02 
    4.2935035670888487E-03 
    9.1904265286114453E-05 
    2.3437615978852618E-09 
    9.3073313521531873E-23 
    8.8411589367985097E-57 
   9.8065461865842354E-143 
    5.6272338425650367E-02 
    4.9003583566591978E-02 
    4.0454869310871548E-02 
    3.1321100372537422E-02 
    2.2214615137980863E-02 
    1.3862654199315327E-02 
    7.1221542759594362E-03 
    2.6886954724317713E-03 
    6.0271957224243197E-04 
    5.1433398719032089E-05 
    5.6982397451470960E-07 
    3.3621976514140843E-11 
    8.9879257787299300E-23 
    1.3310190192680630E-55 
   6.6677314541860600E-139 
    0.0000000000000000E+00 
