# vtk DataFile Version 2.0
Pressure Field Data 
ASCII 
DATASET UNSTRUCTURED_GRID 

POINTS 289 double 

    0.0000000000000000E+00     0.0000000000000000E+00     0.0000000000000000E+00 
    1.0000000000000000E+00     0.0000000000000000E+00     0.0000000000000000E+00 
    1.0000000000000000E+00     1.0000000000000000E+00     0.0000000000000000E+00 
    0.0000000000000000E+00     1.0000000000000000E+00     0.0000000000000000E+00 
    6.2499999999872928E-02     0.0000000000000000E+00     0.0000000000000000E+00 
    1.2499999999977310E-01     0.0000000000000000E+00     0.0000000000000000E+00 
    1.8749999999959341E-01     0.0000000000000000E+00     0.0000000000000000E+00 
    2.4999999999941089E-01     0.0000000000000000E+00     0.0000000000000000E+00 
    3.1249999999922851E-01     0.0000000000000000E+00     0.0000000000000000E+00 
    3.7499999999904610E-01     0.0000000000000000E+00     0.0000000000000000E+00 
    4.3749999999886358E-01     0.0000000000000000E+00     0.0000000000000000E+00 
    4.9999999999869210E-01     0.0000000000000000E+00     0.0000000000000000E+00 
    5.6249999999884603E-01     0.0000000000000000E+00     0.0000000000000000E+00 
    6.2499999999901090E-01     0.0000000000000000E+00     0.0000000000000000E+00 
    6.8749999999917577E-01     0.0000000000000000E+00     0.0000000000000000E+00 
    7.4999999999934064E-01     0.0000000000000000E+00     0.0000000000000000E+00 
    8.1249999999950551E-01     0.0000000000000000E+00     0.0000000000000000E+00 
    8.7499999999967026E-01     0.0000000000000000E+00     0.0000000000000000E+00 
    9.3749999999983513E-01     0.0000000000000000E+00     0.0000000000000000E+00 
    1.0000000000000000E+00     6.2499999999872928E-02     0.0000000000000000E+00 
    1.0000000000000000E+00     1.2499999999977310E-01     0.0000000000000000E+00 
    1.0000000000000000E+00     1.8749999999959341E-01     0.0000000000000000E+00 
    1.0000000000000000E+00     2.4999999999941089E-01     0.0000000000000000E+00 
    1.0000000000000000E+00     3.1249999999922851E-01     0.0000000000000000E+00 
    1.0000000000000000E+00     3.7499999999904610E-01     0.0000000000000000E+00 
    1.0000000000000000E+00     4.3749999999886358E-01     0.0000000000000000E+00 
    1.0000000000000000E+00     4.9999999999869210E-01     0.0000000000000000E+00 
    1.0000000000000000E+00     5.6249999999884603E-01     0.0000000000000000E+00 
    1.0000000000000000E+00     6.2499999999901090E-01     0.0000000000000000E+00 
    1.0000000000000000E+00     6.8749999999917577E-01     0.0000000000000000E+00 
    1.0000000000000000E+00     7.4999999999934064E-01     0.0000000000000000E+00 
    1.0000000000000000E+00     8.1249999999950551E-01     0.0000000000000000E+00 
    1.0000000000000000E+00     8.7499999999967026E-01     0.0000000000000000E+00 
    1.0000000000000000E+00     9.3749999999983513E-01     0.0000000000000000E+00 
    9.3749999999973976E-01     1.0000000000000000E+00     0.0000000000000000E+00 
    8.7499999999950118E-01     1.0000000000000000E+00     0.0000000000000000E+00 
    8.1249999999991318E-01     1.0000000000000000E+00     0.0000000000000000E+00 
    7.5000000000034706E-01     1.0000000000000000E+00     0.0000000000000000E+00 
    6.8750000000078049E-01     1.0000000000000000E+00     0.0000000000000000E+00 
    6.2500000000121403E-01     1.0000000000000000E+00     0.0000000000000000E+00 
    5.6250000000164757E-01     1.0000000000000000E+00     0.0000000000000000E+00 
    5.0000000000205946E-01     1.0000000000000000E+00     0.0000000000000000E+00 
    4.3750000000182099E-01     1.0000000000000000E+00     0.0000000000000000E+00 
    3.7500000000156092E-01     1.0000000000000000E+00     0.0000000000000000E+00 
    3.1250000000130068E-01     1.0000000000000000E+00     0.0000000000000000E+00 
    2.5000000000104050E-01     1.0000000000000000E+00     0.0000000000000000E+00 
    1.8750000000078040E-01     1.0000000000000000E+00     0.0000000000000000E+00 
    1.2500000000052031E-01     1.0000000000000000E+00     0.0000000000000000E+00 
    6.2500000000260125E-02     1.0000000000000000E+00     0.0000000000000000E+00 
    0.0000000000000000E+00     9.3749999999973976E-01     0.0000000000000000E+00 
    0.0000000000000000E+00     8.7499999999950118E-01     0.0000000000000000E+00 
    0.0000000000000000E+00     8.1249999999991318E-01     0.0000000000000000E+00 
    0.0000000000000000E+00     7.5000000000034706E-01     0.0000000000000000E+00 
    0.0000000000000000E+00     6.8750000000078049E-01     0.0000000000000000E+00 
    0.0000000000000000E+00     6.2500000000121403E-01     0.0000000000000000E+00 
    0.0000000000000000E+00     5.6250000000164757E-01     0.0000000000000000E+00 
    0.0000000000000000E+00     5.0000000000205946E-01     0.0000000000000000E+00 
    0.0000000000000000E+00     4.3750000000182099E-01     0.0000000000000000E+00 
    0.0000000000000000E+00     3.7500000000156092E-01     0.0000000000000000E+00 
    0.0000000000000000E+00     3.1250000000130068E-01     0.0000000000000000E+00 
    0.0000000000000000E+00     2.5000000000104050E-01     0.0000000000000000E+00 
    0.0000000000000000E+00     1.8750000000078040E-01     0.0000000000000000E+00 
    0.0000000000000000E+00     1.2500000000052031E-01     0.0000000000000000E+00 
    0.0000000000000000E+00     6.2500000000260125E-02     0.0000000000000000E+00 
    6.2499999999897131E-02     6.2500000000235922E-02     0.0000000000000000E+00 
    6.2499999999921327E-02     1.2500000000047351E-01     0.0000000000000000E+00 
    6.2499999999945530E-02     1.8750000000070621E-01     0.0000000000000000E+00 
    6.2499999999969733E-02     2.5000000000093858E-01     0.0000000000000000E+00 
    6.2499999999993928E-02     3.1250000000117117E-01     0.0000000000000000E+00 
    6.2500000000018124E-02     3.7500000000140382E-01     0.0000000000000000E+00 
    6.2500000000042327E-02     4.3750000000163619E-01     0.0000000000000000E+00 
    6.2500000000066530E-02     5.0000000000184897E-01     0.0000000000000000E+00 
    6.2500000000090733E-02     5.6250000000147260E-01     0.0000000000000000E+00 
    6.2500000000114922E-02     6.2500000000107636E-01     0.0000000000000000E+00 
    6.2500000000139125E-02     6.8750000000068034E-01     0.0000000000000000E+00 
    6.2500000000163328E-02     7.5000000000028411E-01     0.0000000000000000E+00 
    6.2500000000187531E-02     8.1249999999988787E-01     0.0000000000000000E+00 
    6.2500000000211720E-02     8.7499999999951172E-01     0.0000000000000000E+00 
    6.2500000000235922E-02     9.3749999999974565E-01     0.0000000000000000E+00 
    1.2499999999981980E-01     6.2500000000211733E-02     0.0000000000000000E+00 
    1.2499999999986650E-01     1.2500000000042691E-01     0.0000000000000000E+00 
    1.2499999999991319E-01     1.8750000000063199E-01     0.0000000000000000E+00 
    1.2499999999995989E-01     2.5000000000083678E-01     0.0000000000000000E+00 
    1.2500000000000661E-01     3.1250000000104172E-01     0.0000000000000000E+00 
    1.2500000000005329E-01     3.7500000000124661E-01     0.0000000000000000E+00 
    1.2500000000010000E-01     4.3750000000145117E-01     0.0000000000000000E+00 
    1.2500000000014669E-01     5.0000000000163858E-01     0.0000000000000000E+00 
    1.2500000000019340E-01     5.6250000000129741E-01     0.0000000000000000E+00 
    1.2500000000024011E-01     6.2500000000093847E-01     0.0000000000000000E+00 
    1.2500000000028680E-01     6.8750000000057998E-01     0.0000000000000000E+00 
    1.2500000000033351E-01     7.5000000000022127E-01     0.0000000000000000E+00 
    1.2500000000038020E-01     8.1249999999986211E-01     0.0000000000000000E+00 
    1.2500000000042691E-01     8.7499999999952238E-01     0.0000000000000000E+00 
    1.2500000000047359E-01     9.3749999999975164E-01     0.0000000000000000E+00 
    1.8749999999966760E-01     6.2500000000187531E-02     0.0000000000000000E+00 
    1.8749999999974179E-01     1.2500000000038020E-01     0.0000000000000000E+00 
    1.8749999999981601E-01     1.8750000000055780E-01     0.0000000000000000E+00 
    1.8749999999989009E-01     2.5000000000073502E-01     0.0000000000000000E+00 
    1.8749999999996431E-01     3.1250000000091221E-01     0.0000000000000000E+00 
    1.8750000000003850E-01     3.7500000000108941E-01     0.0000000000000000E+00 
    1.8750000000011269E-01     4.3750000000126649E-01     0.0000000000000000E+00 
    1.8750000000018691E-01     5.0000000000142808E-01     0.0000000000000000E+00 
    1.8750000000026110E-01     5.6250000000112244E-01     0.0000000000000000E+00 
    1.8750000000033529E-01     6.2500000000080080E-01     0.0000000000000000E+00 
    1.8750000000040951E-01     6.8750000000047962E-01     0.0000000000000000E+00 
    1.8750000000048361E-01     7.5000000000015843E-01     0.0000000000000000E+00 
    1.8750000000055780E-01     8.1249999999983680E-01     0.0000000000000000E+00 
    1.8750000000063199E-01     8.7499999999953304E-01     0.0000000000000000E+00 
    1.8750000000070621E-01     9.3749999999975764E-01     0.0000000000000000E+00 
    2.4999999999951281E-01     6.2500000000163314E-02     0.0000000000000000E+00 
    2.4999999999961461E-01     1.2500000000033351E-01     0.0000000000000000E+00 
    2.4999999999971650E-01     1.8750000000048361E-01     0.0000000000000000E+00 
    2.4999999999981831E-01     2.5000000000063310E-01     0.0000000000000000E+00 
    2.4999999999992020E-01     3.1250000000078260E-01     0.0000000000000000E+00 
    2.5000000000002198E-01     3.7500000000093209E-01     0.0000000000000000E+00 
    2.5000000000012390E-01     4.3750000000108180E-01     0.0000000000000000E+00 
    2.5000000000022571E-01     5.0000000000121769E-01     0.0000000000000000E+00 
    2.5000000000032763E-01     5.6250000000094724E-01     0.0000000000000000E+00 
    2.5000000000042938E-01     6.2500000000066314E-01     0.0000000000000000E+00 
    2.5000000000053119E-01     6.8750000000037925E-01     0.0000000000000000E+00 
[...]
CELL_DATA 256 
SCALARS Pressure double 1 
LOOKUP_TABLE default 

    8.0152002216044382E-01 
    7.9954532882706408E-01 
    7.9769153544546867E-01 
    7.9598424738268569E-01 
    7.9442056288264551E-01 
    7.9299620378035474E-01 
    7.9170707832508724E-01 
    7.9054969532192831E-01 
    7.8952129272225047E-01 
    7.8861986925458583E-01 
    7.8784417555214203E-01 
    7.8719367398370887E-01 
    7.8666842388240099E-01 
    7.8626867475019002E-01 
    7.8599327643156025E-01 
    7.8583605912997789E-01 
    7.7114306212571704E-01 
    7.7104581108038006E-01 
    7.7087342255347857E-01 
    7.7064737981782006E-01 
    7.7038397380180146E-01 
    7.7009712079746928E-01 
    7.6979888057608081E-01 
    7.6949978589124801E-01 
    7.6920908949366407E-01 
    7.6893495802018030E-01 
    7.6868462103613455E-01 
    7.6846446489341036E-01 
    7.6828001555233860E-01 
    7.6813561262741659E-01 
    7.6803330592310681E-01 
    7.6797322728436956E-01 
    7.4179466608683453E-01 
    7.4177364548767932E-01 
    7.4173301026936100E-01 
    7.4167521446972307E-01 
    7.4160306530873010E-01 
    7.4151960711443488E-01 
    7.4142803826568215E-01 
    7.4133163225704946E-01 
    7.4123367063494650E-01 
    7.4113738290564712E-01 
    7.4104587992390347E-01 
    7.4096204701263346E-01 
    7.4088830454060539E-01 
    7.4082599389791437E-01 
    7.4077397398674849E-01 
    7.4073615193953646E-01 
    7.0859065563359280E-01 
    7.0857894189694726E-01 
    7.0855627928989318E-01 
    7.0852390573902846E-01 
    7.0848316847586679E-01 
    7.0843549508210402E-01 
    7.0838238747664839E-01 
    7.0832540507949504E-01 
    7.0826613801185534E-01 
    7.0820616494244359E-01 
    7.0814697588129294E-01 
    7.0808980441701019E-01 
    7.0803521864861596E-01 
    7.0798207521062273E-01 
    7.0792514964690978E-01 
    7.0787601486711693E-01 
    6.7129282255896905E-01 
    6.7128293072611545E-01 
    6.7126379477266396E-01 
    6.7123643998143023E-01 
    6.7120196201308646E-01 
    6.7116148942235798E-01 
    6.7111618380738136E-01 
    6.7106723408185953E-01 
    6.7101583700659262E-01 
    6.7096315192716616E-01 
    6.7091019715226552E-01 
    6.7085759888691632E-01 
    6.7080494573668692E-01 
    6.7074906597559836E-01 
    6.7068464064214561E-01 
    6.7063349608166223E-01 
    6.3003187080324086E-01 
    6.3002194815665624E-01 
    6.3000266348253231E-01 
    6.2997491569693242E-01 
    6.2993966942748936E-01 
    6.2989790333103401E-01 
    6.2985060116092084E-01 
    6.2979873857136970E-01 
    6.2974324960606598E-01 
    6.2968494914092721E-01 
    6.2962435191589450E-01 
    6.2956122178741736E-01 
    6.2949335234450665E-01 
    6.2941360406989677E-01 
    6.2932879081180171E-01 
    6.2927914012560393E-01 
    5.8492286618827738E-01 
    5.8491211254723730E-01 
    5.8489106910716937E-01 
    5.8486050155007285E-01 
    5.8482123674563891E-01 
    5.8477409780887069E-01 
    5.8471987950556403E-01 
    5.8465931497241119E-01 
    5.8459300664867331E-01 
    5.8452127374640461E-01 
    5.8444379213803621E-01 
    5.8435865899230732E-01 
    5.8425987268990165E-01 
    5.8414140687487048E-01 
    5.8403552593818209E-01 
    5.8398518534850974E-01 
    5.3598076668718975E-01 
    5.3596827278906556E-01 
    5.3594360660781626E-01 
    5.3590733687443393E-01 
    5.3586007478754361E-01 
    5.3580239136040331E-01 
    5.3573476307024503E-01 
    5.3565748945720115E-01 
    5.3557052945688655E-01 
    5.3547314041194405E-01 
    5.3536300299425965E-01 
    5.3523410397679871E-01 
    5.3507798346412927E-01 
    5.3491729302847890E-01 
    5.3480929954395773E-01 
    5.3476292667159231E-01 
    4.8305980428887063E-01 
    4.8304297082254072E-01 
    4.8300929389834052E-01 
    4.8295885528635785E-01 
    4.8289167194069410E-01 
    4.8280756075812126E-01 
    4.8270598293692024E-01 
    4.8258577202495934E-01 
    4.8244459950613156E-01 
    4.8227794137162117E-01 
    4.8207808976952560E-01 
    4.8184209226656410E-01 
    4.8159853966158045E-01 
    4.8141261655417761E-01 
    4.8130744688839672E-01 
    4.8126082903354250E-01 
    4.2579800161063180E-01 
    4.2577013917331419E-01 
    4.2571344929926846E-01 
    4.2562653475360190E-01 
    4.2550747443241438E-01 
    4.2535353788768399E-01 
    4.2516093998465049E-01 
    4.2492506323512635E-01 
    4.2464260462318365E-01 
    4.2431801907585504E-01 
    4.2397264772652832E-01 
    4.2365035804370338E-01 
    4.2340466396602450E-01 
    4.2324899338968414E-01 
    4.2315681345220663E-01 
    4.2311135450393583E-01 
    3.6341770876708712E-01 
    3.6335792028601421E-01 
    3.6323731347253302E-01 
    3.6305573869581165E-01 
    3.6281533177767578E-01 
    3.6252214290019907E-01 
    3.6218769307213333E-01 
    3.6182981267403791E-01 
    3.6147253894204462E-01 
    3.6114528871883922E-01 
    3.6087846151830455E-01 
    3.6068982572392405E-01 
    3.6056990880558076E-01 
    3.6049202835570571E-01 
    3.6044130431540755E-01 
    3.6041599166675919E-01 
    2.9595983790038055E-01 
    2.9590919362755597E-01 
    2.9581617380995706E-01 
    2.9569333739831682E-01 
    2.9555466302800459E-01 
    2.9541475145889662E-01 
    2.9528820629337210E-01 
    2.9518871923996592E-01 
    2.9512700326948021E-01 
    2.9510622524435570E-01 
    2.9511658968847293E-01 
    2.9513924254433971E-01 
    2.9516009330010073E-01 
    2.9517512594521439E-01 
    2.9518470610742042E-01 
    2.9518936397697371E-01 
    2.2970001762179970E-01 
    2.2970882848627380E-01 
    2.2972934766680805E-01 
    2.2976519471857806E-01 
    2.2981871089410325E-01 
    2.2988959960486394E-01 
    2.2997393544474290E-01 
    2.3006425681873921E-01 
    2.3015149316094463E-01 
    2.3022825969402896E-01 
    2.3029117174434599E-01 
    2.3034033680607541E-01 
    2.3037727497113833E-01 
    2.3040353477964887E-01 
    2.3042033716472402E-01 
    2.3042852325097993E-01 
    1.6766747357824752E-01 
    1.6765686097106161E-01 
    1.6763295637916839E-01 
    1.6759262636473166E-01 
    1.6753385344556426E-01 
    1.6745622568430146E-01 
    1.6736110005100671E-01 
    1.6725147881426466E-01 
    1.6713167570360746E-01 
    1.6700691608209164E-01 
    1.6688300225890906E-01 
    1.6676606058264554E-01 
    1.6666229544615124E-01 
    1.6657768595760813E-01 
    1.6651759810390973E-01 
    1.6648629115511565E-01 
    1.0891032513377903E-01 
    1.0877809859381743E-01 
    1.0851561615078584E-01 
    1.0812695203543012E-01 
    1.0761849275814576E-01 
    1.0699917879456154E-01 
    1.0628081360514588E-01 
    1.0547845279090545E-01 
    1.0461088574015616E-01 
    1.0370122485768027E-01 
    1.0277762138161833E-01 
    1.0187413038349635E-01 
    1.0103175112579760E-01 
    1.0029967365083989E-01 
    9.9736768552375607E-02 
    9.9413364180334557E-02 
    6.3389915281555853E-02 
    6.2934711183256400E-02 
    6.2021073211090259E-02 
    6.0642489809586822E-02 
    5.8789061785835865E-02 
    5.6447339452367760E-02 
    5.3600098725483721E-02 
    5.0226050849809162E-02 
    4.6299478954720703E-02 
    4.1789792991769978E-02 
    3.6660992710161454E-02 
    3.0871026141840268E-02 
    2.4371028531104847E-02 
    1.7104423694425056E-02 
    9.0058663581827885E-03 
    0.0000000000000000E+00 

SCALARS Saturarion double 1 
LOOKUP_TABLE default 

    1.0000000000000000E+00 
    9.5080713846402398E-01 
    9.2090698079784128E-01 
    8.9299616486292277E-01 
    8.6577003267867092E-01 
    8.3869271034260207E-01 
    8.1141860404220012E-01 
    7.8364360433428149E-01 
    7.5503481443180620E-01 
    7.2516970745638654E-01 
    6.9344994494906331E-01 
    6.5893710248193560E-01 
    6.1996130234665470E-01 
    5.7290126627888638E-01 
    5.0669130125350204E-01 
    3.6698693542781952E-01 
    8.3353388716427601E-01 
    8.1790984183045357E-01 
    8.0014847794183463E-01 
    7.8166119604524342E-01 
    7.6252514742597310E-01 
    7.4270491424464802E-01 
    7.2210195959968893E-01 
    7.0055438010491000E-01 
    6.7781782272831614E-01 
    6.5352398904000830E-01 
    6.2709572628111221E-01 
    5.9755721759728908E-01 
    5.6303311487787289E-01 
    5.1908059572205600E-01 
    4.5166735960656945E-01 
    2.9269639557477128E-01 
    7.4336905188009550E-01 
    7.3198937535209674E-01 
    7.1829254682996913E-01 
    7.0371306540317158E-01 
    6.8842677027369681E-01 
    6.7239718886784405E-01 
    6.5551298628957255E-01 
    6.3760007332148527E-01 
    6.1840114966144255E-01 
    5.9752684345962392E-01 
    5.7435201754190424E-01 
    5.4777180345889798E-01 
    5.1553083090489471E-01 
    4.7204106330660239E-01 
    3.9998409452645667E-01 
    2.0095118489882122E-01 
    6.7861217432273313E-01 
    6.6946160896276041E-01 
    6.5807455012382177E-01 
    6.4576819857681567E-01 
    6.3275235608696001E-01 
    6.1899541377795253E-01 
    6.0437753490863499E-01 
    5.8870940466019051E-01 
    5.7171002758076250E-01 
    5.5294747978761338E-01 
    5.3170562396915833E-01 
    5.0665698150613381E-01 
    4.7495444408496995E-01 
    4.2933560627329359E-01 
    3.4638227428123169E-01 
    9.2524035203488911E-02 
    6.2708405884862140E-01 
    6.1942728763566934E-01 
    6.0966710756532438E-01 
    5.9896507166712520E-01 
    5.8753964324590191E-01 
    5.7536638256070849E-01 
    5.6232182652166307E-01 
    5.4820236774647924E-01 
    5.3269690700390993E-01 
    5.1531099721036255E-01 
    4.9518777999771718E-01 
    4.7065177500059063E-01 
    4.3791855195076479E-01 
    3.8675432903850232E-01 
    2.7616106295860193E-01 
    2.2266320603930245E-02 
    5.8321886685837099E-01 
    5.7664904888154678E-01 
    5.6812464973101384E-01 
    5.5864979111558877E-01 
    5.4843421686376936E-01 
    5.3745643219954287E-01 
    5.2558841821873115E-01 
    5.1260937092108882E-01 
    4.9816860429711052E-01 
    4.8168427221975207E-01 
    4.6209569531612082E-01 
    4.3720189055730646E-01 
    4.0166613291174835E-01 
    3.3915728607728651E-01 
    1.6688063311995097E-01 
    2.7583104686613106E-03 
    5.4381048351949290E-01 
    5.3805012866806678E-01 
    5.3047951343163668E-01 
    5.2195722299668779E-01 
    5.1267235353005347E-01 
    5.0259882506219067E-01 
    4.9159743723205646E-01 
    4.7941959251588712E-01 
    4.6565301595206837E-01 
    4.4957734747916411E-01 
    4.2979607954326160E-01 
    4.0317434763108523E-01 
    3.6115321922313331E-01 
    2.7026641766519105E-01 
    4.5084165170809015E-02 
    6.3591466580664019E-05 
    5.0645192583675114E-01 
    5.0127440600349094E-01 
    4.9441080958611944E-01 
    4.8658842459619706E-01 
    4.7796563993177066E-01 
    4.6849990047940526E-01 
    4.5802510962751219E-01 
    4.4623820420979043E-01 
    4.3261174589690971E-01 
    4.1616163137327361E-01 
    3.9480932810240443E-01 
    3.6329014934594633E-01 
    3.0405314651744242E-01 
    1.4232487817819398E-01 
    2.7179431656156779E-03 
    4.9587519472541162E-08 
    4.6855464105400352E-01 
    4.6371357825837406E-01 
    4.5726394960673489E-01 
    4.4981192827103789E-01 
    4.4146957562190653E-01 
    4.3215157640982615E-01 
    4.2162139760711986E-01 
    4.0944066771061172E-01 
    3.9479593605597318E-01 
    3.7601489230648732E-01 
    3.4904873226202876E-01 
    3.0156545755925340E-01 
    1.8676972807088474E-01 
    1.7027345057416869E-02 
    5.3236161980614478E-06 
    8.0419794258978112E-15 
    4.2589826597357328E-01 
    4.2096414535131088E-01 
    4.1436103737281821E-01 
    4.0656643176492580E-01 
    3.9759173536669612E-01 
    3.8720718039985952E-01 
    3.7491476903397492E-01 
    3.5975107881909707E-01 
    3.3972357289357946E-01 
    3.1013495466414454E-01 
    2.5816848536774900E-01 
    1.5323671677934880E-01 
    2.4704973374920603E-02 
    3.9810821712972235E-05 
    9.0481239722075537E-13 
    6.5971346697434746E-32 
    3.6835968760939664E-01 
    3.6202830088739485E-01 
    3.5337090121987647E-01 
    3.4260356715593704E-01 
    3.2930779785119380E-01 
    3.1249745500966758E-01 
    2.9029820804755641E-01 
    2.5926029935501060E-01 
    2.1351588622084000E-01 
    1.4699410408215252E-01 
    6.7065939961207660E-02 
    1.0259734322621044E-02 
    5.6297039376630808E-05 
    6.6863253601629332E-12 
    4.7629687532679886E-30 
    1.1383528107472314E-75 
    2.6334295847830047E-01 
    2.5031921834380305E-01 
    2.3201723453853854E-01 
    2.0872309767540798E-01 
    1.8012445986092823E-01 
    1.4616556685776727E-01 
    1.0787450461877611E-01 
    6.8205888867810260E-02 
    3.2836384290070839E-02 
    9.3855030564901510E-03 
    8.9354713811767102E-04 
    5.5876230675943253E-06 
    1.0184882837807200E-11 
    4.9629118623484632E-29 
    2.9143305488518945E-74 
   2.9709760797794405E-188 
    7.7528754355131457E-02 
    6.3657287112022287E-02 
    4.7857390706721237E-02 
    3.2654375193007831E-02 
    1.9652630908780399E-02 
    9.9229094267033000E-03 
    3.8684643647634532E-03 
    1.0045487627944473E-03 
    1.3090287096562928E-04 
    4.7149385818026531E-06 
    1.0884785381707355E-08 
    2.7534699404715757E-14 
    9.5360492002437883E-29 
    5.4195313869082661E-72 
   3.7900753924614622E-185 
    0.0000000000000000E+00 
    1.5345198555548403E-03 
    8.6783316825585048E-04 
    3.8896060059895706E-04 
    1.3637883118296429E-04 
    3.5044067943445316E-05 
    5.8394604205007487E-06 
    5.1162306565387357E-07 
    1.6218631675535073E-08 
    9.0608957226367872E-11 
    1.9140104918233167E-14 
    3.7978004103497927E-21 
    2.3656605819582494E-35 
    9.9747125874248715E-72 
   7.4354456916894358E-180 
    0.0000000000000000E+00 
    0.0000000000000000E+00 
    5.5457817410279020E-08 
    1.2980946924642262E-08 
    1.6945327001638653E-09 
    1.1963691854226831E-10 
    3.8667457925769125E-12 
    4.1839655639719078E-14 
    8.8366577677639797E-17 
    1.4170336033489113E-20 
    2.7230896209643645E-26 
    1.2417272160435137E-35 
    1.1997793247477977E-52 
    1.0521889588696154E-88 
   2.0966006597678814E-180 
    0.0000000000000000E+00 
    0.0000000000000000E+00 
    0.0000000000000000E+00 
    4.1603115217420270E-19 
    1.0676290535347654E-20 
    6.3263225051234018E-23 
    7.9733384036227467E-26 
    1.3926624661820139E-29 
    1.5289779165289687E-34 
    2.6888144445928251E-41 
    6.7141362537569554E-51 
    2.0932223419960990E-65 
    4.0572292297414035E-89 
   1.6415154490626347E-132 
   4.4805182981790391E-224 
    0.0000000000000000E+00 
    0.0000000000000000E+00 
    0.0000000000000000E+00 
    0.0000000000000000E+00 
