# vtk DataFile Version 2.0
Pressure Field Data 
ASCII 
DATASET UNSTRUCTURED_GRID 

POINTS 289 double 

    0.0000000000000000E+00     0.0000000000000000E+00     0.0000000000000000E+00 
    1.0000000000000000E+00     0.0000000000000000E+00     0.0000000000000000E+00 
    1.0000000000000000E+00     1.0000000000000000E+00     0.0000000000000000E+00 
    0.0000000000000000E+00     1.0000000000000000E+00     0.0000000000000000E+00 
    6.2499999999872928E-02     0.0000000000000000E+00     0.0000000000000000E+00 
    1.2499999999977310E-01     0.0000000000000000E+00     0.0000000000000000E+00 
    1.8749999999959341E-01     0.0000000000000000E+00     0.0000000000000000E+00 
    2.4999999999941089E-01     0.0000000000000000E+00     0.0000000000000000E+00 
    3.1249999999922851E-01     0.0000000000000000E+00     0.0000000000000000E+00 
    3.7499999999904610E-01     0.0000000000000000E+00     0.0000000000000000E+00 
    4.3749999999886358E-01     0.0000000000000000E+00     0.0000000000000000E+00 
    4.9999999999869210E-01     0.0000000000000000E+00     0.0000000000000000E+00 
    5.6249999999884603E-01     0.0000000000000000E+00     0.0000000000000000E+00 
    6.2499999999901090E-01     0.0000000000000000E+00     0.0000000000000000E+00 
    6.8749999999917577E-01     0.0000000000000000E+00     0.0000000000000000E+00 
    7.4999999999934064E-01     0.0000000000000000E+00     0.0000000000000000E+00 
    8.1249999999950551E-01     0.0000000000000000E+00     0.0000000000000000E+00 
    8.7499999999967026E-01     0.0000000000000000E+00     0.0000000000000000E+00 
    9.3749999999983513E-01     0.0000000000000000E+00     0.0000000000000000E+00 
    1.0000000000000000E+00     6.2499999999872928E-02     0.0000000000000000E+00 
    1.0000000000000000E+00     1.2499999999977310E-01     0.0000000000000000E+00 
    1.0000000000000000E+00     1.8749999999959341E-01     0.0000000000000000E+00 
    1.0000000000000000E+00     2.4999999999941089E-01     0.0000000000000000E+00 
    1.0000000000000000E+00     3.1249999999922851E-01     0.0000000000000000E+00 
    1.0000000000000000E+00     3.7499999999904610E-01     0.0000000000000000E+00 
    1.0000000000000000E+00     4.3749999999886358E-01     0.0000000000000000E+00 
    1.0000000000000000E+00     4.9999999999869210E-01     0.0000000000000000E+00 
    1.0000000000000000E+00     5.6249999999884603E-01     0.0000000000000000E+00 
    1.0000000000000000E+00     6.2499999999901090E-01     0.0000000000000000E+00 
    1.0000000000000000E+00     6.8749999999917577E-01     0.0000000000000000E+00 
    1.0000000000000000E+00     7.4999999999934064E-01     0.0000000000000000E+00 
    1.0000000000000000E+00     8.1249999999950551E-01     0.0000000000000000E+00 
    1.0000000000000000E+00     8.7499999999967026E-01     0.0000000000000000E+00 
    1.0000000000000000E+00     9.3749999999983513E-01     0.0000000000000000E+00 
    9.3749999999973976E-01     1.0000000000000000E+00     0.0000000000000000E+00 
    8.7499999999950118E-01     1.0000000000000000E+00     0.0000000000000000E+00 
    8.1249999999991318E-01     1.0000000000000000E+00     0.0000000000000000E+00 
    7.5000000000034706E-01     1.0000000000000000E+00     0.0000000000000000E+00 
    6.8750000000078049E-01     1.0000000000000000E+00     0.0000000000000000E+00 
    6.2500000000121403E-01     1.0000000000000000E+00     0.0000000000000000E+00 
    5.6250000000164757E-01     1.0000000000000000E+00     0.0000000000000000E+00 
    5.0000000000205946E-01     1.0000000000000000E+00     0.0000000000000000E+00 
    4.3750000000182099E-01     1.0000000000000000E+00     0.0000000000000000E+00 
    3.7500000000156092E-01     1.0000000000000000E+00     0.0000000000000000E+00 
    3.1250000000130068E-01     1.0000000000000000E+00     0.0000000000000000E+00 
    2.5000000000104050E-01     1.0000000000000000E+00     0.0000000000000000E+00 
    1.8750000000078040E-01     1.0000000000000000E+00     0.0000000000000000E+00 
    1.2500000000052031E-01     1.0000000000000000E+00     0.0000000000000000E+00 
    6.2500000000260125E-02     1.0000000000000000E+00     0.0000000000000000E+00 
    0.0000000000000000E+00     9.3749999999973976E-01     0.0000000000000000E+00 
    0.0000000000000000E+00     8.7499999999950118E-01     0.0000000000000000E+00 
    0.0000000000000000E+00     8.1249999999991318E-01     0.0000000000000000E+00 
    0.0000000000000000E+00     7.5000000000034706E-01     0.0000000000000000E+00 
    0.0000000000000000E+00     6.8750000000078049E-01     0.0000000000000000E+00 
    0.0000000000000000E+00     6.2500000000121403E-01     0.0000000000000000E+00 
    0.0000000000000000E+00     5.6250000000164757E-01     0.0000000000000000E+00 
    0.0000000000000000E+00     5.0000000000205946E-01     0.0000000000000000E+00 
    0.0000000000000000E+00     4.3750000000182099E-01     0.0000000000000000E+00 
    0.0000000000000000E+00     3.7500000000156092E-01     0.0000000000000000E+00 
    0.0000000000000000E+00     3.1250000000130068E-01     0.0000000000000000E+00 
    0.0000000000000000E+00     2.5000000000104050E-01     0.0000000000000000E+00 
    0.0000000000000000E+00     1.8750000000078040E-01     0.0000000000000000E+00 
    0.0000000000000000E+00     1.2500000000052031E-01     0.0000000000000000E+00 
    0.0000000000000000E+00     6.2500000000260125E-02     0.0000000000000000E+00 
    6.2499999999897131E-02     6.2500000000235922E-02     0.0000000000000000E+00 
    6.2499999999921327E-02     1.2500000000047351E-01     0.0000000000000000E+00 
    6.2499999999945530E-02     1.8750000000070621E-01     0.0000000000000000E+00 
    6.2499999999969733E-02     2.5000000000093858E-01     0.0000000000000000E+00 
    6.2499999999993928E-02     3.1250000000117117E-01     0.0000000000000000E+00 
    6.2500000000018124E-02     3.7500000000140382E-01     0.0000000000000000E+00 
    6.2500000000042327E-02     4.3750000000163619E-01     0.0000000000000000E+00 
    6.2500000000066530E-02     5.0000000000184897E-01     0.0000000000000000E+00 
    6.2500000000090733E-02     5.6250000000147260E-01     0.0000000000000000E+00 
    6.2500000000114922E-02     6.2500000000107636E-01     0.0000000000000000E+00 
    6.2500000000139125E-02     6.8750000000068034E-01     0.0000000000000000E+00 
    6.2500000000163328E-02     7.5000000000028411E-01     0.0000000000000000E+00 
    6.2500000000187531E-02     8.1249999999988787E-01     0.0000000000000000E+00 
    6.2500000000211720E-02     8.7499999999951172E-01     0.0000000000000000E+00 
    6.2500000000235922E-02     9.3749999999974565E-01     0.0000000000000000E+00 
    1.2499999999981980E-01     6.2500000000211733E-02     0.0000000000000000E+00 
    1.2499999999986650E-01     1.2500000000042691E-01     0.0000000000000000E+00 
    1.2499999999991319E-01     1.8750000000063199E-01     0.0000000000000000E+00 
    1.2499999999995989E-01     2.5000000000083678E-01     0.0000000000000000E+00 
    1.2500000000000661E-01     3.1250000000104172E-01     0.0000000000000000E+00 
    1.2500000000005329E-01     3.7500000000124661E-01     0.0000000000000000E+00 
    1.2500000000010000E-01     4.3750000000145117E-01     0.0000000000000000E+00 
    1.2500000000014669E-01     5.0000000000163858E-01     0.0000000000000000E+00 
    1.2500000000019340E-01     5.6250000000129741E-01     0.0000000000000000E+00 
    1.2500000000024011E-01     6.2500000000093847E-01     0.0000000000000000E+00 
    1.2500000000028680E-01     6.8750000000057998E-01     0.0000000000000000E+00 
    1.2500000000033351E-01     7.5000000000022127E-01     0.0000000000000000E+00 
    1.2500000000038020E-01     8.1249999999986211E-01     0.0000000000000000E+00 
    1.2500000000042691E-01     8.7499999999952238E-01     0.0000000000000000E+00 
    1.2500000000047359E-01     9.3749999999975164E-01     0.0000000000000000E+00 
    1.8749999999966760E-01     6.2500000000187531E-02     0.0000000000000000E+00 
    1.8749999999974179E-01     1.2500000000038020E-01     0.0000000000000000E+00 
    1.8749999999981601E-01     1.8750000000055780E-01     0.0000000000000000E+00 
    1.8749999999989009E-01     2.5000000000073502E-01     0.0000000000000000E+00 
    1.8749999999996431E-01     3.1250000000091221E-01     0.0000000000000000E+00 
    1.8750000000003850E-01     3.7500000000108941E-01     0.0000000000000000E+00 
    1.8750000000011269E-01     4.3750000000126649E-01     0.0000000000000000E+00 
    1.8750000000018691E-01     5.0000000000142808E-01     0.0000000000000000E+00 
    1.8750000000026110E-01     5.6250000000112244E-01     0.0000000000000000E+00 
    1.8750000000033529E-01     6.2500000000080080E-01     0.0000000000000000E+00 
    1.8750000000040951E-01     6.8750000000047962E-01     0.0000000000000000E+00 
    1.8750000000048361E-01     7.5000000000015843E-01     0.0000000000000000E+00 
    1.8750000000055780E-01     8.1249999999983680E-01     0.0000000000000000E+00 
    1.8750000000063199E-01     8.7499999999953304E-01     0.0000000000000000E+00 
    1.8750000000070621E-01     9.3749999999975764E-01     0.0000000000000000E+00 
    2.4999999999951281E-01     6.2500000000163314E-02     0.0000000000000000E+00 
    2.4999999999961461E-01     1.2500000000033351E-01     0.0000000000000000E+00 
    2.4999999999971650E-01     1.8750000000048361E-01     0.0000000000000000E+00 
    2.4999999999981831E-01     2.5000000000063310E-01     0.0000000000000000E+00 
    2.4999999999992020E-01     3.1250000000078260E-01     0.0000000000000000E+00 
    2.5000000000002198E-01     3.7500000000093209E-01     0.0000000000000000E+00 
    2.5000000000012390E-01     4.3750000000108180E-01     0.0000000000000000E+00 
    2.5000000000022571E-01     5.0000000000121769E-01     0.0000000000000000E+00 
    2.5000000000032763E-01     5.6250000000094724E-01     0.0000000000000000E+00 
    2.5000000000042938E-01     6.2500000000066314E-01     0.0000000000000000E+00 
    2.5000000000053119E-01     6.8750000000037925E-01     0.0000000000000000E+00 
[...]
CELL_DATA 256 
SCALARS Pressure double 1 
LOOKUP_TABLE default 

    8.6980612527062229E-01 
    8.6778557989004290E-01 
    8.6585179507781507E-01 
    8.6405097187389457E-01 
    8.6238608346791557E-01 
    8.6085693626922999E-01 
    8.5946264294921082E-01 
    8.5820236805474626E-01 
    8.5707562227301837E-01 
    8.5608238335471543E-01 
    8.5522311582157340E-01 
    8.5449866040251266E-01 
    8.5390978378458482E-01 
    8.5345559734969467E-01 
    8.5312899236961859E-01 
    8.5293798767882356E-01 
    8.3639600212669762E-01 
    8.3628206815091777E-01 
    8.3607841576403685E-01 
    8.3581063677566747E-01 
    8.3549728860782657E-01 
    8.3515428773461853E-01 
    8.3479553016572072E-01 
    8.3443324177710554E-01 
    8.3407821771647928E-01 
    8.3373998117440029E-01 
    8.3342684276663126E-01 
    8.3314576404319562E-01 
    8.3290170622244075E-01 
    8.3269556342873829E-01 
    8.3252203211279585E-01 
    8.3240750196460478E-01 
    8.0238179652133412E-01 
    8.0235084238752830E-01 
    8.0229096489325846E-01 
    8.0220577103901125E-01 
    8.0209922080735507E-01 
    8.0197545221200972E-01 
    8.0183870275459868E-01 
    8.0169321421314343E-01 
    8.0154312597125432E-01 
    8.0139233112716057E-01 
    8.0124422029106679E-01 
    8.0110110124034906E-01 
    8.0096270024643135E-01 
    8.0082291344659828E-01 
    8.0068496248055632E-01 
    8.0059791261934177E-01 
    7.6308271021320417E-01 
    7.6306169831793502E-01 
    7.6302083629352691E-01 
    7.6296209667215387E-01 
    7.6288758620649089E-01 
    7.6279944510417474E-01 
    7.6269982121145752E-01 
    7.6259081655856475E-01 
    7.6247437906633131E-01 
    7.6235207825674345E-01 
    7.6222459382322116E-01 
    7.6209042905644231E-01 
    7.6194291847449880E-01 
    7.6177695825279568E-01 
    7.6163040223415979E-01 
    7.6155745408207953E-01 
    7.1825575939481312E-01 
    7.1823492339983863E-01 
    7.1819405690923444E-01 
    7.1813455983514274E-01 
    7.1805789894539640E-01 
    7.1796547526590937E-01 
    7.1785855477370464E-01 
    7.1773814614742348E-01 
    7.1760474082845038E-01 
    7.1745772875401703E-01 
    7.1729402230257799E-01 
    7.1710546655384555E-01 
    7.1688704918943669E-01 
    7.1667353806497047E-01 
    7.1652972119382885E-01 
    7.1646622712924479E-01 
    6.6796597920725176E-01 
    6.6794071877209327E-01 
    6.6789045994231278E-01 
    6.6781579235704991E-01 
    6.6771721254165284E-01 
    6.6759489468730437E-01 
    6.6744843781720953E-01 
    6.6727640541110234E-01 
    6.6707543870651220E-01 
    6.6683897481429866E-01 
    6.6655956617934098E-01 
    6.6624622175340653E-01 
    6.6594678509102689E-01 
    6.6572645373451234E-01 
    6.6559851248796420E-01 
    6.6553995866632543E-01 
    6.1208897379702853E-01 
    6.1205081523657900E-01 
    6.1197325709722294E-01 
    6.1185454706945519E-01 
    6.1169213691332225E-01 
    6.1148235307686249E-01 
    6.1122053973818347E-01 
    6.1090293220696423E-01 
    6.1053216620351347E-01 
    6.1012491200272190E-01 
    6.0971616302477549E-01 
    6.0935994563263973E-01 
    6.0909821936063546E-01 
    6.0892822384489909E-01 
    6.0882379670111464E-01 
    6.0877189626797124E-01 
    5.5009046730968125E-01 
    5.5001540209361210E-01 
    5.4986482296458317E-01 
    5.4964078642318259E-01 
    5.4934967137487900E-01 
    5.4900366140286661E-01 
    5.4862125682073859E-01 
    5.4822686386769781E-01 
    5.4785006888635690E-01 
    5.4752256553410561E-01 
    5.4726896849496576E-01 
    5.4709368551236193E-01 
    5.4697656565519748E-01 
    5.4689492487213165E-01 
    5.4684081534843243E-01 
    5.4681379143829489E-01 
    4.8278080496645592E-01 
    4.8272874317998787E-01 
    4.8263487679324529E-01 
    4.8251445129988130E-01 
    4.8238384274285157E-01 
    4.8225945827286459E-01 
    4.8215671860008463E-01 
    4.8208814946554462E-01 
    4.8205941084980614E-01 
    4.8206430782046450E-01 
    4.8208621947005864E-01 
    4.8210959923930835E-01 
    4.8212800168764486E-01 
    4.8214100150733508E-01 
    4.8214927557017750E-01 
    4.8215329561523212E-01 
    4.1690676468539678E-01 
    4.1692589404641583E-01 
    4.1696650465525581E-01 
    4.1703054909866277E-01 
    4.1711708279505227E-01 
    4.1722118606316400E-01 
    4.1733431865819981E-01 
    4.1744651889636020E-01 
    4.1754962171522808E-01 
    4.1763929576570402E-01 
    4.1771454832959820E-01 
    4.1777588948748767E-01 
    4.1782405597914429E-01 
    4.1785965469505898E-01 
    4.1788313757101725E-01 
    4.1789480431784087E-01 
    3.5442567235920214E-01 
    3.5444171501021760E-01 
    3.5446973944372107E-01 
    3.5450475055802688E-01 
    3.5454275689583065E-01 
    3.5458106049169630E-01 
    3.5461804821182202E-01 
    3.5465279522426213E-01 
    3.5468471789171352E-01 
    3.5471338709967204E-01 
    3.5473846713287610E-01 
    3.5475969894485754E-01 
    3.5477688785045408E-01 
    3.5478989187843102E-01 
    3.5479861248531291E-01 
    3.5480298771872881E-01 
    2.9213373993177516E-01 
    2.9213441728179640E-01 
    2.9213564268688186E-01 
    2.9213723398701319E-01 
    2.9213901093956196E-01 
    2.9214081579203027E-01 
    2.9214252491374182E-01 
    2.9214405285943101E-01 
    2.9214535051959717E-01 
    2.9214639999692166E-01 
    2.9214720806591110E-01 
    2.9214779904071331E-01 
    2.9214820748373743E-01 
    2.9214847117125736E-01 
    2.9214862474620895E-01 
    2.9214869447315905E-01 
    2.2978149822251995E-01 
    2.2977633901105041E-01 
    2.2976619599646572E-01 
    2.2975141656079040E-01 
    2.2973251242585077E-01 
    2.2971014726404398E-01 
    2.2968511933660388E-01 
    2.2965833904828142E-01 
    2.2963080143165820E-01 
    2.2960355372766048E-01 
    2.2957765841766761E-01 
    2.2955415231435691E-01 
    2.2953400266745907E-01 
    2.2951806172091044E-01 
    2.2950702180727603E-01 
    2.2950137393076153E-01 
    1.6794517766166489E-01 
    1.6791664105401904E-01 
    1.6786039141524703E-01 
    1.6777806906099677E-01 
    1.6767211659887432E-01 
    1.6754575529936439E-01 
    1.6740294984769755E-01 
    1.6724835806716284E-01 
    1.6708726108116048E-01 
    1.6692546805789937E-01 
    1.6676918810119631E-01 
    1.6662485994670662E-01 
    1.6649892781622525E-01 
    1.6639754897913756E-01 
    1.6632621515633442E-01 
    1.6628926574137742E-01 
    1.0896251786468385E-01 
    1.0882824620959630E-01 
    1.0856185838181777E-01 
    1.0816773234836650E-01 
    1.0765260451054848E-01 
    1.0702577855028871E-01 
    1.0629941324542122E-01 
    1.0548889763263855E-01 
    1.0461332445634296E-01 
    1.0369607573213005E-01 
    1.0276553756319629E-01 
    1.0185596517796104E-01 
    1.0100852362538672E-01 
    1.0027253480865193E-01 
    9.9706967720495421E-02 
    9.9382216056787889E-02 
    6.3407023577244578E-02 
    6.2951468634375313E-02 
    6.2037145915758173E-02 
    6.0657576072486223E-02 
    5.8802904666460910E-02 
    5.6459736262000473E-02 
    5.3610907434663159E-02 
    5.0235193549224365E-02 
    4.6306942622948502E-02 
    4.1795627878330785E-02 
    3.6665308655176358E-02 
    3.0873987142943638E-02 
    2.4372845850363069E-02 
    1.7105347780034821E-02 
    9.0061778394220724E-03 
    0.0000000000000000E+00 

SCALARS Saturarion double 1 
LOOKUP_TABLE default 

    1.0000000000000000E+00 
    9.3351904432363519E-01 
    8.9495015555105639E-01 
    8.6006654041888353E-01 
    8.2694623120945865E-01 
    7.9478040088456081E-01 
    7.6305576773733041E-01 
    7.3134479270282937E-01 
    6.9920987140703272E-01 
    6.6612402455354924E-01 
    6.3135742158437702E-01 
    5.9374234601685338E-01 
    5.5102740507877546E-01 
    4.9749801755375561E-01 
    4.1212194422391890E-01 
    2.0334792210512528E-01 
    7.9906592728914538E-01 
    7.7951427978667320E-01 
    7.5769003644594302E-01 
    7.3556119142208987E-01 
    7.1314679759529509E-01 
    6.9035096870321355E-01 
    6.6701850033304555E-01 
    6.4292925351913222E-01 
    6.1776946233462082E-01 
    5.9107051446576575E-01 
    5.6207459040554630E-01 
    5.2939768072140536E-01 
    4.9000781007045491E-01 
    4.3536649686665108E-01 
    3.3376074706823028E-01 
    8.6594473218171750E-02 
    6.9479369785457046E-01 
    6.8145428512987349E-01 
    6.6551376550921826E-01 
    6.4876949661091199E-01 
    6.3143840074186308E-01 
    6.1346561058859872E-01 
    5.9470191681460705E-01 
    5.7491674635432721E-01 
    5.5376312820394824E-01 
    5.3068985253832213E-01 
    5.0473195306228835E-01 
    4.7393884045834828E-01 
    4.3354602041456275E-01 
    3.6917002099877511E-01 
    2.2194433168488875E-01 
    1.2674849572669410E-02 
    6.1987068208768459E-01 
    6.0960172859383188E-01 
    5.9686046812385096E-01 
    5.8314767861711225E-01 
    5.6872056722554865E-01 
    5.5353938034799088E-01 
    5.3744336808159310E-01 
    5.2016486046863675E-01 
    5.0127729011526312E-01 
    4.8005341170246635E-01 
    4.5509526360041286E-01 
    4.2325838523902704E-01 
    3.7603770831516869E-01 
    2.8332984067107903E-01 
    7.1258230454216698E-02 
    2.5528035904724043E-04 
    5.5874844794966194E-01 
    5.5035243002592793E-01 
    5.3967465250317281E-01 
    5.2793288297073004E-01 
    5.1536979446476894E-01 
    5.0194066418265260E-01 
    4.8745400997743299E-01 
    4.7156653286218020E-01 
    4.5368536880623345E-01 
    4.3270112251388082E-01 
    4.0623843500475676E-01 
    3.6819484780294948E-01 
    2.9873564511741812E-01 
    1.3295305397097285E-01 
    3.2506861929618627E-03 
    6.3223842041690863E-08 
    5.0356678576803027E-01 
    4.9630985842125508E-01 
    4.8692454639359223E-01 
    4.7637679907923863E-01 
    4.6485186870423484E-01 
    4.5225401476798716E-01 
    4.3829248784609670E-01 
    4.2241767952708575E-01 
    4.0358134452207356E-01 
    3.7955205747110798E-01 
    3.4473313671512212E-01 
    2.8176952292954693E-01 
    1.4222924311720173E-01 
    9.2748547291514379E-03 
    1.4175978071933172E-06 
    1.8755871124114197E-16 
    4.4742970606429738E-01 
    4.4052074135706037E-01 
    4.3145283543953794E-01 
    4.2094433947761029E-01 
    4.0902647122375968E-01 
    3.9537846065712906E-01 
    3.7928032022212133E-01 
    3.5927747872795307E-01 
    3.3220542567599876E-01 
    2.9032333613721045E-01 
    2.1436421265555666E-01 
    9.1689625034964251E-02 
    7.7140253559018837E-03 
    4.7436872226673243E-06 
    4.9479104917375272E-15 
    6.8339560879878517E-38 
    3.7797198149394196E-01 
    3.6946851248970797E-01 
    3.5789671407937368E-01 
    3.4351420002738003E-01 
    3.2563013673597224E-01 
    3.0265604430887044E-01 
    2.7163797738579520E-01 
    2.2773269026580395E-01 
    1.6611723996862454E-01 
    9.1433129593103138E-02 
    2.7225046972464213E-02 
    1.7996870934575047E-03 
    2.2069579998675383E-06 
    1.9055343422235416E-14 
    1.7898132394445354E-36 
    1.7364213888062936E-92 
    2.5843610979888998E-01 
    2.4098989917571267E-01 
    2.1667959923816224E-01 
    1.8646342098263563E-01 
    1.5088431740063174E-01 
    1.1152115436573928E-01 
    7.1582046291698939E-02 
    3.6370008557753013E-02 
    1.2259053133709895E-02 
    1.9261299379772282E-03 
    6.2086067427459369E-05 
    5.0141967345155179E-08 
    1.9443135654756756E-15 
    1.1855972734092602E-35 
    3.9811612579315753E-91 
   8.9007190462594405E-233 
    6.5678592648763634E-02 
    5.0146556734973279E-02 
    3.3876460917500142E-02 
    2.0021115486924666E-02 
    9.9219938594204242E-03 
    3.8390113732331066E-03 
    1.0225057127307953E-03 
    1.5002454313291824E-04 
    7.9296668330836224E-06 
    6.0671528586191623E-08 
    8.4322217426968159E-12 
    9.2114726514211300E-20 
    1.3947410989064994E-38 
    2.3039050631167519E-89 
   8.6626181530897592E-230 
    0.0000000000000000E+00 
    8.8936816111652211E-04 
    4.0951633845910033E-04 
    1.3700718752675215E-04 
    3.2797466462691428E-05 
    5.0632684168197230E-06 
    4.1924900504450003E-07 
    1.3444030817613834E-08 
    9.3856372159998340E-11 
    4.6375451691679615E-14 
    1.5620220727513048E-19 
    1.7275600740237553E-29 
    6.2566169202489356E-50 
    6.0220977505373437E-98 
   4.3713092585103856E-226 
    0.0000000000000000E+00 
    0.0000000000000000E+00 
    1.2641003795011638E-08 
    1.7067984031523333E-09 
    1.0177197110574203E-10 
    2.5794238924817152E-12 
    2.1164690986540562E-14 
    3.4682283353207666E-17 
    4.9275950222432017E-21 
    1.3326664195701402E-26 
    3.7411342259014452E-35 
    2.7203492130602855E-49 
    4.0729760312005006E-75 
   7.7820930988336717E-128 
   9.3105011423932778E-251 
    0.0000000000000000E+00 
    0.0000000000000000E+00 
    0.0000000000000000E+00 
    9.2587941056610289E-21 
    5.4514524364602289E-23 
    3.9139402175533387E-26 
    3.1024880742920160E-30 
    1.3474365059664524E-35 
    9.1983583448423115E-43 
    1.0843798590402354E-52 
    4.2089417175058817E-67 
    2.9700504456986619E-89 
   4.1071549857678337E-126 
   4.4730210832540879E-193 
    0.0000000000000000E+00 
    0.0000000000000000E+00 
    0.0000000000000000E+00 
    0.0000000000000000E+00 
    0.0000000000000000E+00 
    4.3584944940263234E-51 
    8.0997352178832367E-57 
    6.5535082701073171E-65 
    1.8208040764748491E-75 
    2.7548211451249242E-89 
   8.1835620382260728E-108 
   1.5037227223456510E-133 
   5.8911248868664674E-171 
   9.1561858563197336E-229 
    0.0000000000000000E+00 
    0.0000000000000000E+00 
    0.0000000000000000E+00 
    0.0000000000000000E+00 
    0.0000000000000000E+00 
    0.0000000000000000E+00 
    0.0000000000000000E+00 
   4.8736384833810859E-127 
   7.9908294908919326E-142 
   1.0252739708145317E-162 
   5.5747213645620253E-190 
   9.8255560460030199E-226 
   9.4461008698963336E-274 
    0.0000000000000000E+00 
    0.0000000000000000E+00 
    0.0000000000000000E+00 
    0.0000000000000000E+00 
    0.0000000000000000E+00 
    0.0000000000000000E+00 
    0.0000000000000000E+00 
    0.0000000000000000E+00 
    0.0000000000000000E+00 
    0.0000000000000000E+00 
   1.4627505137034282E-317 
    0.0000000000000000E+00 
    0.0000000000000000E+00 
    0.0000000000000000E+00 
    0.0000000000000000E+00 
    0.0000000000000000E+00 
    0.0000000000000000E+00 
    0.0000000000000000E+00 
    0.0000000000000000E+00 
    0.0000000000000000E+00 
    0.0000000000000000E+00 
    0.0000000000000000E+00 
    0.0000000000000000E+00 
    0.0000000000000000E+00 
    0.0000000000000000E+00 
    0.0000000000000000E+00 
