# vtk DataFile Version 2.0
Pressure Field Data 
ASCII 
DATASET UNSTRUCTURED_GRID 

POINTS 289 double 

    0.0000000000000000E+00     0.0000000000000000E+00     0.0000000000000000E+00 
    1.0000000000000000E+00     0.0000000000000000E+00     0.0000000000000000E+00 
    1.0000000000000000E+00     1.0000000000000000E+00     0.0000000000000000E+00 
    0.0000000000000000E+00     1.0000000000000000E+00     0.0000000000000000E+00 
    6.2499999999872928E-02     0.0000000000000000E+00     0.0000000000000000E+00 
    1.2499999999977310E-01     0.0000000000000000E+00     0.0000000000000000E+00 
    1.8749999999959341E-01     0.0000000000000000E+00     0.0000000000000000E+00 
    2.4999999999941089E-01     0.0000000000000000E+00     0.0000000000000000E+00 
    3.1249999999922851E-01     0.0000000000000000E+00     0.0000000000000000E+00 
    3.7499999999904610E-01     0.0000000000000000E+00     0.0000000000000000E+00 
    4.3749999999886358E-01     0.0000000000000000E+00     0.0000000000000000E+00 
    4.9999999999869210E-01     0.0000000000000000E+00     0.0000000000000000E+00 
    5.6249999999884603E-01     0.0000000000000000E+00     0.0000000000000000E+00 
    6.2499999999901090E-01     0.0000000000000000E+00     0.0000000000000000E+00 
    6.8749999999917577E-01     0.0000000000000000E+00     0.0000000000000000E+00 
    7.4999999999934064E-01     0.0000000000000000E+00     0.0000000000000000E+00 
    8.1249999999950551E-01     0.0000000000000000E+00     0.0000000000000000E+00 
    8.7499999999967026E-01     0.0000000000000000E+00     0.0000000000000000E+00 
    9.3749999999983513E-01     0.0000000000000000E+00     0.0000000000000000E+00 
    1.0000000000000000E+00     6.2499999999872928E-02     0.0000000000000000E+00 
    1.0000000000000000E+00     1.2499999999977310E-01     0.0000000000000000E+00 
    1.0000000000000000E+00     1.8749999999959341E-01     0.0000000000000000E+00 
    1.0000000000000000E+00     2.4999999999941089E-01     0.0000000000000000E+00 
    1.0000000000000000E+00     3.1249999999922851E-01     0.0000000000000000E+00 
    1.0000000000000000E+00     3.7499999999904610E-01     0.0000000000000000E+00 
    1.0000000000000000E+00     4.3749999999886358E-01     0.0000000000000000E+00 
    1.0000000000000000E+00     4.9999999999869210E-01     0.0000000000000000E+00 
    1.0000000000000000E+00     5.6249999999884603E-01     0.0000000000000000E+00 
    1.0000000000000000E+00     6.2499999999901090E-01     0.0000000000000000E+00 
    1.0000000000000000E+00     6.8749999999917577E-01     0.0000000000000000E+00 
    1.0000000000000000E+00     7.4999999999934064E-01     0.0000000000000000E+00 
    1.0000000000000000E+00     8.1249999999950551E-01     0.0000000000000000E+00 
    1.0000000000000000E+00     8.7499999999967026E-01     0.0000000000000000E+00 
    1.0000000000000000E+00     9.3749999999983513E-01     0.0000000000000000E+00 
    9.3749999999973976E-01     1.0000000000000000E+00     0.0000000000000000E+00 
    8.7499999999950118E-01     1.0000000000000000E+00     0.0000000000000000E+00 
    8.1249999999991318E-01     1.0000000000000000E+00     0.0000000000000000E+00 
    7.5000000000034706E-01     1.0000000000000000E+00     0.0000000000000000E+00 
    6.8750000000078049E-01     1.0000000000000000E+00     0.0000000000000000E+00 
    6.2500000000121403E-01     1.0000000000000000E+00     0.0000000000000000E+00 
    5.6250000000164757E-01     1.0000000000000000E+00     0.0000000000000000E+00 
    5.0000000000205946E-01     1.0000000000000000E+00     0.0000000000000000E+00 
    4.3750000000182099E-01     1.0000000000000000E+00     0.0000000000000000E+00 
    3.7500000000156092E-01     1.0000000000000000E+00     0.0000000000000000E+00 
    3.1250000000130068E-01     1.0000000000000000E+00     0.0000000000000000E+00 
    2.5000000000104050E-01     1.0000000000000000E+00     0.0000000000000000E+00 
    1.8750000000078040E-01     1.0000000000000000E+00     0.0000000000000000E+00 
    1.2500000000052031E-01     1.0000000000000000E+00     0.0000000000000000E+00 
    6.2500000000260125E-02     1.0000000000000000E+00     0.0000000000000000E+00 
    0.0000000000000000E+00     9.3749999999973976E-01     0.0000000000000000E+00 
    0.0000000000000000E+00     8.7499999999950118E-01     0.0000000000000000E+00 
    0.0000000000000000E+00     8.1249999999991318E-01     0.0000000000000000E+00 
    0.0000000000000000E+00     7.5000000000034706E-01     0.0000000000000000E+00 
    0.0000000000000000E+00     6.8750000000078049E-01     0.0000000000000000E+00 
    0.0000000000000000E+00     6.2500000000121403E-01     0.0000000000000000E+00 
    0.0000000000000000E+00     5.6250000000164757E-01     0.0000000000000000E+00 
    0.0000000000000000E+00     5.0000000000205946E-01     0.0000000000000000E+00 
    0.0000000000000000E+00     4.3750000000182099E-01     0.0000000000000000E+00 
    0.0000000000000000E+00     3.7500000000156092E-01     0.0000000000000000E+00 
    0.0000000000000000E+00     3.1250000000130068E-01     0.0000000000000000E+00 
    0.0000000000000000E+00     2.5000000000104050E-01     0.0000000000000000E+00 
    0.0000000000000000E+00     1.8750000000078040E-01     0.0000000000000000E+00 
    0.0000000000000000E+00     1.2500000000052031E-01     0.0000000000000000E+00 
    0.0000000000000000E+00     6.2500000000260125E-02     0.0000000000000000E+00 
    6.2499999999897131E-02     6.2500000000235922E-02     0.0000000000000000E+00 
    6.2499999999921327E-02     1.2500000000047351E-01     0.0000000000000000E+00 
    6.2499999999945530E-02     1.8750000000070621E-01     0.0000000000000000E+00 
    6.2499999999969733E-02     2.5000000000093858E-01     0.0000000000000000E+00 
    6.2499999999993928E-02     3.1250000000117117E-01     0.0000000000000000E+00 
    6.2500000000018124E-02     3.7500000000140382E-01     0.0000000000000000E+00 
    6.2500000000042327E-02     4.3750000000163619E-01     0.0000000000000000E+00 
    6.2500000000066530E-02     5.0000000000184897E-01     0.0000000000000000E+00 
    6.2500000000090733E-02     5.6250000000147260E-01     0.0000000000000000E+00 
    6.2500000000114922E-02     6.2500000000107636E-01     0.0000000000000000E+00 
    6.2500000000139125E-02     6.8750000000068034E-01     0.0000000000000000E+00 
    6.2500000000163328E-02     7.5000000000028411E-01     0.0000000000000000E+00 
    6.2500000000187531E-02     8.1249999999988787E-01     0.0000000000000000E+00 
    6.2500000000211720E-02     8.7499999999951172E-01     0.0000000000000000E+00 
    6.2500000000235922E-02     9.3749999999974565E-01     0.0000000000000000E+00 
    1.2499999999981980E-01     6.2500000000211733E-02     0.0000000000000000E+00 
    1.2499999999986650E-01     1.2500000000042691E-01     0.0000000000000000E+00 
    1.2499999999991319E-01     1.8750000000063199E-01     0.0000000000000000E+00 
    1.2499999999995989E-01     2.5000000000083678E-01     0.0000000000000000E+00 
    1.2500000000000661E-01     3.1250000000104172E-01     0.0000000000000000E+00 
    1.2500000000005329E-01     3.7500000000124661E-01     0.0000000000000000E+00 
    1.2500000000010000E-01     4.3750000000145117E-01     0.0000000000000000E+00 
    1.2500000000014669E-01     5.0000000000163858E-01     0.0000000000000000E+00 
    1.2500000000019340E-01     5.6250000000129741E-01     0.0000000000000000E+00 
    1.2500000000024011E-01     6.2500000000093847E-01     0.0000000000000000E+00 
    1.2500000000028680E-01     6.8750000000057998E-01     0.0000000000000000E+00 
    1.2500000000033351E-01     7.5000000000022127E-01     0.0000000000000000E+00 
    1.2500000000038020E-01     8.1249999999986211E-01     0.0000000000000000E+00 
    1.2500000000042691E-01     8.7499999999952238E-01     0.0000000000000000E+00 
    1.2500000000047359E-01     9.3749999999975164E-01     0.0000000000000000E+00 
    1.8749999999966760E-01     6.2500000000187531E-02     0.0000000000000000E+00 
    1.8749999999974179E-01     1.2500000000038020E-01     0.0000000000000000E+00 
    1.8749999999981601E-01     1.8750000000055780E-01     0.0000000000000000E+00 
    1.8749999999989009E-01     2.5000000000073502E-01     0.0000000000000000E+00 
    1.8749999999996431E-01     3.1250000000091221E-01     0.0000000000000000E+00 
    1.8750000000003850E-01     3.7500000000108941E-01     0.0000000000000000E+00 
    1.8750000000011269E-01     4.3750000000126649E-01     0.0000000000000000E+00 
    1.8750000000018691E-01     5.0000000000142808E-01     0.0000000000000000E+00 
    1.8750000000026110E-01     5.6250000000112244E-01     0.0000000000000000E+00 
    1.8750000000033529E-01     6.2500000000080080E-01     0.0000000000000000E+00 
    1.8750000000040951E-01     6.8750000000047962E-01     0.0000000000000000E+00 
    1.8750000000048361E-01     7.5000000000015843E-01     0.0000000000000000E+00 
    1.8750000000055780E-01     8.1249999999983680E-01     0.0000000000000000E+00 
    1.8750000000063199E-01     8.7499999999953304E-01     0.0000000000000000E+00 
    1.8750000000070621E-01     9.3749999999975764E-01     0.0000000000000000E+00 
    2.4999999999951281E-01     6.2500000000163314E-02     0.0000000000000000E+00 
    2.4999999999961461E-01     1.2500000000033351E-01     0.0000000000000000E+00 
    2.4999999999971650E-01     1.8750000000048361E-01     0.0000000000000000E+00 
    2.4999999999981831E-01     2.5000000000063310E-01     0.0000000000000000E+00 
    2.4999999999992020E-01     3.1250000000078260E-01     0.0000000000000000E+00 
    2.5000000000002198E-01     3.7500000000093209E-01     0.0000000000000000E+00 
    2.5000000000012390E-01     4.3750000000108180E-01     0.0000000000000000E+00 
    2.5000000000022571E-01     5.0000000000121769E-01     0.0000000000000000E+00 
    2.5000000000032763E-01     5.6250000000094724E-01     0.0000000000000000E+00 
    2.5000000000042938E-01     6.2500000000066314E-01     0.0000000000000000E+00 
    2.5000000000053119E-01     6.8750000000037925E-01     0.0000000000000000E+00 
[...]
CELL_DATA 256 
SCALARS Pressure double 1 
LOOKUP_TABLE default 

    7.9626243393164542E-01 
    7.9429024757215971E-01 
    7.9244062858819153E-01 
    7.9073816126303176E-01 
    7.8917965304513971E-01 
    7.8776062068738972E-01 
    7.8647680864368175E-01 
    7.8532458725906429E-01 
    7.8430107329108667E-01 
    7.8340415676280828E-01 
    7.8263248934519281E-01 
    7.8198544391325653E-01 
    7.8146300570064331E-01 
    7.8106539299697708E-01 
    7.8079156094443281E-01 
    7.8063548877207045E-01 
    7.6605452098102722E-01 
    7.6595808213548833E-01 
    7.6578720529953093E-01 
    7.6556317638827265E-01 
    7.6530217272918954E-01 
    7.6501800816002452E-01 
    7.6472264611506702E-01 
    7.6442652778368547E-01 
    7.6413881878676271E-01 
    7.6386760332293846E-01 
    7.6362003446267568E-01 
    7.6340243192039492E-01 
    7.6322027678042192E-01 
    7.6307792081453463E-01 
    7.6297756173630582E-01 
    7.6291909685243520E-01 
    7.3696363433792689E-01 
    7.3694309039748851E-01 
    7.3690337823596552E-01 
    7.3684689803141101E-01 
    7.3677640302857772E-01 
    7.3669488581300857E-01 
    7.3660549523247965E-01 
    7.3651145821296027E-01 
    7.3641601411740498E-01 
    7.3632235720046180E-01 
    7.3623357502702691E-01 
    7.3615255283449710E-01 
    7.3608176196209918E-01 
    7.3602271789593454E-01 
    7.3597475211156094E-01 
    7.3594080850806542E-01 
    7.0409000944808764E-01 
    7.0407868319498756E-01 
    7.0405677182809578E-01 
    7.0402547291387185E-01 
    7.0398609139133828E-01 
    7.0394001317992705E-01 
    7.0388869933415998E-01 
    7.0383366967580552E-01 
    7.0377647728623527E-01 
    7.0371866928282134E-01 
    7.0366171633666630E-01 
    7.0360686132904049E-01 
    7.0355475258205991E-01 
    7.0350450946969645E-01 
    7.0345150249838373E-01 
    7.0340560428574050E-01 
    6.6719606128036668E-01 
    6.6718654862638738E-01 
    6.6716815202630497E-01 
    6.6714186347852067E-01 
    6.6710874228329498E-01 
    6.6706988039185189E-01 
    6.6702640311774730E-01 
    6.6697946412754061E-01 
    6.6693022782531797E-01 
    6.6687982856784689E-01 
    6.6682927786069579E-01 
    6.6677924079101769E-01 
    6.6672946500411245E-01 
    6.6667726082377465E-01 
    6.6661653934751064E-01 
    6.6656620118702747E-01 
    6.2641528873775520E-01 
    6.2640585177704844E-01 
    6.2638752895043237E-01 
    6.2636120008545715E-01 
    6.2632780993319503E-01 
    6.2628832018547909E-01 
    6.2624370267868101E-01 
    6.2619492912877928E-01 
    6.2614294318222175E-01 
    6.2608859451088761E-01 
    6.2603248442608972E-01 
    6.2597458264353756E-01 
    6.2591319720462157E-01 
    6.2584224660385723E-01 
    6.2576500678319225E-01 
    6.2571699077873955E-01 
    5.8186320321683727E-01 
    5.8185304571273377E-01 
    5.8183319454991700E-01 
    5.8180440986315118E-01 
    5.8176751370632485E-01 
    5.8172332973265573E-01 
    5.8167266276943308E-01 
    5.8161627198671229E-01 
    5.8155481413581700E-01 
    5.8148871735382457E-01 
    5.8141788408116957E-01 
    5.8134092432589757E-01 
    5.8125302298299075E-01 
    5.8114609786338201E-01 
    5.8104498000222227E-01 
    5.8099516948641305E-01 
    5.3356945925118271E-01 
    5.3355780303090894E-01 
    5.3353483297839577E-01 
    5.3350114220951517E-01 
    5.3345737261395043E-01 
    5.3340413972206313E-01 
    5.3334198858130133E-01 
    5.3327132937134669E-01 
    5.3319230974977083E-01 
    5.3310453426844018E-01 
    5.3300638441907155E-01 
    5.3289325875132310E-01 
    5.3275571679070699E-01 
    5.3260632954769449E-01 
    5.3249964891296719E-01 
    5.3245341194852958E-01 
    4.8142175767179757E-01 
    4.8140658841893130E-01 
    4.8137633131989083E-01 
    4.8133120044023997E-01 
    4.8127138317426760E-01 
    4.8119692718839435E-01 
    4.8110762471488888E-01 
    4.8100281638520703E-01 
    4.8088100029532532E-01 
    4.8073899885655386E-01 
    4.8057039201465551E-01 
    4.8036722181533692E-01 
    4.8014389300474702E-01 
    4.7996176510710653E-01 
    4.7985725693013359E-01 
    4.7981193414228734E-01 
    4.2511051613299800E-01 
    4.2508674423843823E-01 
    4.2503856999046002E-01 
    4.2496511979240581E-01 
    4.2486516984593792E-01 
    4.2473688066886200E-01 
    4.2457744306812600E-01 
    4.2438267966849197E-01 
    4.2414723077327571E-01 
    4.2386792795900313E-01 
    4.2355421689541262E-01 
    4.2324017256306318E-01 
    4.2298520401189493E-01 
    4.2281993660531675E-01 
    4.2272350204444697E-01 
    4.2267671765498532E-01 
    3.6394673867517896E-01 
    3.6389732075529796E-01 
    3.6379653733508621E-01 
    3.6364208020227629E-01 
    3.6343231230149142E-01 
    3.6316770645196222E-01 
    3.6285304796731421E-01 
    3.6249991501264728E-01 
    3.6212829150810205E-01 
    3.6176684523066882E-01 
    3.6145156199983908E-01 
    3.6121393767077153E-01 
    3.6105779574234337E-01 
    3.6095819036682653E-01 
    3.6089477300602679E-01 
    3.6086314450322693E-01 
    2.9731696783134259E-01 
    2.9725359720021682E-01 
    2.9713442785179450E-01 
    2.9697167746099773E-01 
    2.9677986038817128E-01 
    2.9657504937271301E-01 
    2.9637424752826530E-01 
    2.9619461143314590E-01 
    2.9605202534368341E-01 
    2.9595774346668102E-01 
    2.9591136284876285E-01 
    2.9589638547024844E-01 
    2.9589238569573084E-01 
    2.9588986023355385E-01 
    2.9588783656727435E-01 
    2.9588672108362951E-01 
    2.3025207582989382E-01 
    2.3024797497232211E-01 
    2.3024444745498443E-01 
    2.3024810993313602E-01 
    2.3026537953696849E-01 
    2.3030106851189086E-01 
    2.3035669276881868E-01 
    2.3042884848755341E-01 
    2.3050899780568984E-01 
    2.3058630347539433E-01 
    2.3065260129155463E-01 
    2.3070503546563811E-01 
    2.3074437633057263E-01 
    2.3077226969848405E-01 
    2.3079008186518951E-01 
    2.3079874930802874E-01 
    1.6755435700942367E-01 
    1.6755007229860411E-01 
    1.6753856888577245E-01 
    1.6751589787615781E-01 
    1.6747852603698038E-01 
    1.6742406331369131E-01 
    1.6735188357106640E-01 
    1.6726346801637701E-01 
    1.6716231302142393E-01 
    1.6705343711253728E-01 
    1.6694274974068066E-01 
    1.6683655232935768E-01 
    1.6674120217665200E-01 
    1.6666279928416183E-01 
    1.6660679954969632E-01 
    1.6657752182090729E-01 
    1.0888315707477103E-01 
    1.0875218445534976E-01 
    1.0849202495963732E-01 
    1.0810648388545883E-01 
    1.0760169658543546E-01 
    1.0698638361383382E-01 
    1.0627215831157907E-01 
    1.0547391207072633E-01 
    1.0461029428351570E-01 
    1.0370430125731819E-01 
    1.0278399062706763E-01 
    1.0188334353378425E-01 
    1.0104330200093868E-01 
    1.0031301306710759E-01 
    9.9751316666253351E-02 
    9.9428521455369526E-02 
    6.3381292994846211E-02 
    6.2926274366669255E-02 
    6.2012996651566316E-02 
    6.0634928658030197E-02 
    5.8782145113023009E-02 
    5.6441166053367901E-02 
    5.3594734818116906E-02 
    5.0221529347937430E-02 
    4.6295800050527129E-02 
    4.1786925810779051E-02 
    3.6658877816566862E-02 
    3.0869578694251585E-02 
    2.4370141923543299E-02 
    1.7103973552063632E-02 
    9.0057147854352010E-03 
    0.0000000000000000E+00 

SCALARS Saturarion double 1 
LOOKUP_TABLE default 

    1.0000000000000000E+00 
    9.5174523259244714E-01 
    9.2233964689450476E-01 
    8.9484101541656080E-01 
    8.6797455731419249E-01 
    8.4121699008236994E-01 
    8.1423030411465147E-01 
    7.8671601790246837E-01 
    7.5834613437827536E-01 
    7.2870312695768957E-01 
    6.9719485534915526E-01 
    6.6289283152524403E-01 
    6.2414932485453811E-01 
    5.7741548837431322E-01 
    5.1196772191521289E-01 
    3.7539518187981624E-01 
    8.3553660402115559E-01 
    8.2013880811571827E-01 
    8.0261716914987657E-01 
    7.8435129442776275E-01 
    7.6541977096328906E-01 
    7.4578932819757193E-01 
    7.2536364250451801E-01 
    7.0398319348779204E-01 
    6.8140648289182615E-01 
    6.5726917535307183E-01 
    6.3100073616476915E-01 
    6.0163907178355003E-01 
    5.6734504831187116E-01 
    5.2379780821056399E-01 
    4.5744388012250797E-01 
    3.0336509118508365E-01 
    7.4618538316138916E-01 
    7.3492642161812161E-01 
    7.2136933496141631E-01 
    7.0692620081357060E-01 
    6.9177005710844786E-01 
    6.7586496207887103E-01 
    6.5910101618192007E-01 
    6.4130622789972469E-01 
    6.2222643671684541E-01 
    6.0147754635362138E-01 
    5.7844470559181271E-01 
    5.5204679814121171E-01 
    5.2009352912397366E-01 
    4.7720160098853370E-01 
    4.0678136090186129E-01 
    2.1571161193319141E-01 
    6.8198277274390051E-01 
    6.7290345517372463E-01 
    6.6160355648444169E-01 
    6.4938704137668157E-01 
    6.3646048026036217E-01 
    6.2279225002851601E-01 
    6.0826394386158000E-01 
    5.9268896621824085E-01 
    5.7579106270198666E-01 
    5.5714718207762615E-01 
    5.3605986951817008E-01 
    5.1124658740730289E-01 
    4.7998313162602202E-01 
    4.3539212146610279E-01 
    3.5577056081211378E-01 
    1.0861099249985773E-01 
    6.3092388594837112E-01 
    6.2331110654197941E-01 
    6.1360637477078261E-01 
    6.0296505291573865E-01 
    5.9160309761120666E-01 
    5.7949599393235351E-01 
    5.6652194247322885E-01 
    5.5248095716412904E-01 
    5.3706886875860005E-01 
    5.1980513603578804E-01 
    4.9986373830434833E-01 
    4.7564621452347228E-01 
    4.4358585399229344E-01 
    3.9419704341158146E-01 
    2.9132698441682703E-01 
    2.9406835433987037E-02 
    5.8753146520231792E-01 
    5.8099115052928441E-01 
    5.7250395710476243E-01 
    5.6307295318083506E-01 
    5.5290663774802784E-01 
    5.4198393245484000E-01 
    5.3017926717722663E-01 
    5.1727718240646836E-01 
    5.0293769669653421E-01 
    4.8660142350523450E-01 
    4.6725943923020513E-01 
    4.4284628990385416E-01 
    4.0844267853004379E-01 
    3.4947629936197661E-01 
    1.9243986066201799E-01 
    4.4535537982148543E-03 
    5.4867747869138306E-01 
    5.4294238653324556E-01 
    5.3540282868241507E-01 
    5.2692013067116317E-01 
    5.1768388182346192E-01 
    5.0766980859576416E-01 
    4.9674325924394686E-01 
    4.8466491968597958E-01 
    4.7104131208485467E-01 
    4.5519281392994954E-01 
    4.3582120337832614E-01 
    4.1006960914052065E-01 
    3.7037097188649915E-01 
    2.8879039585260202E-01 
    6.5405778252357868E-02 
    1.7246380407912135E-04 
    5.1207227939240929E-01 
    5.0692827905212956E-01 
    5.0010540975504381E-01 
    4.9233690542002734E-01 
    4.8378426098796595E-01 
    4.7440990146645090E-01 
    4.6405743156447687E-01 
    4.5244260935174296E-01 
    4.3907643420934250E-01 
    4.2306163754732018E-01 
    4.0254544646437412E-01 
    3.7298393984105449E-01 
    3.1999158131446342E-01 
    1.7812898578047259E-01 
    6.1415768664599040E-03 
    3.9219704654435717E-07 
    4.7537624973300696E-01 
    4.7060322633124507E-01 
    4.6423959817042970E-01 
    4.5690123514689762E-01 
    4.4870912494646065E-01 
    4.3959222708262174E-01 
    4.2934009538613394E-01 
    4.1756479361662652E-01 
    4.0355979940502984E-01 
    3.8591316868013559E-01 
    3.6133673495003943E-01 
    3.2027027777048539E-01 
    2.2526760482239361E-01 
    3.5632961320113912E-02 
    3.9638825661948292E-05 
    1.2969893773299626E-12 
    4.3501988909233080E-01 
    4.3026861072126338E-01 
    4.2391189045266464E-01 
    4.1644717584785734E-01 
    4.0791759901394109E-01 
    3.9814963851342011E-01 
    3.8675231248915998E-01 
    3.7298171619430037E-01 
    3.5534492443738708E-01 
    3.3042245181279523E-01 
    2.8890270032134896E-01 
    2.0234791173675032E-01 
    5.2730095952097190E-02 
    3.0786407375759468E-04 
    1.6978924317326727E-10 
    3.8458647187897911E-26 
    3.8304238558477466E-01 
    3.7737143573847010E-01 
    3.6967817339125730E-01 
    3.6026255967922388E-01 
    3.4887994516988607E-01 
    3.3485490926445044E-01 
    3.1685512033692337E-01 
    2.9228364913166449E-01 
    2.5592421142971250E-01 
    1.9818678401202824E-01 
    1.1230488672449089E-01 
    2.7402425754553140E-02 
    4.5614175866771835E-04 
    1.2995080076017439E-09 
    3.3518076783167759E-24 
    7.2246430921476329E-61 
    2.9475457576456587E-01 
    2.8420992998976335E-01 
    2.6929911373794568E-01 
    2.4998273342600122E-01 
    2.2539712272909668E-01 
    1.9436747791879025E-01 
    1.5610614712240853E-01 
    1.1146272973365889E-01 
    6.4680010126255322E-02 
    2.5029247286499211E-02 
    4.0349857186586157E-03 
    7.4659545861664251E-05 
    2.0771185749413569E-09 
    2.9443527325546035E-23 
    1.9793530581304986E-59 
   1.7950112582308433E-150 
    1.1991144725055870E-01 
    1.0362920045935559E-01 
    8.3751964350035749E-02 
    6.2821521763999882E-02 
    4.2739823900670867E-02 
    2.5314645549630324E-02 
    1.2203494420289143E-02 
    4.2596028467914125E-03 
    8.6108733734174088E-04 
    6.2833723122342888E-05 
    5.3306321495985868E-07 
    2.0440592069343664E-11 
    6.7790718263256780E-23 
    1.6088977846479763E-57 
   5.5462652145241346E-148 
    0.0000000000000000E+00 
    5.5715237634323877E-03 
    3.5615424546869431E-03 
    1.8935632714065650E-03 
    8.2815917647338817E-04 
    2.8282783428253551E-04 
    6.8504979063254467E-05 
    9.9991337490683564E-06 
    6.5595582773501221E-07 
    1.0978787263542996E-08 
    1.4186743747507460E-11 
    7.5722443078280087E-17 
    4.8574049081026753E-28 
    5.8384220350804045E-57 
   2.6713825592223192E-143 
    0.0000000000000000E+00 
    0.0000000000000000E+00 
    1.4436955260056759E-06 
    4.5755849980889808E-07 
    9.1335618775154362E-08 
    1.1204977293957682E-08 
    7.4151993002922929E-10 
    2.0715156993816773E-11 
    1.6046977016510894E-13 
    1.6305653201422516E-16 
    5.1516090206599638E-21 
    2.3280180995359664E-28 
    9.2827624332115163E-42 
    3.6463846856246399E-70 
   6.5570617943791691E-143 
    0.0000000000000000E+00 
    0.0000000000000000E+00 
    0.0000000000000000E+00 
    1.4042371472642395E-15 
    7.7471276082676300E-17 
    1.3388578693993720E-18 
    6.8159435263814029E-21 
    7.3222214685857645E-24 
    8.8759194844801631E-28 
    4.1262696478286006E-33 
    1.1129311956267198E-40 
    4.3376787927027079E-52 
    9.5768336860473848E-71 
   9.5483027191778868E-105 
   7.8865493312631753E-177 
    0.0000000000000000E+00 
    0.0000000000000000E+00 
    0.0000000000000000E+00 
    0.0000000000000000E+00 
