# vtk DataFile Version 2.0
Pressure Field Data 
ASCII 
DATASET UNSTRUCTURED_GRID 

POINTS 289 double 

    0.0000000000000000E+00     0.0000000000000000E+00     0.0000000000000000E+00 
    1.0000000000000000E+00     0.0000000000000000E+00     0.0000000000000000E+00 
    1.0000000000000000E+00     1.0000000000000000E+00     0.0000000000000000E+00 
    0.0000000000000000E+00     1.0000000000000000E+00     0.0000000000000000E+00 
    6.2499999999872928E-02     0.0000000000000000E+00     0.0000000000000000E+00 
    1.2499999999977310E-01     0.0000000000000000E+00     0.0000000000000000E+00 
    1.8749999999959341E-01     0.0000000000000000E+00     0.0000000000000000E+00 
    2.4999999999941089E-01     0.0000000000000000E+00     0.0000000000000000E+00 
    3.1249999999922851E-01     0.0000000000000000E+00     0.0000000000000000E+00 
    3.7499999999904610E-01     0.0000000000000000E+00     0.0000000000000000E+00 
    4.3749999999886358E-01     0.0000000000000000E+00     0.0000000000000000E+00 
    4.9999999999869210E-01     0.0000000000000000E+00     0.0000000000000000E+00 
    5.6249999999884603E-01     0.0000000000000000E+00     0.0000000000000000E+00 
    6.2499999999901090E-01     0.0000000000000000E+00     0.0000000000000000E+00 
    6.8749999999917577E-01     0.0000000000000000E+00     0.0000000000000000E+00 
    7.4999999999934064E-01     0.0000000000000000E+00     0.0000000000000000E+00 
    8.1249999999950551E-01     0.0000000000000000E+00     0.0000000000000000E+00 
    8.7499999999967026E-01     0.0000000000000000E+00     0.0000000000000000E+00 
    9.3749999999983513E-01     0.0000000000000000E+00     0.0000000000000000E+00 
    1.0000000000000000E+00     6.2499999999872928E-02     0.0000000000000000E+00 
    1.0000000000000000E+00     1.2499999999977310E-01     0.0000000000000000E+00 
    1.0000000000000000E+00     1.8749999999959341E-01     0.0000000000000000E+00 
    1.0000000000000000E+00     2.4999999999941089E-01     0.0000000000000000E+00 
    1.0000000000000000E+00     3.1249999999922851E-01     0.0000000000000000E+00 
    1.0000000000000000E+00     3.7499999999904610E-01     0.0000000000000000E+00 
    1.0000000000000000E+00     4.3749999999886358E-01     0.0000000000000000E+00 
    1.0000000000000000E+00     4.9999999999869210E-01     0.0000000000000000E+00 
    1.0000000000000000E+00     5.6249999999884603E-01     0.0000000000000000E+00 
    1.0000000000000000E+00     6.2499999999901090E-01     0.0000000000000000E+00 
    1.0000000000000000E+00     6.8749999999917577E-01     0.0000000000000000E+00 
    1.0000000000000000E+00     7.4999999999934064E-01     0.0000000000000000E+00 
    1.0000000000000000E+00     8.1249999999950551E-01     0.0000000000000000E+00 
    1.0000000000000000E+00     8.7499999999967026E-01     0.0000000000000000E+00 
    1.0000000000000000E+00     9.3749999999983513E-01     0.0000000000000000E+00 
    9.3749999999973976E-01     1.0000000000000000E+00     0.0000000000000000E+00 
    8.7499999999950118E-01     1.0000000000000000E+00     0.0000000000000000E+00 
    8.1249999999991318E-01     1.0000000000000000E+00     0.0000000000000000E+00 
    7.5000000000034706E-01     1.0000000000000000E+00     0.0000000000000000E+00 
    6.8750000000078049E-01     1.0000000000000000E+00     0.0000000000000000E+00 
    6.2500000000121403E-01     1.0000000000000000E+00     0.0000000000000000E+00 
    5.6250000000164757E-01     1.0000000000000000E+00     0.0000000000000000E+00 
    5.0000000000205946E-01     1.0000000000000000E+00     0.0000000000000000E+00 
    4.3750000000182099E-01     1.0000000000000000E+00     0.0000000000000000E+00 
    3.7500000000156092E-01     1.0000000000000000E+00     0.0000000000000000E+00 
    3.1250000000130068E-01     1.0000000000000000E+00     0.0000000000000000E+00 
    2.5000000000104050E-01     1.0000000000000000E+00     0.0000000000000000E+00 
    1.8750000000078040E-01     1.0000000000000000E+00     0.0000000000000000E+00 
    1.2500000000052031E-01     1.0000000000000000E+00     0.0000000000000000E+00 
    6.2500000000260125E-02     1.0000000000000000E+00     0.0000000000000000E+00 
    0.0000000000000000E+00     9.3749999999973976E-01     0.0000000000000000E+00 
    0.0000000000000000E+00     8.7499999999950118E-01     0.0000000000000000E+00 
    0.0000000000000000E+00     8.1249999999991318E-01     0.0000000000000000E+00 
    0.0000000000000000E+00     7.5000000000034706E-01     0.0000000000000000E+00 
    0.0000000000000000E+00     6.8750000000078049E-01     0.0000000000000000E+00 
    0.0000000000000000E+00     6.2500000000121403E-01     0.0000000000000000E+00 
    0.0000000000000000E+00     5.6250000000164757E-01     0.0000000000000000E+00 
    0.0000000000000000E+00     5.0000000000205946E-01     0.0000000000000000E+00 
    0.0000000000000000E+00     4.3750000000182099E-01     0.0000000000000000E+00 
    0.0000000000000000E+00     3.7500000000156092E-01     0.0000000000000000E+00 
    0.0000000000000000E+00     3.1250000000130068E-01     0.0000000000000000E+00 
    0.0000000000000000E+00     2.5000000000104050E-01     0.0000000000000000E+00 
    0.0000000000000000E+00     1.8750000000078040E-01     0.0000000000000000E+00 
    0.0000000000000000E+00     1.2500000000052031E-01     0.0000000000000000E+00 
    0.0000000000000000E+00     6.2500000000260125E-02     0.0000000000000000E+00 
    6.2499999999897131E-02     6.2500000000235922E-02     0.0000000000000000E+00 
    6.2499999999921327E-02     1.2500000000047351E-01     0.0000000000000000E+00 
    6.2499999999945530E-02     1.8750000000070621E-01     0.0000000000000000E+00 
    6.2499999999969733E-02     2.5000000000093858E-01     0.0000000000000000E+00 
    6.2499999999993928E-02     3.1250000000117117E-01     0.0000000000000000E+00 
    6.2500000000018124E-02     3.7500000000140382E-01     0.0000000000000000E+00 
    6.2500000000042327E-02     4.3750000000163619E-01     0.0000000000000000E+00 
    6.2500000000066530E-02     5.0000000000184897E-01     0.0000000000000000E+00 
    6.2500000000090733E-02     5.6250000000147260E-01     0.0000000000000000E+00 
    6.2500000000114922E-02     6.2500000000107636E-01     0.0000000000000000E+00 
    6.2500000000139125E-02     6.8750000000068034E-01     0.0000000000000000E+00 
    6.2500000000163328E-02     7.5000000000028411E-01     0.0000000000000000E+00 
    6.2500000000187531E-02     8.1249999999988787E-01     0.0000000000000000E+00 
    6.2500000000211720E-02     8.7499999999951172E-01     0.0000000000000000E+00 
    6.2500000000235922E-02     9.3749999999974565E-01     0.0000000000000000E+00 
    1.2499999999981980E-01     6.2500000000211733E-02     0.0000000000000000E+00 
    1.2499999999986650E-01     1.2500000000042691E-01     0.0000000000000000E+00 
    1.2499999999991319E-01     1.8750000000063199E-01     0.0000000000000000E+00 
    1.2499999999995989E-01     2.5000000000083678E-01     0.0000000000000000E+00 
    1.2500000000000661E-01     3.1250000000104172E-01     0.0000000000000000E+00 
    1.2500000000005329E-01     3.7500000000124661E-01     0.0000000000000000E+00 
    1.2500000000010000E-01     4.3750000000145117E-01     0.0000000000000000E+00 
    1.2500000000014669E-01     5.0000000000163858E-01     0.0000000000000000E+00 
    1.2500000000019340E-01     5.6250000000129741E-01     0.0000000000000000E+00 
    1.2500000000024011E-01     6.2500000000093847E-01     0.0000000000000000E+00 
    1.2500000000028680E-01     6.8750000000057998E-01     0.0000000000000000E+00 
    1.2500000000033351E-01     7.5000000000022127E-01     0.0000000000000000E+00 
    1.2500000000038020E-01     8.1249999999986211E-01     0.0000000000000000E+00 
    1.2500000000042691E-01     8.7499999999952238E-01     0.0000000000000000E+00 
    1.2500000000047359E-01     9.3749999999975164E-01     0.0000000000000000E+00 
    1.8749999999966760E-01     6.2500000000187531E-02     0.0000000000000000E+00 
    1.8749999999974179E-01     1.2500000000038020E-01     0.0000000000000000E+00 
    1.8749999999981601E-01     1.8750000000055780E-01     0.0000000000000000E+00 
    1.8749999999989009E-01     2.5000000000073502E-01     0.0000000000000000E+00 
    1.8749999999996431E-01     3.1250000000091221E-01     0.0000000000000000E+00 
    1.8750000000003850E-01     3.7500000000108941E-01     0.0000000000000000E+00 
    1.8750000000011269E-01     4.3750000000126649E-01     0.0000000000000000E+00 
    1.8750000000018691E-01     5.0000000000142808E-01     0.0000000000000000E+00 
    1.8750000000026110E-01     5.6250000000112244E-01     0.0000000000000000E+00 
    1.8750000000033529E-01     6.2500000000080080E-01     0.0000000000000000E+00 
    1.8750000000040951E-01     6.8750000000047962E-01     0.0000000000000000E+00 
    1.8750000000048361E-01     7.5000000000015843E-01     0.0000000000000000E+00 
    1.8750000000055780E-01     8.1249999999983680E-01     0.0000000000000000E+00 
    1.8750000000063199E-01     8.7499999999953304E-01     0.0000000000000000E+00 
    1.8750000000070621E-01     9.3749999999975764E-01     0.0000000000000000E+00 
    2.4999999999951281E-01     6.2500000000163314E-02     0.0000000000000000E+00 
    2.4999999999961461E-01     1.2500000000033351E-01     0.0000000000000000E+00 
    2.4999999999971650E-01     1.8750000000048361E-01     0.0000000000000000E+00 
    2.4999999999981831E-01     2.5000000000063310E-01     0.0000000000000000E+00 
    2.4999999999992020E-01     3.1250000000078260E-01     0.0000000000000000E+00 
    2.5000000000002198E-01     3.7500000000093209E-01     0.0000000000000000E+00 
    2.5000000000012390E-01     4.3750000000108180E-01     0.0000000000000000E+00 
    2.5000000000022571E-01     5.0000000000121769E-01     0.0000000000000000E+00 
    2.5000000000032763E-01     5.6250000000094724E-01     0.0000000000000000E+00 
    2.5000000000042938E-01     6.2500000000066314E-01     0.0000000000000000E+00 
    2.5000000000053119E-01     6.8750000000037925E-01     0.0000000000000000E+00 
[...]
CELL_DATA 256 
SCALARS Pressure double 1 
LOOKUP_TABLE default 

    9.1747804975900704E-01 
    8.6501450198654695E-01 
    8.2906445906084292E-01 
    7.9476847900560887E-01 
    7.5918150423402164E-01 
    7.2144664232783062E-01 
    6.8137730223380288E-01 
    6.3916667915783942E-01 
    5.9526743962840933E-01 
    5.5042134541768417E-01 
    5.0576267693505372E-01 
    4.6308749403626176E-01 
    4.2491606740779858E-01 
    3.9232418529488250E-01 
    3.6763645294093900E-01 
    3.5703156756211313E-01 
    9.0342655853655662E-01 
    8.6644829302764736E-01 
    8.3177917897641285E-01 
    7.9787483931225966E-01 
    7.6259226546064274E-01 
    7.2513754774104511E-01 
    6.8531583173837052E-01 
    6.4329559373980882E-01 
    5.9949370714221895E-01 
    5.5460107913561352E-01 
    5.0968551518556626E-01 
    4.6646436635865501E-01 
    4.2746605247955755E-01 
    3.9401885147130838E-01 
    3.6812305237386445E-01 
    3.5658143300748973E-01 
    8.9244248089485190E-01 
    8.6558641255318391E-01 
    8.3360209284387310E-01 
    8.0054244484087367E-01 
    7.6572156009403847E-01 
    7.2861351982826705E-01 
    6.8907105902173127E-01 
    6.4725045715953389E-01 
    6.0352751721825126E-01 
    5.5852822151893378E-01 
    5.1323737934875791E-01 
    4.6927259363446366E-01 
    4.2914567429483808E-01 
    3.9459561855304670E-01 
    3.6730136630459853E-01 
    3.5492624632985387E-01 
    8.8359660427780740E-01 
    8.6350803380068542E-01 
    8.3460189627020143E-01 
    8.0275636181512577E-01 
    7.6856258281606804E-01 
    7.3187664242308448E-01 
    6.9265070771553261E-01 
    6.5104474289242398E-01 
    6.0739278990281165E-01 
    5.6224475304209798E-01 
    5.1648413381308800E-01 
    4.7160062143636722E-01 
    4.3005111091571985E-01 
    3.9406570533772561E-01 
    3.6507498006348627E-01 
    3.5183902600733791E-01 
    8.7636453199798892E-01 
    8.6085921423647427E-01 
    8.3494062187749529E-01 
    8.0454027416015050E-01 
    7.7112236522381672E-01 
    7.3493696104424322E-01 
    6.9606817149136802E-01 
    6.5469559636553720E-01 
    6.1111586739732149E-01 
    5.6579610485424237E-01 
    5.1949819758123761E-01 
    4.7354990473476793E-01 
    4.3029612627025027E-01 
    3.9245058742275540E-01 
    3.6133880149657549E-01 
    3.4708624872444438E-01 
    8.7038322873924201E-01 
    8.5801940520196596E-01 
    8.3479309875962715E-01 
    8.0594576747341506E-01 
    7.7342169250892534E-01 
    7.3781032722795792E-01 
    6.9933977241714007E-01 
    6.5822245561646286E-01 
    6.1472533632342363E-01 
    5.6923031937431445E-01 
    5.2235638727778189E-01 
    4.7523046199594388E-01 
    4.3000998025720455E-01 
    3.8979216816258400E-01 
    3.5599827175298132E-01 
    3.4042272825853093E-01 
    8.6540169136955214E-01 
    8.5521626279148966E-01 
    8.3432266796500931E-01 
    8.0704353210017143E-01 
    7.7549535297654826E-01 
    7.4051993115223802E-01 
    7.0248438576343752E-01 
    6.6164708186004795E-01 
    6.1825291744849620E-01 
    5.7259705410490735E-01 
    5.2513798785259125E-01 
    4.7675854930439121E-01 
    4.2933723846718874E-01 
    3.8616011407832007E-01 
    3.4897543480788712E-01 
    3.3157568391683973E-01 
    8.6124336843410820E-01 
    8.5258901838756318E-01 
    8.3367567035342482E-01 
    8.0791555839896145E-01 
    7.7738880804779209E-01 
    7.4309508644703515E-01 
    7.0552507859154490E-01 
    6.6499399247788782E-01 
    6.2173193053862275E-01 
    5.7594696120331035E-01 
    5.2792453599143052E-01 
    4.7826162827758367E-01 
    4.2844731460086699E-01 
    3.8168092141634447E-01 
    3.4024787719654004E-01 
    3.2023449249514041E-01 
    8.5778615062816377E-01 
    8.5022392975231198E-01 
    8.3297721344901765E-01 
    8.0864703095780621E-01 
    7.7915116913163251E-01 
    7.4556597686231230E-01 
    7.0848577072737950E-01 
    6.6828793011337462E-01 
    6.2519392895420334E-01 
    5.7932762015216699E-01 
    5.3079623013623711E-01 
    4.7987712960296486E-01 
    4.2755034042796380E-01 
    3.7658757816073013E-01 
    3.2987399412816043E-01 
    3.0598082615176392E-01 
    8.5495018202944106E-01 
    8.4817899533993413E-01 
    8.3232906974975074E-01 
    8.0931609993063591E-01 
    7.8083136114142992E-01 
    7.4796420777775385E-01 
    7.1139078927250343E-01 
    6.7155222564687445E-01 
    6.2866819293544074E-01 
    5.8278429574551327E-01 
    5.3383001913937955E-01 
    4.8174748487733365E-01 
    4.2689627102980843E-01 
    3.7121885307692665E-01 
    3.1789637080356681E-01 
    2.8801456704602113E-01 
    8.5267115650923719E-01 
    8.4648687388244448E-01 
    8.3180778546107048E-01 
    8.0999048230919291E-01 
    7.8248008337225328E-01 
    7.5032867735323061E-01 
    7.1426758139457591E-01 
    6.7480858922384401E-01 
    6.3218062703609623E-01 
    5.8635588455606025E-01 
    5.3709243393694894E-01 
    4.8400435684496135E-01 
    4.2675932121848986E-01 
    3.6602835837765252E-01 
    3.0439662108803300E-01 
    2.6498857347304755E-01 
    8.5089012185869961E-01 
    8.4515930717248844E-01 
    8.3147096604927850E-01 
    8.1073229134311187E-01 
    7.8415254987323402E-01 
    7.5270624300907218E-01 
    7.1714738656564370E-01 
    6.7807380302221254E-01 
    6.3574569256368130E-01 
    5.9006059551899293E-01 
    5.4061415916137578E-01 
    4.8673799139395835E-01 
    4.2740093856905303E-01 
    3.6158065900844560E-01 
    2.8978114420853623E-01 
    2.3548410707345316E-01 
    8.4955942745548674E-01 
    8.4420285603219436E-01 
    8.3136850030682874E-01 
    8.1159981286554539E-01 
    7.8590080459393674E-01 
    7.5514388716207081E-01 
    7.2006107678577957E-01 
    6.8132496588933222E-01 
    6.3925569601639021E-01 
    5.9371495021584397E-01 
    5.4415741542830232E-01 
    4.8968493929602941E-01 
    4.2872843056275256E-01 
    3.5821159964526450E-01 
    2.7455905347629123E-01 
    1.9778073062986706E-01 
    8.4846628204446661E-01 
    8.4349758821552301E-01 
    8.3145920174620125E-01 
    8.1256104417870412E-01 
    7.8764794793218085E-01 
    7.5754049774296373E-01 
    7.2292481329472746E-01 
    6.8449698785685387E-01 
    6.4265042291773866E-01 
    5.9729837922137252E-01 
    5.4783977669050976E-01 
    4.9317131499237626E-01 
    4.3114061903972778E-01 
    3.5653695811554509E-01 
    2.5949592131455113E-01 
    1.4875797442679498E-01 
    8.4774893996407308E-01 
    8.4311249366638452E-01 
    8.3178696429498877E-01 
    8.1366470495730170E-01 
    7.8944853791950431E-01 
    7.5995049683044469E-01 
    7.2584914308473569E-01 
    6.8780652593659430E-01 
    6.4626032839482095E-01 
    6.0119468646738927E-01 
    5.5202599534129115E-01 
    4.9755339150338440E-01 
    4.3527224089656436E-01 
    3.5848089346989132E-01 
    2.4866700483499146E-01 
    8.3897954367793473E-02 
    8.4755703781136948E-01 
    8.4330090102707422E-01 
    8.3261486670273266E-01 
    8.1518344415194410E-01 
    7.9160277213958297E-01 
    7.6266840926625112E-01 
    7.2907146637725495E-01 
    6.9144688440957791E-01 
    6.5025385291594606E-01 
    6.0551881546234654E-01 
    5.5670995546168989E-01 
    5.0265512851445404E-01 
    4.4084493766900390E-01 
    3.6447425607901368E-01 
    2.5090362317972409E-01 
    0.0000000000000000E+00 

SCALARS Saturarion double 1 
LOOKUP_TABLE default 

    1.0000000000066922E+00 
    9.5384084233982547E-01 
    8.6638594983284889E-01 
    7.9643811407672216E-01 
    7.4014958048379176E-01 
    6.9279498075735280E-01 
    6.5226384160493489E-01 
    6.1716116801488796E-01 
    5.8632446470335808E-01 
    5.5829824748229750E-01 
    5.3112616346311425E-01 
    5.0387112536657142E-01 
    4.7140705247670411E-01 
    3.6757163978375595E-01 
    2.8645335366027664E-02 
    2.3239095345345286E-05 
    9.8241529411619155E-01 
    9.4312048190173337E-01 
    8.6313981427103337E-01 
    7.9462594693658883E-01 
    7.3872458120742579E-01 
    6.9143494937086591E-01 
    6.5095833856054786E-01 
    6.1596013056034471E-01 
    5.8537173875207293E-01 
    5.5764168256679070E-01 
    5.3095210900477596E-01 
    5.0425533213099150E-01 
    4.7278347593389475E-01 
    3.8088357769394054E-01 
    4.4966405960970735E-02 
    3.7499826083825960E-06 
    9.4839327273141250E-01 
    9.1805078172306143E-01 
    8.5207959801527089E-01 
    7.8707839479104091E-01 
    7.3304182323665701E-01 
    6.8722472590139316E-01 
    6.4784312637151520E-01 
    6.1348508740803509E-01 
    5.8323757882443050E-01 
    5.5578322319343620E-01 
    5.2973082180295161E-01 
    5.0389413988739951E-01 
    4.7411789859348480E-01 
    3.9603214356433819E-01 
    6.6441377441575231E-02 
    7.8632162150578672E-06 
    9.1206176293657126E-01 
    8.8657616141147333E-01 
    8.3282562040446773E-01 
    7.7503264812918715E-01 
    7.2373879927507023E-01 
    6.8030932292276147E-01 
    6.4283136087462756E-01 
    6.0986318222892855E-01 
    5.8022279245988706E-01 
    5.5327549441204549E-01 
    5.2801548465411408E-01 
    5.0333367055652678E-01 
    4.7601653941282907E-01 
    4.1128625825212595E-01 
    9.7163849914959743E-02 
    1.2884802874999022E-04 
    8.7265180173474999E-01 
    8.5178663686367573E-01 
    8.0691828310007274E-01 
    7.5628648945713983E-01 
    7.0998877861493415E-01 
    6.6988285195190489E-01 
    6.3480334663559801E-01 
    6.0339856585517015E-01 
    5.7503737905144614E-01 
    5.4944857055643392E-01 
    5.2598508997599058E-01 
    5.0295403436166097E-01 
    4.7767097043431839E-01 
    4.2488811530911486E-01 
    1.2948472839672304E-01 
    6.4608273380416206E-06 
    8.3067867177231913E-01 
    8.1450800673909107E-01 
    7.7715108349287876E-01 
    7.3335976624001453E-01 
    6.9213374242654746E-01 
    6.5567651536897897E-01 
    6.2298535391695919E-01 
    5.9347642864983130E-01 
    5.6690203822550334E-01 
    5.4302975340002646E-01 
    5.2154906587446226E-01 
    5.0113599978915568E-01 
    4.7854969712405904E-01 
    4.3614076414241643E-01 
    1.6327458204374523E-01 
    1.8631149159347049E-05 
    7.8655826595163703E-01 
    7.7533120425904467E-01 
    7.4539843800307848E-01 
    7.0774598726848315E-01 
    6.7189876284415451E-01 
    6.3936512740739238E-01 
    6.0934392283603345E-01 
    5.8157369783333157E-01 
    5.5668091818021381E-01 
    5.3461299185333133E-01 
    5.1522196392832231E-01 
    4.9701430030761418E-01 
    4.7767611932786680E-01 
    4.4353690867260054E-01 
    2.0332477302422439E-01 
    8.1491896464265163E-05 
    7.4050667172273477E-01 
    7.3425395109765168E-01 
    7.1225318784753766E-01 
    6.8134360147069328E-01 
    6.4982707185562338E-01 
    6.2022049124433698E-01 
    5.9257020129566473E-01 
    5.6743272899117381E-01 
    5.4480257010136390E-01 
    5.2475413774278479E-01 
    5.0709521483515674E-01 
    4.9132392078677395E-01 
    4.7503139496888352E-01 
    4.4719669779159343E-01 
    2.5089471073041719E-01 
    1.0542341850667525E-03 
    6.9357351992314298E-01 
    6.9163561817083552E-01 
    6.7708864310109329E-01 
    6.5301606840436099E-01 
    6.2574049911072993E-01 
    5.9829968310960846E-01 
    5.7285371489724457E-01 
    5.4980187228918553E-01 
    5.2917631881246596E-01 
    5.1122665488201302E-01 
    4.9621984648655565E-01 
    4.8357466036534857E-01 
    4.7091772238120999E-01 
    4.4926934357531456E-01 
    2.9661686596573583E-01 
    7.4917635339563733E-03 
    6.4669232313980618E-01 
    6.4828407999101390E-01 
    6.3985986628311109E-01 
    6.2093777077939794E-01 
    5.9751077298111532E-01 
    5.7360956500721272E-01 
    5.5060832296725237E-01 
    5.2926221953608921E-01 
    5.1042040567088010E-01 
    4.9480556053525504E-01 
    4.8231637405279160E-01 
    4.7243074738321866E-01 
    4.6478866016997694E-01 
    4.4954851753158098E-01 
    3.3280364685290242E-01 
    3.2675771500775136E-02 
    5.9701568062440180E-01 
    6.0176242376329536E-01 
    5.9835426046640461E-01 
    5.8401246954600738E-01 
    5.6506153741573806E-01 
    5.4537952318332161E-01 
    5.2621301602294579E-01 
    5.0674917247304119E-01 
    4.8904376341390310E-01 
    4.7421478912464743E-01 
    4.6269550451470537E-01 
    4.5578386303167895E-01 
    4.5277156141883201E-01 
    4.4746930783818062E-01 
    3.6283555382079535E-01 
    7.9460046918213678E-02 
    5.4267506385150677E-01 
    5.5021841283717532E-01 
    5.5211222099305823E-01 
    5.4284532041757871E-01 
    5.2797696781766790E-01 
    5.1200066426339497E-01 
    4.9612625151875583E-01 
    4.7863099044752183E-01 
    4.6145020072730419E-01 
    4.4693918095408292E-01 
    4.3361082386903860E-01 
    4.2515107959471088E-01 
    4.2954422049120811E-01 
    4.3677131830833105E-01 
    3.8484877758446012E-01 
    1.1620090720003809E-01 
    4.8155160475598352E-01 
    4.9233171640696627E-01 
    4.9922498969869727E-01 
    4.9485660658688724E-01 
    4.8308374800432019E-01 
    4.6870342362522194E-01 
    4.5653439926651396E-01 
    4.3971520275004317E-01 
    3.9988859601866927E-01 
    3.3068450269283961E-01 
    2.4648018727571103E-01 
    2.1033291494960327E-01 
    2.8182385620535000E-01 
    3.8049495845017173E-01 
    3.8311859132515808E-01 
    1.7636352367899238E-01 
    2.6602453960483380E-01 
    3.5366332062506628E-01 
    3.9225048679306995E-01 
    3.9212867042691413E-01 
    3.6626277702970184E-01 
    2.9445000258712545E-01 
    2.2424827995858360E-01 
    1.3713634827176197E-01 
    6.8506116912390086E-02 
    2.1380426593942924E-02 
    3.8985171091904930E-04 
    4.1909261455576899E-04 
    1.7371956326648785E-02 
    1.8302573596745264E-01 
    3.2774962630630855E-01 
    2.0389453007026775E-01 
    8.6609014220656881E-04 
    2.0952350452671079E-02 
    3.9012882761720602E-02 
    3.7181638996262770E-02 
    2.3162086426808559E-02 
    2.3440998483445861E-03 
    1.3822455915945289E-04 
    4.3337968514369510E-04 
    4.9004394949315870E-04 
    9.0113922514054224E-05 
    1.0049231169978699E-06 
    1.0304528081344907E-06 
    2.6845011235960040E-04 
    1.7887580133066584E-03 
    2.0544371652497134E-01 
    2.0701967446714539E-01 
    1.0025047190787351E-06 
    3.7332099490204420E-05 
    2.4462211930427549E-06 
    1.5412754811213475E-06 
    4.8993303585441030E-05 
    2.4631649818047968E-06 
    1.0023371424682705E-06 
    1.0013580603647976E-06 
    1.0015851438117876E-06 
    1.0004963853597284E-06 
    1.0000000004190706E-06 
    1.0000000018060262E-06 
    1.0097521097184426E-06 
    1.4465601251623846E-06 
    1.1446907034685346E-02 
    1.6396315638700451E-01 
