# vtk DataFile Version 2.0
Pressure Field Data 
ASCII 
DATASET UNSTRUCTURED_GRID 

POINTS 289 double 

    0.0000000000000000E+00     0.0000000000000000E+00     0.0000000000000000E+00 
    1.0000000000000000E+00     0.0000000000000000E+00     0.0000000000000000E+00 
    1.0000000000000000E+00     1.0000000000000000E+00     0.0000000000000000E+00 
    0.0000000000000000E+00     1.0000000000000000E+00     0.0000000000000000E+00 
    6.2499999999872928E-02     0.0000000000000000E+00     0.0000000000000000E+00 
    1.2499999999977310E-01     0.0000000000000000E+00     0.0000000000000000E+00 
    1.8749999999959341E-01     0.0000000000000000E+00     0.0000000000000000E+00 
    2.4999999999941089E-01     0.0000000000000000E+00     0.0000000000000000E+00 
    3.1249999999922851E-01     0.0000000000000000E+00     0.0000000000000000E+00 
    3.7499999999904610E-01     0.0000000000000000E+00     0.0000000000000000E+00 
    4.3749999999886358E-01     0.0000000000000000E+00     0.0000000000000000E+00 
    4.9999999999869210E-01     0.0000000000000000E+00     0.0000000000000000E+00 
    5.6249999999884603E-01     0.0000000000000000E+00     0.0000000000000000E+00 
    6.2499999999901090E-01     0.0000000000000000E+00     0.0000000000000000E+00 
    6.8749999999917577E-01     0.0000000000000000E+00     0.0000000000000000E+00 
    7.4999999999934064E-01     0.0000000000000000E+00     0.0000000000000000E+00 
    8.1249999999950551E-01     0.0000000000000000E+00     0.0000000000000000E+00 
    8.7499999999967026E-01     0.0000000000000000E+00     0.0000000000000000E+00 
    9.3749999999983513E-01     0.0000000000000000E+00     0.0000000000000000E+00 
    1.0000000000000000E+00     6.2499999999872928E-02     0.0000000000000000E+00 
    1.0000000000000000E+00     1.2499999999977310E-01     0.0000000000000000E+00 
    1.0000000000000000E+00     1.8749999999959341E-01     0.0000000000000000E+00 
    1.0000000000000000E+00     2.4999999999941089E-01     0.0000000000000000E+00 
    1.0000000000000000E+00     3.1249999999922851E-01     0.0000000000000000E+00 
    1.0000000000000000E+00     3.7499999999904610E-01     0.0000000000000000E+00 
    1.0000000000000000E+00     4.3749999999886358E-01     0.0000000000000000E+00 
    1.0000000000000000E+00     4.9999999999869210E-01     0.0000000000000000E+00 
    1.0000000000000000E+00     5.6249999999884603E-01     0.0000000000000000E+00 
    1.0000000000000000E+00     6.2499999999901090E-01     0.0000000000000000E+00 
    1.0000000000000000E+00     6.8749999999917577E-01     0.0000000000000000E+00 
    1.0000000000000000E+00     7.4999999999934064E-01     0.0000000000000000E+00 
    1.0000000000000000E+00     8.1249999999950551E-01     0.0000000000000000E+00 
    1.0000000000000000E+00     8.7499999999967026E-01     0.0000000000000000E+00 
    1.0000000000000000E+00     9.3749999999983513E-01     0.0000000000000000E+00 
    9.3749999999973976E-01     1.0000000000000000E+00     0.0000000000000000E+00 
    8.7499999999950118E-01     1.0000000000000000E+00     0.0000000000000000E+00 
    8.1249999999991318E-01     1.0000000000000000E+00     0.0000000000000000E+00 
    7.5000000000034706E-01     1.0000000000000000E+00     0.0000000000000000E+00 
    6.8750000000078049E-01     1.0000000000000000E+00     0.0000000000000000E+00 
    6.2500000000121403E-01     1.0000000000000000E+00     0.0000000000000000E+00 
    5.6250000000164757E-01     1.0000000000000000E+00     0.0000000000000000E+00 
    5.0000000000205946E-01     1.0000000000000000E+00     0.0000000000000000E+00 
    4.3750000000182099E-01     1.0000000000000000E+00     0.0000000000000000E+00 
    3.7500000000156092E-01     1.0000000000000000E+00     0.0000000000000000E+00 
    3.1250000000130068E-01     1.0000000000000000E+00     0.0000000000000000E+00 
    2.5000000000104050E-01     1.0000000000000000E+00     0.0000000000000000E+00 
    1.8750000000078040E-01     1.0000000000000000E+00     0.0000000000000000E+00 
    1.2500000000052031E-01     1.0000000000000000E+00     0.0000000000000000E+00 
    6.2500000000260125E-02     1.0000000000000000E+00     0.0000000000000000E+00 
    0.0000000000000000E+00     9.3749999999973976E-01     0.0000000000000000E+00 
    0.0000000000000000E+00     8.7499999999950118E-01     0.0000000000000000E+00 
    0.0000000000000000E+00     8.1249999999991318E-01     0.0000000000000000E+00 
    0.0000000000000000E+00     7.5000000000034706E-01     0.0000000000000000E+00 
    0.0000000000000000E+00     6.8750000000078049E-01     0.0000000000000000E+00 
    0.0000000000000000E+00     6.2500000000121403E-01     0.0000000000000000E+00 
    0.0000000000000000E+00     5.6250000000164757E-01     0.0000000000000000E+00 
    0.0000000000000000E+00     5.0000000000205946E-01     0.0000000000000000E+00 
    0.0000000000000000E+00     4.3750000000182099E-01     0.0000000000000000E+00 
    0.0000000000000000E+00     3.7500000000156092E-01     0.0000000000000000E+00 
    0.0000000000000000E+00     3.1250000000130068E-01     0.0000000000000000E+00 
    0.0000000000000000E+00     2.5000000000104050E-01     0.0000000000000000E+00 
    0.0000000000000000E+00     1.8750000000078040E-01     0.0000000000000000E+00 
    0.0000000000000000E+00     1.2500000000052031E-01     0.0000000000000000E+00 
    0.0000000000000000E+00     6.2500000000260125E-02     0.0000000000000000E+00 
    6.2499999999897131E-02     6.2500000000235922E-02     0.0000000000000000E+00 
    6.2499999999921327E-02     1.2500000000047351E-01     0.0000000000000000E+00 
    6.2499999999945530E-02     1.8750000000070621E-01     0.0000000000000000E+00 
    6.2499999999969733E-02     2.5000000000093858E-01     0.0000000000000000E+00 
    6.2499999999993928E-02     3.1250000000117117E-01     0.0000000000000000E+00 
    6.2500000000018124E-02     3.7500000000140382E-01     0.0000000000000000E+00 
    6.2500000000042327E-02     4.3750000000163619E-01     0.0000000000000000E+00 
    6.2500000000066530E-02     5.0000000000184897E-01     0.0000000000000000E+00 
    6.2500000000090733E-02     5.6250000000147260E-01     0.0000000000000000E+00 
    6.2500000000114922E-02     6.2500000000107636E-01     0.0000000000000000E+00 
    6.2500000000139125E-02     6.8750000000068034E-01     0.0000000000000000E+00 
    6.2500000000163328E-02     7.5000000000028411E-01     0.0000000000000000E+00 
    6.2500000000187531E-02     8.1249999999988787E-01     0.0000000000000000E+00 
    6.2500000000211720E-02     8.7499999999951172E-01     0.0000000000000000E+00 
    6.2500000000235922E-02     9.3749999999974565E-01     0.0000000000000000E+00 
    1.2499999999981980E-01     6.2500000000211733E-02     0.0000000000000000E+00 
    1.2499999999986650E-01     1.2500000000042691E-01     0.0000000000000000E+00 
    1.2499999999991319E-01     1.8750000000063199E-01     0.0000000000000000E+00 
    1.2499999999995989E-01     2.5000000000083678E-01     0.0000000000000000E+00 
    1.2500000000000661E-01     3.1250000000104172E-01     0.0000000000000000E+00 
    1.2500000000005329E-01     3.7500000000124661E-01     0.0000000000000000E+00 
    1.2500000000010000E-01     4.3750000000145117E-01     0.0000000000000000E+00 
    1.2500000000014669E-01     5.0000000000163858E-01     0.0000000000000000E+00 
    1.2500000000019340E-01     5.6250000000129741E-01     0.0000000000000000E+00 
    1.2500000000024011E-01     6.2500000000093847E-01     0.0000000000000000E+00 
    1.2500000000028680E-01     6.8750000000057998E-01     0.0000000000000000E+00 
    1.2500000000033351E-01     7.5000000000022127E-01     0.0000000000000000E+00 
    1.2500000000038020E-01     8.1249999999986211E-01     0.0000000000000000E+00 
    1.2500000000042691E-01     8.7499999999952238E-01     0.0000000000000000E+00 
    1.2500000000047359E-01     9.3749999999975164E-01     0.0000000000000000E+00 
    1.8749999999966760E-01     6.2500000000187531E-02     0.0000000000000000E+00 
    1.8749999999974179E-01     1.2500000000038020E-01     0.0000000000000000E+00 
    1.8749999999981601E-01     1.8750000000055780E-01     0.0000000000000000E+00 
    1.8749999999989009E-01     2.5000000000073502E-01     0.0000000000000000E+00 
    1.8749999999996431E-01     3.1250000000091221E-01     0.0000000000000000E+00 
    1.8750000000003850E-01     3.7500000000108941E-01     0.0000000000000000E+00 
    1.8750000000011269E-01     4.3750000000126649E-01     0.0000000000000000E+00 
    1.8750000000018691E-01     5.0000000000142808E-01     0.0000000000000000E+00 
    1.8750000000026110E-01     5.6250000000112244E-01     0.0000000000000000E+00 
    1.8750000000033529E-01     6.2500000000080080E-01     0.0000000000000000E+00 
    1.8750000000040951E-01     6.8750000000047962E-01     0.0000000000000000E+00 
    1.8750000000048361E-01     7.5000000000015843E-01     0.0000000000000000E+00 
    1.8750000000055780E-01     8.1249999999983680E-01     0.0000000000000000E+00 
    1.8750000000063199E-01     8.7499999999953304E-01     0.0000000000000000E+00 
    1.8750000000070621E-01     9.3749999999975764E-01     0.0000000000000000E+00 
    2.4999999999951281E-01     6.2500000000163314E-02     0.0000000000000000E+00 
    2.4999999999961461E-01     1.2500000000033351E-01     0.0000000000000000E+00 
    2.4999999999971650E-01     1.8750000000048361E-01     0.0000000000000000E+00 
    2.4999999999981831E-01     2.5000000000063310E-01     0.0000000000000000E+00 
    2.4999999999992020E-01     3.1250000000078260E-01     0.0000000000000000E+00 
    2.5000000000002198E-01     3.7500000000093209E-01     0.0000000000000000E+00 
    2.5000000000012390E-01     4.3750000000108180E-01     0.0000000000000000E+00 
    2.5000000000022571E-01     5.0000000000121769E-01     0.0000000000000000E+00 
    2.5000000000032763E-01     5.6250000000094724E-01     0.0000000000000000E+00 
    2.5000000000042938E-01     6.2500000000066314E-01     0.0000000000000000E+00 
    2.5000000000053119E-01     6.8750000000037925E-01     0.0000000000000000E+00 
[...]
CELL_DATA 256 
SCALARS Pressure double 1 
LOOKUP_TABLE default 

    8.0782796138174040E-01 
    7.5648960291431422E-01 
    7.2227832338561493E-01 
    6.9029998888951982E-01 
    6.5749129784971594E-01 
    6.2297385687107676E-01 
    5.8653664476676814E-01 
    5.4830591101006265E-01 
    5.0863542595672895E-01 
    4.6814361020605944E-01 
    4.2785434516226106E-01 
    3.8941586746900592E-01 
    3.5526315824713423E-01 
    3.2838608502244543E-01 
    3.0985873258353364E-01 
    3.0128549146375100E-01 
    7.9379591860931997E-01 
    7.5783442683583779E-01 
    7.2483782228998273E-01 
    6.9319217790331622E-01 
    6.6063920143018873E-01 
    6.2635597374107121E-01 
    5.9012487688300552E-01 
    5.5205272024958396E-01 
    5.1246331026149483E-01 
    4.7192870772355600E-01 
    4.3140557000094809E-01 
    3.9246011897024957E-01 
    3.5747600693581294E-01 
    3.2954415187054320E-01 
    3.1010224661748081E-01 
    3.0088907777316265E-01 
    7.8288463667050501E-01 
    7.5694180661055388E-01 
    7.2655583041050720E-01 
    6.9568851735369031E-01 
    6.6354436934588268E-01 
    6.2955853498788539E-01 
    5.9356133273825518E-01 
    5.5565408491822277E-01 
    5.1612819977724500E-01 
    4.7549893395853926E-01 
    4.3463954676505190E-01 
    3.9501580676158771E-01 
    3.5895429971001402E-01 
    3.2967265449288619E-01 
    3.0919681575674474E-01 
    2.9946232658089189E-01 
    7.7416851763086880E-01 
    7.5488783874069532E-01 
    7.2749862651775499E-01 
    6.9777291750783332E-01 
    6.6619811798352169E-01 
    6.3258146355254052E-01 
    5.9685194616119264E-01 
    5.5912236557182593E-01 
    5.1965276283057049E-01 
    4.7889282320444321E-01 
    4.3761576538604258E-01 
    3.9716274242609478E-01 
    3.5978070288057479E-01 
    3.2881782815983257E-01 
    3.0706454801048599E-01 
    2.9677645781410511E-01 
    7.6710520371295332E-01 
    7.5231053848795226E-01 
    7.2782375848464886E-01 
    6.9946609847704555E-01 
    6.6860354588831661E-01 
    6.3543045011511889E-01 
    6.0000700832026144E-01 
    5.6247327557238891E-01 
    5.2306180415988124E-01 
    4.8215079821290341E-01 
    4.4039710451205638E-01 
    3.9898822433685349E-01 
    3.6005083240404495E-01 
    3.2704242499016339E-01 
    3.0362852829380860E-01 
    2.9258251591590184E-01 
    7.6131870480868158E-01 
    7.4958100142750339E-01 
    7.2770063506979654E-01 
    7.0081467412165521E-01 
    6.7077564708261905E-01 
    6.3811589500133548E-01 
    6.0303957153564169E-01 
    5.6572459556178645E-01 
    5.2638111051220193E-01 
    4.8531384763250696E-01 
    4.4304907514610248E-01 
    4.0058780779073450E-01 
    3.5987540620664771E-01 
    3.2441836176901084E-01 
    2.9880667057411470E-01 
    2.8661626379694949E-01 
    7.5654749283458023E-01 
    7.4691743028784352E-01 
    7.2728543186916761E-01 
    7.0188194752221322E-01 
    6.7274185102244299E-01 
    6.4065536040453430E-01 
    6.0596560769123198E-01 
    5.6889541501467333E-01 
    5.2963771123161019E-01 
    4.8842396990485692E-01 
    4.4564027485800639E-01 
    4.0206640276999356E-01 
    3.5938547700999285E-01 
    3.2104309559801647E-01 
    2.9251935588603800E-01 
    2.7856919933871693E-01 
    7.5260558815476852E-01 
    7.4444838822026649E-01 
    7.2671458336460115E-01 
    7.0274048123218846E-01 
    6.7454013840993821E-01 
    6.4307351077424979E-01 
    6.0880458736903109E-01 
    5.7200546957536436E-01 
    5.3285899717130869E-01 
    4.9152466527043198E-01 
    4.4824183800828676E-01 
    4.0353845852565823E-01 
    3.5873821134264211E-01 
    3.1705891263470365E-01 
    2.8473790943255273E-01 
    2.6813245078652959E-01 
    7.4935918751711850E-01 
    7.4224733980924296E-01 
    7.2610122620980422E-01 
    7.0346632071073323E-01 
    6.7621469083452446E-01 
    6.4539742124437527E-01 
    6.1157592483154233E-01 
    5.7507380526859864E-01 
    5.3607101464452489E-01 
    4.9465699229392118E-01 
    4.5092252915532927E-01 
    4.0512281278810863E-01 
    3.5811849205596835E-01 
    3.1265615453599410E-01 
    2.7545525538668225E-01 
    2.5493466534878367E-01 
    7.4671519781038020E-01 
    7.4035869444129887E-01 
    7.2553741728850640E-01 
    7.0413291574302972E-01 
    6.7781163118642662E-01 
    6.4765416477148952E-01 
    6.1429833019397484E-01 
    5.7811871103705570E-01 
    5.3929731634885403E-01 
    4.9785660872935683E-01 
    4.5374384425237174E-01 
    4.0693673207957104E-01 
    3.5773671867493290E-01 
    3.0809949325954977E-01 
    2.6472340165446900E-01 
    2.3846868609173316E-01 
    7.4460868640344169E-01 
    7.3881252094778627E-01 
    7.2509868786268772E-01 
    7.0480752236482180E-01 
    6.7937665659262858E-01 
    6.4987303475609248E-01 
    6.1699264467125770E-01 
    5.8115899306246277E-01 
    5.4256007040645338E-01 
    5.0115544413940327E-01 
    4.5676052614818347E-01 
    4.0909348963932868E-01 
    3.5782746159757484E-01 
    3.0376334633165053E-01 
    2.5276002454007140E-01 
    2.1812257067467608E-01 
    7.4298228568507096E-01 
    7.3762256803492510E-01 
    7.2484290339003610E-01 
    7.0554896128021494E-01 
    6.8095508221507273E-01 
    6.5208714932145939E-01 
    6.1968409374115552E-01 
    5.8421554275330378E-01 
    5.4588028736978655E-01 
    5.0458023264882046E-01 
    4.6001550339798802E-01 
    4.1169142547552007E-01 
    3.5863834420279511E-01 
    3.0013222632803477E-01 
    2.3996482036679412E-01 
    1.9303421576232269E-01 
    7.4178517481232942E-01 
    7.3679198724025885E-01 
    7.2481527510524502E-01 
    7.0641173922461720E-01 
    6.8259330059025192E-01 
    6.5433096979539196E-01 
    6.2239799687364628E-01 
    5.8730794710184486E-01 
    5.4927634001856018E-01 
    5.0814905193311599E-01 
    4.6352842916281467E-01 
    4.1478848509799104E-01 
    3.6039346443303183E-01 
    2.9781105434604455E-01 
    2.2710155597325798E-01 
    1.6196738821587464E-01 
    7.4095532935239772E-01 
    7.3631620350492877E-01 
    7.2505630159256751E-01 
    7.0744804324626509E-01 
    6.8433594220173410E-01 
    6.5662519947837006E-01 
    6.2512068967916845E-01 
    5.9038993675413787E-01 
    5.5266088822544779E-01 
    5.1174105194234965E-01 
    4.6715559960629832E-01 
    4.1821871761204116E-01 
    3.6307103636284122E-01 
    2.9734445417295902E-01 
    2.1542582612363484E-01 
    1.2298043911616534E-01 
    7.4037606683338963E-01 
    7.3606419591613736E-01 
    7.2545822588701381E-01 
    7.0858036213571229E-01 
    6.8612829628369754E-01 
    6.5893784373044872E-01 
    6.2783546500251886E-01 
    5.9344910699342024E-01 
    5.5601945997319824E-01 
    5.1536187369212239E-01 
    4.7099654887710879E-01 
    4.2217407444990585E-01 
    3.6687902747715340E-01 
    2.9936808049941976E-01 
    2.0674795835134177E-01 
    7.1796118390807795E-02 
    7.4018674515087313E-01 
    7.3622015494434545E-01 
    7.2621454054735601E-01 
    7.0998996865737707E-01 
    6.8813693930404163E-01 
    6.6144699057900025E-01 
    6.3074713127163551E-01 
    5.9670269231548700E-01 
    5.5958500425453250E-01 
    5.1924223024951843E-01 
    4.7523085374697549E-01 
    4.2678774271123754E-01 
    3.7194767457451633E-01 
    3.0486104287811139E-01 
    2.0708334801182227E-01 
    0.0000000000000000E+00 

SCALARS Saturarion double 1 
LOOKUP_TABLE default 

    1.0000000000166911E+00 
    9.6268112747924883E-01 
    8.8641198794925424E-01 
    8.2247049672675521E-01 
    7.7052855022026367E-01 
    7.2682082736709097E-01 
    6.8905991135156541E-01 
    6.5598718610273921E-01 
    6.2644934232673610E-01 
    5.9949805466934147E-01 
    5.7414138244249902E-01 
    5.4874315845885702E-01 
    5.2082763977365487E-01 
    4.8555136898214829E-01 
    3.5013198748875174E-01 
    1.1149204560707426E-02 
    9.8622331483935421E-01 
    9.5372954900381179E-01 
    8.8374284975164985E-01 
    8.2097237117459798E-01 
    7.6932354504704858E-01 
    7.2563972942044119E-01 
    6.8788012792808639E-01 
    6.5485879833247884E-01 
    6.2553241648311309E-01 
    5.9890154403385687E-01 
    5.7404454142070693E-01 
    5.4937192482160935E-01 
    5.2235961150856158E-01 
    4.8812176194391499E-01 
    3.6739957983108568E-01 
    2.1433681276596742E-02 
    9.5835553031248688E-01 
    9.3230397035888413E-01 
    8.7414635778076222E-01 
    8.1449795762398780E-01 
    7.6423345420581623E-01 
    7.2163446029409750E-01 
    6.8479770177827781E-01 
    6.5240554116742455E-01 
    6.2360287499432643E-01 
    5.9748900332558375E-01 
    5.7321864284640123E-01 
    5.4931480723900283E-01 
    5.2351643849441387E-01 
    4.9160657808702374E-01 
    3.9030828010440577E-01 
    4.0000036801212793E-02 
    9.2774412426330910E-01 
    9.0526954771524171E-01 
    8.5714092819724019E-01 
    8.0394744467705670E-01 
    7.5586192165209631E-01 
    7.1494975497322222E-01 
    6.7959864787707924E-01 
    6.4851623277598902E-01 
    6.2065576038882952E-01 
    5.9539052493259115E-01 
    5.7180679167557846E-01 
    5.4879576116976514E-01 
    5.2451187264378385E-01 
    4.9477139667066100E-01 
    4.0960785850646758E-01 
    6.7647211994115969E-02 
    8.9376235917894697E-01 
    8.7492658217748009E-01 
    8.3407124738369964E-01 
    7.8700944165471032E-01 
    7.4298422602281300E-01 
    7.0458795497964577E-01 
    6.7128908965647749E-01 
    6.4188475132820555E-01 
    6.1547230169647260E-01 
    5.9144039579546492E-01 
    5.6926038126706935E-01 
    5.4785435289342210E-01 
    5.2517235766748915E-01 
    4.9789339561517332E-01 
    4.3099926135453714E-01 
    9.6875134600582585E-02 
    8.5672138076866522E-01 
    8.4183664003946479E-01 
    8.0726532457357070E-01 
    7.6590439122232057E-01 
    7.2600172175687727E-01 
    6.9044777287234882E-01 
    6.5931830327192076E-01 
    6.3191670664551547E-01 
    6.0726447870813327E-01 
    5.8476015400439019E-01 
    5.6417178350423591E-01 
    5.4518117139432620E-01 
    5.2548601153189611E-01 
    5.0048568379311009E-01 
    4.4371253663479482E-01 
    1.2891186503038171E-01 
    8.1700262874495921E-01 
    8.0640333422098320E-01 
    7.7812721980804789E-01 
    7.4182314430735952E-01 
    7.0631437950963405E-01 
    6.7432916155716005E-01 
    6.4599037234842482E-01 
    6.2016379360111107E-01 
    5.9675073084810770E-01 
    5.7581489869800140E-01 
    5.5727926053059518E-01 
    5.4057112602395307E-01 
    5.2429620287334777E-01 
    5.0301931563586622E-01 
    4.5660023604043282E-01 
    1.6200520664764767E-01 
    7.7458525794043642E-01 
    7.6840810759856260E-01 
    7.4697211493609839E-01 
    7.1631866503840580E-01 
    6.8469373171057868E-01 
    6.5595558650655672E-01 
    6.2984744409202464E-01 
    6.0599445507642069E-01 
    5.8445858262731532E-01 
    5.6545260557955723E-01 
    5.4875992162336551E-01 
    5.3426245044601373E-01 
    5.2115593542300709E-01 
    5.0468346926135321E-01 
    4.6683834338266822E-01 
    2.0342309152418631E-01 
    7.2989613824049215E-01 
    7.2773079163237264E-01 
    7.1288141340464672E-01 
    6.8840777983991208E-01 
    6.6155670631666941E-01 
    6.3536561896313715E-01 
    6.1091359189933070E-01 
    5.8864074303834224E-01 
    5.6886895755892564E-01 
    5.5167285158844981E-01 
    5.3727413992747675E-01 
    5.2571474820780739E-01 
    5.1597695774023944E-01 
    5.0448472579789805E-01 
    4.7411491334314959E-01 
    2.3693175776372660E-01 
    6.8369524348895472E-01 
    6.8501369634761133E-01 
    6.7625814591619238E-01 
    6.5756609613851869E-01 
    6.3498025795202784E-01 
    6.1154453093055339E-01 
    5.8890320886270675E-01 
    5.6841828488452040E-01 
    5.5025028676690280E-01 
    5.3451327069287835E-01 
    5.2176838662422842E-01 
    5.1292217627947734E-01 
    5.0776057042802858E-01 
    5.0201242812524105E-01 
    4.7934344944445489E-01 
    2.6436508610084997E-01 
    6.3603591456835162E-01 
    6.4036941226907862E-01 
    6.3677546688698761E-01 
    6.2270510831466419E-01 
    6.0384115368505087E-01 
    5.8359801478341455E-01 
    5.6401890504936070E-01 
    5.4576178132739273E-01 
    5.2924292247103022E-01 
    5.1481464086146711E-01 
    5.0349839646900618E-01 
    4.9642551125167345E-01 
    4.9493408186919469E-01 
    4.9641714812682580E-01 
    4.8421173039076854E-01 
    2.9722653654967734E-01 
    5.8313557190862497E-01 
    5.9053512463251090E-01 
    5.9209570344430285E-01 
    5.8253041706873854E-01 
    5.6724353045374754E-01 
    5.5023576576242061E-01 
    5.3344775868873340E-01 
    5.1822743655700843E-01 
    5.0422720980226687E-01 
    4.9125182440986376E-01 
    4.8105867665219598E-01 
    4.7564686975427356E-01 
    4.7647730238778052E-01 
    4.8507284962296221E-01 
    4.8430678541084643E-01 
    3.2290942034022913E-01 
    5.2385459457145256E-01 
    5.3400440403541682E-01 
    5.4027939079139320E-01 
    5.3556935734420397E-01 
    5.2457842558434065E-01 
    5.1013772646460542E-01 
    4.9554310891172249E-01 
    4.8196297024720397E-01 
    4.6953442468865225E-01 
    4.5845195986278059E-01 
    4.4896575419723017E-01 
    4.4422485104483461E-01 
    4.4817387288028854E-01 
    4.6468354685391589E-01 
    4.7915411659390972E-01 
    3.5160015287704754E-01 
    4.3807660318273794E-01 
    4.6224961343857540E-01 
    4.7626748343728448E-01 
    4.7775668793020670E-01 
    4.6870332753670052E-01 
    4.5634453228381933E-01 
    4.3409954767083481E-01 
    4.0310512705168527E-01 
    3.6424811141163260E-01 
    3.0001632858626126E-01 
    2.4530656569160869E-01 
    2.6325292946164897E-01 
    3.1067840229861404E-01 
    3.9889275625935683E-01 
    4.6234637623008412E-01 
    3.6952049627609324E-01 
    7.4440580961581418E-02 
    1.6084313727220817E-01 
    1.9910162583584848E-01 
    2.1982677187990757E-01 
    1.9608857109319172E-01 
    1.5182124009604250E-01 
    8.8524491525881321E-02 
    4.2970969636104098E-02 
    2.2512508232834565E-02 
    5.2488549377824531E-03 
    1.4546135633420197E-03 
    2.3165561927619826E-03 
    1.9235221812522442E-02 
    1.3101600786603229E-01 
    3.6470880606565853E-01 
    3.7777930442971808E-01 
    1.0424239005856962E-06 
    2.5126452578501645E-04 
    1.1956744445995814E-05 
    2.2051488827680305E-06 
    1.0766654165950785E-04 
    2.5086183918069928E-05 
    3.4860219248701702E-05 
    2.4267951799978355E-06 
    2.6788580442652782E-06 
    1.5551625626680268E-06 
    1.0164846510647767E-06 
    1.1424456225722247E-06 
    1.1336523164776631E-04 
    1.6315817414827209E-03 
    2.0191132579412038E-01 
    3.3684764082573343E-01 
