# vtk DataFile Version 2.0
Pressure Field Data 
ASCII 
DATASET UNSTRUCTURED_GRID 

POINTS 289 double 

    0.0000000000000000E+00     0.0000000000000000E+00     0.0000000000000000E+00 
    1.0000000000000000E+00     0.0000000000000000E+00     0.0000000000000000E+00 
    1.0000000000000000E+00     1.0000000000000000E+00     0.0000000000000000E+00 
    0.0000000000000000E+00     1.0000000000000000E+00     0.0000000000000000E+00 
    6.2499999999872928E-02     0.0000000000000000E+00     0.0000000000000000E+00 
    1.2499999999977310E-01     0.0000000000000000E+00     0.0000000000000000E+00 
    1.8749999999959341E-01     0.0000000000000000E+00     0.0000000000000000E+00 
    2.4999999999941089E-01     0.0000000000000000E+00     0.0000000000000000E+00 
    3.1249999999922851E-01     0.0000000000000000E+00     0.0000000000000000E+00 
    3.7499999999904610E-01     0.0000000000000000E+00     0.0000000000000000E+00 
    4.3749999999886358E-01     0.0000000000000000E+00     0.0000000000000000E+00 
    4.9999999999869210E-01     0.0000000000000000E+00     0.0000000000000000E+00 
    5.6249999999884603E-01     0.0000000000000000E+00     0.0000000000000000E+00 
    6.2499999999901090E-01     0.0000000000000000E+00     0.0000000000000000E+00 
    6.8749999999917577E-01     0.0000000000000000E+00     0.0000000000000000E+00 
    7.4999999999934064E-01     0.0000000000000000E+00     0.0000000000000000E+00 
    8.1249999999950551E-01     0.0000000000000000E+00     0.0000000000000000E+00 
    8.7499999999967026E-01     0.0000000000000000E+00     0.0000000000000000E+00 
    9.3749999999983513E-01     0.0000000000000000E+00     0.0000000000000000E+00 
    1.0000000000000000E+00     6.2499999999872928E-02     0.0000000000000000E+00 
    1.0000000000000000E+00     1.2499999999977310E-01     0.0000000000000000E+00 
    1.0000000000000000E+00     1.8749999999959341E-01     0.0000000000000000E+00 
    1.0000000000000000E+00     2.4999999999941089E-01     0.0000000000000000E+00 
    1.0000000000000000E+00     3.1249999999922851E-01     0.0000000000000000E+00 
    1.0000000000000000E+00     3.7499999999904610E-01     0.0000000000000000E+00 
    1.0000000000000000E+00     4.3749999999886358E-01     0.0000000000000000E+00 
    1.0000000000000000E+00     4.9999999999869210E-01     0.0000000000000000E+00 
    1.0000000000000000E+00     5.6249999999884603E-01     0.0000000000000000E+00 
    1.0000000000000000E+00     6.2499999999901090E-01     0.0000000000000000E+00 
    1.0000000000000000E+00     6.8749999999917577E-01     0.0000000000000000E+00 
    1.0000000000000000E+00     7.4999999999934064E-01     0.0000000000000000E+00 
    1.0000000000000000E+00     8.1249999999950551E-01     0.0000000000000000E+00 
    1.0000000000000000E+00     8.7499999999967026E-01     0.0000000000000000E+00 
    1.0000000000000000E+00     9.3749999999983513E-01     0.0000000000000000E+00 
    9.3749999999973976E-01     1.0000000000000000E+00     0.0000000000000000E+00 
    8.7499999999950118E-01     1.0000000000000000E+00     0.0000000000000000E+00 
    8.1249999999991318E-01     1.0000000000000000E+00     0.0000000000000000E+00 
    7.5000000000034706E-01     1.0000000000000000E+00     0.0000000000000000E+00 
    6.8750000000078049E-01     1.0000000000000000E+00     0.0000000000000000E+00 
    6.2500000000121403E-01     1.0000000000000000E+00     0.0000000000000000E+00 
    5.6250000000164757E-01     1.0000000000000000E+00     0.0000000000000000E+00 
    5.0000000000205946E-01     1.0000000000000000E+00     0.0000000000000000E+00 
    4.3750000000182099E-01     1.0000000000000000E+00     0.0000000000000000E+00 
    3.7500000000156092E-01     1.0000000000000000E+00     0.0000000000000000E+00 
    3.1250000000130068E-01     1.0000000000000000E+00     0.0000000000000000E+00 
    2.5000000000104050E-01     1.0000000000000000E+00     0.0000000000000000E+00 
    1.8750000000078040E-01     1.0000000000000000E+00     0.0000000000000000E+00 
    1.2500000000052031E-01     1.0000000000000000E+00     0.0000000000000000E+00 
    6.2500000000260125E-02     1.0000000000000000E+00     0.0000000000000000E+00 
    0.0000000000000000E+00     9.3749999999973976E-01     0.0000000000000000E+00 
    0.0000000000000000E+00     8.7499999999950118E-01     0.0000000000000000E+00 
    0.0000000000000000E+00     8.1249999999991318E-01     0.0000000000000000E+00 
    0.0000000000000000E+00     7.5000000000034706E-01     0.0000000000000000E+00 
    0.0000000000000000E+00     6.8750000000078049E-01     0.0000000000000000E+00 
    0.0000000000000000E+00     6.2500000000121403E-01     0.0000000000000000E+00 
    0.0000000000000000E+00     5.6250000000164757E-01     0.0000000000000000E+00 
    0.0000000000000000E+00     5.0000000000205946E-01     0.0000000000000000E+00 
    0.0000000000000000E+00     4.3750000000182099E-01     0.0000000000000000E+00 
    0.0000000000000000E+00     3.7500000000156092E-01     0.0000000000000000E+00 
    0.0000000000000000E+00     3.1250000000130068E-01     0.0000000000000000E+00 
    0.0000000000000000E+00     2.5000000000104050E-01     0.0000000000000000E+00 
    0.0000000000000000E+00     1.8750000000078040E-01     0.0000000000000000E+00 
    0.0000000000000000E+00     1.2500000000052031E-01     0.0000000000000000E+00 
    0.0000000000000000E+00     6.2500000000260125E-02     0.0000000000000000E+00 
    6.2499999999897131E-02     6.2500000000235922E-02     0.0000000000000000E+00 
    6.2499999999921327E-02     1.2500000000047351E-01     0.0000000000000000E+00 
    6.2499999999945530E-02     1.8750000000070621E-01     0.0000000000000000E+00 
    6.2499999999969733E-02     2.5000000000093858E-01     0.0000000000000000E+00 
    6.2499999999993928E-02     3.1250000000117117E-01     0.0000000000000000E+00 
    6.2500000000018124E-02     3.7500000000140382E-01     0.0000000000000000E+00 
    6.2500000000042327E-02     4.3750000000163619E-01     0.0000000000000000E+00 
    6.2500000000066530E-02     5.0000000000184897E-01     0.0000000000000000E+00 
    6.2500000000090733E-02     5.6250000000147260E-01     0.0000000000000000E+00 
    6.2500000000114922E-02     6.2500000000107636E-01     0.0000000000000000E+00 
    6.2500000000139125E-02     6.8750000000068034E-01     0.0000000000000000E+00 
    6.2500000000163328E-02     7.5000000000028411E-01     0.0000000000000000E+00 
    6.2500000000187531E-02     8.1249999999988787E-01     0.0000000000000000E+00 
    6.2500000000211720E-02     8.7499999999951172E-01     0.0000000000000000E+00 
    6.2500000000235922E-02     9.3749999999974565E-01     0.0000000000000000E+00 
    1.2499999999981980E-01     6.2500000000211733E-02     0.0000000000000000E+00 
    1.2499999999986650E-01     1.2500000000042691E-01     0.0000000000000000E+00 
    1.2499999999991319E-01     1.8750000000063199E-01     0.0000000000000000E+00 
    1.2499999999995989E-01     2.5000000000083678E-01     0.0000000000000000E+00 
    1.2500000000000661E-01     3.1250000000104172E-01     0.0000000000000000E+00 
    1.2500000000005329E-01     3.7500000000124661E-01     0.0000000000000000E+00 
    1.2500000000010000E-01     4.3750000000145117E-01     0.0000000000000000E+00 
    1.2500000000014669E-01     5.0000000000163858E-01     0.0000000000000000E+00 
    1.2500000000019340E-01     5.6250000000129741E-01     0.0000000000000000E+00 
    1.2500000000024011E-01     6.2500000000093847E-01     0.0000000000000000E+00 
    1.2500000000028680E-01     6.8750000000057998E-01     0.0000000000000000E+00 
    1.2500000000033351E-01     7.5000000000022127E-01     0.0000000000000000E+00 
    1.2500000000038020E-01     8.1249999999986211E-01     0.0000000000000000E+00 
    1.2500000000042691E-01     8.7499999999952238E-01     0.0000000000000000E+00 
    1.2500000000047359E-01     9.3749999999975164E-01     0.0000000000000000E+00 
    1.8749999999966760E-01     6.2500000000187531E-02     0.0000000000000000E+00 
    1.8749999999974179E-01     1.2500000000038020E-01     0.0000000000000000E+00 
    1.8749999999981601E-01     1.8750000000055780E-01     0.0000000000000000E+00 
    1.8749999999989009E-01     2.5000000000073502E-01     0.0000000000000000E+00 
    1.8749999999996431E-01     3.1250000000091221E-01     0.0000000000000000E+00 
    1.8750000000003850E-01     3.7500000000108941E-01     0.0000000000000000E+00 
    1.8750000000011269E-01     4.3750000000126649E-01     0.0000000000000000E+00 
    1.8750000000018691E-01     5.0000000000142808E-01     0.0000000000000000E+00 
    1.8750000000026110E-01     5.6250000000112244E-01     0.0000000000000000E+00 
    1.8750000000033529E-01     6.2500000000080080E-01     0.0000000000000000E+00 
    1.8750000000040951E-01     6.8750000000047962E-01     0.0000000000000000E+00 
    1.8750000000048361E-01     7.5000000000015843E-01     0.0000000000000000E+00 
    1.8750000000055780E-01     8.1249999999983680E-01     0.0000000000000000E+00 
    1.8750000000063199E-01     8.7499999999953304E-01     0.0000000000000000E+00 
    1.8750000000070621E-01     9.3749999999975764E-01     0.0000000000000000E+00 
    2.4999999999951281E-01     6.2500000000163314E-02     0.0000000000000000E+00 
    2.4999999999961461E-01     1.2500000000033351E-01     0.0000000000000000E+00 
    2.4999999999971650E-01     1.8750000000048361E-01     0.0000000000000000E+00 
    2.4999999999981831E-01     2.5000000000063310E-01     0.0000000000000000E+00 
    2.4999999999992020E-01     3.1250000000078260E-01     0.0000000000000000E+00 
    2.5000000000002198E-01     3.7500000000093209E-01     0.0000000000000000E+00 
    2.5000000000012390E-01     4.3750000000108180E-01     0.0000000000000000E+00 
    2.5000000000022571E-01     5.0000000000121769E-01     0.0000000000000000E+00 
    2.5000000000032763E-01     5.6250000000094724E-01     0.0000000000000000E+00 
    2.5000000000042938E-01     6.2500000000066314E-01     0.0000000000000000E+00 
    2.5000000000053119E-01     6.8750000000037925E-01     0.0000000000000000E+00 
[...]
CELL_DATA 256 
SCALARS Pressure double 1 
LOOKUP_TABLE default 

    6.8518872359648508E-01 
    6.3526453016234730E-01 
    6.0326783890895186E-01 
    5.7425210369838664E-01 
    5.4498953571910347E-01 
    5.1453240538600542E-01 
    4.8263050598129698E-01 
    4.4935699471238705E-01 
    4.1499347476790732E-01 
    3.8005027090906618E-01 
    3.4537260027686284E-01 
    3.1233021908504538E-01 
    2.8296020679970019E-01 
    2.5978138900997283E-01 
    2.4496017556779226E-01 
    2.3783609640821188E-01 
    6.7115962824304765E-01 
    6.3648608838951715E-01 
    6.0562147239112041E-01 
    5.7686390926177911E-01 
    5.4779813237170027E-01 
    5.1752360049138657E-01 
    4.8578068132870683E-01 
    4.5262580316949774E-01 
    4.1831626028436414E-01 
    3.8332485982422199E-01 
    3.4844208632015400E-01 
    3.1496930501868581E-01 
    2.8489776651644277E-01 
    2.6080068952444013E-01 
    2.4509408538996164E-01 
    2.3741761284518775E-01 
    6.6030509265198456E-01 
    6.3553237912529392E-01 
    6.0718966100226845E-01 
    5.7912778649792385E-01 
    5.5040704768142990E-01 
    5.2037596346425863E-01 
    4.8881724943404753E-01 
    4.5578482918290913E-01 
    4.2151187045149324E-01 
    3.8642643721551023E-01 
    3.5125212479541573E-01 
    3.1720780651133257E-01 
    2.8623556556237650E-01 
    2.6099892682927106E-01 
    2.4425582857398045E-01 
    2.3607264759356308E-01 
    6.5170780340880197E-01 
    6.3347642870876830E-01 
    6.0803493903596373E-01 
    5.8102635727525331E-01 
    5.5280606349118544E-01 
    5.2308737536682093E-01 
    4.9174406394253506E-01 
    4.5884409354221128E-01 
    4.2459949548492115E-01 
    3.8938785113599872E-01 
    3.5385294002462236E-01 
    3.1911203227752788E-01 
    2.8704109695603014E-01 
    2.6040829240807584E-01 
    2.4240172534358018E-01 
    2.3366717979059115E-01 
    6.4480587407294387E-01 
    6.3094754936727215E-01 
    6.0830919165293917E-01 
    5.8257729423163751E-01 
    5.5499550503087713E-01 
    5.2565980604813167E-01 
    4.9456749330598393E-01 
    4.6181561471933241E-01 
    4.2759989492149508E-01 
    3.9224378073241079E-01 
    3.5629802946589578E-01 
    3.2075453660689451E-01 
    2.8739133355927327E-01 
    2.5906858743276390E-01 
    2.3948289305921702E-01 
    2.3005562532181556E-01 
    6.3920913303427429E-01 
    6.2830784141450502E-01 
    6.0817585716311340E-01 
    5.8382250750707954E-01 
    5.5698620686721922E-01 
    5.2809892849658036E-01 
    4.9729562045110814E-01 
    4.6471281588938207E-01 
    4.3053476942785651E-01 
    3.9502950091369909E-01 
    3.5864275581690819E-01 
    3.2221395427302651E-01 
    2.8737491741703330E-01 
    2.5703332373188209E-01 
    2.3544861741711587E-01 
    2.2506439716517715E-01 
    6.3464353737042456E-01 
    6.2576483659719973E-01 
    6.0778382293910937E-01 
    5.8481871932290030E-01 
    5.5879945035436718E-01 
    5.3041624912462548E-01 
    4.9993907776833585E-01 
    4.6755059884501055E-01 
    4.3342690562622532E-01 
    3.9778052205828612E-01 
    3.6094405490527809E-01 
    3.2357561861596001E-01 
    2.8709671528256042E-01 
    2.5437905767952301E-01 
    2.3025540099096525E-01 
    2.1849295415007483E-01 
    6.3091332037215342E-01 
    6.2343596670407053E-01 
    6.0726013616580266E-01 
    5.8562991716403046E-01 
    5.6046511856558379E-01 
    5.3262951071003806E-01 
    5.0251246369845770E-01 
    4.7034507216829818E-01 
    4.3629868645171133E-01 
    4.0053201961791013E-01 
    3.6325995691313206E-01 
    3.2493243961148083E-01 
    2.8668316953242545E-01 
    2.5121517918411929E-01 
    2.2387928850026273E-01 
    2.1011319208686141E-01 
    6.2787579643256941E-01 
    6.2138377024304281E-01 
    6.0670709517989629E-01 
    5.8632171679963596E-01 
    5.6201863466375890E-01 
    5.3476026433221147E-01 
    5.0503235158271764E-01 
    4.7311227838832914E-01 
    4.3917035720185371E-01 
    4.0331587359315041E-01 
    3.6564619029871565E-01 
    3.2638181651152276E-01 
    2.8628416266519913E-01 
    2.4769762481503893E-01 
    2.1632409932292371E-01 
    1.9964037624558453E-01 
    6.2542676670027031E-01 
    6.1963981496596754E-01 
    6.0620430220359645E-01 
    5.8695651021716477E-01 
    5.6349867863796788E-01 
    5.3683248793821225E-01 
    5.0751582394303629E-01 
    4.7586739886139667E-01 
    4.4205973878882432E-01 
    4.0615941866539446E-01 
    3.6815296101402856E-01 
    3.2802103147592615E-01 
    2.8607087505158846E-01 
    2.4404305003548063E-01 
    2.0763424813691006E-01 
    1.8666363386449661E-01 
    6.2349030846476461E-01 
    6.1822056409499049E-01 
    6.0581526757114579E-01 
    5.8759293811221514E-01 
    5.6494618116287776E-01 
    5.3887285014356878E-01 
    5.0998037557747644E-01 
    4.7862470757917130E-01 
    4.4498330827729954E-01 
    4.0908677164826768E-01 
    3.7082425514099088E-01 
    3.2994306933162043E-01 
    2.8623165978525617E-01 
    2.4054269296938904E-01 
    1.9796095525201893E-01 
    1.7068232581669968E-01 
    6.2200917666304378E-01 
    6.1713532091000822E-01 
    6.0559283353549320E-01 
    5.8828559139877490E-01 
    5.6640196948073995E-01 
    5.4090904169447762E-01 
    5.1244464639843490E-01 
    4.8139888645342482E-01 
    4.4795696419052883E-01 
    4.1211920019053055E-01 
    3.7369594952913765E-01 
    3.3223030886942817E-01 
    2.8696694264233014E-01 
    2.3757739144370535E-01 
    1.8760383548238405E-01 
    1.5099916096562366E-01 
    6.2093386065309464E-01 
    6.1638546236735037E-01 
    6.0557843158550995E-01 
    5.8908244666379950E-01 
    5.6790370704163751E-01 
    5.4296815283870026E-01 
    5.1492880131374075E-01 
    4.8420619503309792E-01 
    4.5099596570696227E-01 
    4.1527401702676098E-01 
    3.7679340535088884E-01 
    3.3494486212279767E-01 
    2.8847036122342712E-01 
    2.3563148924795374E-01 
    1.7714433978353783E-01 
    1.2655363961248686E-01 
    6.2021994165741168E-01 
    6.1596719354074814E-01 
    6.0580461348137948E-01 
    5.9002606229522259E-01 
    5.6948661344316964E-01 
    5.4507686288468338E-01 
    5.1745403267220147E-01 
    4.8706355761349290E-01 
    4.5411417522479136E-01 
    4.1856397580903570E-01 
    3.8013100147539353E-01 
    3.3811952330896466E-01 
    2.9089221127588144E-01 
    2.3528070933887182E-01 
    1.6770546994537891E-01 
    9.5810969984973321E-02 
    6.1977039283433188E-01 
    6.1583531467982777E-01 
    6.0627657476356733E-01 
    5.9113941900103828E-01 
    5.7117014700772717E-01 
    5.4723944176218420E-01 
    5.2000623241092980E-01 
    4.8994052488106427E-01 
    4.5726296328508959E-01 
    4.2192407814346905E-01 
    3.8361671257950675E-01 
    3.4162050321260656E-01 
    2.9415335111277818E-01 
    2.3694778536153632E-01 
    1.6115353628526533E-01 
    5.6047083150987748E-02 
    6.1961723647586842E-01 
    6.1602185532373732E-01 
    6.0702538444742604E-01 
    5.9246010833180840E-01 
    5.7299630671987467E-01 
    5.4949401104791973E-01 
    5.2261180549733788E-01 
    4.9285187831017785E-01 
    4.6044786809238969E-01 
    4.2536685036793054E-01 
    3.8730421317515362E-01 
    3.4556749145696342E-01 
    2.9846317538006295E-01 
    2.4115477459836934E-01 
    1.6084733744656207E-01 
    0.0000000000000000E+00 

SCALARS Saturarion double 1 
LOOKUP_TABLE default 

    1.0000000000635736E+00 
    9.7288310790507970E-01 
    9.1206914691856800E-01 
    8.5705764464129597E-01 
    8.1107542306103064E-01 
    7.7223131851918914E-01 
    7.3855054451715307E-01 
    7.0874447287928966E-01 
    6.8184350091847357E-01 
    6.5698492442165868E-01 
    6.3329636657610988E-01 
    6.0974268804351428E-01 
    5.8461078884179452E-01 
    5.5401736209206720E-01 
    5.0769938645536006E-01 
    2.5397598153728185E-01 
    9.9042423877034924E-01 
    9.6627649929690418E-01 
    9.1012074347947136E-01 
    8.5601216265841684E-01 
    8.1018590802909918E-01 
    7.7131068237000844E-01 
    7.3759191548310032E-01 
    7.0779152355710817E-01 
    6.8103360713215533E-01 
    6.5643120087099205E-01 
    6.3318917905456262E-01 
    6.1030303106845352E-01 
    5.8601217532162586E-01 
    5.5621092670953121E-01 
    5.1116682075322761E-01 
    2.8127104103004452E-01 
    9.7009020652708822E-01 
    9.4966111642850826E-01 
    9.0234786764717667E-01 
    8.5088966330566818E-01 
    8.0606326963624686E-01 
    7.6783294055515561E-01 
    7.3472624336274794E-01 
    7.0541984332223395E-01 
    6.7914105222688459E-01 
    6.5509449931079899E-01 
    6.3252596866059196E-01 
    6.1039279203617991E-01 
    5.8712284349278254E-01 
    5.5919077386440752E-01 
    5.1660822978022769E-01 
    3.0696582798701516E-01 
    9.4676989837580572E-01 
    9.2851538976611803E-01 
    8.8837477096799033E-01 
    8.4224959545119438E-01 
    7.9923655687777295E-01 
    7.6206141308353437E-01 
    7.2981145698981820E-01 
    7.0139527973839255E-01 
    6.7590225136371673E-01 
    6.5279314091881868E-01 
    6.3122566520538914E-01 
    6.1020219932237685E-01 
    5.8821993558872676E-01 
    5.6195400022753272E-01 
    5.2179527552616634E-01 
    3.3083119977657199E-01 
    9.2012323167231791E-01 
    9.0432612655011035E-01 
    8.6930506619559622E-01 
    8.2794614818982526E-01 
    7.8810690488633417E-01 
    7.5266271230534465E-01 
    7.2175012382446291E-01 
    6.9457609971135992E-01 
    6.7039029590713273E-01 
    6.4857584669527291E-01 
    6.2853028047207582E-01 
    6.0926082084777011E-01 
    5.8894261411415016E-01 
    5.6450286909756409E-01 
    5.2678341214369251E-01 
    3.4987853187797580E-01 
    8.9011270625380323E-01 
    8.7722210718645244E-01 
    8.4688551094139564E-01 
    8.0984140491288725E-01 
    7.7314818022115039E-01 
    7.3968118284520368E-01 
    7.1010467839017022E-01 
    6.8441403820525815E-01 
    6.6189529333753738E-01 
    6.4174073577308821E-01 
    6.2336495894942034E-01 
    6.0626502183545339E-01 
    5.8876944880055360E-01 
    5.6669313043697200E-01 
    5.3164827035858908E-01 
    3.6646986942094317E-01 
    8.5692330722135623E-01 
    8.4742306581374727E-01 
    8.2199989740613033E-01 
    7.8879664331929067E-01 
    7.5538995709396273E-01 
    7.2453629783953388E-01 
    6.9713328534583885E-01 
    6.7290915887106406E-01 
    6.5161111277189820E-01 
    6.3275594279677161E-01 
    6.1609864833771855E-01 
    6.0121204656036809E-01 
    5.8676482216248660E-01 
    5.6846180082488806E-01 
    5.3666173914804172E-01 
    3.8194788386316608E-01 
    8.2049421190394667E-01 
    8.1464229331781368E-01 
    7.9470309458049404E-01 
    7.6592148881845890E-01 
    7.3541247775701113E-01 
    7.0703936854500637E-01 
    6.8168231944581237E-01 
    6.5937353393527032E-01 
    6.3964518821461391E-01 
    6.2230889158027280E-01 
    6.0720204859633931E-01 
    5.9426865352493863E-01 
    5.8283496575820060E-01 
    5.6904848629196558E-01 
    5.4153083368152388E-01 
    3.9883972589286187E-01 
    7.8086535633861354E-01 
    7.7850696080029536E-01 
    7.6404146532196959E-01 
    7.4013385709062729E-01 
    7.1341665520271969E-01 
    6.8751591053537808E-01 
    6.6412817526892953E-01 
    6.4327558344781488E-01 
    6.2477248678853514E-01 
    6.0868174221817650E-01 
    5.9539637689391156E-01 
    5.8509894142295205E-01 
    5.7689810928794416E-01 
    5.6776812166533963E-01 
    5.4637316399855751E-01 
    4.1467836442609268E-01 
    7.3810970667943465E-01 
    7.3902394760731349E-01 
    7.2984639249474081E-01 
    7.1077211996756728E-01 
    6.8805394606062031E-01 
    6.6529570396088322E-01 
    6.4378771780559341E-01 
    6.2426385024935227E-01 
    6.0699820908493896E-01 
    5.9216567111893492E-01 
    5.8018438395944605E-01 
    5.7211433395588729E-01 
    5.6804552131630115E-01 
    5.6427011718105791E-01 
    5.4997728180710126E-01 
    4.2827661782665055E-01 
    6.9232388178430826E-01 
    6.9621019445195709E-01 
    6.9202828366040525E-01 
    6.7766799747944950E-01 
    6.5912114640074926E-01 
    6.3952108686606557E-01 
    6.2032644120323244E-01 
    6.0216216750474194E-01 
    5.8608904487147206E-01 
    5.7265120047566587E-01 
    5.6217775188973540E-01 
    5.5549179139626859E-01 
    5.5447014824959218E-01 
    5.5738816536012892E-01 
    5.5161294513254355E-01 
    4.4570355609341378E-01 
    6.4265355144456471E-01 
    6.4940435054865164E-01 
    6.5027094449551770E-01 
    6.4047161001867170E-01 
    6.2515330282723625E-01 
    6.0798263679876918E-01 
    5.9078494308701490E-01 
    5.7480673454065023E-01 
    5.6064718182860496E-01 
    5.4893095051789875E-01 
    5.4016507340942044E-01 
    5.3531352283456068E-01 
    5.3625087034361740E-01 
    5.4508226934172455E-01 
    5.4986141100968322E-01 
    4.5945411009374593E-01 
    5.8569899154781313E-01 
    5.9544158018295068E-01 
    6.0111304836093049E-01 
    5.9571885954062853E-01 
    5.8395225849572496E-01 
    5.6928731644840547E-01 
    5.5458512432060525E-01 
    5.4067736375495845E-01 
    5.2809524725441848E-01 
    5.1761878957879726E-01 
    5.1062812809561942E-01 
    5.0802737476675208E-01 
    5.1206125050662488E-01 
    5.2587380375330328E-01 
    5.4220678083516605E-01 
    4.7341750984251718E-01 
    5.1727235433074625E-01 
    5.3033377036405860E-01 
    5.4030740771542674E-01 
    5.3974354881913023E-01 
    5.3156985736422324E-01 
    5.1921083419482439E-01 
    5.0642667506541783E-01 
    4.9467102388150475E-01 
    4.8362543390637963E-01 
    4.7435204864978120E-01 
    4.6867894979632108E-01 
    4.6827364638690200E-01 
    4.7414766921352480E-01 
    4.9496563915793551E-01 
    5.2814302815198000E-01 
    4.8266192803046593E-01 
    3.5356212311418111E-01 
    4.0229454951457816E-01 
    4.3492499755119313E-01 
    4.4159897413885368E-01 
    4.3852249043187497E-01 
    4.2728926388494043E-01 
    4.0468484405833072E-01 
    3.7516351666057784E-01 
    3.3848259641015721E-01 
    2.9115699058630456E-01 
    2.5182266044523660E-01 
    2.4066087114636633E-01 
    2.8769082063833246E-01 
    3.8868326826171706E-01 
    4.8961646365441674E-01 
    4.8295958203765144E-01 
    6.4263980568911687E-03 
    3.1189021846876806E-02 
    6.0040017533947831E-02 
    7.2780942790067013E-02 
    5.2400064898508639E-02 
    4.3274023903064757E-02 
    2.6838019555844587E-02 
    1.3950087462887147E-02 
    6.5954064708306061E-03 
    1.4194868451919654E-03 
    1.6774509885884761E-03 
    7.6274808982784281E-04 
    6.4533862029820012E-03 
    6.8252653828491827E-02 
    3.0786962856500877E-01 
    4.4278218383378709E-01 
