# vtk DataFile Version 2.0
Pressure Field Data 
ASCII 
DATASET UNSTRUCTURED_GRID 

POINTS 289 double 

    0.0000000000000000E+00     0.0000000000000000E+00     0.0000000000000000E+00 
    1.0000000000000000E+00     0.0000000000000000E+00     0.0000000000000000E+00 
    1.0000000000000000E+00     1.0000000000000000E+00     0.0000000000000000E+00 
    0.0000000000000000E+00     1.0000000000000000E+00     0.0000000000000000E+00 
    6.2499999999872928E-02     0.0000000000000000E+00     0.0000000000000000E+00 
    1.2499999999977310E-01     0.0000000000000000E+00     0.0000000000000000E+00 
    1.8749999999959341E-01     0.0000000000000000E+00     0.0000000000000000E+00 
    2.4999999999941089E-01     0.0000000000000000E+00     0.0000000000000000E+00 
    3.1249999999922851E-01     0.0000000000000000E+00     0.0000000000000000E+00 
    3.7499999999904610E-01     0.0000000000000000E+00     0.0000000000000000E+00 
    4.3749999999886358E-01     0.0000000000000000E+00     0.0000000000000000E+00 
    4.9999999999869210E-01     0.0000000000000000E+00     0.0000000000000000E+00 
    5.6249999999884603E-01     0.0000000000000000E+00     0.0000000000000000E+00 
    6.2499999999901090E-01     0.0000000000000000E+00     0.0000000000000000E+00 
    6.8749999999917577E-01     0.0000000000000000E+00     0.0000000000000000E+00 
    7.4999999999934064E-01     0.0000000000000000E+00     0.0000000000000000E+00 
    8.1249999999950551E-01     0.0000000000000000E+00     0.0000000000000000E+00 
    8.7499999999967026E-01     0.0000000000000000E+00     0.0000000000000000E+00 
    9.3749999999983513E-01     0.0000000000000000E+00     0.0000000000000000E+00 
    1.0000000000000000E+00     6.2499999999872928E-02     0.0000000000000000E+00 
    1.0000000000000000E+00     1.2499999999977310E-01     0.0000000000000000E+00 
    1.0000000000000000E+00     1.8749999999959341E-01     0.0000000000000000E+00 
    1.0000000000000000E+00     2.4999999999941089E-01     0.0000000000000000E+00 
    1.0000000000000000E+00     3.1249999999922851E-01     0.0000000000000000E+00 
    1.0000000000000000E+00     3.7499999999904610E-01     0.0000000000000000E+00 
    1.0000000000000000E+00     4.3749999999886358E-01     0.0000000000000000E+00 
    1.0000000000000000E+00     4.9999999999869210E-01     0.0000000000000000E+00 
    1.0000000000000000E+00     5.6249999999884603E-01     0.0000000000000000E+00 
    1.0000000000000000E+00     6.2499999999901090E-01     0.0000000000000000E+00 
    1.0000000000000000E+00     6.8749999999917577E-01     0.0000000000000000E+00 
    1.0000000000000000E+00     7.4999999999934064E-01     0.0000000000000000E+00 
    1.0000000000000000E+00     8.1249999999950551E-01     0.0000000000000000E+00 
    1.0000000000000000E+00     8.7499999999967026E-01     0.0000000000000000E+00 
    1.0000000000000000E+00     9.3749999999983513E-01     0.0000000000000000E+00 
    9.3749999999973976E-01     1.0000000000000000E+00     0.0000000000000000E+00 
    8.7499999999950118E-01     1.0000000000000000E+00     0.0000000000000000E+00 
    8.1249999999991318E-01     1.0000000000000000E+00     0.0000000000000000E+00 
    7.5000000000034706E-01     1.0000000000000000E+00     0.0000000000000000E+00 
    6.8750000000078049E-01     1.0000000000000000E+00     0.0000000000000000E+00 
    6.2500000000121403E-01     1.0000000000000000E+00     0.0000000000000000E+00 
    5.6250000000164757E-01     1.0000000000000000E+00     0.0000000000000000E+00 
    5.0000000000205946E-01     1.0000000000000000E+00     0.0000000000000000E+00 
    4.3750000000182099E-01     1.0000000000000000E+00     0.0000000000000000E+00 
    3.7500000000156092E-01     1.0000000000000000E+00     0.0000000000000000E+00 
    3.1250000000130068E-01     1.0000000000000000E+00     0.0000000000000000E+00 
    2.5000000000104050E-01     1.0000000000000000E+00     0.0000000000000000E+00 
    1.8750000000078040E-01     1.0000000000000000E+00     0.0000000000000000E+00 
    1.2500000000052031E-01     1.0000000000000000E+00     0.0000000000000000E+00 
    6.2500000000260125E-02     1.0000000000000000E+00     0.0000000000000000E+00 
    0.0000000000000000E+00     9.3749999999973976E-01     0.0000000000000000E+00 
    0.0000000000000000E+00     8.7499999999950118E-01     0.0000000000000000E+00 
    0.0000000000000000E+00     8.1249999999991318E-01     0.0000000000000000E+00 
    0.0000000000000000E+00     7.5000000000034706E-01     0.0000000000000000E+00 
    0.0000000000000000E+00     6.8750000000078049E-01     0.0000000000000000E+00 
    0.0000000000000000E+00     6.2500000000121403E-01     0.0000000000000000E+00 
    0.0000000000000000E+00     5.6250000000164757E-01     0.0000000000000000E+00 
    0.0000000000000000E+00     5.0000000000205946E-01     0.0000000000000000E+00 
    0.0000000000000000E+00     4.3750000000182099E-01     0.0000000000000000E+00 
    0.0000000000000000E+00     3.7500000000156092E-01     0.0000000000000000E+00 
    0.0000000000000000E+00     3.1250000000130068E-01     0.0000000000000000E+00 
    0.0000000000000000E+00     2.5000000000104050E-01     0.0000000000000000E+00 
    0.0000000000000000E+00     1.8750000000078040E-01     0.0000000000000000E+00 
    0.0000000000000000E+00     1.2500000000052031E-01     0.0000000000000000E+00 
    0.0000000000000000E+00     6.2500000000260125E-02     0.0000000000000000E+00 
    6.2499999999897131E-02     6.2500000000235922E-02     0.0000000000000000E+00 
    6.2499999999921327E-02     1.2500000000047351E-01     0.0000000000000000E+00 
    6.2499999999945530E-02     1.8750000000070621E-01     0.0000000000000000E+00 
    6.2499999999969733E-02     2.5000000000093858E-01     0.0000000000000000E+00 
    6.2499999999993928E-02     3.1250000000117117E-01     0.0000000000000000E+00 
    6.2500000000018124E-02     3.7500000000140382E-01     0.0000000000000000E+00 
    6.2500000000042327E-02     4.3750000000163619E-01     0.0000000000000000E+00 
    6.2500000000066530E-02     5.0000000000184897E-01     0.0000000000000000E+00 
    6.2500000000090733E-02     5.6250000000147260E-01     0.0000000000000000E+00 
    6.2500000000114922E-02     6.2500000000107636E-01     0.0000000000000000E+00 
    6.2500000000139125E-02     6.8750000000068034E-01     0.0000000000000000E+00 
    6.2500000000163328E-02     7.5000000000028411E-01     0.0000000000000000E+00 
    6.2500000000187531E-02     8.1249999999988787E-01     0.0000000000000000E+00 
    6.2500000000211720E-02     8.7499999999951172E-01     0.0000000000000000E+00 
    6.2500000000235922E-02     9.3749999999974565E-01     0.0000000000000000E+00 
    1.2499999999981980E-01     6.2500000000211733E-02     0.0000000000000000E+00 
    1.2499999999986650E-01     1.2500000000042691E-01     0.0000000000000000E+00 
    1.2499999999991319E-01     1.8750000000063199E-01     0.0000000000000000E+00 
    1.2499999999995989E-01     2.5000000000083678E-01     0.0000000000000000E+00 
    1.2500000000000661E-01     3.1250000000104172E-01     0.0000000000000000E+00 
    1.2500000000005329E-01     3.7500000000124661E-01     0.0000000000000000E+00 
    1.2500000000010000E-01     4.3750000000145117E-01     0.0000000000000000E+00 
    1.2500000000014669E-01     5.0000000000163858E-01     0.0000000000000000E+00 
    1.2500000000019340E-01     5.6250000000129741E-01     0.0000000000000000E+00 
    1.2500000000024011E-01     6.2500000000093847E-01     0.0000000000000000E+00 
    1.2500000000028680E-01     6.8750000000057998E-01     0.0000000000000000E+00 
    1.2500000000033351E-01     7.5000000000022127E-01     0.0000000000000000E+00 
    1.2500000000038020E-01     8.1249999999986211E-01     0.0000000000000000E+00 
    1.2500000000042691E-01     8.7499999999952238E-01     0.0000000000000000E+00 
    1.2500000000047359E-01     9.3749999999975164E-01     0.0000000000000000E+00 
    1.8749999999966760E-01     6.2500000000187531E-02     0.0000000000000000E+00 
    1.8749999999974179E-01     1.2500000000038020E-01     0.0000000000000000E+00 
    1.8749999999981601E-01     1.8750000000055780E-01     0.0000000000000000E+00 
    1.8749999999989009E-01     2.5000000000073502E-01     0.0000000000000000E+00 
    1.8749999999996431E-01     3.1250000000091221E-01     0.0000000000000000E+00 
    1.8750000000003850E-01     3.7500000000108941E-01     0.0000000000000000E+00 
    1.8750000000011269E-01     4.3750000000126649E-01     0.0000000000000000E+00 
    1.8750000000018691E-01     5.0000000000142808E-01     0.0000000000000000E+00 
    1.8750000000026110E-01     5.6250000000112244E-01     0.0000000000000000E+00 
    1.8750000000033529E-01     6.2500000000080080E-01     0.0000000000000000E+00 
    1.8750000000040951E-01     6.8750000000047962E-01     0.0000000000000000E+00 
    1.8750000000048361E-01     7.5000000000015843E-01     0.0000000000000000E+00 
    1.8750000000055780E-01     8.1249999999983680E-01     0.0000000000000000E+00 
    1.8750000000063199E-01     8.7499999999953304E-01     0.0000000000000000E+00 
    1.8750000000070621E-01     9.3749999999975764E-01     0.0000000000000000E+00 
    2.4999999999951281E-01     6.2500000000163314E-02     0.0000000000000000E+00 
    2.4999999999961461E-01     1.2500000000033351E-01     0.0000000000000000E+00 
    2.4999999999971650E-01     1.8750000000048361E-01     0.0000000000000000E+00 
    2.4999999999981831E-01     2.5000000000063310E-01     0.0000000000000000E+00 
    2.4999999999992020E-01     3.1250000000078260E-01     0.0000000000000000E+00 
    2.5000000000002198E-01     3.7500000000093209E-01     0.0000000000000000E+00 
    2.5000000000012390E-01     4.3750000000108180E-01     0.0000000000000000E+00 
    2.5000000000022571E-01     5.0000000000121769E-01     0.0000000000000000E+00 
    2.5000000000032763E-01     5.6250000000094724E-01     0.0000000000000000E+00 
    2.5000000000042938E-01     6.2500000000066314E-01     0.0000000000000000E+00 
    2.5000000000053119E-01     6.8750000000037925E-01     0.0000000000000000E+00 
[...]
CELL_DATA 256 
SCALARS Pressure double 1 
LOOKUP_TABLE default 

    7.1789124344296262E-01 
    6.6757983261810550E-01 
    6.3497254794952152E-01 
    6.0513699603803306E-01 
    5.7488800414550967E-01 
    5.4329791468032329E-01 
    5.1012962890843550E-01 
    4.7547267096394275E-01 
    4.3963173867121547E-01 
    4.0314748444803167E-01 
    3.6691098351858764E-01 
    3.3237009031428311E-01 
    3.0167921966634964E-01 
    2.7749069361126244E-01 
    2.6204287084634997E-01 
    2.5459909907762102E-01 
    7.0386358851078368E-01 
    6.6883641880603706E-01 
    6.3738416320364411E-01 
    6.0782796180386045E-01 
    5.7779270116161463E-01 
    5.4639952977898210E-01 
    5.1340263259610952E-01 
    4.7887444022369002E-01 
    4.4309423535591808E-01 
    4.0656326327969278E-01 
    3.7011441153736951E-01 
    3.3512244213578390E-01 
    3.0369358639290134E-01 
    2.7853985890951011E-01 
    2.6217841014682669E-01 
    2.5415953966237148E-01 
    6.9299691235983185E-01 
    6.6790179846667741E-01 
    6.3899589053122108E-01 
    6.1015896312119666E-01 
    5.8048728705903418E-01 
    5.4935239685197312E-01 
    5.1655212505822723E-01 
    4.8215635414079783E-01 
    4.4641887835574939E-01 
    4.0979370825809247E-01 
    3.7304235084507931E-01 
    3.3745086643255673E-01 
    3.0507317174301779E-01 
    2.7871913796693276E-01 
    2.6128557736674696E-01 
    2.5273052894036674E-01 
    6.8437115802879855E-01 
    6.6584962596929209E-01 
    6.3987125873225503E-01 
    6.1211292506631310E-01 
    5.8296193958200915E-01 
    5.5215505031724843E-01 
    5.1958270583877986E-01 
    4.8532920473683006E-01 
    4.4962588057154956E-01 
    4.1287330073490369E-01 
    3.7574762256734717E-01 
    3.3942532651442725E-01 
    3.0588924411968055E-01 
    2.7806243023487576E-01 
    2.5931244736235476E-01 
    2.5016313141009483E-01 
    6.7742941627227915E-01 
    6.6331131099398011E-01 
    6.4016358220707936E-01 
    6.1370829664419990E-01 
    5.8521765252315727E-01 
    5.5481047817236551E-01 
    5.2250196446871011E-01 
    4.8840619685869097E-01 
    4.5273725769892181E-01 
    4.1583846369081140E-01 
    3.7828638364908918E-01 
    3.4112217602216505E-01 
    3.0622306817165706E-01 
    2.7661155755842032E-01 
    2.5620519378027112E-01 
    2.4630271356401842E-01 
    6.7178503033549009E-01 
    6.6065108112390003E-01 
    6.4003770042471175E-01 
    6.1498814236917676E-01 
    5.8726627243524632E-01 
    5.5732560825056077E-01 
    5.2531952188499653E-01 
    4.9140226906677892E-01 
    4.5577605701862828E-01 
    4.1872607224984570E-01 
    3.8071659066393554E-01 
    3.4262409328240728E-01 
    3.0616826397464603E-01 
    2.7442310453245461E-01 
    2.5190994910676612E-01 
    2.4096555046241980E-01 
    6.6716722635119385E-01 
    6.5807910730917574E-01 
    6.3964417746321300E-01 
    6.1601072219997333E-01 
    5.8913060080941881E-01 
    5.5971362226783883E-01 
    5.2804787353528526E-01 
    4.9433399573311737E-01 
    4.5876630348756503E-01 
    4.2157302836193750E-01 
    3.8309783941376757E-01 
    3.4402106697568718E-01 
    3.0583589913467857E-01 
    2.7157766028828095E-01 
    2.4637896182851435E-01 
    2.3393605551051377E-01 
    6.6338282040427166E-01 
    6.5571555216361932E-01 
    6.3911216722127040E-01 
    6.1684193691483602E-01 
    5.9084252752538147E-01 
    5.6199444668297671E-01 
    5.3070372333355342E-01 
    4.9721901637865534E-01 
    4.6173137725885111E-01 
    4.2441591403717399E-01 
    3.8549124597013196E-01 
    3.4541162883869297E-01 
    3.0536057026467389E-01 
    2.6819226644785554E-01 
    2.3958628605264573E-01 
    2.2496651254249786E-01 
    6.6029127549745925E-01 
    6.5362543514843685E-01 
    6.3854623810416922E-01 
    6.1754965877142565E-01 
    5.9243984168704034E-01 
    5.6419196445922759E-01 
    5.3330549145561768E-01 
    5.0007447246175663E-01 
    4.6469226136636638E-01 
    4.2728804920904612E-01 
    3.8795599301914324E-01 
    3.4689952522458123E-01 
    3.0490212693348973E-01 
    2.6443409680809821E-01 
    2.3153847866472865E-01 
    2.1375093612000259E-01 
    6.5779080940170875E-01 
    6.5184295555692096E-01 
    6.3802840779373227E-01 
    6.1819881927308151E-01 
    5.9396376693044961E-01 
    5.6633215783952917E-01 
    5.3587162745438255E-01 
    5.0291655194814433E-01 
    4.6766749956743325E-01 
    4.3021784886593661E-01 
    3.9054533061066904E-01 
    3.4858836529455889E-01 
    3.0464267243092980E-01 
    2.6053592285628296E-01 
    2.2229054102553811E-01 
    1.9986453871140744E-01 
    6.5580868958930338E-01 
    6.5038794591351290E-01 
    6.3762504850564217E-01 
    6.1885063795401840E-01 
    5.9545732804469531E-01 
    5.6844318512510039E-01 
    5.3842114233027127E-01 
    5.0576133766158260E-01 
    4.7067474224632827E-01 
    4.3322995869020409E-01 
    3.9330537196318055E-01 
    3.5057684063821465E-01 
    3.0478242833501007E-01 
    2.5681066461692648E-01 
    2.1200270253126588E-01 
    1.8275715626934752E-01 
    6.5428937657404596E-01 
    6.4927209887643034E-01 
    6.3739073312959149E-01 
    6.1956091879952135E-01 
    5.9696245625428757E-01 
    5.7055443913868809E-01 
    5.4097554792540792E-01 
    5.0862666797668787E-01 
    4.7373152743311381E-01 
    4.3634546476023878E-01 
    3.9627285713443361E-01 
    3.5295225734771712E-01 
    3.0553365568772634E-01 
    2.5365241486177398E-01 
    2.0098487059681736E-01 
    1.6169997459759222E-01 
    6.5318305196011994E-01 
    6.4849671910771034E-01 
    6.3736627499091036E-01 
    6.2037761651417722E-01 
    5.9851823931387904E-01 
    5.7269618523299914E-01 
    5.4355962559136284E-01 
    5.1153290445593047E-01 
    4.7685423062941135E-01 
    4.3957936447918960E-01 
    3.9947143849061134E-01 
    3.5577882132644811E-01 
    3.0710176191876598E-01 
    2.5158198689081746E-01 
    1.8987310652877629E-01 
    1.3559709997406838E-01 
    6.5244707545485070E-01 
    6.4805902458641695E-01 
    6.3758387223205348E-01 
    6.2134349178833082E-01 
    6.0016248424031415E-01 
    5.7489938937644547E-01 
    5.4620049993035802E-01 
    5.1450176399894265E-01 
    4.8005761019010551E-01 
    4.4293355646903726E-01 
    4.0289824523305762E-01 
    3.5907886371391262E-01 
    3.0963799379293550E-01 
    2.5121636883446835E-01 
    1.7989335863807163E-01 
    1.0282653581185701E-01 
    6.5194790424208193E-01 
    6.4787736333999713E-01 
    6.3801960180690687E-01 
    6.2245746708040772E-01 
    6.0188974930797035E-01 
    5.7714225680924069E-01 
    5.4886254418973823E-01 
    5.1749015575972523E-01 
    4.8329414588681252E-01 
    4.4634691306708524E-01 
    4.0645236692781012E-01 
    3.6269798302277079E-01 
    3.1299369764131918E-01 
    2.5287960915158009E-01 
    1.7279913360012109E-01 
    6.0252514623283508E-02 
    6.5177359325884410E-01 
    6.4804216072892640E-01 
    6.3875884675271866E-01 
    6.2379701812839572E-01 
    6.0376769658902130E-01 
    5.7947528535351944E-01 
    5.5157963232263263E-01 
    5.2053097057804876E-01 
    4.8661611929342369E-01 
    4.4991256341401303E-01 
    4.1025700834209289E-01 
    3.6679181883743489E-01 
    3.1745679679250921E-01 
    2.5735207468023336E-01 
    1.7259839342904940E-01 
    0.0000000000000000E+00 

SCALARS Saturarion double 1 
LOOKUP_TABLE default 

    1.0000000000454949E+00 
    9.7019959277036139E-01 
    9.0497772326016257E-01 
    8.4734101489770208E-01 
    7.9961531248661444E-01 
    7.5940297145264568E-01 
    7.2454302008902893E-01 
    6.9375982686153925E-01 
    6.6605520224836245E-01 
    6.4051520006124962E-01 
    6.1625019348478383E-01 
    5.9221856609282997E-01 
    5.6652830483542627E-01 
    5.3480565050194462E-01 
    4.8427657132496327E-01 
    1.7292830407449344E-01 
    9.8933939357675638E-01 
    9.6293482228499883E-01 
    9.0283772653004202E-01 
    8.4616431123796754E-01 
    7.9863318862138410E-01 
    7.5840757393329561E-01 
    7.2351956758638214E-01 
    6.9275187494017820E-01 
    6.6520702872696980E-01 
    6.3994127220863173E-01 
    6.1614375015284450E-01 
    5.9279894330634098E-01 
    5.6797531923670130E-01 
    5.3706577807084610E-01 
    4.8877512174296789E-01 
    2.0587927465375389E-01 
    9.6696667542031367E-01 
    9.4497021226436384E-01 
    8.9456255440846988E-01 
    8.4067022430599714E-01 
    7.9422825068214764E-01 
    7.5475420808818838E-01 
    7.2057181761778666E-01 
    6.9034437136785776E-01 
    6.6329830091273756E-01 
    6.3859718019101885E-01 
    6.1547247237637881E-01 
    5.9288003647916498E-01 
    5.6911887340057477E-01 
    5.4014822792624129E-01 
    4.9560725851189463E-01 
    2.3896781618266441E-01 
    9.4163875108565054E-01 
    9.2217621638062175E-01 
    8.7972578134998425E-01 
    8.3150333076413618E-01 
    7.8695611857183623E-01 
    7.4866911348765519E-01 
    7.1551055853082279E-01 
    6.8630656494906461E-01 
    6.6011764287906738E-01 
    6.3638552292552653E-01 
    6.1423606159351274E-01 
    5.9268027290111158E-01 
    5.7018870156003665E-01 
    5.4301607855715750E-01 
    5.0102212015650138E-01 
    2.7063626558155007E-01 
    9.1292662154263882E-01 
    8.9623231293624395E-01 
    8.5949810011167627E-01 
    8.1643753950257369E-01 
    7.7529276031855177E-01 
    7.3891863286586545E-01 
    7.0728764116451814E-01 
    6.7947929950290631E-01 
    6.5468903796689870E-01 
    6.3228002813157580E-01 
    6.1164465294060322E-01 
    5.9178147582181695E-01 
    5.7086463300439860E-01 
    5.4562683372972742E-01 
    5.0664856282916915E-01 
    2.9527696544889720E-01 
    8.8088209521816963E-01 
    8.6739002489989614E-01 
    8.3579506047143748E-01 
    7.9743297143382974E-01 
    7.5969504817632383E-01 
    7.2550225686220216E-01 
    6.9542578952159206E-01 
    6.6931401699763515E-01 
    6.4630492301150777E-01 
    6.2554882373305642E-01 
    6.0652492847266737E-01 
    5.8882494529012730E-01 
    5.7072728330849665E-01 
    5.4784846343717286E-01 
    5.1169332799615952E-01 
    3.1571201749900868E-01 
    8.4577073803567193E-01 
    8.3592983502196194E-01 
    8.0963441494362065E-01 
    7.7544042165044869E-01 
    7.4128229506934584E-01 
    7.0995161343160618E-01 
    6.8227212286557026E-01 
    6.5775476596208104E-01 
    6.3598431559492274E-01 
    6.1653385239101899E-01 
    5.9929169887362443E-01 
    5.8382495760155650E-01 
    5.6880972441539779E-01 
    5.4973541679781734E-01 
    5.1669444078801896E-01 
    3.3495101126562526E-01 
    8.0753359424228233E-01 
    8.0156509867786152E-01 
    7.8113346705433706E-01 
    7.5169653170027795E-01 
    7.2068317131071735E-01 
    6.9208865949932286E-01 
    6.6664662393571916E-01 
    6.4409634375886593E-01 
    6.2388589768322222E-01 
    6.0600257974053529E-01 
    5.9038591524585038E-01 
    5.7699150122038068E-01 
    5.6503421646162610E-01 
    5.5055246649850298E-01 
    5.2182050505314193E-01 
    3.5430284469848611E-01 
    7.6628733802538185E-01 
    7.6397111180751520E-01 
    7.4932777228644198E-01 
    7.2510450190292286E-01 
    6.9819058757192887E-01 
    6.7227993198539926E-01 
    6.4882102865316005E-01 
    6.2764202448488637E-01 
    6.0869936315009676E-01 
    5.9221154280566124E-01 
    5.7859237543334219E-01 
    5.6795780357428460E-01 
    5.5931134874205402E-01 
    5.4954106177422202E-01 
    5.2687375708070461E-01 
    3.7334080836778144E-01 
    7.2223302120807764E-01 
    7.2327328842938432E-01 
    7.1415736116098383E-01 
    6.9508121472185302E-01 
    6.7246335215480002E-01 
    6.4975443123029275E-01 
    6.2801618590310859E-01 
    6.0816610785930925E-01 
    5.9060970840968530E-01 
    5.7547076236674199E-01 
    5.6321337297967355E-01 
    5.5496178921092687E-01 
    5.5065185865482902E-01 
    5.4632259812142037E-01 
    5.3111552502851456E-01 
    3.8986556075188811E-01 
    6.7570347994121582E-01 
    6.7970890424458308E-01 
    6.7571275704873890E-01 
    6.6151920480097504E-01 
    6.4306163757248669E-01 
    6.2333844372295788E-01 
    6.0396762785461022E-01 
    5.8570439116719597E-01 
    5.6958103441300367E-01 
    5.5594906297815971E-01 
    5.4509273822464299E-01 
    5.3811939167035638E-01 
    5.3703595115005631E-01 
    5.3990093839717190E-01 
    5.3333441927635528E-01 
    4.0843558579530015E-01 
    6.2525760176145884E-01 
    6.3220244884527266E-01 
    6.3328895626888293E-01 
    6.2353240509184404E-01 
    6.0817625164980915E-01 
    5.9098691299993522E-01 
    5.7395059668908976E-01 
    5.5817213702881818E-01 
    5.4415458983415654E-01 
    5.3242430563008358E-01 
    5.2326944792495134E-01 
    5.1785170452908413E-01 
    5.1860725336406410E-01 
    5.2741301107533711E-01 
    5.2980926936999073E-01 
    4.2710000853241042E-01 
    5.6725339994887503E-01 
    5.7709293541883522E-01 
    5.8297462292947466E-01 
    5.7769058777252258E-01 
    5.6612232720246825E-01 
    5.5175446712770704E-01 
    5.3747828513944662E-01 
    5.2391493202294326E-01 
    5.1151523280514233E-01 
    5.0091959820334253E-01 
    4.9328707058367810E-01 
    4.9015994342050878E-01 
    4.9397364342159461E-01 
    5.0801889958190183E-01 
    5.2420463790367999E-01 
    4.4251729702483938E-01 
    4.9886237483106938E-01 
    5.1099057610329512E-01 
    5.2130141683650999E-01 
    5.2085836851745648E-01 
    5.1247499535704455E-01 
    5.0092900143581787E-01 
    4.8846188883485714E-01 
    4.7768379342934053E-01 
    4.6654719000802053E-01 
    4.5771269363887357E-01 
    4.4664096216548482E-01 
    4.4235560950334885E-01 
    4.5121854069749895E-01 
    4.7538522273615691E-01 
    5.1124943401824940E-01 
    4.5446216467181283E-01 
    2.7273193586110595E-01 
    3.4259879414580136E-01 
    3.8779209458324543E-01 
    3.9915225317367553E-01 
    3.9185299415665098E-01 
    3.7029497481130247E-01 
    3.3309299302415679E-01 
    2.8625187839244942E-01 
    2.3287117391657383E-01 
    1.6775345042715037E-01 
    1.3475670578675999E-01 
    1.6037516526913473E-01 
    2.1610096995026848E-01 
    3.2983538408024871E-01 
    4.5863439270140832E-01 
    4.5449401485035146E-01 
    7.9512073818470793E-05 
    9.0975086493064548E-03 
    2.4433688991568992E-02 
    2.4555281554820729E-02 
    2.1712689316907879E-02 
    1.2423903416436604E-02 
    7.0654871935673068E-03 
    9.4539057157994738E-04 
    1.5905660051955794E-04 
    7.0226167707817741E-04 
    1.2039499138483578E-03 
    5.6447276202006272E-04 
    1.8475342649170742E-03 
    3.1859386823646169E-02 
    2.8838192797149276E-01 
    4.1318763723168395E-01 
