# vtk DataFile Version 2.0
Pressure Field Data 
ASCII 
DATASET UNSTRUCTURED_GRID 

POINTS 289 double 

    0.0000000000000000E+00     0.0000000000000000E+00     0.0000000000000000E+00 
    1.0000000000000000E+00     0.0000000000000000E+00     0.0000000000000000E+00 
    1.0000000000000000E+00     1.0000000000000000E+00     0.0000000000000000E+00 
    0.0000000000000000E+00     1.0000000000000000E+00     0.0000000000000000E+00 
    6.2499999999872928E-02     0.0000000000000000E+00     0.0000000000000000E+00 
    1.2499999999977310E-01     0.0000000000000000E+00     0.0000000000000000E+00 
    1.8749999999959341E-01     0.0000000000000000E+00     0.0000000000000000E+00 
    2.4999999999941089E-01     0.0000000000000000E+00     0.0000000000000000E+00 
    3.1249999999922851E-01     0.0000000000000000E+00     0.0000000000000000E+00 
    3.7499999999904610E-01     0.0000000000000000E+00     0.0000000000000000E+00 
    4.3749999999886358E-01     0.0000000000000000E+00     0.0000000000000000E+00 
    4.9999999999869210E-01     0.0000000000000000E+00     0.0000000000000000E+00 
    5.6249999999884603E-01     0.0000000000000000E+00     0.0000000000000000E+00 
    6.2499999999901090E-01     0.0000000000000000E+00     0.0000000000000000E+00 
    6.8749999999917577E-01     0.0000000000000000E+00     0.0000000000000000E+00 
    7.4999999999934064E-01     0.0000000000000000E+00     0.0000000000000000E+00 
    8.1249999999950551E-01     0.0000000000000000E+00     0.0000000000000000E+00 
    8.7499999999967026E-01     0.0000000000000000E+00     0.0000000000000000E+00 
    9.3749999999983513E-01     0.0000000000000000E+00     0.0000000000000000E+00 
    1.0000000000000000E+00     6.2499999999872928E-02     0.0000000000000000E+00 
    1.0000000000000000E+00     1.2499999999977310E-01     0.0000000000000000E+00 
    1.0000000000000000E+00     1.8749999999959341E-01     0.0000000000000000E+00 
    1.0000000000000000E+00     2.4999999999941089E-01     0.0000000000000000E+00 
    1.0000000000000000E+00     3.1249999999922851E-01     0.0000000000000000E+00 
    1.0000000000000000E+00     3.7499999999904610E-01     0.0000000000000000E+00 
    1.0000000000000000E+00     4.3749999999886358E-01     0.0000000000000000E+00 
    1.0000000000000000E+00     4.9999999999869210E-01     0.0000000000000000E+00 
    1.0000000000000000E+00     5.6249999999884603E-01     0.0000000000000000E+00 
    1.0000000000000000E+00     6.2499999999901090E-01     0.0000000000000000E+00 
    1.0000000000000000E+00     6.8749999999917577E-01     0.0000000000000000E+00 
    1.0000000000000000E+00     7.4999999999934064E-01     0.0000000000000000E+00 
    1.0000000000000000E+00     8.1249999999950551E-01     0.0000000000000000E+00 
    1.0000000000000000E+00     8.7499999999967026E-01     0.0000000000000000E+00 
    1.0000000000000000E+00     9.3749999999983513E-01     0.0000000000000000E+00 
    9.3749999999973976E-01     1.0000000000000000E+00     0.0000000000000000E+00 
    8.7499999999950118E-01     1.0000000000000000E+00     0.0000000000000000E+00 
    8.1249999999991318E-01     1.0000000000000000E+00     0.0000000000000000E+00 
    7.5000000000034706E-01     1.0000000000000000E+00     0.0000000000000000E+00 
    6.8750000000078049E-01     1.0000000000000000E+00     0.0000000000000000E+00 
    6.2500000000121403E-01     1.0000000000000000E+00     0.0000000000000000E+00 
    5.6250000000164757E-01     1.0000000000000000E+00     0.0000000000000000E+00 
    5.0000000000205946E-01     1.0000000000000000E+00     0.0000000000000000E+00 
    4.3750000000182099E-01     1.0000000000000000E+00     0.0000000000000000E+00 
    3.7500000000156092E-01     1.0000000000000000E+00     0.0000000000000000E+00 
    3.1250000000130068E-01     1.0000000000000000E+00     0.0000000000000000E+00 
    2.5000000000104050E-01     1.0000000000000000E+00     0.0000000000000000E+00 
    1.8750000000078040E-01     1.0000000000000000E+00     0.0000000000000000E+00 
    1.2500000000052031E-01     1.0000000000000000E+00     0.0000000000000000E+00 
    6.2500000000260125E-02     1.0000000000000000E+00     0.0000000000000000E+00 
    0.0000000000000000E+00     9.3749999999973976E-01     0.0000000000000000E+00 
    0.0000000000000000E+00     8.7499999999950118E-01     0.0000000000000000E+00 
    0.0000000000000000E+00     8.1249999999991318E-01     0.0000000000000000E+00 
    0.0000000000000000E+00     7.5000000000034706E-01     0.0000000000000000E+00 
    0.0000000000000000E+00     6.8750000000078049E-01     0.0000000000000000E+00 
    0.0000000000000000E+00     6.2500000000121403E-01     0.0000000000000000E+00 
    0.0000000000000000E+00     5.6250000000164757E-01     0.0000000000000000E+00 
    0.0000000000000000E+00     5.0000000000205946E-01     0.0000000000000000E+00 
    0.0000000000000000E+00     4.3750000000182099E-01     0.0000000000000000E+00 
    0.0000000000000000E+00     3.7500000000156092E-01     0.0000000000000000E+00 
    0.0000000000000000E+00     3.1250000000130068E-01     0.0000000000000000E+00 
    0.0000000000000000E+00     2.5000000000104050E-01     0.0000000000000000E+00 
    0.0000000000000000E+00     1.8750000000078040E-01     0.0000000000000000E+00 
    0.0000000000000000E+00     1.2500000000052031E-01     0.0000000000000000E+00 
    0.0000000000000000E+00     6.2500000000260125E-02     0.0000000000000000E+00 
    6.2499999999897131E-02     6.2500000000235922E-02     0.0000000000000000E+00 
    6.2499999999921327E-02     1.2500000000047351E-01     0.0000000000000000E+00 
    6.2499999999945530E-02     1.8750000000070621E-01     0.0000000000000000E+00 
    6.2499999999969733E-02     2.5000000000093858E-01     0.0000000000000000E+00 
    6.2499999999993928E-02     3.1250000000117117E-01     0.0000000000000000E+00 
    6.2500000000018124E-02     3.7500000000140382E-01     0.0000000000000000E+00 
    6.2500000000042327E-02     4.3750000000163619E-01     0.0000000000000000E+00 
    6.2500000000066530E-02     5.0000000000184897E-01     0.0000000000000000E+00 
    6.2500000000090733E-02     5.6250000000147260E-01     0.0000000000000000E+00 
    6.2500000000114922E-02     6.2500000000107636E-01     0.0000000000000000E+00 
    6.2500000000139125E-02     6.8750000000068034E-01     0.0000000000000000E+00 
    6.2500000000163328E-02     7.5000000000028411E-01     0.0000000000000000E+00 
    6.2500000000187531E-02     8.1249999999988787E-01     0.0000000000000000E+00 
    6.2500000000211720E-02     8.7499999999951172E-01     0.0000000000000000E+00 
    6.2500000000235922E-02     9.3749999999974565E-01     0.0000000000000000E+00 
    1.2499999999981980E-01     6.2500000000211733E-02     0.0000000000000000E+00 
    1.2499999999986650E-01     1.2500000000042691E-01     0.0000000000000000E+00 
    1.2499999999991319E-01     1.8750000000063199E-01     0.0000000000000000E+00 
    1.2499999999995989E-01     2.5000000000083678E-01     0.0000000000000000E+00 
    1.2500000000000661E-01     3.1250000000104172E-01     0.0000000000000000E+00 
    1.2500000000005329E-01     3.7500000000124661E-01     0.0000000000000000E+00 
    1.2500000000010000E-01     4.3750000000145117E-01     0.0000000000000000E+00 
    1.2500000000014669E-01     5.0000000000163858E-01     0.0000000000000000E+00 
    1.2500000000019340E-01     5.6250000000129741E-01     0.0000000000000000E+00 
    1.2500000000024011E-01     6.2500000000093847E-01     0.0000000000000000E+00 
    1.2500000000028680E-01     6.8750000000057998E-01     0.0000000000000000E+00 
    1.2500000000033351E-01     7.5000000000022127E-01     0.0000000000000000E+00 
    1.2500000000038020E-01     8.1249999999986211E-01     0.0000000000000000E+00 
    1.2500000000042691E-01     8.7499999999952238E-01     0.0000000000000000E+00 
    1.2500000000047359E-01     9.3749999999975164E-01     0.0000000000000000E+00 
    1.8749999999966760E-01     6.2500000000187531E-02     0.0000000000000000E+00 
    1.8749999999974179E-01     1.2500000000038020E-01     0.0000000000000000E+00 
    1.8749999999981601E-01     1.8750000000055780E-01     0.0000000000000000E+00 
    1.8749999999989009E-01     2.5000000000073502E-01     0.0000000000000000E+00 
    1.8749999999996431E-01     3.1250000000091221E-01     0.0000000000000000E+00 
    1.8750000000003850E-01     3.7500000000108941E-01     0.0000000000000000E+00 
    1.8750000000011269E-01     4.3750000000126649E-01     0.0000000000000000E+00 
    1.8750000000018691E-01     5.0000000000142808E-01     0.0000000000000000E+00 
    1.8750000000026110E-01     5.6250000000112244E-01     0.0000000000000000E+00 
    1.8750000000033529E-01     6.2500000000080080E-01     0.0000000000000000E+00 
    1.8750000000040951E-01     6.8750000000047962E-01     0.0000000000000000E+00 
    1.8750000000048361E-01     7.5000000000015843E-01     0.0000000000000000E+00 
    1.8750000000055780E-01     8.1249999999983680E-01     0.0000000000000000E+00 
    1.8750000000063199E-01     8.7499999999953304E-01     0.0000000000000000E+00 
    1.8750000000070621E-01     9.3749999999975764E-01     0.0000000000000000E+00 
    2.4999999999951281E-01     6.2500000000163314E-02     0.0000000000000000E+00 
    2.4999999999961461E-01     1.2500000000033351E-01     0.0000000000000000E+00 
    2.4999999999971650E-01     1.8750000000048361E-01     0.0000000000000000E+00 
    2.4999999999981831E-01     2.5000000000063310E-01     0.0000000000000000E+00 
    2.4999999999992020E-01     3.1250000000078260E-01     0.0000000000000000E+00 
    2.5000000000002198E-01     3.7500000000093209E-01     0.0000000000000000E+00 
    2.5000000000012390E-01     4.3750000000108180E-01     0.0000000000000000E+00 
    2.5000000000022571E-01     5.0000000000121769E-01     0.0000000000000000E+00 
    2.5000000000032763E-01     5.6250000000094724E-01     0.0000000000000000E+00 
    2.5000000000042938E-01     6.2500000000066314E-01     0.0000000000000000E+00 
    2.5000000000053119E-01     6.8750000000037925E-01     0.0000000000000000E+00 
[...]
CELL_DATA 256 
SCALARS Pressure double 1 
LOOKUP_TABLE default 

    1.1657054245330332E+00 
    1.1021306054773026E+00 
    1.0494931141840078E+00 
    9.9348287945090441E-01 
    9.3259363525040206E-01 
    8.5783690955519420E-01 
    7.7557712094912501E-01 
    7.0400996182238329E-01 
    6.3491389857369618E-01 
    5.6828426632929996E-01 
    5.0488276606512861E-01 
    4.4638973515931468E-01 
    3.9558393472820436E-01 
    3.5606116753417472E-01 
    3.3101482308195468E-01 
    3.2093970322232307E-01 
    1.1510420698051069E+00 
    1.1041544916978254E+00 
    1.0534196151685127E+00 
    9.9834630500792010E-01 
    9.3833436438868978E-01 
    8.6470487404337704E-01 
    7.8277949190163965E-01 
    7.1086296763179790E-01 
    6.4151660962841051E-01 
    5.7453170717490609E-01 
    5.1057237578358228E-01 
    4.5121147593841265E-01 
    3.9915366128898155E-01 
    3.5806592440698604E-01 
    3.3147950958447892E-01 
    3.2049915193912837E-01 
    1.1385026316469447E+00 
    1.1029735030311956E+00 
    1.0557020089348026E+00 
    1.0021279824104903E+00 
    9.4303411147313176E-01 
    8.7052474711744909E-01 
    7.8951141444032180E-01 
    7.1752593508996243E-01 
    6.4796355887821333E-01 
    5.8058283730928284E-01 
    5.1595128493298870E-01 
    4.5552109532146368E-01 
    4.0192265644470210E-01 
    3.5895212688270717E-01 
    3.3063879798096957E-01 
    3.1889567359124210E-01 
    1.1271550065211857E+00 
    1.0996856503558265E+00 
    1.0564348295789969E+00 
    1.0048508759817321E+00 
    9.4668636253501237E-01 
    8.7533974612643339E-01 
    7.9581239523885872E-01 
    7.2398193775056352E-01 
    6.5426925892023935E-01 
    5.8647811471591538E-01 
    5.2108890968043120E-01 
    4.5941418292388420E-01 
    4.0398858366801316E-01 
    3.5876310008976453E-01 
    3.2841363106843396E-01 
    3.1590780542980390E-01 
    1.1168175320270597E+00 
    1.0951366068561790E+00 
    1.0559116356681277E+00 
    1.0066345229919129E+00 
    9.4933132905224071E-01 
    8.7919088625226527E-01 
    8.0174445965764418E-01 
    7.3023523289128944E-01 
    6.6045130822613973E-01 
    5.9225939408933403E-01 
    5.2605769558040127E-01 
    4.6299422409121649E-01 
    4.0546287956639487E-01 
    3.5755451857718656E-01 
    3.2472141876944050E-01 
    3.1130555520200281E-01 
    1.1075371137659751E+00 
    1.0899805964521390E+00 
    1.0544505535152473E+00 
    1.0075881950325265E+00 
    9.5102988380132902E-01 
    8.8217378735996799E-01 
    8.0735564470777177E-01 
    7.3630242256456002E-01 
    6.6653071720796320E-01 
    5.9796936588497973E-01 
    5.3093232845539939E-01 
    4.6637347797642276E-01 
    4.0647618137868419E-01 
    3.5540444126862408E-01 
    3.1948035370321498E-01 
    3.0483322937928015E-01 
    1.0992356096557814E+00 
    1.0846194364363937E+00 
    1.0523241403379135E+00 
    1.0076641562699480E+00 
    9.5180536834248242E-01 
    8.8456485913553529E-01 
    8.1264471923652348E-01 
    7.4220158973206962E-01 
    6.7253192015723307E-01 
    6.0365077500948072E-01 
    5.3578888691955517E-01 
    4.6967281379377762E-01 
    4.0718352142516806E-01 
    3.5242610807463581E-01 
    3.1261776870603109E-01 
    2.9619412367185893E-01 
    1.0917925194195066E+00 
    1.0792964662619084E+00 
    1.0497132898825430E+00 
    1.0067475268478150E+00 
    9.5175403016994298E-01 
    8.8680657039557054E-01 
    8.1759890699792670E-01 
    7.4795184036394635E-01 
    6.7848071888431571E-01 
    6.0934516571365394E-01 
    5.4070211429522164E-01 
    4.7302025013142973E-01 
    4.0776816716109776E-01 
    3.4878273328892051E-01 
    3.0408245804860168E-01 
    2.8502759472894207E-01 
    1.0850892975034194E+00 
    1.0740358013775744E+00 
    1.0463511989602197E+00 
    1.0047904559704333E+00 
    9.5144486287155861E-01 
    8.8929077908493437E-01 
    8.2229047217906504E-01 
    7.5358391030249439E-01 
    6.8440451243276035E-01 
    6.1509159433632921E-01 
    5.4574290818354931E-01 
    4.7654740766382020E-01 
    4.0844373461368338E-01 
    3.4470676379188891E-01 
    2.9386836857587639E-01 
    2.7088007010061732E-01 
    1.0779137344037488E+00 
    1.0680168604263174E+00 
    1.0421136964119322E+00 
    1.0025034508122250E+00 
    9.5159044669706128E-01 
    8.9202301424036168E-01 
    8.2686113902277691E-01 
    7.5914321618874758E-01 
    6.9033235260858017E-01 
    6.2092535863525011E-01 
    5.5097504350344539E-01 
    4.8038386923554288E-01 
    4.0945255138159281E-01 
    3.4052207563336945E-01 
    2.8205485979224565E-01 
    2.5316375293745652E-01 
    1.0714338666333105E+00 
    1.0621898342105389E+00 
    1.0382270894458137E+00 
    1.0009733142737929E+00 
    9.5240295859081325E-01 
    8.9491318540294751E-01 
    8.3141647764549198E-01 
    7.6468195489485902E-01 
    6.9629460485505934E-01 
    6.2687690021085662E-01 
    5.5645191926274584E-01 
    4.8464917271313851E-01 
    4.1105803152130949E-01 
    3.3666739358787046E-01 
    2.6887597437556360E-01 
    2.3110049835351018E-01 
    1.0669084478923541E+00 
    1.0581494731881524E+00 
    1.0357004836162127E+00 
    1.0003212524359908E+00 
    9.5369697497888894E-01 
    8.9804686434703196E-01 
    8.3604364617037452E-01 
    7.7025294301763780E-01 
    7.0232124861817491E-01 
    6.3297074019830546E-01 
    5.6221289748275527E-01 
    4.8944255485910448E-01 
    4.1352732866191033E-01 
    3.3371365446001122E-01 
    2.5483613088094287E-01 
    2.0363725774280994E-01 
    1.0636734032392963E+00 
    1.0552985047181864E+00 
    1.0341527265891901E+00 
    1.0004327413810146E+00 
    9.5553149369173340E-01 
    9.0149922896380663E-01 
    8.4081956000347913E-01 
    7.7590724035684810E-01 
    7.0844086246847093E-01 
    6.3922486601096318E-01 
    5.6828083949777819E-01 
    4.9483162910837930E-01 
    4.1710202069893099E-01 
    3.3236330187886642E-01 
    2.4090649769015560E-01 
    1.6932096271079577E-01 
    1.0615658166939468E+00 
    1.0535654404110681E+00 
    1.0335807961616197E+00 
    1.0013387049938300E+00 
    9.5796024640991562E-01 
    9.0533853695588073E-01 
    8.4581298973511188E-01 
    7.8169308290767137E-01 
    7.1467986293396768E-01 
    6.4565072968159953E-01 
    5.7466113857241452E-01 
    5.0084249360716215E-01 
    4.2195506139864941E-01 
    3.3340166335371912E-01 
    2.2885443397833713E-01 
    1.2610981539538776E-01 
    1.0604319274428657E+00 
    1.0528791777211364E+00 
    1.0339804189236619E+00 
    1.0030704707102438E+00 
    9.6103406934409297E-01 
    9.0962782963954736E-01 
    8.5108633087546826E-01 
    7.8765550964123388E-01 
    7.2106213330118474E-01 
    6.5225383094187117E-01 
    5.8134283670253062E-01 
    5.0745487885504847E-01 
    4.2813922696665496E-01 
    3.3754325720998285E-01 
    2.2179646311717041E-01 
    7.1085235115889669E-02 
    1.0601177948417659E+00 
    1.0531686550977877E+00 
    1.0353442089034302E+00 
    1.0056572068487095E+00 
    9.6480199597403138E-01 
    9.1442653672568419E-01 
    8.5669712032212342E-01 
    7.9383642525228437E-01 
    7.2760894970508183E-01 
    6.5903475763383357E-01 
    5.8830181551701677E-01 
    5.1460636122498260E-01 
    4.3554936927610088E-01 
    3.4506252777546109E-01 
    2.2512630618531163E-01 
    0.0000000000000000E+00 

SCALARS Saturarion double 1 
LOOKUP_TABLE default 

    1.0000000043645589E+00 
    8.5747373346801004E-01 
    6.9667009411417502E-01 
    5.8607476805976055E-01 
    5.0841603094130139E-01 
    2.5295958058572954E-01 
    5.7034941485009487E-04 
    1.0411733203210209E-06 
    1.0000000091638230E-06 
    1.0000000000000012E-06 
    9.9999999999999995E-07 
    9.9999999999999995E-07 
    9.9999999999999995E-07 
    9.9999999999999995E-07 
    9.9999999999999995E-07 
    9.9999999999999995E-07 
    9.3315833431573525E-01 
    8.3282391987224569E-01 
    6.8862378781381017E-01 
    5.8175689813424192E-01 
    5.0448559031355478E-01 
    2.4506884578160804E-01 
    3.3273866283980318E-04 
    1.0162396709800417E-06 
    1.0000000034117265E-06 
    1.0000000000000008E-06 
    9.9999999999999995E-07 
    9.9999999999999995E-07 
    9.9999999999999995E-07 
    9.9999999999999995E-07 
    9.9999999999999995E-07 
    9.9999999999999995E-07 
    8.4078087416468728E-01 
    7.7533716369534289E-01 
    6.6458167797669387E-01 
    5.6943245521136643E-01 
    4.9414767491118655E-01 
    2.2345263185278261E-01 
    4.1877670610479225E-04 
    1.0201892503776748E-06 
    1.0000000030923705E-06 
    1.0000000000000004E-06 
    9.9999999999999995E-07 
    9.9999999999999995E-07 
    9.9999999999999995E-07 
    9.9999999999999995E-07 
    9.9999999999999995E-07 
    9.9999999999999995E-07 
    7.5566976007057263E-01 
    7.1107053904570983E-01 
    6.3479687482446445E-01 
    5.5386569537683783E-01 
    4.8489421237594788E-01 
    1.9489991503970128E-01 
    7.6723979409991773E-04 
    1.0210982785509616E-06 
    1.0000000092916721E-06 
    9.9999999999999974E-07 
    9.9999999999999995E-07 
    9.9999999999999995E-07 
    9.9999999999999995E-07 
    9.9999999999999995E-07 
    9.9999999999999995E-07 
    9.9999999999999995E-07 
    6.8364342606226769E-01 
    6.5715677742700718E-01 
    5.9992162535700244E-01 
    5.3324404007140769E-01 
    4.6681054848942277E-01 
    1.4861481145810448E-01 
    1.8414427923799668E-03 
    1.2619422635764320E-06 
    1.0000000189005940E-06 
    1.0000000000000027E-06 
    9.9999999999999995E-07 
    9.9999999999999995E-07 
    9.9999999999999995E-07 
    9.9999999999999995E-07 
    9.9999999999999995E-07 
    9.9999999999999995E-07 
    6.2775428714213732E-01 
    6.0797852844407885E-01 
    5.6138334943610324E-01 
    5.0674296722746059E-01 
    4.2987972804571573E-01 
    8.4876054139351356E-02 
    1.2109498363478410E-03 
    1.0464100504211881E-06 
    1.0000000164163713E-06 
    1.0000000000000021E-06 
    9.9999999999999995E-07 
    9.9999999999999995E-07 
    9.9999999999999995E-07 
    9.9999999999999995E-07 
    9.9999999999999995E-07 
    9.9999999999999995E-07 
    5.7034859261423210E-01 
    5.5778804047515484E-01 
    5.2341951093256911E-01 
    4.7655973283927699E-01 
    3.3124694238160662E-01 
    1.7764980623340497E-02 
    1.7235560665113440E-04 
    1.0113382361844147E-06 
    1.0000000036475652E-06 
    1.0000000000000004E-06 
    9.9999999999999995E-07 
    9.9999999999999995E-07 
    9.9999999999999995E-07 
    9.9999999999999995E-07 
    9.9999999999999995E-07 
    9.9999999999999995E-07 
    5.1684596411470740E-01 
    5.1098718179407876E-01 
    4.8450166123167876E-01 
    4.2132360135905667E-01 
    1.3898420201308176E-01 
    1.9208805370718222E-03 
    1.5609849303388205E-06 
    1.0000001226044609E-06 
    1.0000000000000592E-06 
    9.9999999999999995E-07 
    9.9999999999999995E-07 
    9.9999999999999995E-07 
    9.9999999999999995E-07 
    9.9999999999999995E-07 
    9.9999999999999995E-07 
    9.9999999999999995E-07 
    4.6048112753897497E-01 
    4.5440619499628832E-01 
    4.1057513826427205E-01 
    2.0710649998740660E-01 
    8.1567823980964876E-03 
    5.6943538551052658E-05 
    1.0016307865785357E-06 
    1.0000000003089804E-06 
    9.9999999999999995E-07 
    9.9999999999999995E-07 
    9.9999999999999995E-07 
    9.9999999999999995E-07 
    9.9999999999999995E-07 
    9.9999999999999995E-07 
    9.9999999999999995E-07 
    9.9999999999999995E-07 
    2.1209193995578973E-01 
    2.0726125073332127E-01 
    1.0128145151691612E-01 
    4.7208468358044091E-03 
    3.3950990109220941E-05 
    1.0002184901583419E-06 
    1.0000000000493189E-06 
    9.9999999999999995E-07 
    9.9999999999999995E-07 
    9.9999999999999995E-07 
    9.9999999999999995E-07 
    9.9999999999999995E-07 
    9.9999999999999995E-07 
    9.9999999999999995E-07 
    9.9999999999999995E-07 
    9.9999999999999995E-07 
    5.6554790052690635E-05 
    6.2121411092172052E-04 
    1.7354665664662981E-03 
    1.3453808745442260E-05 
    1.0001238566216319E-06 
    1.0000000000057312E-06 
    9.9999999999999995E-07 
    9.9999999999999995E-07 
    9.9999999999999995E-07 
    9.9999999999999995E-07 
    9.9999999999999995E-07 
    9.9999999999999995E-07 
    9.9999999999999995E-07 
    9.9999999999999995E-07 
    9.9999999999999995E-07 
    9.9999999999999995E-07 
    1.0000756311649717E-06 
    1.0360757565174366E-06 
    1.1863327381524718E-06 
    1.0000509367383909E-06 
    1.0000000000162342E-06 
    9.9999999999999995E-07 
    9.9999999999999995E-07 
    9.9999999999999995E-07 
    9.9999999999999995E-07 
    9.9999999999999995E-07 
    9.9999999999999995E-07 
    9.9999999999999995E-07 
    9.9999999999999995E-07 
    9.9999999999999995E-07 
    9.9999999999999995E-07 
    9.9999999999999995E-07 
    1.0000000000008580E-06 
    1.0000000092879041E-06 
    1.0000000122208359E-06 
    1.0000000000035041E-06 
    9.9999999999999995E-07 
    9.9999999999999995E-07 
    9.9999999999999995E-07 
    9.9999999999999995E-07 
    9.9999999999999995E-07 
    9.9999999999999995E-07 
    9.9999999999999995E-07 
    9.9999999999999995E-07 
    9.9999999999999995E-07 
    9.9999999999999995E-07 
    9.9999999999999995E-07 
    9.9999999999999995E-07 
    9.9999999999999995E-07 
    1.0000000000000004E-06 
    1.0000000000000008E-06 
    9.9999999999999995E-07 
    9.9999999999999995E-07 
    9.9999999999999995E-07 
    9.9999999999999995E-07 
    9.9999999999999995E-07 
    9.9999999999999995E-07 
    9.9999999999999995E-07 
    9.9999999999999995E-07 
    9.9999999999999995E-07 
    9.9999999999999995E-07 
    9.9999999999999995E-07 
    9.9999999999999995E-07 
    9.9999999999999995E-07 
    9.9999999999999995E-07 
    9.9999999999999995E-07 
    9.9999999999999995E-07 
    9.9999999999999995E-07 
    9.9999999999999995E-07 
    9.9999999999999995E-07 
    9.9999999999999995E-07 
    9.9999999999999995E-07 
    9.9999999999999995E-07 
    9.9999999999999995E-07 
    9.9999999999999995E-07 
    9.9999999999999995E-07 
    9.9999999999999995E-07 
    9.9999999999999995E-07 
    9.9999999999999995E-07 
    9.9999999999999995E-07 
    9.9999999999999995E-07 
    9.9999999999999995E-07 
    9.9999999999999995E-07 
    9.9999999999999995E-07 
    9.9999999999999995E-07 
    9.9999999999999995E-07 
    9.9999999999999995E-07 
    9.9999999999999995E-07 
    9.9999999999999995E-07 
    9.9999999999999995E-07 
    9.9999999999999995E-07 
    9.9999999999999995E-07 
    9.9999999999999995E-07 
    9.9999999999999995E-07 
    9.9999999999999995E-07 
    1.0000000565946997E-06 
