# vtk DataFile Version 2.0
Pressure Field Data 
ASCII 
DATASET UNSTRUCTURED_GRID 

POINTS 289 double 

    0.0000000000000000E+00     0.0000000000000000E+00     0.0000000000000000E+00 
    1.0000000000000000E+00     0.0000000000000000E+00     0.0000000000000000E+00 
    1.0000000000000000E+00     1.0000000000000000E+00     0.0000000000000000E+00 
    0.0000000000000000E+00     1.0000000000000000E+00     0.0000000000000000E+00 
    6.2499999999872928E-02     0.0000000000000000E+00     0.0000000000000000E+00 
    1.2499999999977310E-01     0.0000000000000000E+00     0.0000000000000000E+00 
    1.8749999999959341E-01     0.0000000000000000E+00     0.0000000000000000E+00 
    2.4999999999941089E-01     0.0000000000000000E+00     0.0000000000000000E+00 
    3.1249999999922851E-01     0.0000000000000000E+00     0.0000000000000000E+00 
    3.7499999999904610E-01     0.0000000000000000E+00     0.0000000000000000E+00 
    4.3749999999886358E-01     0.0000000000000000E+00     0.0000000000000000E+00 
    4.9999999999869210E-01     0.0000000000000000E+00     0.0000000000000000E+00 
    5.6249999999884603E-01     0.0000000000000000E+00     0.0000000000000000E+00 
    6.2499999999901090E-01     0.0000000000000000E+00     0.0000000000000000E+00 
    6.8749999999917577E-01     0.0000000000000000E+00     0.0000000000000000E+00 
    7.4999999999934064E-01     0.0000000000000000E+00     0.0000000000000000E+00 
    8.1249999999950551E-01     0.0000000000000000E+00     0.0000000000000000E+00 
    8.7499999999967026E-01     0.0000000000000000E+00     0.0000000000000000E+00 
    9.3749999999983513E-01     0.0000000000000000E+00     0.0000000000000000E+00 
    1.0000000000000000E+00     6.2499999999872928E-02     0.0000000000000000E+00 
    1.0000000000000000E+00     1.2499999999977310E-01     0.0000000000000000E+00 
    1.0000000000000000E+00     1.8749999999959341E-01     0.0000000000000000E+00 
    1.0000000000000000E+00     2.4999999999941089E-01     0.0000000000000000E+00 
    1.0000000000000000E+00     3.1249999999922851E-01     0.0000000000000000E+00 
    1.0000000000000000E+00     3.7499999999904610E-01     0.0000000000000000E+00 
    1.0000000000000000E+00     4.3749999999886358E-01     0.0000000000000000E+00 
    1.0000000000000000E+00     4.9999999999869210E-01     0.0000000000000000E+00 
    1.0000000000000000E+00     5.6249999999884603E-01     0.0000000000000000E+00 
    1.0000000000000000E+00     6.2499999999901090E-01     0.0000000000000000E+00 
    1.0000000000000000E+00     6.8749999999917577E-01     0.0000000000000000E+00 
    1.0000000000000000E+00     7.4999999999934064E-01     0.0000000000000000E+00 
    1.0000000000000000E+00     8.1249999999950551E-01     0.0000000000000000E+00 
    1.0000000000000000E+00     8.7499999999967026E-01     0.0000000000000000E+00 
    1.0000000000000000E+00     9.3749999999983513E-01     0.0000000000000000E+00 
    9.3749999999973976E-01     1.0000000000000000E+00     0.0000000000000000E+00 
    8.7499999999950118E-01     1.0000000000000000E+00     0.0000000000000000E+00 
    8.1249999999991318E-01     1.0000000000000000E+00     0.0000000000000000E+00 
    7.5000000000034706E-01     1.0000000000000000E+00     0.0000000000000000E+00 
    6.8750000000078049E-01     1.0000000000000000E+00     0.0000000000000000E+00 
    6.2500000000121403E-01     1.0000000000000000E+00     0.0000000000000000E+00 
    5.6250000000164757E-01     1.0000000000000000E+00     0.0000000000000000E+00 
    5.0000000000205946E-01     1.0000000000000000E+00     0.0000000000000000E+00 
    4.3750000000182099E-01     1.0000000000000000E+00     0.0000000000000000E+00 
    3.7500000000156092E-01     1.0000000000000000E+00     0.0000000000000000E+00 
    3.1250000000130068E-01     1.0000000000000000E+00     0.0000000000000000E+00 
    2.5000000000104050E-01     1.0000000000000000E+00     0.0000000000000000E+00 
    1.8750000000078040E-01     1.0000000000000000E+00     0.0000000000000000E+00 
    1.2500000000052031E-01     1.0000000000000000E+00     0.0000000000000000E+00 
    6.2500000000260125E-02     1.0000000000000000E+00     0.0000000000000000E+00 
    0.0000000000000000E+00     9.3749999999973976E-01     0.0000000000000000E+00 
    0.0000000000000000E+00     8.7499999999950118E-01     0.0000000000000000E+00 
    0.0000000000000000E+00     8.1249999999991318E-01     0.0000000000000000E+00 
    0.0000000000000000E+00     7.5000000000034706E-01     0.0000000000000000E+00 
    0.0000000000000000E+00     6.8750000000078049E-01     0.0000000000000000E+00 
    0.0000000000000000E+00     6.2500000000121403E-01     0.0000000000000000E+00 
    0.0000000000000000E+00     5.6250000000164757E-01     0.0000000000000000E+00 
    0.0000000000000000E+00     5.0000000000205946E-01     0.0000000000000000E+00 
    0.0000000000000000E+00     4.3750000000182099E-01     0.0000000000000000E+00 
    0.0000000000000000E+00     3.7500000000156092E-01     0.0000000000000000E+00 
    0.0000000000000000E+00     3.1250000000130068E-01     0.0000000000000000E+00 
    0.0000000000000000E+00     2.5000000000104050E-01     0.0000000000000000E+00 
    0.0000000000000000E+00     1.8750000000078040E-01     0.0000000000000000E+00 
    0.0000000000000000E+00     1.2500000000052031E-01     0.0000000000000000E+00 
    0.0000000000000000E+00     6.2500000000260125E-02     0.0000000000000000E+00 
    6.2499999999897131E-02     6.2500000000235922E-02     0.0000000000000000E+00 
    6.2499999999921327E-02     1.2500000000047351E-01     0.0000000000000000E+00 
    6.2499999999945530E-02     1.8750000000070621E-01     0.0000000000000000E+00 
    6.2499999999969733E-02     2.5000000000093858E-01     0.0000000000000000E+00 
    6.2499999999993928E-02     3.1250000000117117E-01     0.0000000000000000E+00 
    6.2500000000018124E-02     3.7500000000140382E-01     0.0000000000000000E+00 
    6.2500000000042327E-02     4.3750000000163619E-01     0.0000000000000000E+00 
    6.2500000000066530E-02     5.0000000000184897E-01     0.0000000000000000E+00 
    6.2500000000090733E-02     5.6250000000147260E-01     0.0000000000000000E+00 
    6.2500000000114922E-02     6.2500000000107636E-01     0.0000000000000000E+00 
    6.2500000000139125E-02     6.8750000000068034E-01     0.0000000000000000E+00 
    6.2500000000163328E-02     7.5000000000028411E-01     0.0000000000000000E+00 
    6.2500000000187531E-02     8.1249999999988787E-01     0.0000000000000000E+00 
    6.2500000000211720E-02     8.7499999999951172E-01     0.0000000000000000E+00 
    6.2500000000235922E-02     9.3749999999974565E-01     0.0000000000000000E+00 
    1.2499999999981980E-01     6.2500000000211733E-02     0.0000000000000000E+00 
    1.2499999999986650E-01     1.2500000000042691E-01     0.0000000000000000E+00 
    1.2499999999991319E-01     1.8750000000063199E-01     0.0000000000000000E+00 
    1.2499999999995989E-01     2.5000000000083678E-01     0.0000000000000000E+00 
    1.2500000000000661E-01     3.1250000000104172E-01     0.0000000000000000E+00 
    1.2500000000005329E-01     3.7500000000124661E-01     0.0000000000000000E+00 
    1.2500000000010000E-01     4.3750000000145117E-01     0.0000000000000000E+00 
    1.2500000000014669E-01     5.0000000000163858E-01     0.0000000000000000E+00 
    1.2500000000019340E-01     5.6250000000129741E-01     0.0000000000000000E+00 
    1.2500000000024011E-01     6.2500000000093847E-01     0.0000000000000000E+00 
    1.2500000000028680E-01     6.8750000000057998E-01     0.0000000000000000E+00 
    1.2500000000033351E-01     7.5000000000022127E-01     0.0000000000000000E+00 
    1.2500000000038020E-01     8.1249999999986211E-01     0.0000000000000000E+00 
    1.2500000000042691E-01     8.7499999999952238E-01     0.0000000000000000E+00 
    1.2500000000047359E-01     9.3749999999975164E-01     0.0000000000000000E+00 
    1.8749999999966760E-01     6.2500000000187531E-02     0.0000000000000000E+00 
    1.8749999999974179E-01     1.2500000000038020E-01     0.0000000000000000E+00 
    1.8749999999981601E-01     1.8750000000055780E-01     0.0000000000000000E+00 
    1.8749999999989009E-01     2.5000000000073502E-01     0.0000000000000000E+00 
    1.8749999999996431E-01     3.1250000000091221E-01     0.0000000000000000E+00 
    1.8750000000003850E-01     3.7500000000108941E-01     0.0000000000000000E+00 
    1.8750000000011269E-01     4.3750000000126649E-01     0.0000000000000000E+00 
    1.8750000000018691E-01     5.0000000000142808E-01     0.0000000000000000E+00 
    1.8750000000026110E-01     5.6250000000112244E-01     0.0000000000000000E+00 
    1.8750000000033529E-01     6.2500000000080080E-01     0.0000000000000000E+00 
    1.8750000000040951E-01     6.8750000000047962E-01     0.0000000000000000E+00 
    1.8750000000048361E-01     7.5000000000015843E-01     0.0000000000000000E+00 
    1.8750000000055780E-01     8.1249999999983680E-01     0.0000000000000000E+00 
    1.8750000000063199E-01     8.7499999999953304E-01     0.0000000000000000E+00 
    1.8750000000070621E-01     9.3749999999975764E-01     0.0000000000000000E+00 
    2.4999999999951281E-01     6.2500000000163314E-02     0.0000000000000000E+00 
    2.4999999999961461E-01     1.2500000000033351E-01     0.0000000000000000E+00 
    2.4999999999971650E-01     1.8750000000048361E-01     0.0000000000000000E+00 
    2.4999999999981831E-01     2.5000000000063310E-01     0.0000000000000000E+00 
    2.4999999999992020E-01     3.1250000000078260E-01     0.0000000000000000E+00 
    2.5000000000002198E-01     3.7500000000093209E-01     0.0000000000000000E+00 
    2.5000000000012390E-01     4.3750000000108180E-01     0.0000000000000000E+00 
    2.5000000000022571E-01     5.0000000000121769E-01     0.0000000000000000E+00 
    2.5000000000032763E-01     5.6250000000094724E-01     0.0000000000000000E+00 
    2.5000000000042938E-01     6.2500000000066314E-01     0.0000000000000000E+00 
    2.5000000000053119E-01     6.8750000000037925E-01     0.0000000000000000E+00 
[...]
CELL_DATA 256 
SCALARS Pressure double 1 
LOOKUP_TABLE default 

    7.5778025525729809E-01 
    7.0700117060459389E-01 
    6.7366048735481987E-01 
    6.4284375068095212E-01 
    6.1142207196210685E-01 
    5.7849521878225019E-01 
    5.4384345194061279E-01 
    5.0757577953707844E-01 
    4.7001853501654195E-01 
    4.3174013803223221E-01 
    3.9368173682081975E-01 
    3.5738141377525889E-01 
    3.2512385101379737E-01 
    2.9972961782028829E-01 
    2.8329090004715834E-01 
    2.7548614897040302E-01 
    7.4375258167389113E-01 
    7.0829909608583685E-01 
    6.7614065378693944E-01 
    6.4562767414499889E-01 
    6.1443856886168202E-01 
    5.8172450413945276E-01 
    5.4725830115282526E-01 
    5.1113156327597453E-01 
    4.7364388063835938E-01 
    4.3532157489651202E-01 
    3.9704292927766077E-01 
    3.6026744852555104E-01 
    3.2722949666014378E-01 
    3.0081907302775124E-01 
    2.8345669625541836E-01 
    2.7505488568812536E-01 
    7.3286880352236750E-01 
    7.0738583427574164E-01 
    6.7780280259587622E-01 
    6.4803602836836238E-01 
    6.1723072338080798E-01 
    5.8479119175156191E-01 
    5.5053626621672924E-01 
    5.1455490011649974E-01 
    4.7711912299322362E-01 
    4.3870420350822259E-01 
    4.0011079542848244E-01 
    3.6270224450632038E-01 
    3.2865810923511246E-01 
    3.0097452934576879E-01 
    2.8253629479902154E-01 
    2.7358660215452707E-01 
    7.2420605991003129E-01 
    7.0533606935842841E-01 
    6.7871176528638777E-01 
    6.5005223367421772E-01 
    6.1978928752344620E-01 
    5.8769452905031871E-01 
    5.5368257554811195E-01 
    5.1785719487791193E-01 
    4.8046544991733048E-01 
    4.4192426876049568E-01 
    4.0294117288398101E-01 
    3.6476021165217154E-01 
    3.2948556658362449E-01 
    3.0023560386668646E-01 
    2.8046010271088984E-01 
    2.7088567845674283E-01 
    7.1721378562849702E-01 
    7.0278407255046393E-01 
    6.7902278158818130E-01 
    6.5169581403067389E-01 
    6.2211621626926128E-01 
    5.9043874226897808E-01 
    5.5670603236827132E-01 
    5.2105269575673063E-01 
    4.8370603619183006E-01 
    4.4501996011939182E-01 
    4.0559318428181684E-01 
    3.6652239309675633E-01 
    3.2979836829337528E-01 
    2.9864752824967522E-01 
    2.7716002253203137E-01 
    2.6676719527287551E-01 
    7.1150993803318530E-01 
    7.0009702812321262E-01 
    6.7890270340479741E-01 
    6.5301145171288133E-01 
    6.2422477136008481E-01 
    5.9303231931772860E-01 
    5.5961782204621369E-01 
    5.2415758820483471E-01 
    4.8686500259226767E-01 
    4.4802975180132681E-01 
    4.0812788232417380E-01 
    3.6807687920441140E-01 
    3.2969686518265212E-01 
    2.9626877443674399E-01 
    2.7257036541764240E-01 
    2.6103053336129323E-01 
    7.0682785421469885E-01 
    6.9748862442815407E-01 
    6.7850452312252418E-01 
    6.5405962946509399E-01 
    6.2613985131758365E-01 
    5.9549050828703798E-01 
    5.6243220120853299E-01 
    5.2718955409734425E-01 
    4.8996724055659863E-01 
    4.5099222296862407E-01 
    4.1060851208339511E-01 
    3.6952025896141877E-01 
    3.2930112147790580E-01 
    2.9318682136447166E-01 
    2.6664197703862280E-01 
    2.5344645504971081E-01 
    7.0297752322648577E-01 
    6.9508266465711344E-01 
    6.7796048168967804E-01 
    6.5490910614012721E-01 
    6.2789616438973150E-01 
    5.9783576920200876E-01 
    5.6516750128007354E-01 
    5.3016690853730297E-01 
    4.9303697180986394E-01 
    4.5394620901417804E-01 
    4.1310061507938711E-01 
    3.7095875180112137E-01 
    3.2875709748333770E-01 
    2.8953046308200076E-01 
    2.5935260084806550E-01 
    2.4375053623647247E-01 
    6.9982119674385779E-01 
    6.9294767475044927E-01 
    6.7737865703767752E-01 
    6.5563124613985202E-01 
    6.2953475706486040E-01 
    6.0009425601457911E-01 
    5.6784296377246457E-01 
    5.3310695183224199E-01 
    4.9609614297943527E-01 
    4.5692765809834174E-01 
    4.1566803230818372E-01 
    3.7250398210130237E-01 
    3.2823758366449601E-01 
    2.8548536204913205E-01 
    2.5071140463958835E-01 
    2.3159603522727118E-01 
    6.9726049203416807E-01 
    6.9112189706792215E-01 
    6.7684513760261966E-01 
    6.5629490864191387E-01 
    6.3109992688064676E-01 
    6.0229340778540696E-01 
    5.7047729520502310E-01 
    5.3602596640803912E-01 
    4.9916409363557962E-01 
    4.5996708776580264E-01 
    4.1836790194522361E-01 
    3.7426694252209097E-01 
    3.2793782331386662E-01 
    2.8130108507877705E-01 
    2.4079039398147656E-01 
    2.1656071679941105E-01 
    6.9522659142520604E-01 
    6.8962996049176650E-01 
    6.7643068122478123E-01 
    6.5696466360824801E-01 
    6.3263682991612846E-01 
    6.0446258939080777E-01 
    5.7309040033134495E-01 
    5.3894066625695247E-01 
    5.0225894397882831E-01 
    4.6309044750119399E-01 
    4.2124960409823370E-01 
    3.7635385254882170E-01 
    3.2807274388038771E-01 
    2.7731261406324070E-01 
    2.2975598265718367E-01 
    1.9807343415322742E-01 
    6.9366402492850809E-01 
    6.8848535931288912E-01 
    6.7619181008322649E-01 
    6.5769781034900465E-01 
    6.3418924638119922E-01 
    6.0663372024074369E-01 
    5.7570599593882288E-01 
    5.4186980958822606E-01 
    5.0539835513901854E-01 
    4.6631906592722933E-01 
    4.2435163240657664E-01 
    3.7885964898507041E-01 
    3.2887191949708067E-01 
    2.7394737625821008E-01 
    2.1794390833042043E-01 
    1.7529631750353797E-01 
    6.9252222664740226E-01 
    6.8768970114588102E-01 
    6.7617031470660272E-01 
    6.5854427858881170E-01 
    6.3580010291493838E-01 
    6.0884150639070733E-01 
    5.7835116295007016E-01 
    5.4483258612550167E-01 
    5.0859626262393554E-01 
    4.6966656407189367E-01 
    4.2769683505645645E-01 
    3.8185417530061383E-01 
    3.3055829045581464E-01 
    2.7176814805321048E-01 
    2.0604129141038088E-01 
    1.4706685240590930E-01 
    6.9175748453669506E-01 
    6.8724217375102603E-01 
    6.7640176881866831E-01 
    6.5955057573547515E-01 
    6.3751254834550064E-01 
    6.1112257455227692E-01 
    5.8105290287497668E-01 
    5.4783802908207180E-01 
    5.1183658483588024E-01 
    4.7309515028656579E-01 
    4.3123523898092919E-01 
    3.8530269137930390E-01 
    3.3325548869242055E-01 
    2.7142183528942293E-01 
    1.9536906808904100E-01 
    1.1163408463624949E-01 
    6.9121542293209703E-01 
    6.8701852654275020E-01 
    6.7681226062969535E-01 
    6.6067290873214879E-01 
    6.3928562760756003E-01 
    6.1343415234738652E-01 
    5.8377224243631221E-01 
    5.5085385796605446E-01 
    5.1508572326712554E-01 
    4.7656267582627049E-01 
    4.3490966446519763E-01 
    3.8911649518682434E-01 
    3.3685760685966099E-01 
    2.7320152923072993E-01 
    1.8752233070063967E-01 
    6.5352754387962772E-02 
    6.9102680504528280E-01 
    6.8716758025895341E-01 
    6.7754909281013387E-01 
    6.6204101711944152E-01 
    6.4122532305710189E-01 
    6.1586156875608233E-01 
    5.8660062602606000E-01 
    5.5400338065651267E-01 
    5.1850400087457627E-01 
    4.8024097463889431E-01 
    4.3887534468848449E-01 
    3.9342831683180207E-01 
    3.4159895100635462E-01 
    2.7811387075282085E-01 
    1.8742268360785624E-01 
    0.0000000000000000E+00 

SCALARS Saturarion double 1 
LOOKUP_TABLE default 

    1.0000000000295191E+00 
    9.6686920877305205E-01 
    8.9654350315179832E-01 
    8.3594339699983189E-01 
    7.8625371332525740E-01 
    7.4444098348016174E-01 
    7.0822438004816579E-01 
    6.7635483771695715E-01 
    6.4776757416550179E-01 
    6.2150613219236328E-01 
    5.9668585617882219E-01 
    5.7214482119256771E-01 
    5.4554164760773527E-01 
    5.1270310193509883E-01 
    4.4478275089201535E-01 
    7.8663258076636378E-02 
    9.8797304970148891E-01 
    9.5883187062265496E-01 
    8.9416631578749539E-01 
    8.3461695535235814E-01 
    7.8516770515281586E-01 
    7.4335989194810059E-01 
    7.0712688916997291E-01 
    6.7528680252956985E-01 
    6.4688155623517163E-01 
    6.2091690275791023E-01 
    5.9658559917061826E-01 
    5.7275022455488422E-01 
    5.4705365774122583E-01 
    5.1503160232729772E-01 
    4.5255606214292354E-01 
    1.0696623040052698E-01 
    9.6313069250961314E-01 
    9.3928302150097776E-01 
    8.8529294916500600E-01 
    8.2868001741667174E-01 
    7.8044041292559141E-01 
    7.3952751542051942E-01 
    7.0410476020295021E-01 
    6.7284967869900192E-01 
    6.4496192692747212E-01 
    6.1956045580445207E-01 
    5.9587926287759707E-01 
    5.7278908846839760E-01 
    5.4823099720160839E-01 
    5.1815311316501877E-01 
    4.6326937796879264E-01 
    1.4439025055052204E-01 
    9.3540590821294911E-01 
    9.1454839640272600E-01 
    8.6945651928600121E-01 
    8.1888705347231883E-01 
    7.7265264325846683E-01 
    7.3312715605583467E-01 
    6.9893878062951154E-01 
    6.6884933779362565E-01 
    6.4188237232083556E-01 
    6.1744519096580708E-01 
    5.9464090462014618E-01 
    5.7247813500214662E-01 
    5.4925031421521120E-01 
    5.2101052920076840E-01 
    4.7303365169430428E-01 
    1.8373021633192416E-01 
    9.0427288922219606E-01 
    8.8657041186259422E-01 
    8.4790715121565130E-01 
    8.0295056997886527E-01 
    7.6040255787532529E-01 
    7.2304003507740644E-01 
    6.9061845130600164E-01 
    6.6208240103439298E-01 
    6.3657620301802031E-01 
    6.1344834370815593E-01 
    5.9210431563838317E-01 
    5.7154113479857938E-01 
    5.4985235943237765E-01 
    5.2364274654408016E-01 
    4.7987120972203895E-01 
    2.1585184524112722E-01 
    8.6990026478425186E-01 
    8.5574692339488245E-01 
    8.2275079066375467E-01 
    7.8294748511095558E-01 
    7.4412259013540305E-01 
    7.0921552878529737E-01 
    6.7863490096856582E-01 
    6.5199674380731720E-01 
    6.2830796005646028E-01 
    6.0676896292032445E-01 
    5.8698311766075095E-01 
    5.6863405313742432E-01 
    5.4981785450395892E-01 
    5.2590850404167222E-01 
    4.8582142519145211E-01 
    2.4345029577235611E-01 
    8.3262423328402058E-01 
    8.2241743342059992E-01 
    7.9517330743869397E-01 
    7.5993669623021431E-01 
    7.2504937072240538E-01 
    6.9332187113553334E-01 
    6.6537820033284489E-01 
    6.4038008608115948E-01 
    6.1789328506677721E-01 
    5.9772055010185432E-01 
    5.7984701159848417E-01 
    5.6375295211940468E-01 
    5.4812305149891083E-01 
    5.2802939062993637E-01 
    4.9187545582517839E-01 
    2.6843988477582226E-01 
    7.9238961756128568E-01 
    7.8631046024346529E-01 
    7.6537715626942526E-01 
    7.3529851342521446E-01 
    7.0387629560558573E-01 
    6.7518470718642964E-01 
    6.4957082661762955E-01 
    6.2649618531907503E-01 
    6.0562996043715978E-01 
    5.8717867949726910E-01 
    5.7106197516902157E-01 
    5.5715634464150066E-01 
    5.4460956584464715E-01 
    5.2926406180084262E-01 
    4.9811535347213864E-01 
    2.9383851419399437E-01 
    7.4943394944916963E-01 
    7.4717914476210245E-01 
    7.3239822753199535E-01 
    7.0795893124776432E-01 
    6.8100955000980867E-01 
    6.5510013647493803E-01 
    6.3130123352881562E-01 
    6.0956906107046505E-01 
    5.9015988711576062E-01 
    5.7332999231754544E-01 
    5.5939694508220206E-01 
    5.4836247142178407E-01 
    5.3915757841805056E-01 
    5.2867762921276817E-01 
    5.0490586547086302E-01 
    3.1441637173498083E-01 
    7.0416651713225364E-01 
    7.0533950065494644E-01 
    6.9636435784151773E-01 
    6.7744643439493513E-01 
    6.5497454618345907E-01 
    6.3208432971598083E-01 
    6.0988134351516099E-01 
    5.8965385020747085E-01 
    5.7178347463109935E-01 
    5.5634919234657121E-01 
    5.4386777587226476E-01 
    5.3539751323011509E-01 
    5.3072408159374307E-01 
    5.2573928732821362E-01 
    5.0916169289541158E-01 
    3.4053141708487100E-01 
    6.5707563930103685E-01 
    6.6120816570446805E-01 
    6.5743222795177458E-01 
    6.4340627698568353E-01 
    6.2486442524809827E-01 
    6.0489681239768212E-01 
    5.8533139291254410E-01 
    5.6697840988584391E-01 
    5.5073328429439572E-01 
    5.3676070635174788E-01 
    5.2556177488565337E-01 
    5.1849021639020376E-01 
    5.1724357076804905E-01 
    5.1962414996831707E-01 
    5.1183160377348558E-01 
    3.6199499343880509E-01 
    6.0554074359461640E-01 
    6.1269724992043884E-01 
    6.1403063299980964E-01 
    6.0436158852750643E-01 
    5.8902565684408525E-01 
    5.7196053571088590E-01 
    5.5503618964262191E-01 
    5.3932474927668106E-01 
    5.2542527037875841E-01 
    5.1347473756174911E-01 
    5.0366259576294259E-01 
    4.9796459051217562E-01 
    4.9891963585792426E-01 
    5.0746955212180123E-01 
    5.0881685348498873E-01 
    3.8521999007026425E-01 
    5.4678032239436580E-01 
    5.5661628816459718E-01 
    5.6270909549701564E-01 
    5.5770142798922218E-01 
    5.4655466027470356E-01 
    5.3252206546840830E-01 
    5.1833162259189369E-01 
    5.0460480092538029E-01 
    4.9186540420749159E-01 
    4.8080421309007160E-01 
    4.7305468422861258E-01 
    4.6983540148845365E-01 
    4.7405329624218134E-01 
    4.8831630788289931E-01 
    5.0343013599721698E-01 
    4.0367394602488244E-01 
    4.7659758163361637E-01 
    4.8905999370889730E-01 
    5.0058527664913999E-01 
    5.0024934137935473E-01 
    4.9227740605660447E-01 
    4.8108737066838159E-01 
    4.6922120194899608E-01 
    4.5619851192231997E-01 
    4.3913183552031682E-01 
    4.1670748967402177E-01 
    3.9572469951437866E-01 
    3.8735071120313697E-01 
    4.0212136430651646E-01 
    4.5198706996918420E-01 
    4.9135483990601991E-01 
    4.1852914411162634E-01 
    1.7417028284450661E-01 
    2.5990989135201509E-01 
    3.1103461311844333E-01 
    3.2341400636020845E-01 
    3.1469300117111021E-01 
    2.7510012808378298E-01 
    2.2729123005337745E-01 
    1.6324218614712591E-01 
    1.0559731782447759E-01 
    7.0651524902028501E-02 
    5.1377716204931409E-02 
    5.9641036883264442E-02 
    1.0547738373220594E-01 
    2.3707491321040805E-01 
    4.1573476150051669E-01 
    4.1999359417065713E-01 
    1.0438075808964957E-06 
    6.9592927661335047E-04 
    2.2586039572540123E-03 
    3.2954597032619059E-03 
    3.6514538673195320E-03 
    3.5361597443003682E-04 
    4.4351704365553111E-04 
    3.0713839425221758E-05 
    7.0933700749513747E-05 
    6.6430785313616585E-05 
    3.7225160177792332E-04 
    1.2972270607810424E-04 
    4.9491604720003075E-04 
    1.2289883931585551E-02 
    2.5366527923671367E-01 
    3.8165280508841998E-01 
