# vtk DataFile Version 2.0
Pressure Field Data 
ASCII 
DATASET UNSTRUCTURED_GRID 

POINTS 289 double 

    0.0000000000000000E+00     0.0000000000000000E+00     0.0000000000000000E+00 
    1.0000000000000000E+00     0.0000000000000000E+00     0.0000000000000000E+00 
    1.0000000000000000E+00     1.0000000000000000E+00     0.0000000000000000E+00 
    0.0000000000000000E+00     1.0000000000000000E+00     0.0000000000000000E+00 
    6.2499999999872928E-02     0.0000000000000000E+00     0.0000000000000000E+00 
    1.2499999999977310E-01     0.0000000000000000E+00     0.0000000000000000E+00 
    1.8749999999959341E-01     0.0000000000000000E+00     0.0000000000000000E+00 
    2.4999999999941089E-01     0.0000000000000000E+00     0.0000000000000000E+00 
    3.1249999999922851E-01     0.0000000000000000E+00     0.0000000000000000E+00 
    3.7499999999904610E-01     0.0000000000000000E+00     0.0000000000000000E+00 
    4.3749999999886358E-01     0.0000000000000000E+00     0.0000000000000000E+00 
    4.9999999999869210E-01     0.0000000000000000E+00     0.0000000000000000E+00 
    5.6249999999884603E-01     0.0000000000000000E+00     0.0000000000000000E+00 
    6.2499999999901090E-01     0.0000000000000000E+00     0.0000000000000000E+00 
    6.8749999999917577E-01     0.0000000000000000E+00     0.0000000000000000E+00 
    7.4999999999934064E-01     0.0000000000000000E+00     0.0000000000000000E+00 
    8.1249999999950551E-01     0.0000000000000000E+00     0.0000000000000000E+00 
    8.7499999999967026E-01     0.0000000000000000E+00     0.0000000000000000E+00 
    9.3749999999983513E-01     0.0000000000000000E+00     0.0000000000000000E+00 
    1.0000000000000000E+00     6.2499999999872928E-02     0.0000000000000000E+00 
    1.0000000000000000E+00     1.2499999999977310E-01     0.0000000000000000E+00 
    1.0000000000000000E+00     1.8749999999959341E-01     0.0000000000000000E+00 
    1.0000000000000000E+00     2.4999999999941089E-01     0.0000000000000000E+00 
    1.0000000000000000E+00     3.1249999999922851E-01     0.0000000000000000E+00 
    1.0000000000000000E+00     3.7499999999904610E-01     0.0000000000000000E+00 
    1.0000000000000000E+00     4.3749999999886358E-01     0.0000000000000000E+00 
    1.0000000000000000E+00     4.9999999999869210E-01     0.0000000000000000E+00 
    1.0000000000000000E+00     5.6249999999884603E-01     0.0000000000000000E+00 
    1.0000000000000000E+00     6.2499999999901090E-01     0.0000000000000000E+00 
    1.0000000000000000E+00     6.8749999999917577E-01     0.0000000000000000E+00 
    1.0000000000000000E+00     7.4999999999934064E-01     0.0000000000000000E+00 
    1.0000000000000000E+00     8.1249999999950551E-01     0.0000000000000000E+00 
    1.0000000000000000E+00     8.7499999999967026E-01     0.0000000000000000E+00 
    1.0000000000000000E+00     9.3749999999983513E-01     0.0000000000000000E+00 
    9.3749999999973976E-01     1.0000000000000000E+00     0.0000000000000000E+00 
    8.7499999999950118E-01     1.0000000000000000E+00     0.0000000000000000E+00 
    8.1249999999991318E-01     1.0000000000000000E+00     0.0000000000000000E+00 
    7.5000000000034706E-01     1.0000000000000000E+00     0.0000000000000000E+00 
    6.8750000000078049E-01     1.0000000000000000E+00     0.0000000000000000E+00 
    6.2500000000121403E-01     1.0000000000000000E+00     0.0000000000000000E+00 
    5.6250000000164757E-01     1.0000000000000000E+00     0.0000000000000000E+00 
    5.0000000000205946E-01     1.0000000000000000E+00     0.0000000000000000E+00 
    4.3750000000182099E-01     1.0000000000000000E+00     0.0000000000000000E+00 
    3.7500000000156092E-01     1.0000000000000000E+00     0.0000000000000000E+00 
    3.1250000000130068E-01     1.0000000000000000E+00     0.0000000000000000E+00 
    2.5000000000104050E-01     1.0000000000000000E+00     0.0000000000000000E+00 
    1.8750000000078040E-01     1.0000000000000000E+00     0.0000000000000000E+00 
    1.2500000000052031E-01     1.0000000000000000E+00     0.0000000000000000E+00 
    6.2500000000260125E-02     1.0000000000000000E+00     0.0000000000000000E+00 
    0.0000000000000000E+00     9.3749999999973976E-01     0.0000000000000000E+00 
    0.0000000000000000E+00     8.7499999999950118E-01     0.0000000000000000E+00 
    0.0000000000000000E+00     8.1249999999991318E-01     0.0000000000000000E+00 
    0.0000000000000000E+00     7.5000000000034706E-01     0.0000000000000000E+00 
    0.0000000000000000E+00     6.8750000000078049E-01     0.0000000000000000E+00 
    0.0000000000000000E+00     6.2500000000121403E-01     0.0000000000000000E+00 
    0.0000000000000000E+00     5.6250000000164757E-01     0.0000000000000000E+00 
    0.0000000000000000E+00     5.0000000000205946E-01     0.0000000000000000E+00 
    0.0000000000000000E+00     4.3750000000182099E-01     0.0000000000000000E+00 
    0.0000000000000000E+00     3.7500000000156092E-01     0.0000000000000000E+00 
    0.0000000000000000E+00     3.1250000000130068E-01     0.0000000000000000E+00 
    0.0000000000000000E+00     2.5000000000104050E-01     0.0000000000000000E+00 
    0.0000000000000000E+00     1.8750000000078040E-01     0.0000000000000000E+00 
    0.0000000000000000E+00     1.2500000000052031E-01     0.0000000000000000E+00 
    0.0000000000000000E+00     6.2500000000260125E-02     0.0000000000000000E+00 
    6.2499999999897131E-02     6.2500000000235922E-02     0.0000000000000000E+00 
    6.2499999999921327E-02     1.2500000000047351E-01     0.0000000000000000E+00 
    6.2499999999945530E-02     1.8750000000070621E-01     0.0000000000000000E+00 
    6.2499999999969733E-02     2.5000000000093858E-01     0.0000000000000000E+00 
    6.2499999999993928E-02     3.1250000000117117E-01     0.0000000000000000E+00 
    6.2500000000018124E-02     3.7500000000140382E-01     0.0000000000000000E+00 
    6.2500000000042327E-02     4.3750000000163619E-01     0.0000000000000000E+00 
    6.2500000000066530E-02     5.0000000000184897E-01     0.0000000000000000E+00 
    6.2500000000090733E-02     5.6250000000147260E-01     0.0000000000000000E+00 
    6.2500000000114922E-02     6.2500000000107636E-01     0.0000000000000000E+00 
    6.2500000000139125E-02     6.8750000000068034E-01     0.0000000000000000E+00 
    6.2500000000163328E-02     7.5000000000028411E-01     0.0000000000000000E+00 
    6.2500000000187531E-02     8.1249999999988787E-01     0.0000000000000000E+00 
    6.2500000000211720E-02     8.7499999999951172E-01     0.0000000000000000E+00 
    6.2500000000235922E-02     9.3749999999974565E-01     0.0000000000000000E+00 
    1.2499999999981980E-01     6.2500000000211733E-02     0.0000000000000000E+00 
    1.2499999999986650E-01     1.2500000000042691E-01     0.0000000000000000E+00 
    1.2499999999991319E-01     1.8750000000063199E-01     0.0000000000000000E+00 
    1.2499999999995989E-01     2.5000000000083678E-01     0.0000000000000000E+00 
    1.2500000000000661E-01     3.1250000000104172E-01     0.0000000000000000E+00 
    1.2500000000005329E-01     3.7500000000124661E-01     0.0000000000000000E+00 
    1.2500000000010000E-01     4.3750000000145117E-01     0.0000000000000000E+00 
    1.2500000000014669E-01     5.0000000000163858E-01     0.0000000000000000E+00 
    1.2500000000019340E-01     5.6250000000129741E-01     0.0000000000000000E+00 
    1.2500000000024011E-01     6.2500000000093847E-01     0.0000000000000000E+00 
    1.2500000000028680E-01     6.8750000000057998E-01     0.0000000000000000E+00 
    1.2500000000033351E-01     7.5000000000022127E-01     0.0000000000000000E+00 
    1.2500000000038020E-01     8.1249999999986211E-01     0.0000000000000000E+00 
    1.2500000000042691E-01     8.7499999999952238E-01     0.0000000000000000E+00 
    1.2500000000047359E-01     9.3749999999975164E-01     0.0000000000000000E+00 
    1.8749999999966760E-01     6.2500000000187531E-02     0.0000000000000000E+00 
    1.8749999999974179E-01     1.2500000000038020E-01     0.0000000000000000E+00 
    1.8749999999981601E-01     1.8750000000055780E-01     0.0000000000000000E+00 
    1.8749999999989009E-01     2.5000000000073502E-01     0.0000000000000000E+00 
    1.8749999999996431E-01     3.1250000000091221E-01     0.0000000000000000E+00 
    1.8750000000003850E-01     3.7500000000108941E-01     0.0000000000000000E+00 
    1.8750000000011269E-01     4.3750000000126649E-01     0.0000000000000000E+00 
    1.8750000000018691E-01     5.0000000000142808E-01     0.0000000000000000E+00 
    1.8750000000026110E-01     5.6250000000112244E-01     0.0000000000000000E+00 
    1.8750000000033529E-01     6.2500000000080080E-01     0.0000000000000000E+00 
    1.8750000000040951E-01     6.8750000000047962E-01     0.0000000000000000E+00 
    1.8750000000048361E-01     7.5000000000015843E-01     0.0000000000000000E+00 
    1.8750000000055780E-01     8.1249999999983680E-01     0.0000000000000000E+00 
    1.8750000000063199E-01     8.7499999999953304E-01     0.0000000000000000E+00 
    1.8750000000070621E-01     9.3749999999975764E-01     0.0000000000000000E+00 
    2.4999999999951281E-01     6.2500000000163314E-02     0.0000000000000000E+00 
    2.4999999999961461E-01     1.2500000000033351E-01     0.0000000000000000E+00 
    2.4999999999971650E-01     1.8750000000048361E-01     0.0000000000000000E+00 
    2.4999999999981831E-01     2.5000000000063310E-01     0.0000000000000000E+00 
    2.4999999999992020E-01     3.1250000000078260E-01     0.0000000000000000E+00 
    2.5000000000002198E-01     3.7500000000093209E-01     0.0000000000000000E+00 
    2.5000000000012390E-01     4.3750000000108180E-01     0.0000000000000000E+00 
    2.5000000000022571E-01     5.0000000000121769E-01     0.0000000000000000E+00 
    2.5000000000032763E-01     5.6250000000094724E-01     0.0000000000000000E+00 
    2.5000000000042938E-01     6.2500000000066314E-01     0.0000000000000000E+00 
    2.5000000000053119E-01     6.8750000000037925E-01     0.0000000000000000E+00 
[...]
CELL_DATA 256 
SCALARS Pressure double 1 
LOOKUP_TABLE default 

    7.0984776370328784E-01 
    6.5955549812375946E-01 
    6.2707598488219418E-01 
    5.9751528296757306E-01 
    5.6759507254648489E-01 
    5.3634367224807145E-01 
    5.0353254026561878E-01 
    4.6926307648150190E-01 
    4.3382665725095099E-01 
    3.9775366026835413E-01 
    3.6192707101284999E-01 
    3.2777528697859015E-01 
    2.9740700045190732E-01 
    2.7341926627199092E-01 
    2.5805420481291741E-01 
    2.5064421887136146E-01 
    6.9579075085817188E-01 
    6.6080551485525596E-01 
    6.2947528979030209E-01 
    6.0017900121538803E-01 
    5.7046660878989919E-01 
    5.3941089968721934E-01 
    5.0677202422814638E-01 
    4.7263093348590252E-01 
    4.3725336958892952E-01 
    4.0113215256647905E-01 
    3.6509408126226478E-01 
    3.3049630538125813E-01 
    2.9940138796389126E-01 
    2.7446360409740600E-01 
    2.5819006573067005E-01 
    2.5020724601620359E-01 
    6.8490694511543582E-01 
    6.5986661825066317E-01 
    6.3108207249817927E-01 
    6.0248662867653846E-01 
    5.7312885271156067E-01 
    5.4233050250775583E-01 
    5.0989102699305688E-01 
    4.7588330579522709E-01 
    4.4054685181345810E-01 
    4.0432936486681537E-01 
    3.6798892505582914E-01 
    3.3279663125604286E-01 
    3.0076595020633284E-01 
    2.7464638994683177E-01 
    2.5730640610897215E-01 
    2.4879136772435309E-01 
    6.7627701277649921E-01 
    6.5781332887402322E-01 
    6.3195591512135385E-01 
    6.0442198281066606E-01 
    5.7557350800708240E-01 
    5.4510218519270970E-01 
    5.1289341801622934E-01 
    4.7902872445545286E-01 
    4.4372561725685888E-01 
    4.0737935010414056E-01 
    3.7066446718787793E-01 
    3.3474585611995628E-01 
    3.0157120538608684E-01 
    2.7400087858371835E-01 
    2.5535268981605180E-01 
    2.4624985069238436E-01 
    6.6933452646614244E-01 
    6.5527332306818764E-01 
    6.3224606160156416E-01 
    6.0600295199553256E-01 
    5.7780328513137391E-01 
    5.4772991086329192E-01 
    5.1578655365904735E-01 
    4.8207918457927640E-01 
    4.4680968986475977E-01 
    4.1031670621962923E-01 
    3.7317635652372555E-01 
    3.3642100969171934E-01 
    3.0189868144439164E-01 
    2.7257006830191516E-01 
    2.5227909236609153E-01 
    2.4243238497451114E-01 
    6.6368867600874126E-01 
    6.5261035620479757E-01 
    6.3211698663378912E-01 
    6.0727153683220969E-01 
    5.7983129742785511E-01 
    5.5022202258677011E-01 
    5.1858050681847589E-01 
    4.8504964900073905E-01 
    4.4982130553183941E-01 
    4.1317687612339793E-01 
    3.7558165306957192E-01 
    3.3790576586004267E-01 
    3.0184336962136421E-01 
    2.7041137194322823E-01 
    2.4803466617603978E-01 
    2.3716155532952043E-01 
    6.5906961768796246E-01 
    6.5003581958389611E-01 
    6.3172034690241941E-01 
    6.0828585971568083E-01 
    5.8168104816609811E-01 
    5.5259237927928384E-01 
    5.2128820793094433E-01 
    4.8795723030268950E-01 
    4.5278508821173841E-01 
    4.1599709802199930E-01 
    3.7793985368277927E-01 
    3.3929026053069650E-01 
    3.0151793344531952E-01 
    2.6760630836907212E-01 
    2.4257679522530251E-01 
    2.3023268532842767E-01 
    6.5528684951678795E-01 
    6.4767141612380585E-01 
    6.3118600057817420E-01 
    6.0911147279003230E-01 
    5.8338303088296184E-01 
    5.5485938376842658E-01 
    5.2392608999900803E-01 
    4.9082007852465170E-01 
    4.5572500606248828E-01 
    4.1881421452346695E-01 
    3.8031157281557171E-01 
    3.4067157142569038E-01 
    3.0105670132271944E-01 
    2.6427241340598440E-01 
    2.3588390799348075E-01 
    2.2140852616275006E-01 
    6.5219948066693145E-01 
    6.4558227699421145E-01 
    6.3061884703517324E-01 
    6.0981544310496316E-01 
    5.8497260348532676E-01 
    5.5704483520004211E-01 
    5.2651192111128586E-01 
    4.9365546488997430E-01 
    4.5866233163823378E-01 
    4.2166132540725643E-01 
    3.8275458962579756E-01 
    3.4215054370094716E-01 
    3.0061527548038985E-01 
    2.6057431683602628E-01 
    2.2796089004087527E-01 
    2.1038419018577054E-01 
    6.4970624193796944E-01 
    6.4380307341737530E-01 
    6.3010042928262822E-01 
    6.1046051557978320E-01 
    5.8648824621145057E-01 
    5.5917308153465495E-01 
    5.2906358274440712E-01 
    4.9647973725039451E-01 
    4.6161625526752653E-01 
    4.2456707503452107E-01 
    3.8532125689335944E-01 
    3.4382902410053240E-01 
    3.0037199703937378E-01 
    2.5673884028935051E-01 
    2.1886357172583620E-01 
    1.9675038221429242E-01 
    6.4773140975850207E-01 
    6.4235084099676143E-01 
    6.2969390079669363E-01 
    6.1110475295494404E-01 
    5.8797089606022612E-01 
    5.6127128137791160E-01 
    5.3159987953416532E-01 
    4.9930938900073890E-01 
    4.6460521629234180E-01 
    4.2755640988460081E-01 
    3.8805678913267394E-01 
    3.4580447381862744E-01 
    3.0052565922268543E-01 
    2.5307303095134137E-01 
    2.0874681616121857E-01 
    1.7996995953309514E-01 
    6.4621621441098109E-01 
    6.4123347529272845E-01 
    6.2945044387046700E-01 
    6.1180169468212953E-01 
    5.8946141812767683E-01 
    5.6336854743998088E-01 
    5.3414280667540748E-01 
    5.0216290654342943E-01 
    4.6764737380917715E-01 
    4.3065050746014755E-01 
    3.9099621828127484E-01 
    3.4816139410241648E-01 
    3.0128694883429863E-01 
    2.4997993121287823E-01 
    1.9793603018597744E-01 
    1.5931091632583935E-01 
    6.4511176729403641E-01 
    6.4045232506122429E-01 
    6.2941008161926326E-01 
    6.1259858696833958E-01 
    5.9099862982857210E-01 
    5.6549501540965874E-01 
    5.3671772213328883E-01 
    5.0506104793571160E-01 
    4.7075964375441898E-01 
    4.3386541705840181E-01 
    3.9416248227224276E-01 
    3.5096118096532203E-01 
    3.0285643716238536E-01 
    2.4795790271132248E-01 
    1.8701926650363523E-01 
    1.3368342049754592E-01 
    6.4437614516367903E-01 
    6.4000583722314530E-01 
    6.2960504332049561E-01 
    6.1353791221051546E-01 
    5.9261982658436096E-01 
    5.6768039343531418E-01 
    5.3935136048754562E-01 
    5.0802550357113840E-01 
    4.7395555372292947E-01 
    4.3720865968120265E-01 
    3.9756078217784624E-01 
    3.5423022689185074E-01 
    3.0539047219660054E-01 
    2.4761544044980449E-01 
    1.7716076176390491E-01 
    1.0141055271165238E-01 
    6.4388508583090875E-01 
    6.3982627580250429E-01 
    6.3002933438032127E-01 
    6.1463554258521280E-01 
    5.9433259896520074E-01 
    5.6991060794523718E-01 
    5.4201038450633177E-01 
    5.1101515716794177E-01 
    4.7718492894905934E-01 
    4.4061636597728504E-01 
    4.0109494835414627E-01 
    3.5781396637286211E-01 
    3.0876414407267522E-01 
    2.4928920400528934E-01 
    1.7013020210153645E-01 
    5.9406122387770627E-02 
    6.4371447960953543E-01 
    6.3999228632225535E-01 
    6.3075919822395965E-01 
    6.1596064433235720E-01 
    5.9619462562755920E-01 
    5.7222600183075889E-01 
    5.4471120874709122E-01 
    5.1404306770976482E-01 
    4.8048325324284458E-01 
    4.4415672481999580E-01 
    4.0487297665536731E-01 
    3.6186436629521979E-01 
    3.1322839162318988E-01 
    2.5368972716190730E-01 
    1.6981527377980837E-01 
    0.0000000000000000E+00 

SCALARS Saturarion double 1 
LOOKUP_TABLE default 

    1.0000000000010543E+00 
    9.6803030995285022E-01 
    9.0765817941884119E-01 
    8.5116623859098905E-01 
    8.0325484877137066E-01 
    7.6227298379165676E-01 
    7.2769515516629479E-01 
    6.9752937172386298E-01 
    6.7029428516358147E-01 
    6.4491164539293544E-01 
    6.2065935522607241E-01 
    5.9640908531480363E-01 
    5.6997563273641094E-01 
    5.3713146166000836E-01 
    4.8670778841802281E-01 
    1.8920794475350278E-01 
    9.8904837207937935E-01 
    9.6186702915399303E-01 
    9.0534663305553109E-01 
    8.5022888046196343E-01 
    8.0210192003911085E-01 
    7.6136414759848348E-01 
    7.2685874000954342E-01 
    6.9659709640186007E-01 
    6.6939834117418562E-01 
    6.4433293580818551E-01 
    6.2057041803033541E-01 
    5.9700775477771473E-01 
    5.7149058837293376E-01 
    5.3949749965594529E-01 
    4.9144144234773435E-01 
    2.2257871755791805E-01 
    9.6772207668387045E-01 
    9.4548336779843456E-01 
    8.9641299212854664E-01 
    8.4449264756327946E-01 
    7.9790901860635599E-01 
    7.5840984971006242E-01 
    7.2471030366572864E-01 
    6.9434703717585755E-01 
    6.6717165761609831E-01 
    6.4272419830262029E-01 
    6.1986655922050693E-01 
    5.9714663574824012E-01 
    5.7267226354160761E-01 
    5.4271127247971873E-01 
    4.9709099931879913E-01 
    2.5341275307696859E-01 
    9.4281921041835770E-01 
    9.2348590898004512E-01 
    8.8095930578728321E-01 
    8.3469230984524245E-01 
    7.9081422180931082E-01 
    7.5275159947722392E-01 
    7.1988995126801958E-01 
    6.9059984183152401E-01 
    6.6413022513487519E-01 
    6.4020427721972017E-01 
    6.1811362195991149E-01 
    5.9676462653513340E-01 
    5.7395522138375099E-01 
    5.4570439804618709E-01 
    5.0276890610181990E-01 
    2.8263964894028321E-01 
    9.1463125361180120E-01 
    8.9780892604416562E-01 
    8.6115512463897315E-01 
    8.1886479076182916E-01 
    7.7841054340409932E-01 
    7.4300728979890573E-01 
    7.1182244774777037E-01 
    6.8391106028449888E-01 
    6.5878402785716317E-01 
    6.3602029563781270E-01 
    6.1521628612054113E-01 
    5.9556353225493541E-01 
    5.7494462874065633E-01 
    5.4874726817495589E-01 
    5.0843542009789389E-01 
    3.0639076648288338E-01 
    8.8266663866040940E-01 
    8.6922541853152069E-01 
    8.3805583923977955E-01 
    8.0020924721263509E-01 
    7.6330808849621390E-01 
    7.2997876291086283E-01 
    7.0015787762036708E-01 
    6.7390346724235206E-01 
    6.5060066110927928E-01 
    6.2960731805988368E-01 
    6.1039745258021672E-01 
    5.9254282351996712E-01 
    5.7483009092608539E-01 
    5.5164621889409882E-01 
    5.1352947873739863E-01 
    3.2704148273410166E-01 
    8.4816357361578554E-01 
    8.3848974539709276E-01 
    8.1248766873884470E-01 
    7.7867967977458785E-01 
    7.4546916022518595E-01 
    7.1465661364959321E-01 
    6.8711179690338986E-01 
    6.6259342105940855E-01 
    6.4072030886313325E-01 
    6.2114492215918604E-01 
    6.0384942814177800E-01 
    5.8834353364899050E-01 
    5.7301828459743653E-01 
    5.5409568558885913E-01 
    5.1906836240533027E-01 
    3.4658118937780341E-01 
    8.1072860013558645E-01 
    8.0476876156355226E-01 
    7.8444805451479782E-01 
    7.5568727302922178E-01 
    7.2520308772135778E-01 
    6.9663632122499741E-01 
    6.7119946244049544E-01 
    6.4869328769690693E-01 
    6.2846101459999282E-01 
    6.1060042992390695E-01 
    5.9513497144586913E-01 
    5.8185861160687646E-01 
    5.6983931063625748E-01 
    5.5508874162715027E-01 
    5.2499758417495790E-01 
    3.6585105236154880E-01 
    7.7021449902536765E-01 
    7.6790363920947680E-01 
    7.5353554791831756E-01 
    7.2970243288198267E-01 
    7.0281269900705490E-01 
    6.7668303577999089E-01 
    6.5311369007770759E-01 
    6.3191034418554481E-01 
    6.1300683490586183E-01 
    5.9664868339701627E-01 
    5.8315773227935552E-01 
    5.7270276383785923E-01 
    5.6429350206275819E-01 
    5.5426197939033839E-01 
    5.3068325839959729E-01 
    3.8376928439354258E-01 
    7.2721823884208636E-01 
    7.2820578363434540E-01 
    7.1905103089246847E-01 
    6.9982601698479086E-01 
    6.7691438446203400E-01 
    6.5398321444942220E-01 
    6.3211280876420595E-01 
    6.1223832772539533E-01 
    5.9479500742857128E-01 
    5.7981360352309730E-01 
    5.6766241302039300E-01 
    5.5955606981862216E-01 
    5.5549201538304638E-01 
    5.5129011009613604E-01 
    5.3519262729444361E-01 
    4.0120008420075115E-01 
    6.8072057616215298E-01 
    6.8471029245296533E-01 
    6.8056314337206247E-01 
    6.6614122125775477E-01 
    6.4742476944910821E-01 
    6.2742928032261192E-01 
    6.0793293081783284E-01 
    5.8973796321785399E-01 
    5.7378932655347104E-01 
    5.6030602818432929E-01 
    5.4951711655594804E-01 
    5.4258700311113495E-01 
    5.4171791814842896E-01 
    5.4489552230909488E-01 
    5.3789839630292702E-01 
    4.1868000426025320E-01 
    6.3005594827716782E-01 
    6.3702131538767326E-01 
    6.3801585978267250E-01 
    6.2801984663713450E-01 
    6.1241939393093892E-01 
    5.9512359244388890E-01 
    5.7816090173263734E-01 
    5.6246320702343688E-01 
    5.4849993330293212E-01 
    5.3678350818628429E-01 
    5.2760656558971553E-01 
    5.2205109666287464E-01 
    5.2284581362622706E-01 
    5.3247946492233367E-01 
    5.3768896833494706E-01 
    4.3568647673326527E-01 
    5.7223078797594296E-01 
    5.8206280605199712E-01 
    5.8783794832844782E-01 
    5.8243774996535269E-01 
    5.7075654018904509E-01 
    5.5626420718016834E-01 
    5.4184246835056382E-01 
    5.2831458456278246E-01 
    5.1591365056030636E-01 
    5.0542202255363078E-01 
    4.9814408848472519E-01 
    4.9490380747866280E-01 
    4.9802793052535338E-01 
    5.1197520355440274E-01 
    5.2909608069648861E-01 
    4.5092766867952860E-01 
    5.0332352887480847E-01 
    5.1656179177762696E-01 
    5.2700171701266529E-01 
    5.2648583286033745E-01 
    5.1801886430544075E-01 
    5.0583952269362964E-01 
    4.9299621774893060E-01 
    4.8181393113254128E-01 
    4.7059985917542485E-01 
    4.6045265629661764E-01 
    4.5372456022094854E-01 
    4.5111788265394731E-01 
    4.5862129907459526E-01 
    4.8064466388546462E-01 
    5.1503806715883271E-01 
    4.6113488734815011E-01 
    2.9399855347752335E-01 
    3.6044603216578902E-01 
    4.0932283033552280E-01 
    4.2543145906679986E-01 
    4.1791560140542150E-01 
    3.9764060875267387E-01 
    3.6081948694226806E-01 
    3.0994972590957470E-01 
    2.6149826869937753E-01 
    2.0969395249426112E-01 
    1.7745447153216423E-01 
    1.8478058614721912E-01 
    2.3341857858062298E-01 
    3.4862906776514002E-01 
    4.6164998333961910E-01 
    4.6062292104589536E-01 
    4.5251843748364387E-05 
    1.4375496112783747E-02 
    1.8285769003794538E-02 
    1.6222734390778183E-02 
    1.1441178007700942E-02 
    6.2975376755453616E-03 
    1.0660942258329457E-03 
    1.9670068677810158E-04 
    1.2147706799218754E-04 
    5.9250493501280770E-06 
    2.8619756814844201E-05 
    1.0888824227847933E-05 
    3.0613127475743774E-04 
    6.6101510526348259E-02 
    3.0021870381288546E-01 
    4.1883535817848511E-01 
