# vtk DataFile Version 2.0
Pressure Field Data 
ASCII 
DATASET UNSTRUCTURED_GRID 

POINTS 289 double 

    0.0000000000000000E+00     0.0000000000000000E+00     0.0000000000000000E+00 
    1.0000000000000000E+00     0.0000000000000000E+00     0.0000000000000000E+00 
    1.0000000000000000E+00     1.0000000000000000E+00     0.0000000000000000E+00 
    0.0000000000000000E+00     1.0000000000000000E+00     0.0000000000000000E+00 
    6.2499999999872928E-02     0.0000000000000000E+00     0.0000000000000000E+00 
    1.2499999999977310E-01     0.0000000000000000E+00     0.0000000000000000E+00 
    1.8749999999959341E-01     0.0000000000000000E+00     0.0000000000000000E+00 
    2.4999999999941089E-01     0.0000000000000000E+00     0.0000000000000000E+00 
    3.1249999999922851E-01     0.0000000000000000E+00     0.0000000000000000E+00 
    3.7499999999904610E-01     0.0000000000000000E+00     0.0000000000000000E+00 
    4.3749999999886358E-01     0.0000000000000000E+00     0.0000000000000000E+00 
    4.9999999999869210E-01     0.0000000000000000E+00     0.0000000000000000E+00 
    5.6249999999884603E-01     0.0000000000000000E+00     0.0000000000000000E+00 
    6.2499999999901090E-01     0.0000000000000000E+00     0.0000000000000000E+00 
    6.8749999999917577E-01     0.0000000000000000E+00     0.0000000000000000E+00 
    7.4999999999934064E-01     0.0000000000000000E+00     0.0000000000000000E+00 
    8.1249999999950551E-01     0.0000000000000000E+00     0.0000000000000000E+00 
    8.7499999999967026E-01     0.0000000000000000E+00     0.0000000000000000E+00 
    9.3749999999983513E-01     0.0000000000000000E+00     0.0000000000000000E+00 
    1.0000000000000000E+00     6.2499999999872928E-02     0.0000000000000000E+00 
    1.0000000000000000E+00     1.2499999999977310E-01     0.0000000000000000E+00 
    1.0000000000000000E+00     1.8749999999959341E-01     0.0000000000000000E+00 
    1.0000000000000000E+00     2.4999999999941089E-01     0.0000000000000000E+00 
    1.0000000000000000E+00     3.1249999999922851E-01     0.0000000000000000E+00 
    1.0000000000000000E+00     3.7499999999904610E-01     0.0000000000000000E+00 
    1.0000000000000000E+00     4.3749999999886358E-01     0.0000000000000000E+00 
    1.0000000000000000E+00     4.9999999999869210E-01     0.0000000000000000E+00 
    1.0000000000000000E+00     5.6249999999884603E-01     0.0000000000000000E+00 
    1.0000000000000000E+00     6.2499999999901090E-01     0.0000000000000000E+00 
    1.0000000000000000E+00     6.8749999999917577E-01     0.0000000000000000E+00 
    1.0000000000000000E+00     7.4999999999934064E-01     0.0000000000000000E+00 
    1.0000000000000000E+00     8.1249999999950551E-01     0.0000000000000000E+00 
    1.0000000000000000E+00     8.7499999999967026E-01     0.0000000000000000E+00 
    1.0000000000000000E+00     9.3749999999983513E-01     0.0000000000000000E+00 
    9.3749999999973976E-01     1.0000000000000000E+00     0.0000000000000000E+00 
    8.7499999999950118E-01     1.0000000000000000E+00     0.0000000000000000E+00 
    8.1249999999991318E-01     1.0000000000000000E+00     0.0000000000000000E+00 
    7.5000000000034706E-01     1.0000000000000000E+00     0.0000000000000000E+00 
    6.8750000000078049E-01     1.0000000000000000E+00     0.0000000000000000E+00 
    6.2500000000121403E-01     1.0000000000000000E+00     0.0000000000000000E+00 
    5.6250000000164757E-01     1.0000000000000000E+00     0.0000000000000000E+00 
    5.0000000000205946E-01     1.0000000000000000E+00     0.0000000000000000E+00 
    4.3750000000182099E-01     1.0000000000000000E+00     0.0000000000000000E+00 
    3.7500000000156092E-01     1.0000000000000000E+00     0.0000000000000000E+00 
    3.1250000000130068E-01     1.0000000000000000E+00     0.0000000000000000E+00 
    2.5000000000104050E-01     1.0000000000000000E+00     0.0000000000000000E+00 
    1.8750000000078040E-01     1.0000000000000000E+00     0.0000000000000000E+00 
    1.2500000000052031E-01     1.0000000000000000E+00     0.0000000000000000E+00 
    6.2500000000260125E-02     1.0000000000000000E+00     0.0000000000000000E+00 
    0.0000000000000000E+00     9.3749999999973976E-01     0.0000000000000000E+00 
    0.0000000000000000E+00     8.7499999999950118E-01     0.0000000000000000E+00 
    0.0000000000000000E+00     8.1249999999991318E-01     0.0000000000000000E+00 
    0.0000000000000000E+00     7.5000000000034706E-01     0.0000000000000000E+00 
    0.0000000000000000E+00     6.8750000000078049E-01     0.0000000000000000E+00 
    0.0000000000000000E+00     6.2500000000121403E-01     0.0000000000000000E+00 
    0.0000000000000000E+00     5.6250000000164757E-01     0.0000000000000000E+00 
    0.0000000000000000E+00     5.0000000000205946E-01     0.0000000000000000E+00 
    0.0000000000000000E+00     4.3750000000182099E-01     0.0000000000000000E+00 
    0.0000000000000000E+00     3.7500000000156092E-01     0.0000000000000000E+00 
    0.0000000000000000E+00     3.1250000000130068E-01     0.0000000000000000E+00 
    0.0000000000000000E+00     2.5000000000104050E-01     0.0000000000000000E+00 
    0.0000000000000000E+00     1.8750000000078040E-01     0.0000000000000000E+00 
    0.0000000000000000E+00     1.2500000000052031E-01     0.0000000000000000E+00 
    0.0000000000000000E+00     6.2500000000260125E-02     0.0000000000000000E+00 
    6.2499999999897131E-02     6.2500000000235922E-02     0.0000000000000000E+00 
    6.2499999999921327E-02     1.2500000000047351E-01     0.0000000000000000E+00 
    6.2499999999945530E-02     1.8750000000070621E-01     0.0000000000000000E+00 
    6.2499999999969733E-02     2.5000000000093858E-01     0.0000000000000000E+00 
    6.2499999999993928E-02     3.1250000000117117E-01     0.0000000000000000E+00 
    6.2500000000018124E-02     3.7500000000140382E-01     0.0000000000000000E+00 
    6.2500000000042327E-02     4.3750000000163619E-01     0.0000000000000000E+00 
    6.2500000000066530E-02     5.0000000000184897E-01     0.0000000000000000E+00 
    6.2500000000090733E-02     5.6250000000147260E-01     0.0000000000000000E+00 
    6.2500000000114922E-02     6.2500000000107636E-01     0.0000000000000000E+00 
    6.2500000000139125E-02     6.8750000000068034E-01     0.0000000000000000E+00 
    6.2500000000163328E-02     7.5000000000028411E-01     0.0000000000000000E+00 
    6.2500000000187531E-02     8.1249999999988787E-01     0.0000000000000000E+00 
    6.2500000000211720E-02     8.7499999999951172E-01     0.0000000000000000E+00 
    6.2500000000235922E-02     9.3749999999974565E-01     0.0000000000000000E+00 
    1.2499999999981980E-01     6.2500000000211733E-02     0.0000000000000000E+00 
    1.2499999999986650E-01     1.2500000000042691E-01     0.0000000000000000E+00 
    1.2499999999991319E-01     1.8750000000063199E-01     0.0000000000000000E+00 
    1.2499999999995989E-01     2.5000000000083678E-01     0.0000000000000000E+00 
    1.2500000000000661E-01     3.1250000000104172E-01     0.0000000000000000E+00 
    1.2500000000005329E-01     3.7500000000124661E-01     0.0000000000000000E+00 
    1.2500000000010000E-01     4.3750000000145117E-01     0.0000000000000000E+00 
    1.2500000000014669E-01     5.0000000000163858E-01     0.0000000000000000E+00 
    1.2500000000019340E-01     5.6250000000129741E-01     0.0000000000000000E+00 
    1.2500000000024011E-01     6.2500000000093847E-01     0.0000000000000000E+00 
    1.2500000000028680E-01     6.8750000000057998E-01     0.0000000000000000E+00 
    1.2500000000033351E-01     7.5000000000022127E-01     0.0000000000000000E+00 
    1.2500000000038020E-01     8.1249999999986211E-01     0.0000000000000000E+00 
    1.2500000000042691E-01     8.7499999999952238E-01     0.0000000000000000E+00 
    1.2500000000047359E-01     9.3749999999975164E-01     0.0000000000000000E+00 
    1.8749999999966760E-01     6.2500000000187531E-02     0.0000000000000000E+00 
    1.8749999999974179E-01     1.2500000000038020E-01     0.0000000000000000E+00 
    1.8749999999981601E-01     1.8750000000055780E-01     0.0000000000000000E+00 
    1.8749999999989009E-01     2.5000000000073502E-01     0.0000000000000000E+00 
    1.8749999999996431E-01     3.1250000000091221E-01     0.0000000000000000E+00 
    1.8750000000003850E-01     3.7500000000108941E-01     0.0000000000000000E+00 
    1.8750000000011269E-01     4.3750000000126649E-01     0.0000000000000000E+00 
    1.8750000000018691E-01     5.0000000000142808E-01     0.0000000000000000E+00 
    1.8750000000026110E-01     5.6250000000112244E-01     0.0000000000000000E+00 
    1.8750000000033529E-01     6.2500000000080080E-01     0.0000000000000000E+00 
    1.8750000000040951E-01     6.8750000000047962E-01     0.0000000000000000E+00 
    1.8750000000048361E-01     7.5000000000015843E-01     0.0000000000000000E+00 
    1.8750000000055780E-01     8.1249999999983680E-01     0.0000000000000000E+00 
    1.8750000000063199E-01     8.7499999999953304E-01     0.0000000000000000E+00 
    1.8750000000070621E-01     9.3749999999975764E-01     0.0000000000000000E+00 
    2.4999999999951281E-01     6.2500000000163314E-02     0.0000000000000000E+00 
    2.4999999999961461E-01     1.2500000000033351E-01     0.0000000000000000E+00 
    2.4999999999971650E-01     1.8750000000048361E-01     0.0000000000000000E+00 
    2.4999999999981831E-01     2.5000000000063310E-01     0.0000000000000000E+00 
    2.4999999999992020E-01     3.1250000000078260E-01     0.0000000000000000E+00 
    2.5000000000002198E-01     3.7500000000093209E-01     0.0000000000000000E+00 
    2.5000000000012390E-01     4.3750000000108180E-01     0.0000000000000000E+00 
    2.5000000000022571E-01     5.0000000000121769E-01     0.0000000000000000E+00 
    2.5000000000032763E-01     5.6250000000094724E-01     0.0000000000000000E+00 
    2.5000000000042938E-01     6.2500000000066314E-01     0.0000000000000000E+00 
    2.5000000000053119E-01     6.8750000000037925E-01     0.0000000000000000E+00 
[...]
CELL_DATA 256 
SCALARS Pressure double 1 
LOOKUP_TABLE default 

    1.1875074210243168E+00 
    1.1215405452705081E+00 
    1.0653520782442787E+00 
    1.0037875393075621E+00 
    9.3103676028940308E-01 
    8.5055993154353282E-01 
    7.7514399257993249E-01 
    7.0373488415911611E-01 
    6.3475480717219002E-01 
    5.6819212316978984E-01 
    5.0482711756812026E-01 
    4.4635438120210108E-01 
    3.9556081202040849E-01 
    3.5604605802391570E-01 
    3.3100483055575319E-01 
    3.2093205518938805E-01 
    1.1725946808927405E+00 
    1.1236272719573712E+00 
    1.0695149744781658E+00 
    1.0092448675520316E+00 
    9.3754296307746399E-01 
    8.5750847777479766E-01 
    7.8215645055211758E-01 
    7.1056475790468998E-01 
    6.4135150970286881E-01 
    5.7443709934311959E-01 
    5.1051559038785455E-01 
    4.5117550529505607E-01 
    3.9913011310630875E-01 
    3.5805048506148462E-01 
    3.3146930342892977E-01 
    3.2049142719510937E-01 
    1.1594225324326968E+00 
    1.1222193853353015E+00 
    1.0717897995507062E+00 
    1.0133730086911867E+00 
    9.4286594141170998E-01 
    8.6358934002307863E-01 
    7.8880956554406956E-01 
    7.1720694542904295E-01 
    6.4779597812832557E-01 
    5.8048867210819644E-01 
    5.1589521717856623E-01 
    4.5548561202230220E-01 
    4.0189932301737524E-01 
    3.5893671060360022E-01 
    3.3062854945721770E-01 
    3.1888793697245871E-01 
    1.1472612792594852E+00 
    1.1184802943202357E+00 
    1.0722933270693873E+00 
    1.0161405664469474E+00 
    9.4700430872674379E-01 
    8.6888219179708470E-01 
    7.9508403139087147E-01 
    7.2365593603229894E-01 
    6.5410466942404244E-01 
    5.8638782448681692E-01 
    5.2103565650224326E-01 
    4.5938041880403485E-01 
    4.0396617426283099E-01 
    3.5874809776946914E-01 
    3.2840353296618097E-01 
    3.1590013863336236E-01 
    1.1361019077628043E+00 
    1.1133627931295202E+00 
    1.0713863614578714E+00 
    1.0175323734601680E+00 
    9.4992590866016879E-01 
    8.7356466240761432E-01 
    8.0099848229921844E-01 
    7.2991713636866429E-01 
    6.6029712239254790E-01 
    5.9217707259928165E-01 
    5.2600959676645409E-01 
    4.6296352123489004E-01 
    4.0544215882050905E-01 
    3.5754035136303874E-01 
    3.2471168163145298E-01 
    3.1129804798179861E-01 
    1.1258767299545931E+00 
    1.1074835725110002E+00 
    1.0693957326711483E+00 
    1.0175707784387589E+00 
    9.5166882204488978E-01 
    8.7788180894744949E-01 
    8.0660547911174518E-01 
    7.3600763947123282E-01 
    6.6639594896867305E-01 
    5.9789978268993049E-01 
    5.3089194827659103E-01 
    4.6634726409725635E-01 
    4.0645795127842588E-01 
    3.5539155009077100E-01 
    3.1947120187387257E-01 
    3.0482598700682423E-01 
    1.1165359136539792E+00 
    1.1012581753818977E+00 
    1.0664135916355277E+00 
    1.0163372230834180E+00 
    9.5256403723339977E-01 
    8.8199896430812608E-01 
    8.1197013416257990E-01 
    7.4195407078576492E-01 
    6.7242749044603334E-01 
    6.0359922556984158E-01 
    5.3575893992785206E-01 
    4.6965254042228655E-01 
    4.0716857711570259E-01 
    3.5241492535843538E-01 
    3.1260942795638336E-01 
    2.9618727239905807E-01 
    1.1080391044249835E+00 
    1.0948767842235396E+00 
    1.0623189051406479E+00 
    1.0139971432190233E+00 
    9.5315899595137255E-01 
    8.8589381330389294E-01 
    8.1714940152377280E-01 
    7.4778873701984583E-01 
    6.7841964574509994E-01 
    6.0931734789382608E-01 
    5.4068537113213522E-01 
    4.7300734566173913E-01 
    4.0775727416743268E-01 
    3.4877367440277673E-01 
    3.0407515380381828E-01 
    2.8502127274694816E-01 
    1.0990794931859647E+00 
    1.0874766306173576E+00 
    1.0571133874366425E+00 
    1.0113989625992670E+00 
    9.5397020190331983E-01 
    8.8954691619524140E-01 
    8.2219144488128959E-01 
    7.5354658170283972E-01 
    6.8440108550202083E-01 
    6.1509338785293266E-01 
    5.4574207044858181E-01 
    4.7654321363897323E-01 
    4.0843759357447357E-01 
    3.4470020539446194E-01 
    2.9386230876346769E-01 
    2.7087441836722176E-01 
    1.0905856695519589E+00 
    1.0799509674362662E+00 
    1.0520629268873645E+00 
    1.0094451750193270E+00 
    9.5512444866801327E-01 
    8.9308801048582653E-01 
    8.2715163516726342E-01 
    7.5926449116239547E-01 
    6.9040007828595518E-01 
    6.2096236754314782E-01 
    5.5099256875721192E-01 
    4.8038956171072328E-01 
    4.0945175696684649E-01 
    3.4051833138773230E-01 
    2.8205021606426772E-01 
    2.5315888437043466E-01 
    1.0841693989007550E+00 
    1.0742766800829449E+00 
    1.0484326022583854E+00 
    1.0083011266591559E+00 
    9.5653658181016443E-01 
    8.9664837332928182E-01 
    8.3209289443196699E-01 
    7.6498108558276512E-01 
    6.9644410477836838E-01 
    6.2695377600495106E-01 
    5.5648981294204269E-01 
    4.8466564300039339E-01 
    4.1106300835224602E-01 
    3.3666668332269334E-01 
    2.6887287129966569E-01 
    2.3109650037979335E-01 
    1.0793285501476770E+00 
    1.0699518805232513E+00 
    1.0458108895942206E+00 
    1.0078440085482538E+00 
    9.5831257858535890E-01 
    9.0033499604820233E-01 
    8.3708078303281996E-01 
    7.7073581671852831E-01 
    7.0255866017731305E-01 
    6.3309051816686202E-01 
    5.6227245877980803E-01 
    4.8947033515995242E-01 
    4.1353830625485954E-01 
    3.3371609285403170E-01 
    2.5483463624198588E-01 
    2.0363418106553433E-01 
    1.0758675791143262E+00 
    1.0669014492635007E+00 
    1.0442101210451167E+00 
    1.0081274832986591E+00 
    9.6053937152559443E-01 
    9.0424212591125908E-01 
    8.4217995376186283E-01 
    7.7656823357488280E-01 
    7.0876712373513118E-01 
    6.3938844752887669E-01 
    5.6836242026283024E-01 
    4.9487078841699550E-01 
    4.1711898635467176E-01 
    3.3236887447311286E-01 
    2.4090660896652671E-01 
    1.6931881157132780E-01 
    1.0736128090859660E+00 
    1.0650483731116616E+00 
    1.0436341521464536E+00 
    1.0091994257003294E+00 
    9.6329396349701646E-01 
    9.0845366818048978E-01 
    8.4745257564197751E-01 
    7.8251716363521640E-01 
    7.1509057002448861E-01 
    6.4585652586889564E-01 
    5.7476393617643162E-01 
    5.0089254003636274E-01 
    4.2197771511444698E-01 
    3.3341020442340685E-01 
    2.2885606677729964E-01 
    1.2610853845206391E-01 
    1.0723996606004393E+00 
    1.0643150137123016E+00 
    1.0440809045261992E+00 
    1.0111028099576855E+00 
    9.6664603950283201E-01 
    9.1304546680739318E-01 
    8.5295764922772344E-01 
    7.8862009027096491E-01 
    7.2154774599391247E-01 
    6.5249757370444461E-01 
    5.8146474285946037E-01 
    5.0751468072908534E-01 
    4.2816694399071831E-01 
    3.3755443162805643E-01 
    2.2179944250620540E-01 
    7.1084717476239109E-02 
    1.0720634565706453E+00 
    1.0646251173083279E+00 
    1.0455458560894719E+00 
    1.0138777621761026E+00 
    9.7066034869991491E-01 
    9.1808731130296306E-01 
    8.5875089327448417E-01 
    7.9491276269465827E-01 
    7.2815517117907125E-01 
    6.5930945531269691E-01 
    5.8843933082798405E-01 
    5.1467409518641172E-01 
    4.3558117444577965E-01 
    3.4507581864834536E-01 
    2.2513036217257623E-01 
    0.0000000000000000E+00 

SCALARS Saturarion double 1 
LOOKUP_TABLE default 

    9.9999989336368811E-01 
    8.3646797836930797E-01 
    6.6214154105798473E-01 
    5.3408129177103614E-01 
    3.9491264196768860E-01 
    1.1962616327923142E-02 
    1.0000000330624456E-06 
    1.0000000000000099E-06 
    9.9999999999999995E-07 
    9.9999999999999995E-07 
    9.9999999999999995E-07 
    9.9999999999999995E-07 
    9.9999999999999995E-07 
    9.9999999999999995E-07 
    9.9999999999999995E-07 
    9.9999999999999995E-07 
    9.1568595009686937E-01 
    8.0974644304509125E-01 
    6.5238415569740127E-01 
    5.3033031165135047E-01 
    3.8908629516507054E-01 
    9.6872781593821625E-03 
    1.0278781405397449E-06 
    1.0000000023398459E-06 
    1.0000000000000002E-06 
    9.9999999999999995E-07 
    9.9999999999999995E-07 
    9.9999999999999995E-07 
    9.9999999999999995E-07 
    9.9999999999999995E-07 
    9.9999999999999995E-07 
    9.9999999999999995E-07 
    8.1030238677180044E-01 
    7.4575922843178433E-01 
    6.2531468288853387E-01 
    5.2228491551561773E-01 
    3.7013739279908181E-01 
    4.5644740459114706E-03 
    1.1286369312651820E-06 
    1.0000000105512791E-06 
    9.9999999999999974E-07 
    9.9999999999999995E-07 
    9.9999999999999995E-07 
    9.9999999999999995E-07 
    9.9999999999999995E-07 
    9.9999999999999995E-07 
    9.9999999999999995E-07 
    9.9999999999999995E-07 
    7.2571194802431438E-01 
    6.8326567594103160E-01 
    5.9800900982708860E-01 
    5.0833738096072134E-01 
    3.3005557578203992E-01 
    1.6090074044247851E-03 
    1.0622422306541577E-06 
    1.0000000128421094E-06 
    9.9999999999999995E-07 
    9.9999999999999995E-07 
    9.9999999999999995E-07 
    9.9999999999999995E-07 
    9.9999999999999995E-07 
    9.9999999999999995E-07 
    9.9999999999999995E-07 
    9.9999999999999995E-07 
    6.5490041758088180E-01 
    6.2572912470997877E-01 
    5.6103971784813844E-01 
    4.8994902491091985E-01 
    2.5598423808070536E-01 
    3.9847553071866278E-04 
    1.0263639683879400E-06 
    1.0000000010791712E-06 
    9.9999999999999974E-07 
    9.9999999999999995E-07 
    9.9999999999999995E-07 
    9.9999999999999995E-07 
    9.9999999999999995E-07 
    9.9999999999999995E-07 
    9.9999999999999995E-07 
    9.9999999999999995E-07 
    5.9115867460095439E-01 
    5.7034865617519837E-01 
    5.2137210227171338E-01 
    4.5351051750242405E-01 
    1.4093347098955925E-01 
    2.3620960867951193E-04 
    1.0170736169096797E-06 
    9.9999999999999784E-07 
    9.9999999999999995E-07 
    9.9999999999999995E-07 
    9.9999999999999995E-07 
    9.9999999999999995E-07 
    9.9999999999999995E-07 
    9.9999999999999995E-07 
    9.9999999999999995E-07 
    9.9999999999999995E-07 
    5.3429044629967348E-01 
    5.2073409603351750E-01 
    4.7647662546091107E-01 
    3.5675009209378561E-01 
    2.8416205803488651E-02 
    3.1688696132886157E-05 
    1.0000789405028314E-06 
    1.0000000000000008E-06 
    9.9999999999999995E-07 
    9.9999999999999995E-07 
    9.9999999999999995E-07 
    9.9999999999999995E-07 
    9.9999999999999995E-07 
    9.9999999999999995E-07 
    9.9999999999999995E-07 
    9.9999999999999995E-07 
    4.7923519395564235E-01 
    4.7017900222306369E-01 
    4.0270836924566655E-01 
    1.1801095994680991E-01 
    4.7169777690726599E-04 
    1.0422253908070688E-06 
    1.0000000000107357E-06 
    9.9999999999999995E-07 
    9.9999999999999995E-07 
    9.9999999999999995E-07 
    9.9999999999999995E-07 
    9.9999999999999995E-07 
    9.9999999999999995E-07 
    9.9999999999999995E-07 
    9.9999999999999995E-07 
    9.9999999999999995E-07 
    3.2544754453908864E-01 
    2.7043379804124507E-01 
    9.5056672006283080E-02 
    1.4941680433274279E-03 
    1.1895696365829422E-06 
    1.0000000312812522E-06 
    1.0000000000000025E-06 
    9.9999999999999995E-07 
    9.9999999999999995E-07 
    9.9999999999999995E-07 
    9.9999999999999995E-07 
    9.9999999999999995E-07 
    9.9999999999999995E-07 
    9.9999999999999995E-07 
    9.9999999999999995E-07 
    9.9999999999999995E-07 
    1.1587723078480014E-03 
    1.0618911825951557E-03 
    3.5079677843020789E-04 
    1.1471715135907175E-06 
    1.0000000536254246E-06 
    1.0000000000000110E-06 
    9.9999999999999995E-07 
    9.9999999999999995E-07 
    9.9999999999999995E-07 
    9.9999999999999995E-07 
    9.9999999999999995E-07 
    9.9999999999999995E-07 
    9.9999999999999995E-07 
    9.9999999999999995E-07 
    9.9999999999999995E-07 
    9.9999999999999995E-07 
    1.0000003282800260E-06 
    1.0180860113220462E-06 
    1.0183686583147724E-06 
    1.0000000195748291E-06 
    1.0000000000000084E-06 
    9.9999999999999995E-07 
    9.9999999999999995E-07 
    9.9999999999999995E-07 
    9.9999999999999995E-07 
    9.9999999999999995E-07 
    9.9999999999999995E-07 
    9.9999999999999995E-07 
    9.9999999999999995E-07 
    9.9999999999999995E-07 
    9.9999999999999995E-07 
    9.9999999999999995E-07 
    1.0000000000000487E-06 
    1.0000000007002946E-06 
    1.0000000000000002E-06 
    1.0000000000000008E-06 
    9.9999999999999995E-07 
    9.9999999999999995E-07 
    9.9999999999999995E-07 
    9.9999999999999995E-07 
    9.9999999999999995E-07 
    9.9999999999999995E-07 
    9.9999999999999995E-07 
    9.9999999999999995E-07 
    9.9999999999999995E-07 
    9.9999999999999995E-07 
    9.9999999999999995E-07 
    9.9999999999999995E-07 
    9.9999999999999995E-07 
    9.9999999999999995E-07 
    9.9999999999999995E-07 
    9.9999999999999995E-07 
    9.9999999999999995E-07 
    9.9999999999999995E-07 
    9.9999999999999995E-07 
    9.9999999999999995E-07 
    9.9999999999999995E-07 
    9.9999999999999995E-07 
    9.9999999999999995E-07 
    9.9999999999999995E-07 
    9.9999999999999995E-07 
    9.9999999999999995E-07 
    9.9999999999999995E-07 
    9.9999999999999995E-07 
    9.9999999999999995E-07 
    9.9999999999999995E-07 
    9.9999999999999995E-07 
    9.9999999999999995E-07 
    9.9999999999999995E-07 
    9.9999999999999995E-07 
    9.9999999999999995E-07 
    9.9999999999999995E-07 
    9.9999999999999995E-07 
    9.9999999999999995E-07 
    9.9999999999999995E-07 
    9.9999999999999995E-07 
    9.9999999999999995E-07 
    9.9999999999999995E-07 
    9.9999999999999995E-07 
    9.9999999999999995E-07 
    9.9999999999999995E-07 
    9.9999999999999995E-07 
    9.9999999999999995E-07 
    9.9999999999999995E-07 
    9.9999999999999995E-07 
    9.9999999999999995E-07 
    9.9999999999999995E-07 
    9.9999999999999995E-07 
    9.9999999999999995E-07 
    9.9999999999999995E-07 
    9.9999999999999995E-07 
    9.9999999999999995E-07 
    9.9999999999999995E-07 
    9.9999999999999995E-07 
    9.9999999999999995E-07 
    9.9999999999999995E-07 
    9.9999999999999995E-07 
    9.9999999999999995E-07 
    9.9999999999999995E-07 
    9.9999999999999995E-07 
    9.9999999999999995E-07 
    9.9999999999999995E-07 
    9.9999999999999995E-07 
    9.9999999999999995E-07 
    9.9999999999999995E-07 
    9.9999999999999995E-07 
    9.9999999999999995E-07 
    9.9999999999999995E-07 
    9.9999999999999995E-07 
    9.9999999999999995E-07 
    9.9999999999999995E-07 
    1.0000000253248513E-06 
