# vtk DataFile Version 2.0
Pressure Field Data 
ASCII 
DATASET UNSTRUCTURED_GRID 

POINTS 289 double 

    0.0000000000000000E+00     0.0000000000000000E+00     0.0000000000000000E+00 
    1.0000000000000000E+00     0.0000000000000000E+00     0.0000000000000000E+00 
    1.0000000000000000E+00     1.0000000000000000E+00     0.0000000000000000E+00 
    0.0000000000000000E+00     1.0000000000000000E+00     0.0000000000000000E+00 
    6.2499999999872928E-02     0.0000000000000000E+00     0.0000000000000000E+00 
    1.2499999999977310E-01     0.0000000000000000E+00     0.0000000000000000E+00 
    1.8749999999959341E-01     0.0000000000000000E+00     0.0000000000000000E+00 
    2.4999999999941089E-01     0.0000000000000000E+00     0.0000000000000000E+00 
    3.1249999999922851E-01     0.0000000000000000E+00     0.0000000000000000E+00 
    3.7499999999904610E-01     0.0000000000000000E+00     0.0000000000000000E+00 
    4.3749999999886358E-01     0.0000000000000000E+00     0.0000000000000000E+00 
    4.9999999999869210E-01     0.0000000000000000E+00     0.0000000000000000E+00 
    5.6249999999884603E-01     0.0000000000000000E+00     0.0000000000000000E+00 
    6.2499999999901090E-01     0.0000000000000000E+00     0.0000000000000000E+00 
    6.8749999999917577E-01     0.0000000000000000E+00     0.0000000000000000E+00 
    7.4999999999934064E-01     0.0000000000000000E+00     0.0000000000000000E+00 
    8.1249999999950551E-01     0.0000000000000000E+00     0.0000000000000000E+00 
    8.7499999999967026E-01     0.0000000000000000E+00     0.0000000000000000E+00 
    9.3749999999983513E-01     0.0000000000000000E+00     0.0000000000000000E+00 
    1.0000000000000000E+00     6.2499999999872928E-02     0.0000000000000000E+00 
    1.0000000000000000E+00     1.2499999999977310E-01     0.0000000000000000E+00 
    1.0000000000000000E+00     1.8749999999959341E-01     0.0000000000000000E+00 
    1.0000000000000000E+00     2.4999999999941089E-01     0.0000000000000000E+00 
    1.0000000000000000E+00     3.1249999999922851E-01     0.0000000000000000E+00 
    1.0000000000000000E+00     3.7499999999904610E-01     0.0000000000000000E+00 
    1.0000000000000000E+00     4.3749999999886358E-01     0.0000000000000000E+00 
    1.0000000000000000E+00     4.9999999999869210E-01     0.0000000000000000E+00 
    1.0000000000000000E+00     5.6249999999884603E-01     0.0000000000000000E+00 
    1.0000000000000000E+00     6.2499999999901090E-01     0.0000000000000000E+00 
    1.0000000000000000E+00     6.8749999999917577E-01     0.0000000000000000E+00 
    1.0000000000000000E+00     7.4999999999934064E-01     0.0000000000000000E+00 
    1.0000000000000000E+00     8.1249999999950551E-01     0.0000000000000000E+00 
    1.0000000000000000E+00     8.7499999999967026E-01     0.0000000000000000E+00 
    1.0000000000000000E+00     9.3749999999983513E-01     0.0000000000000000E+00 
    9.3749999999973976E-01     1.0000000000000000E+00     0.0000000000000000E+00 
    8.7499999999950118E-01     1.0000000000000000E+00     0.0000000000000000E+00 
    8.1249999999991318E-01     1.0000000000000000E+00     0.0000000000000000E+00 
    7.5000000000034706E-01     1.0000000000000000E+00     0.0000000000000000E+00 
    6.8750000000078049E-01     1.0000000000000000E+00     0.0000000000000000E+00 
    6.2500000000121403E-01     1.0000000000000000E+00     0.0000000000000000E+00 
    5.6250000000164757E-01     1.0000000000000000E+00     0.0000000000000000E+00 
    5.0000000000205946E-01     1.0000000000000000E+00     0.0000000000000000E+00 
    4.3750000000182099E-01     1.0000000000000000E+00     0.0000000000000000E+00 
    3.7500000000156092E-01     1.0000000000000000E+00     0.0000000000000000E+00 
    3.1250000000130068E-01     1.0000000000000000E+00     0.0000000000000000E+00 
    2.5000000000104050E-01     1.0000000000000000E+00     0.0000000000000000E+00 
    1.8750000000078040E-01     1.0000000000000000E+00     0.0000000000000000E+00 
    1.2500000000052031E-01     1.0000000000000000E+00     0.0000000000000000E+00 
    6.2500000000260125E-02     1.0000000000000000E+00     0.0000000000000000E+00 
    0.0000000000000000E+00     9.3749999999973976E-01     0.0000000000000000E+00 
    0.0000000000000000E+00     8.7499999999950118E-01     0.0000000000000000E+00 
    0.0000000000000000E+00     8.1249999999991318E-01     0.0000000000000000E+00 
    0.0000000000000000E+00     7.5000000000034706E-01     0.0000000000000000E+00 
    0.0000000000000000E+00     6.8750000000078049E-01     0.0000000000000000E+00 
    0.0000000000000000E+00     6.2500000000121403E-01     0.0000000000000000E+00 
    0.0000000000000000E+00     5.6250000000164757E-01     0.0000000000000000E+00 
    0.0000000000000000E+00     5.0000000000205946E-01     0.0000000000000000E+00 
    0.0000000000000000E+00     4.3750000000182099E-01     0.0000000000000000E+00 
    0.0000000000000000E+00     3.7500000000156092E-01     0.0000000000000000E+00 
    0.0000000000000000E+00     3.1250000000130068E-01     0.0000000000000000E+00 
    0.0000000000000000E+00     2.5000000000104050E-01     0.0000000000000000E+00 
    0.0000000000000000E+00     1.8750000000078040E-01     0.0000000000000000E+00 
    0.0000000000000000E+00     1.2500000000052031E-01     0.0000000000000000E+00 
    0.0000000000000000E+00     6.2500000000260125E-02     0.0000000000000000E+00 
    6.2499999999897131E-02     6.2500000000235922E-02     0.0000000000000000E+00 
    6.2499999999921327E-02     1.2500000000047351E-01     0.0000000000000000E+00 
    6.2499999999945530E-02     1.8750000000070621E-01     0.0000000000000000E+00 
    6.2499999999969733E-02     2.5000000000093858E-01     0.0000000000000000E+00 
    6.2499999999993928E-02     3.1250000000117117E-01     0.0000000000000000E+00 
    6.2500000000018124E-02     3.7500000000140382E-01     0.0000000000000000E+00 
    6.2500000000042327E-02     4.3750000000163619E-01     0.0000000000000000E+00 
    6.2500000000066530E-02     5.0000000000184897E-01     0.0000000000000000E+00 
    6.2500000000090733E-02     5.6250000000147260E-01     0.0000000000000000E+00 
    6.2500000000114922E-02     6.2500000000107636E-01     0.0000000000000000E+00 
    6.2500000000139125E-02     6.8750000000068034E-01     0.0000000000000000E+00 
    6.2500000000163328E-02     7.5000000000028411E-01     0.0000000000000000E+00 
    6.2500000000187531E-02     8.1249999999988787E-01     0.0000000000000000E+00 
    6.2500000000211720E-02     8.7499999999951172E-01     0.0000000000000000E+00 
    6.2500000000235922E-02     9.3749999999974565E-01     0.0000000000000000E+00 
    1.2499999999981980E-01     6.2500000000211733E-02     0.0000000000000000E+00 
    1.2499999999986650E-01     1.2500000000042691E-01     0.0000000000000000E+00 
    1.2499999999991319E-01     1.8750000000063199E-01     0.0000000000000000E+00 
    1.2499999999995989E-01     2.5000000000083678E-01     0.0000000000000000E+00 
    1.2500000000000661E-01     3.1250000000104172E-01     0.0000000000000000E+00 
    1.2500000000005329E-01     3.7500000000124661E-01     0.0000000000000000E+00 
    1.2500000000010000E-01     4.3750000000145117E-01     0.0000000000000000E+00 
    1.2500000000014669E-01     5.0000000000163858E-01     0.0000000000000000E+00 
    1.2500000000019340E-01     5.6250000000129741E-01     0.0000000000000000E+00 
    1.2500000000024011E-01     6.2500000000093847E-01     0.0000000000000000E+00 
    1.2500000000028680E-01     6.8750000000057998E-01     0.0000000000000000E+00 
    1.2500000000033351E-01     7.5000000000022127E-01     0.0000000000000000E+00 
    1.2500000000038020E-01     8.1249999999986211E-01     0.0000000000000000E+00 
    1.2500000000042691E-01     8.7499999999952238E-01     0.0000000000000000E+00 
    1.2500000000047359E-01     9.3749999999975164E-01     0.0000000000000000E+00 
    1.8749999999966760E-01     6.2500000000187531E-02     0.0000000000000000E+00 
    1.8749999999974179E-01     1.2500000000038020E-01     0.0000000000000000E+00 
    1.8749999999981601E-01     1.8750000000055780E-01     0.0000000000000000E+00 
    1.8749999999989009E-01     2.5000000000073502E-01     0.0000000000000000E+00 
    1.8749999999996431E-01     3.1250000000091221E-01     0.0000000000000000E+00 
    1.8750000000003850E-01     3.7500000000108941E-01     0.0000000000000000E+00 
    1.8750000000011269E-01     4.3750000000126649E-01     0.0000000000000000E+00 
    1.8750000000018691E-01     5.0000000000142808E-01     0.0000000000000000E+00 
    1.8750000000026110E-01     5.6250000000112244E-01     0.0000000000000000E+00 
    1.8750000000033529E-01     6.2500000000080080E-01     0.0000000000000000E+00 
    1.8750000000040951E-01     6.8750000000047962E-01     0.0000000000000000E+00 
    1.8750000000048361E-01     7.5000000000015843E-01     0.0000000000000000E+00 
    1.8750000000055780E-01     8.1249999999983680E-01     0.0000000000000000E+00 
    1.8750000000063199E-01     8.7499999999953304E-01     0.0000000000000000E+00 
    1.8750000000070621E-01     9.3749999999975764E-01     0.0000000000000000E+00 
    2.4999999999951281E-01     6.2500000000163314E-02     0.0000000000000000E+00 
    2.4999999999961461E-01     1.2500000000033351E-01     0.0000000000000000E+00 
    2.4999999999971650E-01     1.8750000000048361E-01     0.0000000000000000E+00 
    2.4999999999981831E-01     2.5000000000063310E-01     0.0000000000000000E+00 
    2.4999999999992020E-01     3.1250000000078260E-01     0.0000000000000000E+00 
    2.5000000000002198E-01     3.7500000000093209E-01     0.0000000000000000E+00 
    2.5000000000012390E-01     4.3750000000108180E-01     0.0000000000000000E+00 
    2.5000000000022571E-01     5.0000000000121769E-01     0.0000000000000000E+00 
    2.5000000000032763E-01     5.6250000000094724E-01     0.0000000000000000E+00 
    2.5000000000042938E-01     6.2500000000066314E-01     0.0000000000000000E+00 
    2.5000000000053119E-01     6.8750000000037925E-01     0.0000000000000000E+00 
[...]
CELL_DATA 256 
SCALARS Pressure double 1 
LOOKUP_TABLE default 

    9.1487241784051876E-01 
    8.6179294189465394E-01 
    8.2505858599329118E-01 
    7.8983403084113402E-01 
    7.5307503875419446E-01 
    7.1397538625586543E-01 
    6.7237316303822903E-01 
    6.2849213259800296E-01 
    5.8281158520206477E-01 
    5.3603762159570845E-01 
    4.8926433424626820E-01 
    4.4423539131504985E-01 
    4.0322724768941892E-01 
    3.6470833441867639E-01 
    3.3721061888041148E-01 
    3.2693182277000427E-01 
    9.0078483789932051E-01 
    8.6326986970337849E-01 
    8.2783895548777908E-01 
    7.9302162531634635E-01 
    7.5659512790627270E-01 
    7.1779918728978331E-01 
    6.7645636253439545E-01 
    6.3277081738372032E-01 
    5.8719254213254446E-01 
    5.4038666592690465E-01 
    4.9338026452833039E-01 
    4.4784614133588801E-01 
    4.0613966930936513E-01 
    3.6670400262477171E-01 
    3.3773569645288604E-01 
    3.2648540594559111E-01 
    8.8974558532292891E-01 
    8.6242389231149585E-01 
    8.2970650295950177E-01 
    7.9574710373393009E-01 
    7.5981400609201477E-01 
    7.2139351838234111E-01 
    6.8034178252713562E-01 
    6.3685468240757837E-01 
    5.9135137521979242E-01 
    5.4444891153996533E-01 
    4.9709073579736157E-01 
    4.5084813122708123E-01 
    4.0810682083465566E-01 
    3.6746346761487247E-01 
    3.3691077976001726E-01 
    3.2485256337221047E-01 
    8.8082136978156567E-01 
    8.6033161382704770E-01 
    8.3072840637062118E-01 
    7.9799960304862938E-01 
    7.6272508980699583E-01 
    7.2475684687287756E-01 
    6.8403726582130897E-01 
    6.4076244182745179E-01 
    5.9531941563717761E-01 
    5.4827073452743513E-01 
    5.0046218773302042E-01 
    4.5332551241598956E-01 
    4.0920959157106113E-01 
    3.6705920240369438E-01 
    3.3468578911639274E-01 
    3.2180408936615246E-01 
    8.7348838294289899E-01 
    8.5764032812971147E-01 
    8.3106786089385432E-01 
    7.9980783641604969E-01 
    7.6533794748485962E-01 
    7.2789806659214285E-01 
    6.8755511634607780E-01 
    6.4451595966138464E-01 
    5.9913264584793391E-01 
    5.5190507380235254E-01 
    5.0356965205407311E-01 
    4.5538182743126310E-01 
    4.0956782721462753E-01 
    3.6559508130479340E-01 
    3.3101361397851592E-01 
    3.1710368825609903E-01 
    8.6739880430740390E-01 
    8.5474096221901485E-01 
    8.3090751434251331E-01 
    8.0122988500620784E-01 
    7.6767836041705373E-01 
    7.3083617612203222E-01 
    6.9091320012521051E-01 
    6.4813733060731571E-01 
    6.0282368747458026E-01 
    5.5540341240981095E-01 
    5.0649112973515986E-01 
    4.5713215602386115E-01 
    4.0933596417582258E-01 
    3.6319347832157606E-01 
    3.2583151376248987E-01 
    3.1048041187040260E-01 
    8.6231276914101751E-01 
    8.5187296276144608E-01 
    8.3041781746027910E-01 
    8.0234000004908412E-01 
    7.6978443955957099E-01 
    7.3359779157669491E-01 
    6.9413408810809674E-01 
    6.5165090392822378E-01 
    6.0642442442769195E-01 
    5.5881569047831681E-01 
    5.0930867315007078E-01 
    4.5870198389142708E-01 
    4.0868716230006386E-01 
    3.5994645241288969E-01 
    3.1901013705614661E-01 
    3.0158826417342666E-01 
    8.5806208055221977E-01 
    8.4918386994674633E-01 
    8.2974916530675680E-01 
    8.0321972153594579E-01 
    7.7170148299157215E-01 
    7.3621346521722442E-01 
    6.9724389582162949E-01 
    6.5508487895955458E-01 
    6.0997002469597883E-01 
    5.6219270414151412E-01 
    5.1210658610759907E-01 
    4.6022924315423214E-01 
    4.0780579313021781E-01 
    3.5591375933936237E-01 
    3.1036357211168664E-01 
    2.8998677809563034E-01 
    8.5452454542241285E-01 
    8.4676230695581489E-01 
    8.2902735954363260E-01 
    8.0395332016009180E-01 
    7.7347832536279293E-01 
    7.3871464671524067E-01 
    7.0027010282187907E-01 
    6.5847040618990971E-01 
    6.1349782886312232E-01 
    5.6558468355751434E-01 
    5.1496672127814613E-01 
    4.6185606058740353E-01 
    4.0690833964545403E-01 
    3.5123843267527877E-01 
    2.9980248287984329E-01 
    2.7518058487270974E-01 
    8.5161339655618196E-01 
    8.4466229823466410E-01 
    8.2835256603655771E-01 
    8.0461947207332363E-01 
    7.7516579426426468E-01 
    7.4113431347089209E-01 
    7.0323848155883195E-01 
    6.6183710712329624E-01 
    6.1704321937524254E-01 
    5.6903839644169973E-01 
    5.1796782460067958E-01 
    4.6372546681349319E-01 
    4.0627450920042890E-01 
    3.4618500597844415E-01 
    2.8734137059301917E-01 
    2.5656628035640772E-01 
    8.4926184607605948E-01 
    8.4291564636640159E-01 
    8.2780302922524063E-01 
    8.0529122360578942E-01 
    7.7682035973269903E-01 
    7.4351066487993822E-01 
    7.0617237841134284E-01 
    6.6521212033185373E-01 
    6.2064076090532250E-01 
    5.7259877298824480E-01 
    5.2118403520809387E-01 
    4.6596693418175694E-01 
    4.0615932312303482E-01 
    3.4100521062800571E-01 
    2.7305808897227896E-01 
    2.3336592324701833E-01 
    8.4741614243449548E-01 
    8.4154065330565886E-01 
    8.2744358584461908E-01 
    8.0603931711322496E-01 
    7.7850326620500521E-01 
    7.4588776264511247E-01 
    7.0909766128930884E-01 
    6.6862071457228833E-01 
    6.2430517387990181E-01 
    5.7621852770755499E-01 
    5.2450196526496307E-01 
    4.6840697592897546E-01 
    4.0627101890649769E-01 
    3.3558093759571284E-01 
    2.5731494106285946E-01 
    2.0481856100369089E-01 
    8.4602544847972250E-01 
    8.4054544825710209E-01 
    8.2732647424619077E-01 
    8.0692583566903509E-01 
    7.8026808961493554E-01 
    7.4829683387354318E-01 
    7.1196630428623620E-01 
    6.7190576761102550E-01 
    6.2786667596224122E-01 
    5.7976385947313414E-01 
    5.2784582907589361E-01 
    4.7111552116639671E-01 
    4.0702793019066041E-01 
    3.3126377794548523E-01 
    2.4174923196753950E-01 
    1.6992987956441893E-01 
    8.4483115405051290E-01 
    8.3972451572938578E-01 
    8.2731547422261886E-01 
    8.0783336573245978E-01 
    7.8199448340124333E-01 
    7.5064527917245027E-01 
    7.1473323081807283E-01 
    6.7501827821129734E-01 
    6.3135695898689592E-01 
    5.8351281471545979E-01 
    5.3164422953865631E-01 
    4.7465542421243950E-01 
    4.0946880342839242E-01 
    3.3010334623937881E-01 
    2.2874856670373289E-01 
    1.2652167094630026E-01 
    8.4406208355451184E-01 
    8.3926908172568282E-01 
    8.2758275088171707E-01 
    8.0891224473880330E-01 
    7.8382145755475918E-01 
    7.5311097682283246E-01 
    7.1769793855080866E-01 
    6.7836456965847125E-01 
    6.3512707870717733E-01 
    5.8771131275824118E-01 
    5.3609329567357433E-01 
    4.7916427360830638E-01 
    4.1370689329228838E-01 
    3.3263186389727800E-01 
    2.2094385208066156E-01 
    7.1270995943355814E-02 
    8.4386383631074535E-01 
    8.3946383712394346E-01 
    8.2844162027120027E-01 
    8.1048670314479021E-01 
    7.8606951410887715E-01 
    7.5596069581622405E-01 
    7.2105263705622069E-01 
    6.8212004470811982E-01 
    6.3926521972446282E-01 
    5.9226048039516288E-01 
    5.4101842488218166E-01 
    4.8448571936131019E-01 
    4.1954838926372673E-01 
    3.3897427724831231E-01 
    2.2370962337555522E-01 
    0.0000000000000000E+00 

SCALARS Saturarion double 1 
LOOKUP_TABLE default 

    1.0000000000378502E+00 
    9.4706279231129087E-01 
    8.6009317694804244E-01 
    7.8599091588248071E-01 
    7.2693538115839162E-01 
    6.7901847085463241E-01 
    6.3746414099036031E-01 
    6.0123544719413569E-01 
    5.6831656586998569E-01 
    5.3714326732830953E-01 
    5.0701950343959823E-01 
    4.7631071024957899E-01 
    4.3795284433316795E-01 
    1.7965129357197768E-01 
    1.0000012056143953E-06 
    1.0000000000003203E-06 
    9.7993339658014222E-01 
    9.3692956559497376E-01 
    8.5664007276866638E-01 
    7.8383571303401767E-01 
    7.2586990184491007E-01 
    6.7747622964334209E-01 
    6.3613013745243574E-01 
    6.0004247375093289E-01 
    5.6731436723949047E-01 
    5.3644721126297268E-01 
    5.0672624254815823E-01 
    4.7656969757069428E-01 
    4.3928862167532362E-01 
    2.0290567077762717E-01 
    6.6268508009959577E-06 
    1.0000105284506343E-06 
    9.4372256884373695E-01 
    9.1064995380471536E-01 
    8.4403912258301994E-01 
    7.7668467009608555E-01 
    7.2106975292030173E-01 
    6.7296730004815064E-01 
    6.3235459607063715E-01 
    5.9718488035318840E-01 
    5.6550113890005327E-01 
    5.3546998300841109E-01 
    5.0627309731992565E-01 
    4.7663907487318147E-01 
    4.4004850833578413E-01 
    2.3039553433742180E-01 
    2.7807376949406747E-05 
    1.0000554450451640E-06 
    9.0459120604389232E-01 
    8.7712302610649617E-01 
    8.2206836165923003E-01 
    7.6390831869706899E-01 
    7.1183624972816384E-01 
    6.6635732696538763E-01 
    6.2690337569771359E-01 
    5.9293210842561439E-01 
    5.6310198773314213E-01 
    5.3499668946336087E-01 
    5.0676257754221199E-01 
    4.7764445057887361E-01 
    4.4249288346123994E-01 
    2.6634933162971242E-01 
    3.0886581546720160E-04 
    1.0014576456581222E-06 
    8.6237638663350791E-01 
    8.4092189662148620E-01 
    7.9500323317472676E-01 
    7.4449613175314300E-01 
    6.9791706829741473E-01 
    6.5616327018850462E-01 
    6.1909701480558754E-01 
    5.8656389917602325E-01 
    5.5791209038403156E-01 
    5.3169247714967782E-01 
    5.0608062053784608E-01 
    4.7897342315122965E-01 
    4.4635775584339593E-01 
    3.0383834024159295E-01 
    8.7153233530867162E-04 
    1.0103055234432952E-06 
    8.1917766446472251E-01 
    8.0250220099825498E-01 
    7.6494422045431587E-01 
    7.2179133962473130E-01 
    6.8037905507882190E-01 
    6.4253281184864386E-01 
    6.0830574281820626E-01 
    5.7802581309528178E-01 
    5.5077160962260863E-01 
    5.2550767753889804E-01 
    5.0160669042715622E-01 
    4.7772333091326508E-01 
    4.4938754615536758E-01 
    3.4120760450378790E-01 
    7.3311040313654551E-03 
    1.6684803283699380E-06 
    7.7392588219276670E-01 
    7.6283710517100656E-01 
    7.3337250381560559E-01 
    6.9557873960822059E-01 
    6.5959127393054984E-01 
    6.2590349516179489E-01 
    5.9477001429367049E-01 
    5.6652275125578877E-01 
    5.4110272669340820E-01 
    5.1789196803694715E-01 
    4.9625727938731773E-01 
    4.7452237488456078E-01 
    4.5035499512345079E-01 
    3.6977656383435809E-01 
    2.8007071063237066E-02 
    8.4642262317187042E-06 
    7.2814413197388739E-01 
    7.2193172704302444E-01 
    6.9978013549477647E-01 
    6.6860142577844517E-01 
    6.3645426862508081E-01 
    6.0584811128109950E-01 
    5.7769249796602784E-01 
    5.5228472371036086E-01 
    5.2933089225624808E-01 
    5.0837579181639792E-01 
    4.8881301336127020E-01 
    4.7028406328447775E-01 
    4.4929784318539612E-01 
    3.8716795020991845E-01 
    5.6582106388468952E-02 
    1.4479750960544447E-05 
    6.8055615650248946E-01 
    6.7864641407972115E-01 
    6.6401416861592100E-01 
    6.3938863419930037E-01 
    6.1112789942434964E-01 
    5.8323142435424591E-01 
    5.5761343283016218E-01 
    5.3455178507884393E-01 
    5.1396259499286456E-01 
    4.9529235440019337E-01 
    4.7912018500737596E-01 
    4.6391475593733628E-01 
    4.4627362084959016E-01 
    4.0066043088173947E-01 
    7.9423621184103579E-02 
    1.0532749220306250E-05 
    6.3255454884339357E-01 
    6.3422951562994290E-01 
    6.2551716993795980E-01 
    6.0591788355629816E-01 
    5.8232315360138931E-01 
    5.5856957219752423E-01 
    5.3497820837166576E-01 
    5.1306571196630379E-01 
    4.9416221412467976E-01 
    4.7803400853074957E-01 
    4.6515336956225062E-01 
    4.5456245678687401E-01 
    4.4083911247633040E-01 
    4.1482997230593943E-01 
    1.1236855079956827E-01 
    7.6915728166216111E-06 
    5.8158730624844879E-01 
    5.8630519674177439E-01 
    5.8294604856184917E-01 
    5.6881920359951710E-01 
    5.5010566841414876E-01 
    5.3047132734234625E-01 
    5.0995580738241453E-01 
    4.8933385873779350E-01 
    4.7187662001077835E-01 
    4.5716716392756435E-01 
    4.4780479158848674E-01 
    4.4039036988235852E-01 
    4.2973852946000174E-01 
    4.0788155447540780E-01 
    1.2625715238115634E-01 
    4.2921198889608672E-05 
    5.2761039821031330E-01 
    5.3498753870675630E-01 
    5.3696433464139448E-01 
    5.2775387613940050E-01 
    5.1276907124138349E-01 
    4.9696909667065919E-01 
    4.8029699068121856E-01 
    4.6244422707949212E-01 
    4.4410323759537568E-01 
    4.2206986009871189E-01 
    3.8364077226483490E-01 
    3.5537237611115502E-01 
    3.4345636227521087E-01 
    3.2076307611735355E-01 
    5.7507137217499463E-02 
    1.1700238097195966E-04 
    4.6402723067047147E-01 
    4.7523682624530511E-01 
    4.8285243511125570E-01 
    4.7860194674753503E-01 
    4.6636176239722060E-01 
    4.5122527971855469E-01 
    4.3147900767076819E-01 
    3.7297894142346966E-01 
    2.4607132705726212E-01 
    1.2774113897838127E-01 
    4.5110137127151582E-02 
    1.5531383207882067E-02 
    2.2028787621440692E-02 
    1.6439762138338934E-02 
    6.8061471815338817E-04 
    1.0796942991188923E-06 
    1.7093298901881895E-01 
    2.7515490891407896E-01 
    3.2212882287720701E-01 
    3.1972898246566667E-01 
    2.7079706889229216E-01 
    1.9211527992461236E-01 
    1.1281892180855860E-01 
    2.3350657729346667E-02 
    9.2756193071516068E-04 
    9.0216821361059914E-05 
    2.4024602796653009E-05 
    2.6005213664345098E-06 
    2.5444060760207622E-06 
    8.5710148961347168E-06 
    1.0134465353600136E-06 
    1.0000000765830742E-06 
    1.0022132931166527E-06 
    1.9489065856591384E-03 
    3.0953172264428918E-04 
    2.0858021196500740E-03 
    6.5491886213156329E-04 
    6.7780658891004167E-05 
    7.1186055584591162E-05 
    6.2418945619318942E-06 
    1.0106373460488580E-06 
    1.0008328225102311E-06 
    1.0000295287695831E-06 
    1.0000004285255814E-06 
    1.0000007485280087E-06 
    1.0000060130961654E-06 
    1.0000000034374557E-06 
    1.0000000000000065E-06 
    1.0000000008089927E-06 
    1.0349374746929829E-06 
    1.0002347029885500E-06 
    1.0039270245607583E-06 
    1.0047793629154512E-06 
    1.0008178674687696E-06 
    1.0002763774552204E-06 
    1.0000006759210575E-06 
    1.0000000004603922E-06 
    1.0000000000000006E-06 
    9.9999999999999995E-07 
    9.9999999999999974E-07 
    1.0000000000000059E-06 
    1.0000000000000006E-06 
    1.0000000000000006E-06 
    1.0000001254589022E-06 
