# vtk DataFile Version 2.0
Pressure Field Data 
ASCII 
DATASET UNSTRUCTURED_GRID 

POINTS 6273 double 

    0.0000000000000000E+00     0.0000000000000000E+00     0.0000000000000000E+00 
    1.0000000000000000E+00     0.0000000000000000E+00     0.0000000000000000E+00 
    1.0000000000000000E+00     1.0000000000000000E+00     0.0000000000000000E+00 
    0.0000000000000000E+00     1.0000000000000000E+00     0.0000000000000000E+00 
    1.5624999999970249E-02     0.0000000000000000E+00     0.0000000000000000E+00 
    3.1249999999940652E-02     0.0000000000000000E+00     0.0000000000000000E+00 
    4.6874999999905617E-02     0.0000000000000000E+00     0.0000000000000000E+00 
    6.2499999999870597E-02     0.0000000000000000E+00     0.0000000000000000E+00 
    7.8124999999846401E-02     0.0000000000000000E+00     0.0000000000000000E+00 
    9.3749999999822212E-02     0.0000000000000000E+00     0.0000000000000000E+00 
    1.0937499999979799E-01     0.0000000000000000E+00     0.0000000000000000E+00 
    1.2499999999977381E-01     0.0000000000000000E+00     0.0000000000000000E+00 
    1.4062499999972811E-01     0.0000000000000000E+00     0.0000000000000000E+00 
    1.5624999999968239E-01     0.0000000000000000E+00     0.0000000000000000E+00 
    1.7187499999963671E-01     0.0000000000000000E+00     0.0000000000000000E+00 
    1.8749999999959110E-01     0.0000000000000000E+00     0.0000000000000000E+00 
    2.0312499999954539E-01     0.0000000000000000E+00     0.0000000000000000E+00 
    2.1874999999949971E-01     0.0000000000000000E+00     0.0000000000000000E+00 
    2.3437499999945391E-01     0.0000000000000000E+00     0.0000000000000000E+00 
    2.4999999999940831E-01     0.0000000000000000E+00     0.0000000000000000E+00 
    2.6562499999936218E-01     0.0000000000000000E+00     0.0000000000000000E+00 
    2.8124999999931621E-01     0.0000000000000000E+00     0.0000000000000000E+00 
    2.9687499999927008E-01     0.0000000000000000E+00     0.0000000000000000E+00 
    3.1249999999922412E-01     0.0000000000000000E+00     0.0000000000000000E+00 
    3.2812499999917810E-01     0.0000000000000000E+00     0.0000000000000000E+00 
    3.4374999999913203E-01     0.0000000000000000E+00     0.0000000000000000E+00 
    3.5937499999908601E-01     0.0000000000000000E+00     0.0000000000000000E+00 
    3.7499999999903999E-01     0.0000000000000000E+00     0.0000000000000000E+00 
    3.9062499999899403E-01     0.0000000000000000E+00     0.0000000000000000E+00 
    4.0624999999894801E-01     0.0000000000000000E+00     0.0000000000000000E+00 
    4.2187499999890188E-01     0.0000000000000000E+00     0.0000000000000000E+00 
    4.3749999999885592E-01     0.0000000000000000E+00     0.0000000000000000E+00 
    4.5312499999880979E-01     0.0000000000000000E+00     0.0000000000000000E+00 
    4.6874999999876382E-01     0.0000000000000000E+00     0.0000000000000000E+00 
    4.8437499999871780E-01     0.0000000000000000E+00     0.0000000000000000E+00 
    4.9999999999867167E-01     0.0000000000000000E+00     0.0000000000000000E+00 
    5.1562499999871325E-01     0.0000000000000000E+00     0.0000000000000000E+00 
    5.3124999999875477E-01     0.0000000000000000E+00     0.0000000000000000E+00 
    5.4687499999879630E-01     0.0000000000000000E+00     0.0000000000000000E+00 
    5.6249999999883782E-01     0.0000000000000000E+00     0.0000000000000000E+00 
    5.7812499999887934E-01     0.0000000000000000E+00     0.0000000000000000E+00 
    5.9374999999892086E-01     0.0000000000000000E+00     0.0000000000000000E+00 
    6.0937499999896239E-01     0.0000000000000000E+00     0.0000000000000000E+00 
    6.2499999999900380E-01     0.0000000000000000E+00     0.0000000000000000E+00 
    6.4062499999904521E-01     0.0000000000000000E+00     0.0000000000000000E+00 
    6.5624999999908673E-01     0.0000000000000000E+00     0.0000000000000000E+00 
    6.7187499999912825E-01     0.0000000000000000E+00     0.0000000000000000E+00 
    6.8749999999916978E-01     0.0000000000000000E+00     0.0000000000000000E+00 
    7.0312499999921130E-01     0.0000000000000000E+00     0.0000000000000000E+00 
    7.1874999999925282E-01     0.0000000000000000E+00     0.0000000000000000E+00 
    7.3437499999929434E-01     0.0000000000000000E+00     0.0000000000000000E+00 
    7.4999999999933586E-01     0.0000000000000000E+00     0.0000000000000000E+00 
    7.6562499999937739E-01     0.0000000000000000E+00     0.0000000000000000E+00 
    7.8124999999941891E-01     0.0000000000000000E+00     0.0000000000000000E+00 
    7.9687499999946043E-01     0.0000000000000000E+00     0.0000000000000000E+00 
    8.1249999999950195E-01     0.0000000000000000E+00     0.0000000000000000E+00 
    8.2812499999954348E-01     0.0000000000000000E+00     0.0000000000000000E+00 
    8.4374999999958500E-01     0.0000000000000000E+00     0.0000000000000000E+00 
    8.5937499999962652E-01     0.0000000000000000E+00     0.0000000000000000E+00 
    8.7499999999966793E-01     0.0000000000000000E+00     0.0000000000000000E+00 
    8.9062499999970934E-01     0.0000000000000000E+00     0.0000000000000000E+00 
    9.0624999999975087E-01     0.0000000000000000E+00     0.0000000000000000E+00 
    9.2187499999979239E-01     0.0000000000000000E+00     0.0000000000000000E+00 
    9.3749999999983391E-01     0.0000000000000000E+00     0.0000000000000000E+00 
    9.5312499999987543E-01     0.0000000000000000E+00     0.0000000000000000E+00 
    9.6874999999991696E-01     0.0000000000000000E+00     0.0000000000000000E+00 
    9.8437499999995848E-01     0.0000000000000000E+00     0.0000000000000000E+00 
    1.0000000000000000E+00     1.5624999999970249E-02     0.0000000000000000E+00 
    1.0000000000000000E+00     3.1249999999940652E-02     0.0000000000000000E+00 
    1.0000000000000000E+00     4.6874999999905617E-02     0.0000000000000000E+00 
    1.0000000000000000E+00     6.2499999999870597E-02     0.0000000000000000E+00 
    1.0000000000000000E+00     7.8124999999846401E-02     0.0000000000000000E+00 
    1.0000000000000000E+00     9.3749999999822212E-02     0.0000000000000000E+00 
    1.0000000000000000E+00     1.0937499999979799E-01     0.0000000000000000E+00 
    1.0000000000000000E+00     1.2499999999977381E-01     0.0000000000000000E+00 
    1.0000000000000000E+00     1.4062499999972811E-01     0.0000000000000000E+00 
    1.0000000000000000E+00     1.5624999999968239E-01     0.0000000000000000E+00 
    1.0000000000000000E+00     1.7187499999963671E-01     0.0000000000000000E+00 
    1.0000000000000000E+00     1.8749999999959110E-01     0.0000000000000000E+00 
    1.0000000000000000E+00     2.0312499999954539E-01     0.0000000000000000E+00 
    1.0000000000000000E+00     2.1874999999949971E-01     0.0000000000000000E+00 
    1.0000000000000000E+00     2.3437499999945391E-01     0.0000000000000000E+00 
    1.0000000000000000E+00     2.4999999999940831E-01     0.0000000000000000E+00 
    1.0000000000000000E+00     2.6562499999936218E-01     0.0000000000000000E+00 
    1.0000000000000000E+00     2.8124999999931621E-01     0.0000000000000000E+00 
    1.0000000000000000E+00     2.9687499999927008E-01     0.0000000000000000E+00 
    1.0000000000000000E+00     3.1249999999922412E-01     0.0000000000000000E+00 
    1.0000000000000000E+00     3.2812499999917810E-01     0.0000000000000000E+00 
    1.0000000000000000E+00     3.4374999999913203E-01     0.0000000000000000E+00 
    1.0000000000000000E+00     3.5937499999908601E-01     0.0000000000000000E+00 
    1.0000000000000000E+00     3.7499999999903999E-01     0.0000000000000000E+00 
    1.0000000000000000E+00     3.9062499999899403E-01     0.0000000000000000E+00 
    1.0000000000000000E+00     4.0624999999894801E-01     0.0000000000000000E+00 
    1.0000000000000000E+00     4.2187499999890188E-01     0.0000000000000000E+00 
    1.0000000000000000E+00     4.3749999999885592E-01     0.0000000000000000E+00 
    1.0000000000000000E+00     4.5312499999880979E-01     0.0000000000000000E+00 
    1.0000000000000000E+00     4.6874999999876382E-01     0.0000000000000000E+00 
    1.0000000000000000E+00     4.8437499999871780E-01     0.0000000000000000E+00 
    1.0000000000000000E+00     4.9999999999867167E-01     0.0000000000000000E+00 
    1.0000000000000000E+00     5.1562499999871325E-01     0.0000000000000000E+00 
    1.0000000000000000E+00     5.3124999999875477E-01     0.0000000000000000E+00 
    1.0000000000000000E+00     5.4687499999879630E-01     0.0000000000000000E+00 
    1.0000000000000000E+00     5.6249999999883782E-01     0.0000000000000000E+00 
    1.0000000000000000E+00     5.7812499999887934E-01     0.0000000000000000E+00 
    1.0000000000000000E+00     5.9374999999892086E-01     0.0000000000000000E+00 
    1.0000000000000000E+00     6.0937499999896239E-01     0.0000000000000000E+00 
    1.0000000000000000E+00     6.2499999999900380E-01     0.0000000000000000E+00 
    1.0000000000000000E+00     6.4062499999904521E-01     0.0000000000000000E+00 
    1.0000000000000000E+00     6.5624999999908673E-01     0.0000000000000000E+00 
    1.0000000000000000E+00     6.7187499999912825E-01     0.0000000000000000E+00 
    1.0000000000000000E+00     6.8749999999916978E-01     0.0000000000000000E+00 
    1.0000000000000000E+00     7.0312499999921130E-01     0.0000000000000000E+00 
    1.0000000000000000E+00     7.1874999999925282E-01     0.0000000000000000E+00 
    1.0000000000000000E+00     7.3437499999929434E-01     0.0000000000000000E+00 
    1.0000000000000000E+00     7.4999999999933586E-01     0.0000000000000000E+00 
    1.0000000000000000E+00     7.6562499999937739E-01     0.0000000000000000E+00 
    1.0000000000000000E+00     7.8124999999941891E-01     0.0000000000000000E+00 
    1.0000000000000000E+00     7.9687499999946043E-01     0.0000000000000000E+00 
    1.0000000000000000E+00     8.1249999999950195E-01     0.0000000000000000E+00 
    1.0000000000000000E+00     8.2812499999954348E-01     0.0000000000000000E+00 
[...]
CELL_DATA 6144 
SCALARS Pressure double 1 
LOOKUP_TABLE default 

    2.9303627529757827E+00 
    2.8328927646327617E+00 
    2.8175528552780937E+00 
    2.8367893169961640E+00 
    2.7779550031276274E+00 
    2.7427444247583925E+00 
    2.7583784460524421E+00 
    2.7899869987130574E+00 
    2.7780884537468769E+00 
    2.7882198197137971E+00 
    2.7606418994620774E+00 
    2.7426083380207724E+00 
    2.7249809040331594E+00 
    2.7401280770050191E+00 
    2.7241138069908608E+00 
    2.7138214564772283E+00 
    2.7414291345952631E+00 
    2.7261930890048225E+00 
    2.7145917747675106E+00 
    2.7255809652945175E+00 
    2.7032484791138307E+00 
    2.7146275587431421E+00 
    2.7045328687437991E+00 
    2.6915166650484523E+00 
    2.7028753277917943E+00 
    2.6997530763322102E+00 
    2.6854647263510549E+00 
    2.6828451272456681E+00 
    2.6923584304489809E+00 
    2.6811823702912445E+00 
    2.6723740278215433E+00 
    2.6810296126418045E+00 
    2.6655926821995322E+00 
    2.6731292738106047E+00 
    2.6629550371484862E+00 
    2.6499544234322130E+00 
    2.6407710913603650E+00 
    2.6536408271026617E+00 
    2.6460972707628292E+00 
    2.6358637210508018E+00 
    2.6616462753201811E+00 
    2.6663606129202342E+00 
    2.6521644028399636E+00 
    2.6511972516137163E+00 
    2.6314779154367414E+00 
    2.6416386390067546E+00 
    2.6397676879895866E+00 
    2.6261718704623016E+00 
    2.6246514856152889E+00 
    2.6238270415310123E+00 
    2.6122989611659375E+00 
    2.6093582344366499E+00 
    2.6203604718073565E+00 
    2.6141293765468196E+00 
    2.6044839933912551E+00 
    2.6098420853271693E+00 
    2.5957081240898221E+00 
    2.6025906085114672E+00 
    2.5942162652978071E+00 
    2.5824693047984089E+00 
    2.5752202667013218E+00 
    2.5867968358500404E+00 
    2.5812554603528821E+00 
    2.5720716961277521E+00 
    2.5956631613179444E+00 
    2.6026093803320127E+00 
    2.5896491457868405E+00 
    2.5868374963693315E+00 
    2.5692276922928849E+00 
    2.5785204611769506E+00 
    2.5781003857465499E+00 
    2.5658203625804838E+00 
    2.5630661423069334E+00 
    2.5624257692641819E+00 
    2.5537123221922857E+00 
    2.5523249565710007E+00 
    2.5600099313203710E+00 
    2.5554154207299384E+00 
    2.5476787974759936E+00 
    2.5526976498849820E+00 
    2.5431678011144956E+00 
    2.5471828349742931E+00 
    2.5416614312701222E+00 
    2.5358305773391154E+00 
    2.5318655310909390E+00 
    2.5376612063818373E+00 
    2.5348251205397472E+00 
    2.5302006211635044E+00 
    2.5429164560472737E+00 
    2.5474897252205517E+00 
    2.5398762076498396E+00 
    2.5384722095889090E+00 
    2.5283859199073762E+00 
    2.5336556659398752E+00 
    2.5331860504493569E+00 
    2.5265132619367709E+00 
    2.5253202359040059E+00 
    2.5249601488332831E+00 
    2.5200582483760021E+00 
    2.5188643077554924E+00 
    2.5236873248971281E+00 
    2.5214171472744500E+00 
    2.5169218436888570E+00 
    2.5192118680869644E+00 
    2.5126973258465628E+00 
    2.5158976762595682E+00 
    2.5122042304625385E+00 
    2.5064708734675447E+00 
    2.5027366859803841E+00 
    2.5087940756770535E+00 
    2.5063147921661542E+00 
    2.5012731943798561E+00 
    2.5132759454337688E+00 
    2.5166371677819441E+00 
    2.5108845192299483E+00 
    2.5091943693919636E+00 
    2.5001205297966571E+00 
    2.5050698122594484E+00 
    2.5053813944068652E+00 
    2.4987404572409573E+00 
    2.4951408753174200E+00 
    2.4952011426244991E+00 
    2.4891279267528605E+00 
    2.4871176418895469E+00 
    2.4941406611153183E+00 
    2.4918390895291953E+00 
    2.4856943109835239E+00 
    2.4880507726017491E+00 
    2.4794252512149368E+00 
    2.4837434800522540E+00 
    2.4790749905968363E+00 
    2.4712661411825825E+00 
    2.4663118326182576E+00 
    2.4747965832269032E+00 
    2.4717784740923210E+00 
    2.4645845256746335E+00 
    2.4810702962285465E+00 
    2.4863761861175147E+00 
    2.4788707020546892E+00 
    2.4759210820645792E+00 
    2.4634583791578453E+00 
    2.4703841999374498E+00 
    2.4713897178888597E+00 
    2.4623146970029088E+00 
    2.4561316817751062E+00 
    2.4562397137680394E+00 
    2.4480434496750134E+00 
    2.4455535221627196E+00 
    2.4551289370732738E+00 
    2.4526454373387665E+00 
    2.4440865862169767E+00 
    2.4470516387215291E+00 
    2.4356178055179520E+00 
    2.4411854801602639E+00 
    2.4353215218364208E+00 
    2.4255855527480179E+00 
    2.4198970441733851E+00 
    2.4302437570933764E+00 
    2.4266619953259059E+00 
    2.4181792220992371E+00 
    2.4385357358791380E+00 
    2.4458311992920510E+00 
    2.4361565770859421E+00 
    2.4321866682382036E+00 
    2.4170648427637125E+00 
    2.4254119438010493E+00 
    2.4269116313118491E+00 
    2.4161357499798033E+00 
    2.4086532193342598E+00 
    2.4088157505820940E+00 
    2.4001223499217366E+00 
    2.3977799339253445E+00 
    2.4076659198070338E+00 
    2.4049246845377414E+00 
    2.3955237946624162E+00 
    2.3992015812486551E+00 
    2.3877054107640943E+00 
    2.3931568930682428E+00 
    2.3873491348517617E+00 
    2.3783692904645717E+00 
    2.3730404911341330E+00 
    2.3824379096732073E+00 
    2.3784383197038403E+00 
    2.3708915180457675E+00 
    2.3901196358949535E+00 
    2.3976056140359292E+00 
    2.3877796032479730E+00 
    2.3840729241436804E+00 
    2.3697010721461904E+00 
    2.3773538769821720E+00 
    2.3789079453831241E+00 
    2.3692025282011446E+00 
    2.3631124883767725E+00 
    2.3630679046218375E+00 
    2.3558194663197969E+00 
    2.3540428081276485E+00 
    2.3620296578630304E+00 
    2.3596886214242181E+00 
    2.3517155633678954E+00 
    2.3551080921099117E+00 
    2.3456169521078940E+00 
    2.3500025549062666E+00 
    2.3450762135910126E+00 
    2.3379557853896871E+00 
    2.3336644322654809E+00 
    2.3410950966052648E+00 
    2.3381909654361719E+00 
    2.3321546324888760E+00 
    2.3473444133828107E+00 
    2.3535040374509122E+00 
    2.3455575228532495E+00 
    2.3425605817008930E+00 
    2.3311750894863721E+00 
    2.3373927796425162E+00 
    2.3384147730415283E+00 
    2.3305398414050713E+00 
    2.3256168225052227E+00 
    2.3255316445026382E+00 
    2.3194880171827132E+00 
    2.3180448585666888E+00 
    2.3246958551267256E+00 
    2.3228261581061616E+00 
    2.3164087875674442E+00 
    2.3189910987079227E+00 
    2.3110248614784958E+00 
    2.3147666175980777E+00 
    2.3107110087555744E+00 
    2.3044584403726880E+00 
    2.3006870019804437E+00 
    2.3072690588507863E+00 
    2.3048923975366651E+00 
    2.2995147534581704E+00 
    2.3126339545320600E+00 
    2.3176928167526687E+00 
    2.3110580590076455E+00 
    2.3085669470116952E+00 
    2.2987869835886561E+00 
    2.3042242924304972E+00 
    2.3050608127466363E+00 
    2.2982255473726716E+00 
    2.2931308064579121E+00 
    2.2930942778632462E+00 
    2.2865730210445583E+00 
    2.2850136145802744E+00 
    2.2923265307938188E+00 
    2.2904839497137766E+00 
    2.2833303026633605E+00 
    2.2860318910050914E+00 
    2.2777538494576026E+00 
    2.2815440768792925E+00 
    2.2776198672016386E+00 
    2.2715479384527133E+00 
    2.2679857176041951E+00 
    2.2742158004151443E+00 
    2.2714320692375214E+00 
    2.2664175183468487E+00 
    2.2794595410085972E+00 
    2.2851278332897791E+00 
    2.2777240270283206E+00 
    2.2751144317118697E+00 
    2.2654448125088744E+00 
    2.2705121859142454E+00 
    2.2714445041726834E+00 
    2.2647561011464648E+00 
    2.2613150451828608E+00 
    2.2611663808341387E+00 
    2.2563961365963427E+00 
    2.2552621500744197E+00 
    2.2603114975443619E+00 
    2.2584881639217582E+00 
    2.2536000970101271E+00 
    2.2557675013792307E+00 
    2.2498298734317634E+00 
    2.2526189644208245E+00 
    2.2492969479945608E+00 
    2.2447082211296112E+00 
    2.2418878418055570E+00 
    2.2465208216144492E+00 
    2.2445853212835556E+00 
    2.2407546749093306E+00 
    2.2503916969715969E+00 
    2.2540130086401762E+00 
    2.2485926422530760E+00 
    2.2470519071420569E+00 
    2.2397184741924501E+00 
    2.2436353448872883E+00 
    2.2437874006615632E+00 
    2.2385068620637494E+00 
    2.2367238405213121E+00 
    2.2365943538326043E+00 
    2.2327571882268806E+00 
    2.2317547484358959E+00 
    2.2356438389029907E+00 
    2.2337945864971567E+00 
    2.2301784329210612E+00 
    2.2319436993552806E+00 
    2.2273074200746588E+00 
    2.2295266847764807E+00 
    2.2268071044414830E+00 
    2.2229987742075688E+00 
    2.2204736672886924E+00 
    2.2243784730900411E+00 
    2.2223991556790916E+00 
    2.2191464519519593E+00 
    2.2273575724180579E+00 
    2.2299076205768356E+00 
    2.2253547026464902E+00 
    2.2243280556506306E+00 
    2.2180700438053051E+00 
    2.2212725398856041E+00 
    2.2212104927073111E+00 
    2.2167065553781526E+00 
    2.2158089209805016E+00 
    2.2156716338345781E+00 
    2.2122833665648414E+00 
    2.2112931143113617E+00 
    2.2147047190923734E+00 
    2.2128090052236811E+00 
    2.2098514066142032E+00 
    2.2114223975710749E+00 
    2.2072598148177933E+00 
    2.2092987378422193E+00 
    2.2068097067012014E+00 
    2.2032294114138642E+00 
    2.2009153500904017E+00 
    2.2044986064277978E+00 
    2.2027065251675233E+00 
    2.1997352986154657E+00 
    2.2070799253330575E+00 
    2.2091488337773151E+00 
    2.2050108738297149E+00 
    2.2042428766566045E+00 
    2.1986592648787546E+00 
    2.2015853966747394E+00 
    2.2012679210147379E+00 
    2.1971453840078068E+00 
    2.1966865810036742E+00 
    2.1964338141793407E+00 
    2.1933982642704679E+00 
    2.1927147916060763E+00 
    2.1954752533958115E+00 
    2.1936561110645143E+00 
    2.1912194012100636E+00 
    2.1926690414796690E+00 
    2.1894173643499779E+00 
    2.1909711905756946E+00 
    2.1889882591133829E+00 
    2.1864842738813381E+00 
    2.1848183226777582E+00 
    2.1871472956095070E+00 
    2.1854763395290244E+00 
    2.1836447262670369E+00 
    2.1889009676097593E+00 
    2.1903341805354231E+00 
    2.1868052265973268E+00 
    2.1865450785702709E+00 
    2.1825366159346258E+00 
    2.1844456576870681E+00 
    2.1838676307006124E+00 
    2.1810558958273774E+00 
    2.1822774995537326E+00 
    2.1818285826542088E+00 
    2.1803466296480409E+00 
    2.1803013275798362E+00 
    2.1809039464791868E+00 
    2.1793536217232909E+00 
    2.1787188978772427E+00 
    2.1798111199326167E+00 
    2.1789335717606892E+00 
    2.1792976986647039E+00 
    2.1783551855235044E+00 
    2.1780844936077264E+00 
    2.1777841102061255E+00 
    2.1775486461963758E+00 
    2.1766839794022204E+00 
    2.1770182088590162E+00 
    2.1774109134136896E+00 
    2.1770982527781433E+00 
    2.1754802868809344E+00 
    2.1763579636023458E+00 
    2.1758104941713379E+00 
    2.1758024715528475E+00 
    2.1745474039358497E+00 
    2.1741388225513734E+00 
    2.7042806009241089E+00 
    2.6852289642724165E+00 
    2.6864479895935145E+00 
    2.7003876195120515E+00 
    2.6687593256350515E+00 
    2.6540179296910176E+00 
    2.6658882110455906E+00 
    2.6747254695783864E+00 
    2.6933410092185324E+00 
    2.6824631609660869E+00 
    2.6741655822837087E+00 
    2.6821649075545873E+00 
    2.6676248348305371E+00 
    2.6643426587159813E+00 
    2.6540743208022275E+00 
    2.6539198881366284E+00 
    2.6566935396584150E+00 
    2.6446550707442542E+00 
    2.6390739691584142E+00 
    2.6484721712609374E+00 
    2.6420376654819595E+00 
    2.6441509120024849E+00 
    2.6342384952443689E+00 
    2.6287636697778134E+00 
    2.6609827746190962E+00 
    2.6499817733931934E+00 
    2.6436061887323135E+00 
    2.6490697494956854E+00 
    2.6391132838220610E+00 
    2.6264811896808022E+00 
    2.6269858306246392E+00 
    2.6362197421501197E+00 
    2.6378142771452930E+00 
    2.6358699980667879E+00 
    2.6264022476561655E+00 
    2.6248272737934522E+00 
    2.6125281896947086E+00 
    2.6164652945934956E+00 
    2.6075146806732445E+00 
    2.6026520433802687E+00 
    2.6169825393712416E+00 
    2.6141906011410576E+00 
    2.6037524760007704E+00 
    2.6076834320231810E+00 
    2.5942200870501271E+00 
    2.6005817260645552E+00 
    2.5947224802841209E+00 
    2.5847524406680273E+00 
    2.6020942324661420E+00 
    2.5951794240851771E+00 
    2.5870777797630686E+00 
    2.5894781153621622E+00 
    2.5874030480455192E+00 
    2.5772590714201087E+00 
    2.5731984967088182E+00 
    2.5812108318431912E+00 
    2.5781996872426398E+00 
    2.5786589768785335E+00 
    2.5696320284443286E+00 
    2.5658357281940685E+00 
    2.5557421152662818E+00 
    2.5610643579866545E+00 
    2.5534768444013314E+00 
    2.5486520385391729E+00 
    2.5638956259427408E+00 
    2.5645391899388512E+00 
    2.5526792781838634E+00 
    2.5551144728991000E+00 
    2.5426332379039076E+00 
    2.5484736100470315E+00 
    2.5438877766169066E+00 
    2.5364370864804253E+00 
    2.5478610968284308E+00 
    2.5431353650611759E+00 
    2.5382509099446287E+00 
    2.5404258318405697E+00 
    2.5382158170691103E+00 
    2.5321937363657727E+00 
    2.5298377417337004E+00 
    2.5356226809210969E+00 
    2.5331353648580444E+00 
    2.5336681686759683E+00 
    2.5283965584124806E+00 
    2.5265400138532024E+00 
    2.5213692770207459E+00 
    2.5237064881985440E+00 
    2.5195780056169315E+00 
    2.5172557312230430E+00 
    2.5250930190356664E+00 
    2.5249794703314814E+00 
    2.5187748120339486E+00 
    2.5204384180103010E+00 
    2.5134146519728220E+00 
    2.5166528616685575E+00 
    2.5140214283471369E+00 
    2.5093330648392804E+00 
    2.5167015643457411E+00 
    2.5138785101188197E+00 
    2.5102543970256730E+00 
    2.5110946231316182E+00 
    2.5105245857836795E+00 
    2.5061576483838826E+00 
    2.5043012615314537E+00 
    2.5076876901485279E+00 
    2.5059487957603199E+00 
    2.5064908836473099E+00 
    2.5024298897685009E+00 
    2.4998489691368246E+00 
    2.4944754029672249E+00 
    2.4981847522563765E+00 
    2.4944068794929226E+00 
    2.4906515739956294E+00 
    2.4999552239313969E+00 
    2.5005126179627628E+00 
    2.4950228308925446E+00 
    2.4955362491261845E+00 
    2.4874978931268337E+00 
    2.4915652436242892E+00 
    2.4898706730347477E+00 
    2.4838494572620977E+00 
    2.4877106187672644E+00 
    2.4855906279774369E+00 
    2.4802087081024866E+00 
    2.4800410314123740E+00 
    2.4826464703463236E+00 
    2.4784194201387604E+00 
    2.4741954008421017E+00 
    2.4777063121150817E+00 
    2.4730988788476398E+00 
    2.4749889945902694E+00 
    2.4699129744459412E+00 
    2.4648963045071506E+00 
    2.4582250293242951E+00 
    2.4647875344526402E+00 
    2.4604218841579177E+00 
    2.4542958737970770E+00 
    2.4689167951012521E+00 
    2.4719068000448945E+00 
    2.4643179183093165E+00 
    2.4632913782373054E+00 
    2.4513378491645548E+00 
    2.4577358778158160E+00 
    2.4569598254402893E+00 
    2.4481857819915493E+00 
    2.4485103378015172E+00 
    2.4466915964771982E+00 
    2.4391378066585570E+00 
    2.4383610531774349E+00 
    2.4438405978967541E+00 
    2.4394928662616038E+00 
    2.4324928088771012E+00 
    2.4367639274170165E+00 
    2.4294652194873083E+00 
    2.4324501595135817E+00 
    2.4262049609173260E+00 
    2.4194842558786003E+00 
    2.4118100361501753E+00 
    2.4202581809799062E+00 
    2.4152935441688430E+00 
    2.4077207113779067E+00 
    2.4263668782187122E+00 
    2.4317025293476768E+00 
    2.4219348437289927E+00 
    2.4196991227144564E+00 
    2.4048122864801353E+00 
    2.4128250377532123E+00 
    2.4126907870833829E+00 
    2.4020993586628538E+00 
    2.4008591967475907E+00 
    2.3989914133659238E+00 
    2.3908208776624500E+00 
    2.3902344928711097E+00 
    2.3962149171558615E+00 
    2.3919291333352408E+00 
    2.3841496492944150E+00 
    2.3889913741389015E+00 
    2.3812728873829068E+00 
    2.3842752619089800E+00 
    2.3779986461312048E+00 
    2.3719647196761522E+00 
    2.3650260682270590E+00 
    2.3723109074577531E+00 
    2.3675706016823330E+00 
    2.3612493035563369E+00 
    2.3783078382928204E+00 
    2.3839541047194528E+00 
    2.3743294180775063E+00 
    2.3720891031948610E+00 
    2.3586446152735130E+00 
    2.3656380652422841E+00 
    2.3658542065607153E+00 
    2.3568088663392328E+00 
    2.3561732934360307E+00 
    2.3544463695314830E+00 
    2.3480140156956910E+00 
    2.3476338007054003E+00 
    2.3520671195907625E+00 
    2.3484759485103495E+00 
    2.3421524558807216E+00 
    2.3464654451165274E+00 
    2.3402601485302323E+00 
    2.3426451814988396E+00 
    2.3374127560349831E+00 
    2.3326719257045077E+00 
    2.3270728211525649E+00 
    2.3327449693317908E+00 
    2.3291207659173114E+00 
    2.3240723111168098E+00 
    2.3373711095742555E+00 
    2.3418473349872007E+00 
    2.3341319538599374E+00 
    2.3324437833906866E+00 
    2.3217788148851470E+00 
    2.3274735860661533E+00 
    2.3273210673645903E+00 
    2.3198012238532151E+00 
    2.3197896248522021E+00 
    2.3183219591493773E+00 
    2.3130044494255015E+00 
    2.3126699734087697E+00 
    2.3161836498133912E+00 
    2.3129103362278527E+00 
    2.3079214014058311E+00 
    2.3114982483294884E+00 
    2.3066053409509895E+00 
    2.3085221711857313E+00 
    2.3040325338843197E+00 
    2.3000779773077129E+00 
    2.2948084239439117E+00 
    2.2996899438792533E+00 
    2.2962285743509945E+00 
    2.2918044381330600E+00 
    2.3034113963805005E+00 
    2.3069524387459368E+00 
    2.3000926446304155E+00 
    2.2988822570297409E+00 
    2.2894367532409885E+00 
    2.2944382229800659E+00 
    2.2939940308625517E+00 
    2.2871778604915094E+00 
    2.2876887759950519E+00 
    2.2864353391819630E+00 
    2.2804470061284579E+00 
    2.2796295176087531E+00 
    2.2841387517736087E+00 
    2.2805520522470628E+00 
    2.2747852300643125E+00 
    2.2787466231318816E+00 
    2.2730050899828065E+00 
    2.2750776792966310E+00 
    2.2703208740764582E+00 
    2.2663433963322439E+00 
    2.2612718232352140E+00 
    2.2659526684484304E+00 
    2.2623550587112802E+00 
    2.2580774658778306E+00 
    2.2700166174761169E+00 
    2.2742905266082745E+00 
    2.2665188336524529E+00 
    2.2650573997179855E+00 
    2.2554780791034252E+00 
    2.2603729086683475E+00 
    2.2597251617381229E+00 
    2.2527979041972874E+00 
    2.2551914725103992E+00 
    2.2533507325328408E+00 
    2.2490392026540054E+00 
    2.2492929955773642E+00 
    2.2508656663405251E+00 
    2.2472108432836628E+00 
    2.2438440626346723E+00 
    2.2472134281778029E+00 
    2.2443591845235540E+00 
    2.2452655353393864E+00 
    2.2413645337237327E+00 
    2.2390148835790176E+00 
    2.2346039640036222E+00 
    2.2374426976424009E+00 
    2.2341312267255042E+00 
    2.2313408438758868E+00 
    2.2395777142359332E+00 
    2.2414540258760742E+00 
    2.2355112568430529E+00 
    2.2354869922469427E+00 
    2.2284796265746651E+00 
    2.2319087928890435E+00 
    2.2304895716407684E+00 
    2.2252528694273530E+00 
    2.2301756919575122E+00 
    2.2280801800487766E+00 
    2.2247951020412136E+00 
    2.2254115126313390E+00 
    2.2253334634747648E+00 
    2.2214807431531258E+00 
    2.2195914692119683E+00 
    2.2226802794662133E+00 
    2.2212966699369097E+00 
    2.2215061588870029E+00 
    2.2181491052760927E+00 
    2.2167474444825261E+00 
    2.2127323014345004E+00 
    2.2146825231678284E+00 
    2.2115511476427039E+00 
    2.2093952408856818E+00 
    2.2157942297351156E+00 
    2.2163354240841167E+00 
    2.2114836921357912E+00 
    2.2121566696994153E+00 
    2.2064466023338851E+00 
    2.2091432928571222E+00 
    2.2073123364091782E+00 
    2.2029940529038412E+00 
    2.2089741279883151E+00 
    2.2066868852396873E+00 
    2.2039508719771130E+00 
    2.2047520103101634E+00 
    2.2039116839092099E+00 
    2.2001774129977489E+00 
    2.1990755053377278E+00 
    2.2018270757930769E+00 
    2.2011233027646671E+00 
    2.2011155712295407E+00 
    2.1980141125229786E+00 
    2.1969153249966213E+00 
    2.1931199940343427E+00 
    2.1946525794498295E+00 
    2.1916520433618101E+00 