# vtk DataFile Version 2.0
Pressure Field Data 
ASCII 
DATASET UNSTRUCTURED_GRID 

POINTS 6273 double 

    0.0000000000000000E+00     0.0000000000000000E+00     0.0000000000000000E+00 
    1.0000000000000000E+00     0.0000000000000000E+00     0.0000000000000000E+00 
    1.0000000000000000E+00     1.0000000000000000E+00     0.0000000000000000E+00 
    0.0000000000000000E+00     1.0000000000000000E+00     0.0000000000000000E+00 
    1.5624999999970249E-02     0.0000000000000000E+00     0.0000000000000000E+00 
    3.1249999999940652E-02     0.0000000000000000E+00     0.0000000000000000E+00 
    4.6874999999905617E-02     0.0000000000000000E+00     0.0000000000000000E+00 
    6.2499999999870597E-02     0.0000000000000000E+00     0.0000000000000000E+00 
    7.8124999999846401E-02     0.0000000000000000E+00     0.0000000000000000E+00 
    9.3749999999822212E-02     0.0000000000000000E+00     0.0000000000000000E+00 
    1.0937499999979799E-01     0.0000000000000000E+00     0.0000000000000000E+00 
    1.2499999999977381E-01     0.0000000000000000E+00     0.0000000000000000E+00 
    1.4062499999972811E-01     0.0000000000000000E+00     0.0000000000000000E+00 
    1.5624999999968239E-01     0.0000000000000000E+00     0.0000000000000000E+00 
    1.7187499999963671E-01     0.0000000000000000E+00     0.0000000000000000E+00 
    1.8749999999959110E-01     0.0000000000000000E+00     0.0000000000000000E+00 
    2.0312499999954539E-01     0.0000000000000000E+00     0.0000000000000000E+00 
    2.1874999999949971E-01     0.0000000000000000E+00     0.0000000000000000E+00 
    2.3437499999945391E-01     0.0000000000000000E+00     0.0000000000000000E+00 
    2.4999999999940831E-01     0.0000000000000000E+00     0.0000000000000000E+00 
    2.6562499999936218E-01     0.0000000000000000E+00     0.0000000000000000E+00 
    2.8124999999931621E-01     0.0000000000000000E+00     0.0000000000000000E+00 
    2.9687499999927008E-01     0.0000000000000000E+00     0.0000000000000000E+00 
    3.1249999999922412E-01     0.0000000000000000E+00     0.0000000000000000E+00 
    3.2812499999917810E-01     0.0000000000000000E+00     0.0000000000000000E+00 
    3.4374999999913203E-01     0.0000000000000000E+00     0.0000000000000000E+00 
    3.5937499999908601E-01     0.0000000000000000E+00     0.0000000000000000E+00 
    3.7499999999903999E-01     0.0000000000000000E+00     0.0000000000000000E+00 
    3.9062499999899403E-01     0.0000000000000000E+00     0.0000000000000000E+00 
    4.0624999999894801E-01     0.0000000000000000E+00     0.0000000000000000E+00 
    4.2187499999890188E-01     0.0000000000000000E+00     0.0000000000000000E+00 
    4.3749999999885592E-01     0.0000000000000000E+00     0.0000000000000000E+00 
    4.5312499999880979E-01     0.0000000000000000E+00     0.0000000000000000E+00 
    4.6874999999876382E-01     0.0000000000000000E+00     0.0000000000000000E+00 
    4.8437499999871780E-01     0.0000000000000000E+00     0.0000000000000000E+00 
    4.9999999999867167E-01     0.0000000000000000E+00     0.0000000000000000E+00 
    5.1562499999871325E-01     0.0000000000000000E+00     0.0000000000000000E+00 
    5.3124999999875477E-01     0.0000000000000000E+00     0.0000000000000000E+00 
    5.4687499999879630E-01     0.0000000000000000E+00     0.0000000000000000E+00 
    5.6249999999883782E-01     0.0000000000000000E+00     0.0000000000000000E+00 
    5.7812499999887934E-01     0.0000000000000000E+00     0.0000000000000000E+00 
    5.9374999999892086E-01     0.0000000000000000E+00     0.0000000000000000E+00 
    6.0937499999896239E-01     0.0000000000000000E+00     0.0000000000000000E+00 
    6.2499999999900380E-01     0.0000000000000000E+00     0.0000000000000000E+00 
    6.4062499999904521E-01     0.0000000000000000E+00     0.0000000000000000E+00 
    6.5624999999908673E-01     0.0000000000000000E+00     0.0000000000000000E+00 
    6.7187499999912825E-01     0.0000000000000000E+00     0.0000000000000000E+00 
    6.8749999999916978E-01     0.0000000000000000E+00     0.0000000000000000E+00 
    7.0312499999921130E-01     0.0000000000000000E+00     0.0000000000000000E+00 
    7.1874999999925282E-01     0.0000000000000000E+00     0.0000000000000000E+00 
    7.3437499999929434E-01     0.0000000000000000E+00     0.0000000000000000E+00 
    7.4999999999933586E-01     0.0000000000000000E+00     0.0000000000000000E+00 
    7.6562499999937739E-01     0.0000000000000000E+00     0.0000000000000000E+00 
    7.8124999999941891E-01     0.0000000000000000E+00     0.0000000000000000E+00 
    7.9687499999946043E-01     0.0000000000000000E+00     0.0000000000000000E+00 
    8.1249999999950195E-01     0.0000000000000000E+00     0.0000000000000000E+00 
    8.2812499999954348E-01     0.0000000000000000E+00     0.0000000000000000E+00 
    8.4374999999958500E-01     0.0000000000000000E+00     0.0000000000000000E+00 
    8.5937499999962652E-01     0.0000000000000000E+00     0.0000000000000000E+00 
    8.7499999999966793E-01     0.0000000000000000E+00     0.0000000000000000E+00 
    8.9062499999970934E-01     0.0000000000000000E+00     0.0000000000000000E+00 
    9.0624999999975087E-01     0.0000000000000000E+00     0.0000000000000000E+00 
    9.2187499999979239E-01     0.0000000000000000E+00     0.0000000000000000E+00 
    9.3749999999983391E-01     0.0000000000000000E+00     0.0000000000000000E+00 
    9.5312499999987543E-01     0.0000000000000000E+00     0.0000000000000000E+00 
    9.6874999999991696E-01     0.0000000000000000E+00     0.0000000000000000E+00 
    9.8437499999995848E-01     0.0000000000000000E+00     0.0000000000000000E+00 
    1.0000000000000000E+00     1.5624999999970249E-02     0.0000000000000000E+00 
    1.0000000000000000E+00     3.1249999999940652E-02     0.0000000000000000E+00 
    1.0000000000000000E+00     4.6874999999905617E-02     0.0000000000000000E+00 
    1.0000000000000000E+00     6.2499999999870597E-02     0.0000000000000000E+00 
    1.0000000000000000E+00     7.8124999999846401E-02     0.0000000000000000E+00 
    1.0000000000000000E+00     9.3749999999822212E-02     0.0000000000000000E+00 
    1.0000000000000000E+00     1.0937499999979799E-01     0.0000000000000000E+00 
    1.0000000000000000E+00     1.2499999999977381E-01     0.0000000000000000E+00 
    1.0000000000000000E+00     1.4062499999972811E-01     0.0000000000000000E+00 
    1.0000000000000000E+00     1.5624999999968239E-01     0.0000000000000000E+00 
    1.0000000000000000E+00     1.7187499999963671E-01     0.0000000000000000E+00 
    1.0000000000000000E+00     1.8749999999959110E-01     0.0000000000000000E+00 
    1.0000000000000000E+00     2.0312499999954539E-01     0.0000000000000000E+00 
    1.0000000000000000E+00     2.1874999999949971E-01     0.0000000000000000E+00 
    1.0000000000000000E+00     2.3437499999945391E-01     0.0000000000000000E+00 
    1.0000000000000000E+00     2.4999999999940831E-01     0.0000000000000000E+00 
    1.0000000000000000E+00     2.6562499999936218E-01     0.0000000000000000E+00 
    1.0000000000000000E+00     2.8124999999931621E-01     0.0000000000000000E+00 
    1.0000000000000000E+00     2.9687499999927008E-01     0.0000000000000000E+00 
    1.0000000000000000E+00     3.1249999999922412E-01     0.0000000000000000E+00 
    1.0000000000000000E+00     3.2812499999917810E-01     0.0000000000000000E+00 
    1.0000000000000000E+00     3.4374999999913203E-01     0.0000000000000000E+00 
    1.0000000000000000E+00     3.5937499999908601E-01     0.0000000000000000E+00 
    1.0000000000000000E+00     3.7499999999903999E-01     0.0000000000000000E+00 
    1.0000000000000000E+00     3.9062499999899403E-01     0.0000000000000000E+00 
    1.0000000000000000E+00     4.0624999999894801E-01     0.0000000000000000E+00 
    1.0000000000000000E+00     4.2187499999890188E-01     0.0000000000000000E+00 
    1.0000000000000000E+00     4.3749999999885592E-01     0.0000000000000000E+00 
    1.0000000000000000E+00     4.5312499999880979E-01     0.0000000000000000E+00 
    1.0000000000000000E+00     4.6874999999876382E-01     0.0000000000000000E+00 
    1.0000000000000000E+00     4.8437499999871780E-01     0.0000000000000000E+00 
    1.0000000000000000E+00     4.9999999999867167E-01     0.0000000000000000E+00 
    1.0000000000000000E+00     5.1562499999871325E-01     0.0000000000000000E+00 
    1.0000000000000000E+00     5.3124999999875477E-01     0.0000000000000000E+00 
    1.0000000000000000E+00     5.4687499999879630E-01     0.0000000000000000E+00 
    1.0000000000000000E+00     5.6249999999883782E-01     0.0000000000000000E+00 
    1.0000000000000000E+00     5.7812499999887934E-01     0.0000000000000000E+00 
    1.0000000000000000E+00     5.9374999999892086E-01     0.0000000000000000E+00 
    1.0000000000000000E+00     6.0937499999896239E-01     0.0000000000000000E+00 
    1.0000000000000000E+00     6.2499999999900380E-01     0.0000000000000000E+00 
    1.0000000000000000E+00     6.4062499999904521E-01     0.0000000000000000E+00 
    1.0000000000000000E+00     6.5624999999908673E-01     0.0000000000000000E+00 
    1.0000000000000000E+00     6.7187499999912825E-01     0.0000000000000000E+00 
    1.0000000000000000E+00     6.8749999999916978E-01     0.0000000000000000E+00 
    1.0000000000000000E+00     7.0312499999921130E-01     0.0000000000000000E+00 
    1.0000000000000000E+00     7.1874999999925282E-01     0.0000000000000000E+00 
    1.0000000000000000E+00     7.3437499999929434E-01     0.0000000000000000E+00 
    1.0000000000000000E+00     7.4999999999933586E-01     0.0000000000000000E+00 
    1.0000000000000000E+00     7.6562499999937739E-01     0.0000000000000000E+00 
    1.0000000000000000E+00     7.8124999999941891E-01     0.0000000000000000E+00 
    1.0000000000000000E+00     7.9687499999946043E-01     0.0000000000000000E+00 
    1.0000000000000000E+00     8.1249999999950195E-01     0.0000000000000000E+00 
    1.0000000000000000E+00     8.2812499999954348E-01     0.0000000000000000E+00 
[...]
CELL_DATA 6144 
SCALARS Pressure double 1 
LOOKUP_TABLE default 

    3.1376391961926671E+00 
    3.0395807886956656E+00 
    3.0240563927528390E+00 
    3.0436978071287877E+00 
    2.9837053468073158E+00 
    2.9468202232513288E+00 
    2.9634695731378513E+00 
    2.9962928142752383E+00 
    2.9836324908351544E+00 
    2.9943019801284869E+00 
    2.9656192758292170E+00 
    2.9463359028904850E+00 
    2.9272882219439080E+00 
    2.9439318041331690E+00 
    2.9266906847214127E+00 
    2.9152752990800166E+00 
    2.9454193676254063E+00 
    2.9290306498202425E+00 
    2.9165323411302730E+00 
    2.9283948560275950E+00 
    2.9035925460530421E+00 
    2.9163679922512542E+00 
    2.9052744109065256E+00 
    2.8904481424970672E+00 
    2.9026804923420002E+00 
    2.8992090948556446E+00 
    2.8824801928317449E+00 
    2.8793807444365567E+00 
    2.8909348465241145E+00 
    2.8782089434789286E+00 
    2.8672939865286726E+00 
    2.8775858028872725E+00 
    2.8585362278224533E+00 
    2.8679159620189592E+00 
    2.8555786852652312E+00 
    2.8393912730820206E+00 
    2.8281368407460392E+00 
    2.8444273313143738E+00 
    2.8352922899280415E+00 
    2.8223114038592492E+00 
    2.8546459593560538E+00 
    2.8607971940393027E+00 
    2.8435314382169823E+00 
    2.8419796057386968E+00 
    2.8170183742241743E+00 
    2.8301068132366147E+00 
    2.8281291066005831E+00 
    2.8107793602558120E+00 
    2.8077801508406988E+00 
    2.8067168253747941E+00 
    2.7916892462215843E+00 
    2.7881202963096836E+00 
    2.8025207943664601E+00 
    2.7948246800795431E+00 
    2.7817091741777351E+00 
    2.7889141759289449E+00 
    2.7702607771850123E+00 
    2.7792658245654982E+00 
    2.7682589434723650E+00 
    2.7531992611744300E+00 
    2.7439490073815835E+00 
    2.7587672257211988E+00 
    2.7517119712022398E+00 
    2.7400784855041960E+00 
    2.7705263654397276E+00 
    2.7799830140066897E+00 
    2.7629747787425738E+00 
    2.7592512247511873E+00 
    2.7366618964822593E+00 
    2.7486546771033531E+00 
    2.7482289434194889E+00 
    2.7328513187813970E+00 
    2.7285365759552889E+00 
    2.7278580508271593E+00 
    2.7166718137515677E+00 
    2.7144321477597773E+00 
    2.7251313170474387E+00 
    2.7196650243222620E+00 
    2.7090937029471402E+00 
    2.7155222607388798E+00 
    2.7016334288583082E+00 
    2.7077684122254659E+00 
    2.7001159841832401E+00 
    2.6906294611718629E+00 
    2.6845095661924532E+00 
    2.6942312779763045E+00 
    2.6898568579153994E+00 
    2.6820285360170661E+00 
    2.7024488252226728E+00 
    2.7093489885464992E+00 
    2.6980260246798000E+00 
    2.6953510614765936E+00 
    2.6794487718057383E+00 
    2.6878478735310241E+00 
    2.6873990154765366E+00 
    2.6766637635054162E+00 
    2.6735784516213710E+00 
    2.6731655193105821E+00 
    2.6646137425958907E+00 
    2.6623675106380675E+00 
    2.6712381351795411E+00 
    2.6677285442797771E+00 
    2.6595824513732582E+00 
    2.6633321994017964E+00 
    2.6515125143724507E+00 
    2.6572520155457835E+00 
    2.6507850967884115E+00 
    2.6405706237563233E+00 
    2.6340633507721183E+00 
    2.6449702331558393E+00 
    2.6408157468736619E+00 
    2.6317518667704158E+00 
    2.6533498007548686E+00 
    2.6598055572571853E+00 
    2.6496501434142909E+00 
    2.6462724083205225E+00 
    2.6300814341745209E+00 
    2.6390146063788946E+00 
    2.6399281559557934E+00 
    2.6282655157560941E+00 
    2.6208377579524762E+00 
    2.6210127178658689E+00 
    2.6103837117230904E+00 
    2.6069833575050265E+00 
    2.6194752202866609E+00 
    2.6159331724198949E+00 
    2.6047637447423879E+00 
    2.6089261441003120E+00 
    2.5936167479743313E+00 
    2.6011817033872369E+00 
    2.5931606497315793E+00 
    2.5796616746231336E+00 
    2.5709879382436553E+00 
    2.5860363849321883E+00 
    2.5811577667940488E+00 
    2.5683207334545699E+00 
    2.5972169142026469E+00 
    2.6068874369713826E+00 
    2.5941843706146246E+00 
    2.5887091520233794E+00 
    2.5669849561920239E+00 
    2.5793925499748771E+00 
    2.5816284930863995E+00 
    2.5660480457597488E+00 
    2.5524462329221991E+00 
    2.5527681083157319E+00 
    2.5360944481686243E+00 
    2.5310299332047728E+00 
    2.5511720841920376E+00 
    2.5471085212035334E+00 
    2.5286388822767583E+00 
    2.5349401352988856E+00 
    2.5115669918908239E+00 
    2.5222866860622344E+00 
    2.5111095685203026E+00 
    2.4936593187715177E+00 
    2.4838218898829965E+00 
    2.5020903582364866E+00 
    2.4961015759065970E+00 
    2.4812486447849000E+00 
    2.5182300316775357E+00 
    2.5340966039940751E+00 
    2.5146276403894481E+00 
    2.5066196422073825E+00 
    2.4798399069220052E+00 
    2.4945492176474939E+00 
    2.4978714327975493E+00 
    2.4791671767359413E+00 
    2.4647523313598461E+00 
    2.4652775507367797E+00 
    2.4507680454155500E+00 
    2.4467882718903362E+00 
    2.4638271515421892E+00 
    2.4599499335216550E+00 
    2.4437570320348989E+00 
    2.4496224019625803E+00 
    2.4303247241129484E+00 
    2.4394171744471529E+00 
    2.4300802999138527E+00 
    2.4153676035472085E+00 
    2.4070228997352277E+00 
    2.4223789647559708E+00 
    2.4162617748603341E+00 
    2.4039201015720111E+00 
    2.4353317461328241E+00 
    2.4483488224371901E+00 
    2.4324636647257396E+00 
    2.4257402099567709E+00 
    2.4025401210924024E+00 
    2.4149502558104010E+00 
    2.4181618179471913E+00 
    2.4025361416719990E+00 
    2.3911477461223156E+00 
    2.3913334481899797E+00 
    2.3798650031676187E+00 
    2.3769399378211564E+00 
    2.3900939615512362E+00 
    2.3870006710876477E+00 
    2.3740164409176763E+00 
    2.3790044034335218E+00 
    2.3639709855627897E+00 
    2.3708718315749850E+00 
    2.3634029845534505E+00 
    2.3523338536308205E+00 
    2.3459450359857117E+00 
    2.3574872250107739E+00 
    2.3533075134096029E+00 
    2.3439496612362443E+00 
    2.3675109864173334E+00 
    2.3777545912137725E+00 
    2.3654703041284550E+00 
    2.3602970363531655E+00 
    2.3428419924107993E+00 
    2.3524079246821974E+00 
    2.3544767154159993E+00 
    2.3423925193986759E+00 
    2.3338501128030011E+00 
    2.3339021958312491E+00 
    2.3249445648456017E+00 
    2.3228041985678369E+00 
    2.3329319634768466E+00 
    2.3304903262818946E+00 
    2.3207300168272149E+00 
    2.3243856980387818E+00 
    2.3128097401049992E+00 
    2.3181609973734898E+00 
    2.3124325839284410E+00 
    2.3037168897731091E+00 
    2.2987470708005526E+00 
    2.3076914999478331E+00 
    2.3044718275795875E+00 
    2.2971978341126267E+00 
    2.3154450893418090E+00 
    2.3231351302621941E+00 
    2.3135022211845748E+00 
    2.3097405898181131E+00 
    2.2962049132610232E+00 
    2.3036415681199101E+00 
    2.3049667389772477E+00 
    2.2955303140811396E+00 
    2.2894105475891529E+00 
    2.2893909350436132E+00 
    2.2823907534921295E+00 
    2.2807690886118164E+00 
    2.2884794034493758E+00 
    2.2863132488573670E+00 
    2.2789187284218975E+00 
    2.2818441728219954E+00 
    2.2731071952955282E+00 
    2.2771433117492776E+00 
    2.2728664620099135E+00 
    2.2663139910338619E+00 
    2.2624320215885088E+00 
    2.2691570613555418E+00 
    2.2661244401253708E+00 
    2.2607140337910940E+00 
    2.2747761210429371E+00 
    2.2804030924697933E+00 
    2.2728114444000691E+00 
    2.2701243805580642E+00 
    2.2596372052485219E+00 
    2.2651210816004999E+00 
    2.2660700979360269E+00 
    2.2588570305500513E+00 
    2.2552321337588492E+00 
    2.2550547063462822E+00 
    2.2499263563193441E+00 
    2.2487305685231971E+00 
    2.2541224563730666E+00 
    2.2521482355727356E+00 
    2.2469169575890238E+00 
    2.2492652958064139E+00 
    2.2429108032208771E+00 
    2.2458884000499686E+00 
    2.2423347977299728E+00 
    2.2374672703809613E+00 
    2.2344886673747260E+00 
    2.2393877210591429E+00 
    2.2373340132146287E+00 
    2.2332959506668901E+00 
    2.2435017668751147E+00 
    2.2473433883643326E+00 
    2.2415747239392672E+00 
    2.2399573700799582E+00 
    2.2322034148369618E+00 
    2.2363408014502735E+00 
    2.2364932524652708E+00 
    2.2309370797037116E+00 
    2.2290587492890594E+00 
    2.2289184188169697E+00 
    2.2248873608598281E+00 
    2.2238472172852481E+00 
    2.2279241443152444E+00 
    2.2259897869324639E+00 
    2.2221855175805909E+00 
    2.2240488036234050E+00 
    2.2191880499249543E+00 
    2.2215089654482396E+00 
    2.2186626604510171E+00 
    2.2146971139489602E+00 
    2.2120725623279851E+00 
    2.2161333714160820E+00 
    2.2140746962993672E+00 
    2.2106952747654529E+00 
    2.2192487199456630E+00 
    2.2219218558471909E+00 
    2.2171678587959214E+00 
    2.2160952435632093E+00 
    2.2095788845848339E+00 
    2.2129136657495132E+00 
    2.2128534936353557E+00 
    2.2081737515414224E+00 
    2.2072376125244366E+00 
    2.2070910279836902E+00 
    2.2035832219399589E+00 
    2.2025652558861806E+00 
    2.2060898831197866E+00 
    2.2041283545519943E+00 
    2.2010626932784909E+00 
    2.2026968100464255E+00 
    2.1983934479135319E+00 
    2.2004980602762436E+00 
    2.1979235467865208E+00 
    2.1942329433472207E+00 
    2.1918436432275286E+00 
    2.1955350362438404E+00 
    2.1936836187337292E+00 
    2.1906206601213172E+00 
    2.1982003449842153E+00 
    2.2003399657903033E+00 
    2.1960621908920808E+00 
    2.1952710596777893E+00 
    2.1895064481952322E+00 
    2.1925265709532402E+00 
    2.1921977608680101E+00 
    2.1879434601870043E+00 
    2.1874785664807419E+00 
    2.1872151285596022E+00 
    2.1840828309630091E+00 
    2.1833752569402161E+00 
    2.1862231102754985E+00 
    2.1843433752751777E+00 
    2.1818284857389800E+00 
    2.1833253679492963E+00 
    2.1799658354313132E+00 
    2.1815721581891907E+00 
    2.1795211334392031E+00 
    2.1769266693828540E+00 
    2.1751959367177367E+00 
    2.1776131317742364E+00 
    2.1758822091597398E+00 
    2.1739766304807593E+00 
    2.1794294409903601E+00 
    2.1809123972172708E+00 
    2.1772646589055422E+00 
    2.1769906862894119E+00 
    2.1728309747330696E+00 
    2.1748144106447920E+00 
    2.1742218478960944E+00 
    2.1713022146348684E+00 
    2.1725462191350462E+00 
    2.1720829338504677E+00 
    2.1705340842927154E+00 
    2.1704816601264456E+00 
    2.1711262546756664E+00 
    2.1695212873127527E+00 
    2.1688460938891483E+00 
    2.1699798133262886E+00 
    2.1690518346735863E+00 
    2.1694380795887538E+00 
    2.1684548902364451E+00 
    2.1681689802731432E+00 
    2.1678577482029699E+00 
    2.1676159674276456E+00 
    2.1667180644143040E+00 
    2.1670636969053110E+00 
    2.1674857704220649E+00 
    2.1671801744569033E+00 
    2.1654894473195867E+00 
    2.1663895317250432E+00 
    2.1658123676771432E+00 
    2.1658087294506245E+00 
    2.1645125733725838E+00 
    2.1640858158345662E+00 
    2.9048944061104849E+00 
    2.8828468070518976E+00 
    2.8844791128696952E+00 
    2.9006327957910960E+00 
    2.8632469667929739E+00 
    2.8454542240147633E+00 
    2.8599425365282065E+00 
    2.8707824036016221E+00 
    2.8926127548894582E+00 
    2.8800097850860804E+00 
    2.8702927697937297E+00 
    2.8797730257634897E+00 
    2.8627109358811018E+00 
    2.8585889263618491E+00 
    2.8462461635543459E+00 
    2.8462703707867045E+00 
    2.8490802276100635E+00 
    2.8342781826275432E+00 
    2.8276901418248594E+00 
    2.8393588220676453E+00 
    2.8316981839898370E+00 
    2.8341706234936805E+00 
    2.8218708104801120E+00 
    2.8152040105313048E+00 
    2.8547158582653411E+00 
    2.8415252345951525E+00 
    2.8336395951086644E+00 
    2.8401224484381520E+00 
    2.8282048330094032E+00 
    2.8124344424114733E+00 
    2.8130110792859790E+00 
    2.8245215655702092E+00 
    2.8261051405384205E+00 
    2.8239657991445815E+00 
    2.8120329500110222E+00 
    2.8095972710526498E+00 
    2.7938022281865700E+00 
    2.7993334891207784E+00 
    2.7877405572437595E+00 
    2.7810667676701541E+00 
    2.8002185807602511E+00 
    2.7967318578132780E+00 
    2.7830524994360681E+00 
    2.7880712732907504E+00 
    2.7700532196119592E+00 
    2.7786539723798547E+00 
    2.7709434215449593E+00 
    2.7575662088207995E+00 
    2.7797910983074305E+00 
    2.7709305581317096E+00 
    2.7600351018576084E+00 
    2.7631193749560552E+00 
    2.7607724622650540E+00 
    2.7475735575872031E+00 
    2.7420948568699592E+00 
    2.7527467099011211E+00 
    2.7485405493390753E+00 
    2.7491743014299828E+00 
    2.7376126383088719E+00 
    2.7331105681255554E+00 
    2.7206745873200187E+00 
    2.7270815309758900E+00 
    2.7179012734222927E+00 
    2.7119618595546404E+00 
    2.7306451633094477E+00 
    2.7314699021025963E+00 
    2.7171978365632201E+00 
    2.7202380726710893E+00 
    2.7041515132491352E+00 
    2.7118305227136492E+00 
    2.7063629496753863E+00 
    2.6960163644663604E+00 
    2.7101307186295283E+00 
    2.7041852392379591E+00 
    2.6965810830375077E+00 
    2.6987841020711412E+00 
    2.6975624517435781E+00 
    2.6889318064370125E+00 
    2.6847118988920218E+00 
    2.6923724732809182E+00 
    2.6879586651155156E+00 
    2.6893170493401257E+00 
    2.6814775614388759E+00 
    2.6775819301434178E+00 
    2.6694124941132586E+00 
    2.6742893859900443E+00 
    2.6678184316357147E+00 
    2.6630461088650685E+00 
    2.6771035895186137E+00 
    2.6778280317559155E+00 
    2.6678043517649752E+00 
    2.6696236644731810E+00 
    2.6572858792908636E+00 
    2.6632112879845908E+00 
    2.6596126744758575E+00 
    2.6510668594733167E+00 
    2.6606600201418136E+00 
    2.6565246644777476E+00 
    2.6497178368610768E+00 
    2.6506069236571124E+00 
    2.6514047585298774E+00 
    2.6445337965543008E+00 
    2.6402118013792899E+00 
    2.6458855586104337E+00 
    2.6414619681061011E+00 
    2.6430479285674027E+00 
    2.6360995523218738E+00 
    2.6308464177842912E+00 
    2.6219081232900434E+00 
    2.6290636945949619E+00 
    2.6228814995509122E+00 
    2.6160032085730514E+00 
    2.6330129519471841E+00 
    2.6350955852767872E+00 
    2.6253870231358474E+00 
    2.6255414085480102E+00 
    2.6111328566472207E+00 
    2.6185372529525943E+00 
    2.6162498047570764E+00 
    2.6056205797196039E+00 
    2.6099632273778961E+00 
    2.6069438797051041E+00 
    2.5975423690713306E+00 
    2.5968327133010072E+00 
    2.6024380785731029E+00 
    2.5957777781617208E+00 
    2.5880242769284463E+00 
    2.5938191096268528E+00 
    2.5851060776959867E+00 
    2.5887873701791535E+00 
    2.5803516312734063E+00 
    2.5713320695492827E+00 
    2.5597951264817711E+00 
    2.5718479347917693E+00 
    2.5646526286999811E+00 
    2.5534649986444617E+00 
    2.5793720304198389E+00 
    2.5849875609820394E+00 
    2.5721747087466817E+00 
    2.5700410662396322E+00 
    2.5488492714916435E+00 
    2.5605058110577010E+00 
    2.5596243567910881E+00 
    2.5440170703328473E+00 
    2.5411027288136672E+00 
    2.5384719610299338E+00 
    2.5224036099426623E+00 
    2.5200039377844439E+00 
    2.5338279442572555E+00 
    2.5261845400071672E+00 
    2.5107783974377358E+00 
    2.5188502134159396E+00 
    2.5032213818309490E+00 
    2.5095261488514513E+00 
    2.4984293019924140E+00 
    2.4858608290040647E+00 
    2.4733551307271373E+00 
    2.4883940185791458E+00 
    2.4803065751702493E+00 
    2.4673186830336151E+00 
    2.4999317467461459E+00 
    2.5112060681382995E+00 
    2.4930507283043788E+00 
    2.4884416135266139E+00 
    2.4630923321134417E+00 
    2.4766652884252904E+00 
    2.4770679925241650E+00 
    2.4593419074536582E+00 
    2.4547032354240730E+00 
    2.4525915834757659E+00 
    2.4390384355921584E+00 
    2.4372441296405145E+00 
    2.4488027701911670E+00 
    2.4425680218077224E+00 
    2.4294025285937768E+00 
    2.4365388906263803E+00 
    2.4228167962797786E+00 
    2.4284660842266250E+00 
    2.4187625797806906E+00 
    2.4080384309103962E+00 
    2.3975169593226351E+00 
    2.4100353530728995E+00 
    2.4028873390758698E+00 
    2.3922863032285151E+00 
    2.4202928560880070E+00 
    2.4300823991818117E+00 
    2.4147470231636738E+00 
    2.4104182074752916E+00 
    2.3888655724047818E+00 
    2.4000897708054603E+00 
    2.4010784154125164E+00 
    2.3864538997198719E+00 
    2.3828347103764389E+00 
    2.3810621314561105E+00 
    2.3706947877775431E+00 
    2.3693479990590864E+00 
    2.3779992538968675E+00 
    2.3729193963345905E+00 
    2.3625001053790018E+00 
    2.3686193257258927E+00 
    2.3579737260533427E+00 
    2.3622944475233223E+00 
    2.3544496171669458E+00 
    2.3463653553841137E+00 
    2.3381859735754715E+00 
    2.3475325953944144E+00 
    2.3422607729154223E+00 
    2.3341619786145120E+00 
    2.3552204148388221E+00 
    2.3627862250955118E+00 
    2.3507574400778282E+00 
    2.3476431443971206E+00 
    2.3311932282658456E+00 
    2.3400037153339226E+00 
    2.3401917936951233E+00 
    2.3286489857712476E+00 
    2.3268102337085090E+00 
    2.3251881362631872E+00 
    2.3171194577735474E+00 
    2.3162294320678165E+00 
    2.3224777653179682E+00 
    2.3181026358138133E+00 
    2.3102985926231749E+00 
    2.3152655912231843E+00 
    2.3074354619111164E+00 
    2.3105833342934909E+00 
    2.3042823602500984E+00 
    2.2982771071316348E+00 
    2.2915925525130665E+00 
    2.2984715008807548E+00 
    2.2940337895186897E+00 
    2.2880151471321080E+00 
    2.3041223198943150E+00 
    2.3097331162685295E+00 
    2.3000446757388815E+00 
    2.2979695847518906E+00 
    2.2852319549275784E+00 
    2.2919269628929082E+00 
    2.2916647392883069E+00 
    2.2825716774586895E+00 
    2.2829282289425068E+00 
    2.2813938937440255E+00 
    2.2751125422255587E+00 
    2.2746393824561260E+00 
    2.2787596646802655E+00 
    2.2745253803952048E+00 
    2.2688244927023313E+00 
    2.2731744214695859E+00 
    2.2676552176266602E+00 
    2.2696695980858133E+00 
    2.2645751674463854E+00 
    2.2604751567582366E+00 
    2.2549887821012176E+00 
    2.2598629824321939E+00 
    2.2559314949587810E+00 
    2.2514857167819771E+00 
    2.2637441204126398E+00 
    2.2674696436220336E+00 
    2.2596276434129199E+00 
    2.2585695341276897E+00 
    2.2486066837749559E+00 
    2.2537012546327886E+00 
    2.2527971234120256E+00 
    2.2456232661021036E+00 
    2.2485531040893347E+00 
    2.2465230280299560E+00 
    2.2419808039242204E+00 
    2.2422991263457508E+00 
    2.2438152808699745E+00 
    2.2398750957274394E+00 
    2.2364281026017143E+00 
    2.2400255781683587E+00 
    2.2370793916284644E+00 
    2.2380060306475342E+00 
    2.2338871745306350E+00 
    2.2314585652859988E+00 
    2.2268245015767230E+00 
    2.2297605885831095E+00 
    2.2262754884379850E+00 
    2.2233932249853390E+00 
    2.2319401261405396E+00 
    2.2337977212943740E+00 
    2.2276087791024310E+00 
    2.2276552342476728E+00 
    2.2203785109634189E+00 
    2.2239310428418544E+00 
    2.2223982553159507E+00 
    2.2169749433924522E+00 
    2.2222030099150172E+00 
    2.2200030704282363E+00 
    2.2165841252357539E+00 
    2.2172352434721563E+00 
    2.2171243393921274E+00 
    2.2130936222358408E+00 
    2.2111565610329658E+00 
    2.2143802162724482E+00 
    2.2129467534365808E+00 
    2.2131654888557133E+00 
    2.2096734178135002E+00 
    2.2082190117418738E+00 
    2.2040540247587650E+00 
    2.2060724143779087E+00 
    2.2028220587220795E+00 
    2.2005956110057987E+00 
    2.2072131120517664E+00 
    2.2077391709160117E+00 
    2.2027174429496768E+00 
    2.2034404027161765E+00 
    2.1975367327784210E+00 
    2.2003225814243375E+00 
    2.1984086542217041E+00 
    2.1939510893739520E+00 
    2.2001633201502449E+00 
    2.1977953888786113E+00 
    2.1949658749123429E+00 
    2.1957973864991809E+00 
    2.1949219088013079E+00 
    2.1910554778064246E+00 
    2.1899260811689483E+00 
    2.1927733666923759E+00 
    2.1920473852015490E+00 
    2.1920387156360048E+00 
    2.1888352335939198E+00 
    2.1877043523224970E+00 
    2.1837874636013277E+00 
    2.1853657265334085E+00 
    2.1822687390942495E+00 