# vtk DataFile Version 2.0
Pressure Field Data 
ASCII 
DATASET UNSTRUCTURED_GRID 

POINTS 6273 double 

    0.0000000000000000E+00     0.0000000000000000E+00     0.0000000000000000E+00 
    1.0000000000000000E+00     0.0000000000000000E+00     0.0000000000000000E+00 
    1.0000000000000000E+00     1.0000000000000000E+00     0.0000000000000000E+00 
    0.0000000000000000E+00     1.0000000000000000E+00     0.0000000000000000E+00 
    1.5624999999970249E-02     0.0000000000000000E+00     0.0000000000000000E+00 
    3.1249999999940652E-02     0.0000000000000000E+00     0.0000000000000000E+00 
    4.6874999999905617E-02     0.0000000000000000E+00     0.0000000000000000E+00 
    6.2499999999870597E-02     0.0000000000000000E+00     0.0000000000000000E+00 
    7.8124999999846401E-02     0.0000000000000000E+00     0.0000000000000000E+00 
    9.3749999999822212E-02     0.0000000000000000E+00     0.0000000000000000E+00 
    1.0937499999979799E-01     0.0000000000000000E+00     0.0000000000000000E+00 
    1.2499999999977381E-01     0.0000000000000000E+00     0.0000000000000000E+00 
    1.4062499999972811E-01     0.0000000000000000E+00     0.0000000000000000E+00 
    1.5624999999968239E-01     0.0000000000000000E+00     0.0000000000000000E+00 
    1.7187499999963671E-01     0.0000000000000000E+00     0.0000000000000000E+00 
    1.8749999999959110E-01     0.0000000000000000E+00     0.0000000000000000E+00 
    2.0312499999954539E-01     0.0000000000000000E+00     0.0000000000000000E+00 
    2.1874999999949971E-01     0.0000000000000000E+00     0.0000000000000000E+00 
    2.3437499999945391E-01     0.0000000000000000E+00     0.0000000000000000E+00 
    2.4999999999940831E-01     0.0000000000000000E+00     0.0000000000000000E+00 
    2.6562499999936218E-01     0.0000000000000000E+00     0.0000000000000000E+00 
    2.8124999999931621E-01     0.0000000000000000E+00     0.0000000000000000E+00 
    2.9687499999927008E-01     0.0000000000000000E+00     0.0000000000000000E+00 
    3.1249999999922412E-01     0.0000000000000000E+00     0.0000000000000000E+00 
    3.2812499999917810E-01     0.0000000000000000E+00     0.0000000000000000E+00 
    3.4374999999913203E-01     0.0000000000000000E+00     0.0000000000000000E+00 
    3.5937499999908601E-01     0.0000000000000000E+00     0.0000000000000000E+00 
    3.7499999999903999E-01     0.0000000000000000E+00     0.0000000000000000E+00 
    3.9062499999899403E-01     0.0000000000000000E+00     0.0000000000000000E+00 
    4.0624999999894801E-01     0.0000000000000000E+00     0.0000000000000000E+00 
    4.2187499999890188E-01     0.0000000000000000E+00     0.0000000000000000E+00 
    4.3749999999885592E-01     0.0000000000000000E+00     0.0000000000000000E+00 
    4.5312499999880979E-01     0.0000000000000000E+00     0.0000000000000000E+00 
    4.6874999999876382E-01     0.0000000000000000E+00     0.0000000000000000E+00 
    4.8437499999871780E-01     0.0000000000000000E+00     0.0000000000000000E+00 
    4.9999999999867167E-01     0.0000000000000000E+00     0.0000000000000000E+00 
    5.1562499999871325E-01     0.0000000000000000E+00     0.0000000000000000E+00 
    5.3124999999875477E-01     0.0000000000000000E+00     0.0000000000000000E+00 
    5.4687499999879630E-01     0.0000000000000000E+00     0.0000000000000000E+00 
    5.6249999999883782E-01     0.0000000000000000E+00     0.0000000000000000E+00 
    5.7812499999887934E-01     0.0000000000000000E+00     0.0000000000000000E+00 
    5.9374999999892086E-01     0.0000000000000000E+00     0.0000000000000000E+00 
    6.0937499999896239E-01     0.0000000000000000E+00     0.0000000000000000E+00 
    6.2499999999900380E-01     0.0000000000000000E+00     0.0000000000000000E+00 
    6.4062499999904521E-01     0.0000000000000000E+00     0.0000000000000000E+00 
    6.5624999999908673E-01     0.0000000000000000E+00     0.0000000000000000E+00 
    6.7187499999912825E-01     0.0000000000000000E+00     0.0000000000000000E+00 
    6.8749999999916978E-01     0.0000000000000000E+00     0.0000000000000000E+00 
    7.0312499999921130E-01     0.0000000000000000E+00     0.0000000000000000E+00 
    7.1874999999925282E-01     0.0000000000000000E+00     0.0000000000000000E+00 
    7.3437499999929434E-01     0.0000000000000000E+00     0.0000000000000000E+00 
    7.4999999999933586E-01     0.0000000000000000E+00     0.0000000000000000E+00 
    7.6562499999937739E-01     0.0000000000000000E+00     0.0000000000000000E+00 
    7.8124999999941891E-01     0.0000000000000000E+00     0.0000000000000000E+00 
    7.9687499999946043E-01     0.0000000000000000E+00     0.0000000000000000E+00 
    8.1249999999950195E-01     0.0000000000000000E+00     0.0000000000000000E+00 
    8.2812499999954348E-01     0.0000000000000000E+00     0.0000000000000000E+00 
    8.4374999999958500E-01     0.0000000000000000E+00     0.0000000000000000E+00 
    8.5937499999962652E-01     0.0000000000000000E+00     0.0000000000000000E+00 
    8.7499999999966793E-01     0.0000000000000000E+00     0.0000000000000000E+00 
    8.9062499999970934E-01     0.0000000000000000E+00     0.0000000000000000E+00 
    9.0624999999975087E-01     0.0000000000000000E+00     0.0000000000000000E+00 
    9.2187499999979239E-01     0.0000000000000000E+00     0.0000000000000000E+00 
    9.3749999999983391E-01     0.0000000000000000E+00     0.0000000000000000E+00 
    9.5312499999987543E-01     0.0000000000000000E+00     0.0000000000000000E+00 
    9.6874999999991696E-01     0.0000000000000000E+00     0.0000000000000000E+00 
    9.8437499999995848E-01     0.0000000000000000E+00     0.0000000000000000E+00 
    1.0000000000000000E+00     1.5624999999970249E-02     0.0000000000000000E+00 
    1.0000000000000000E+00     3.1249999999940652E-02     0.0000000000000000E+00 
    1.0000000000000000E+00     4.6874999999905617E-02     0.0000000000000000E+00 
    1.0000000000000000E+00     6.2499999999870597E-02     0.0000000000000000E+00 
    1.0000000000000000E+00     7.8124999999846401E-02     0.0000000000000000E+00 
    1.0000000000000000E+00     9.3749999999822212E-02     0.0000000000000000E+00 
    1.0000000000000000E+00     1.0937499999979799E-01     0.0000000000000000E+00 
    1.0000000000000000E+00     1.2499999999977381E-01     0.0000000000000000E+00 
    1.0000000000000000E+00     1.4062499999972811E-01     0.0000000000000000E+00 
    1.0000000000000000E+00     1.5624999999968239E-01     0.0000000000000000E+00 
    1.0000000000000000E+00     1.7187499999963671E-01     0.0000000000000000E+00 
    1.0000000000000000E+00     1.8749999999959110E-01     0.0000000000000000E+00 
    1.0000000000000000E+00     2.0312499999954539E-01     0.0000000000000000E+00 
    1.0000000000000000E+00     2.1874999999949971E-01     0.0000000000000000E+00 
    1.0000000000000000E+00     2.3437499999945391E-01     0.0000000000000000E+00 
    1.0000000000000000E+00     2.4999999999940831E-01     0.0000000000000000E+00 
    1.0000000000000000E+00     2.6562499999936218E-01     0.0000000000000000E+00 
    1.0000000000000000E+00     2.8124999999931621E-01     0.0000000000000000E+00 
    1.0000000000000000E+00     2.9687499999927008E-01     0.0000000000000000E+00 
    1.0000000000000000E+00     3.1249999999922412E-01     0.0000000000000000E+00 
    1.0000000000000000E+00     3.2812499999917810E-01     0.0000000000000000E+00 
    1.0000000000000000E+00     3.4374999999913203E-01     0.0000000000000000E+00 
    1.0000000000000000E+00     3.5937499999908601E-01     0.0000000000000000E+00 
    1.0000000000000000E+00     3.7499999999903999E-01     0.0000000000000000E+00 
    1.0000000000000000E+00     3.9062499999899403E-01     0.0000000000000000E+00 
    1.0000000000000000E+00     4.0624999999894801E-01     0.0000000000000000E+00 
    1.0000000000000000E+00     4.2187499999890188E-01     0.0000000000000000E+00 
    1.0000000000000000E+00     4.3749999999885592E-01     0.0000000000000000E+00 
    1.0000000000000000E+00     4.5312499999880979E-01     0.0000000000000000E+00 
    1.0000000000000000E+00     4.6874999999876382E-01     0.0000000000000000E+00 
    1.0000000000000000E+00     4.8437499999871780E-01     0.0000000000000000E+00 
    1.0000000000000000E+00     4.9999999999867167E-01     0.0000000000000000E+00 
    1.0000000000000000E+00     5.1562499999871325E-01     0.0000000000000000E+00 
    1.0000000000000000E+00     5.3124999999875477E-01     0.0000000000000000E+00 
    1.0000000000000000E+00     5.4687499999879630E-01     0.0000000000000000E+00 
    1.0000000000000000E+00     5.6249999999883782E-01     0.0000000000000000E+00 
    1.0000000000000000E+00     5.7812499999887934E-01     0.0000000000000000E+00 
    1.0000000000000000E+00     5.9374999999892086E-01     0.0000000000000000E+00 
    1.0000000000000000E+00     6.0937499999896239E-01     0.0000000000000000E+00 
    1.0000000000000000E+00     6.2499999999900380E-01     0.0000000000000000E+00 
    1.0000000000000000E+00     6.4062499999904521E-01     0.0000000000000000E+00 
    1.0000000000000000E+00     6.5624999999908673E-01     0.0000000000000000E+00 
    1.0000000000000000E+00     6.7187499999912825E-01     0.0000000000000000E+00 
    1.0000000000000000E+00     6.8749999999916978E-01     0.0000000000000000E+00 
    1.0000000000000000E+00     7.0312499999921130E-01     0.0000000000000000E+00 
    1.0000000000000000E+00     7.1874999999925282E-01     0.0000000000000000E+00 
    1.0000000000000000E+00     7.3437499999929434E-01     0.0000000000000000E+00 
    1.0000000000000000E+00     7.4999999999933586E-01     0.0000000000000000E+00 
    1.0000000000000000E+00     7.6562499999937739E-01     0.0000000000000000E+00 
    1.0000000000000000E+00     7.8124999999941891E-01     0.0000000000000000E+00 
    1.0000000000000000E+00     7.9687499999946043E-01     0.0000000000000000E+00 
    1.0000000000000000E+00     8.1249999999950195E-01     0.0000000000000000E+00 
    1.0000000000000000E+00     8.2812499999954348E-01     0.0000000000000000E+00 
[...]
CELL_DATA 6144 
SCALARS Pressure double 1 
LOOKUP_TABLE default 

    2.4639670856870675E+00 
    2.3665974946602994E+00 
    2.3512896591801367E+00 
    2.3703603223257415E+00 
    2.3117641598702341E+00 
    2.2768252247763501E+00 
    2.2923058722044409E+00 
    2.3236103115350599E+00 
    2.3119267559159411E+00 
    2.3219227831759848E+00 
    2.2945356678150350E+00 
    2.2767462973430974E+00 
    2.2593896835626719E+00 
    2.2741995187924853E+00 
    2.2583989756971730E+00 
    2.2483244625261647E+00 
    2.2754647471584493E+00 
    2.2604922160597756E+00 
    2.2490135704680156E+00 
    2.2597945880138566E+00 
    2.2379960408104713E+00 
    2.2490548365292526E+00 
    2.2391884239869961E+00 
    2.2266045898425428E+00 
    2.2377756357105234E+00 
    2.2347081445213748E+00 
    2.2210477660440491E+00 
    2.2185656934709970E+00 
    2.2275311349312061E+00 
    2.2167772650605220E+00 
    2.2085471167616539E+00 
    2.2167449379438389E+00 
    2.2023661568360549E+00 
    2.2093302476408310E+00 
    2.1998020137556478E+00 
    2.1878707682943945E+00 
    2.1793822512483403E+00 
    2.1910793587233743E+00 
    2.1840633843481005E+00 
    2.1747403930695657E+00 
    2.1984156349524651E+00 
    2.2027232513991524E+00 
    2.1894796294234569E+00 
    2.1886757397357171E+00 
    2.1706905971871020E+00 
    2.1798803663442854E+00 
    2.1780769693487798E+00 
    2.1657735223914414E+00 
    2.1647114961499714E+00 
    2.1639472735355803E+00 
    2.1537362803695501E+00 
    2.1510771467164713E+00 
    2.1607747897597309E+00 
    2.1551224583819382E+00 
    2.1467638838353404E+00 
    2.1514583112829242E+00 
    2.1391079237239685E+00 
    2.1451029534131321E+00 
    2.1377822939435878E+00 
    2.1275248273965319E+00 
    2.1211702404765074E+00 
    2.1312648530120657E+00 
    2.1264444354958254E+00 
    2.1184177921204954E+00 
    2.1389532345745752E+00 
    2.1449059387900848E+00 
    2.1336261877804934E+00 
    2.1312273884466015E+00 
    2.1159288150029112E+00 
    2.1239655297389310E+00 
    2.1235929785494987E+00 
    2.1128353967330398E+00 
    2.1104382131667889E+00 
    2.1099616776189238E+00 
    2.1022604742155724E+00 
    2.1010301310455657E+00 
    2.1078011166558306E+00 
    2.1036243844778579E+00 
    2.0969501968911501E+00 
    2.1012162136985419E+00 
    2.0933289973208287E+00 
    2.0965912065009880E+00 
    2.0918641870292007E+00 
    2.0873872826688782E+00 
    2.0842853100345469E+00 
    2.0885431498967000E+00 
    2.0862078478488995E+00 
    2.0828775133313679E+00 
    2.0926927675493889E+00 
    2.0964900725541478E+00 
    2.0900187162122630E+00 
    2.0891019575132312E+00 
    2.0813775521748337E+00 
    2.0853800215429938E+00 
    2.0849803635517250E+00 
    2.0800282083597050E+00 
    2.0793016749437929E+00 
    2.0789968725029806E+00 
    2.0754087837141943E+00 
    2.0745532292661646E+00 
    2.0780261547309653E+00 
    2.0763277999702363E+00 
    2.0730950300249238E+00 
    2.0747384799812352E+00 
    2.0701064903003372E+00 
    2.0724051076881431E+00 
    2.0697594484932886E+00 
    2.0655943644278820E+00 
    2.0628656840424173E+00 
    2.0672479832936794E+00 
    2.0653995264853831E+00 
    2.0617509927540709E+00 
    2.0703977786213983E+00 
    2.0727596385262737E+00 
    2.0685928104131075E+00 
    2.0674021686263315E+00 
    2.0608545475035509E+00 
    2.0643986313399809E+00 
    2.0645800638356304E+00 
    2.0597418702508845E+00 
    2.0573541442222534E+00 
    2.0573846695970617E+00 
    2.0530054858559650E+00 
    2.0514935272350323E+00 
    2.0565152541727394E+00 
    2.0547197400907877E+00 
    2.0503809430557656E+00 
    2.0520737641905504E+00 
    2.0459275623325164E+00 
    2.0490221661907868E+00 
    2.0456115454058010E+00 
    2.0399437300731522E+00 
    2.0363069181499047E+00 
    2.0423983497309819E+00 
    2.0401186037382906E+00 
    2.0349507452599669E+00 
    2.0468639704705187E+00 
    2.0506359129532101E+00 
    2.0450398398098319E+00 
    2.0430041512773132E+00 
    2.0339550736930825E+00 
    2.0389303449157890E+00 
    2.0395108932464057E+00 
    2.0328614907182403E+00 
    2.0288747256197710E+00 
    2.0289369624062821E+00 
    2.0229712204977011E+00 
    2.0210492438508818E+00 
    2.0279467448921169E+00 
    2.0259023380926209E+00 
    2.0198929073193232E+00 
    2.0220079669743525E+00 
    2.0137694757431222E+00 
    2.0178423626790614E+00 
    2.0135182443211863E+00 
    2.0063135797922649E+00 
    2.0021222866087149E+00 
    2.0096852434731232E+00 
    2.0069548890481861E+00 
    2.0007929797385295E+00 
    2.0156040706546179E+00 
    2.0207546008576971E+00 
    2.0136290719174839E+00 
    2.0108517781109061E+00 
    1.9998391398103441E+00 
    2.0058672971918070E+00 
    2.0068084870587239E+00 
    1.9989181330412285E+00 
    1.9939359705269772E+00 
    1.9939973943101175E+00 
    1.9876967698899761E+00 
    1.9860069014886417E+00 
    1.9930211242887828E+00 
    1.9908155858887706E+00 
    1.9841638567721172E+00 
    1.9868926687194828E+00 
    1.9787026437216007E+00 
    1.9825961586267051E+00 
    1.9783476677346166E+00 
    1.9719924703173668E+00 
    1.9682735961344950E+00 
    1.9747351614524966E+00 
    1.9717807585000087E+00 
    1.9667359509102784E+00 
    1.9800839009502262E+00 
    1.9852789228359682E+00 
    1.9780143729271682E+00 
    1.9756206374916450E+00 
    1.9656878482323616E+00 
    1.9708716749527269E+00 
    1.9716456396898689E+00 
    1.9649889546176809E+00 
    1.9618315255904002E+00 
    1.9616686349467332E+00 
    1.9570659276474442E+00 
    1.9560698008875332E+00 
    1.9607849580993690E+00 
    1.9589622538856433E+00 
    1.9541559367329440E+00 
    1.9564831079512155E+00 
    1.9508059681719983E+00 
    1.9534217459503664E+00 
    1.9503146438992633E+00 
    1.9461287809229666E+00 
    1.9435384619812643E+00 
    1.9477747509966581E+00 
    1.9458742420120396E+00 
    1.9424731585082533E+00 
    1.9512869031710303E+00 
    1.9547173435607936E+00 
    1.9497452883674100E+00 
    1.9482869465910422E+00 
    1.9416275025291529E+00 
    1.9451684247248022E+00 
    1.9454296760039240E+00 
    1.9408755138151024E+00 
    1.9388684169043979E+00 
    1.9387207869512866E+00 
    1.9353141977386823E+00 
    1.9345318816411179E+00 
    1.9380466162139480E+00 
    1.9367253405516944E+00 
    1.9333681262794165E+00 
    1.9348872829709443E+00 
    1.9306049232916260E+00 
    1.9326373790224129E+00 
    1.9303435775573157E+00 
    1.9269327747007996E+00 
    1.9248570686647417E+00 
    1.9283498111480546E+00 
    1.9269260534316470E+00 
    1.9240681906737094E+00 
    1.9311166942849303E+00 
    1.9336282445388207E+00 
    1.9299498659390806E+00 
    1.9287892469205146E+00 
    1.9234678338731130E+00 
    1.9263686336659838E+00 
    1.9266217546815632E+00 
    1.9228483454691350E+00 
    1.9209390010730654E+00 
    1.9208658988015650E+00 
    1.9178891301626739E+00 
    1.9171845351445882E+00 
    1.9203288658949851E+00 
    1.9191710858623909E+00 
    1.9162096215845181E+00 
    1.9175083093345127E+00 
    1.9138299714980325E+00 
    1.9155611943044661E+00 
    1.9136384880686608E+00 
    1.9107789397593200E+00 
    1.9090068262860933E+00 
    1.9119156237841781E+00 
    1.9104409832388993E+00 
    1.9081003339740989E+00 
    1.9142413156961462E+00 
    1.9164309321295796E+00 
    1.9130103683694926E+00 
    1.9120616031118405E+00 
    1.9074473738760809E+00 
    1.9098330452779069E+00 
    1.9099863945466069E+00 
    1.9067978609088729E+00 
    1.9058515441869204E+00 
    1.9056626578791893E+00 
    1.9034692903284229E+00 
    1.9030207379807915E+00 
    1.9051024948869244E+00 
    1.9040193259109732E+00 
    1.9019657742730860E+00 
    1.9031037804848778E+00 
    1.9004890303446693E+00 
    1.9017126749391386E+00 
    1.9001395810406365E+00 
    1.8981292118564090E+00 
    1.8967807300398525E+00 
    1.8987837738924573E+00 
    1.8977612801984476E+00 
    1.8960987701878307E+00 
    1.9003762991875663E+00 
    1.9017334001026229E+00 
    1.8991757036321102E+00 
    1.8987320932505356E+00 
    1.8953929917827299E+00 
    1.8971336028460932E+00 
    1.8969277597081002E+00 
    1.8944756819212591E+00 
    1.8944061417817675E+00 
    1.8942333356938610E+00 
    1.8924690323983648E+00 
    1.8920387478316578E+00 
    1.8936109318103873E+00 
    1.8924907502223722E+00 
    1.8910449044225888E+00 
    1.8919557889311402E+00 
    1.8898855948706559E+00 
    1.8909069511266272E+00 
    1.8895643783316174E+00 
    1.8877433904872920E+00 
    1.8864451592294851E+00 
    1.8883063415341956E+00 
    1.8872271614755181E+00 
    1.8856666526657104E+00 
    1.8895638854161667E+00 
    1.8904464929447804E+00 
    1.8882501975929562E+00 
    1.8880010428274951E+00 
    1.8849755769787730E+00 
    1.8864959248960267E+00 
    1.8862267024914394E+00 
    1.8840016161039457E+00 
    1.8840345613412983E+00 
    1.8839222392966546E+00 
    1.8821480477576231E+00 
    1.8815922902278612E+00 
    1.8833177889835118E+00 
    1.8821623392381253E+00 
    1.8807585972933225E+00 
    1.8816221929881423E+00 
    1.8793230799490082E+00 
    1.8805021245879792E+00 
    1.8790664651775122E+00 
    1.8768353486458402E+00 
    1.8752267823154101E+00 
    1.8776409059681787E+00 
    1.8765056108243228E+00 
    1.8744357066529289E+00 
    1.8791335513621565E+00 
    1.8801042354639896E+00 
    1.8778340632188222E+00 
    1.8774556330494505E+00 
    1.8737877264465030E+00 
    1.8758468534071466E+00 
    1.8756681685035657E+00 
    1.8729059386725024E+00 
    1.8722045458700414E+00 
    1.8720371759816385E+00 
    1.8698160488913484E+00 
    1.8693499455483666E+00 
    1.8714377408632881E+00 
    1.8702581267243732E+00 
    1.8683722974904200E+00 
    1.8693853437174031E+00 
    1.8671685097905952E+00 
    1.8681858011335177E+00 
    1.8668795079799483E+00 
    1.8652808676401449E+00 
    1.8642177424705491E+00 
    1.8656996579152727E+00 
    1.8646517374273968E+00 
    1.8634819387269546E+00 
    1.8668585650744152E+00 
    1.8679587160992306E+00 
    1.8655844024725841E+00 
    1.8653578100260906E+00 
    1.8627950334595718E+00 
    1.8640232513500239E+00 
    1.8637027111952362E+00 
    1.8618970702889037E+00 
    1.8626021111358151E+00 
    1.8623210221822577E+00 
    1.8613751760600279E+00 
    1.8613477479097491E+00 
    1.8617460641961223E+00 
    1.8607821033458500E+00 
    1.8603523463517950E+00 
    1.8610458149426625E+00 
    1.8604769219955222E+00 
    1.8607106575135985E+00 
    1.8601123300072668E+00 
    1.8599396341875454E+00 
    1.8597520864109198E+00 
    1.8596044804149003E+00 
    1.8590621648404897E+00 
    1.8592732915641075E+00 
    1.8595303994517580E+00 
    1.8593579912846256E+00 
    1.8583243741961504E+00 
    1.8588668708209661E+00 
    1.8585152829155878E+00 
    1.8585134669316365E+00 
    1.8577294551994501E+00 
    1.8574688214639699E+00 
    2.2390313914382856E+00 
    2.2207526083119542E+00 
    2.2218547897129843E+00 
    2.2351954066314303E+00 
    2.2052263432028365E+00 
    2.1914994489551960E+00 
    2.2024690026689919E+00 
    2.2107111799156325E+00 
    2.2283745661428922E+00 
    2.2179773231403730E+00 
    2.2100804567105814E+00 
    2.2176394887955517E+00 
    2.2038430688568762E+00 
    2.2008279521018785E+00 
    2.1912435067315008E+00 
    2.1910221399258756E+00 
    2.1938256578451969E+00 
    2.1827742211790535E+00 
    2.1774964842090743E+00 
    2.1861031250818530E+00 
    2.1800670719305422E+00 
    2.1820688249922067E+00 
    2.1730021282899048E+00 
    2.1679623825092076E+00 
    2.1975952136626913E+00 
    2.1873347566188532E+00 
    2.1814480992937977E+00 
    2.1865342550449141E+00 
    2.1773331085275700E+00 
    2.1658531292783834E+00 
    2.1662861570787557E+00 
    2.1746832642305702E+00 
    2.1762008694545272E+00 
    2.1743732693084246E+00 
    2.1657888713492137E+00 
    2.1644460972046096E+00 
    2.1534490481482309E+00 
    2.1568761483755052E+00 
    2.1489334451103552E+00 
    2.1447097011236664E+00 
    2.1573152535569262E+00 
    2.1548365832600531E+00 
    2.1456072727526476E+00 
    2.1490801464735192E+00 
    2.1373622005769648E+00 
    2.1428703378233949E+00 
    2.1377664389054170E+00 
    2.1292471365008647E+00 
    2.1443310735716525E+00 
    2.1382475337761599E+00 
    2.1313002341552680E+00 
    2.1334217515897165E+00 
    2.1315446914202050E+00 
    2.1229181283143941E+00 
    2.1194277248155737E+00 
    2.1262538718119872E+00 
    2.1236740494335535E+00 
    2.1240736524794306E+00 
    2.1163314563657756E+00 
    2.1129043852329761E+00 
    2.1039509581073896E+00 
    2.1088567891014027E+00 
    2.1021713067553209E+00 
    2.0975764700279633E+00 
    2.1114223919870683E+00 
    2.1120942510810989E+00 
    2.1016707203676774E+00 
    2.1035905328695947E+00 
    2.0923171614492238E+00 
    2.0976177034770709E+00 
    2.0936258094809124E+00 
    2.0868858772664258E+00 
    2.0967519115209390E+00 
    2.0925824111677125E+00 
    2.0885035469191284E+00 
    2.0905847354375640E+00 
    2.0883145692792939E+00 
    2.0833132181027394E+00 
    2.0816038878496395E+00 
    2.0865914899016893E+00 
    2.0848535797420875E+00 
    2.0850620720129629E+00 
    2.0809321260611546E+00 
    2.0798684623499946E+00 
    2.0758720210897268E+00 
    2.0773103858081390E+00 
    2.0741436048510544E+00 
    2.0726826941579501E+00 
    2.0781393338070973E+00 
    2.0778055300502687E+00 
    2.0733425886941563E+00 
    2.0747219209468595E+00 
    2.0697141210447305E+00 
    2.0719646025763656E+00 
    2.0699430104110363E+00 
    2.0666846099533007E+00 
    2.0726317810890151E+00 
    2.0704234197097016E+00 
    2.0679611898644912E+00 
    2.0686329497662199E+00 
    2.0678687550146906E+00 
    2.0646188379175894E+00 
    2.0635485458598954E+00 
    2.0659703564778771E+00 
    2.0649609084850580E+00 
    2.0652797433058017E+00 
    2.0623546841298679E+00 
    2.0605405806520243E+00 
    2.0565527677200142E+00 
    2.0591949566714374E+00 
    2.0563463676607658E+00 
    2.0535845380464410E+00 
    2.0603160343473381E+00 
    2.0605161661040934E+00 
    2.0565498662475696E+00 
    2.0570179548820979E+00 
    2.0511794220722090E+00 
    2.0541144943830769E+00 
    2.0527961753510029E+00 
    2.0483863473850099E+00 
    2.0514906780237059E+00 
    2.0498302022285104E+00 
    2.0458401772051706E+00 
    2.0457690410707361E+00 
    2.0475956528874879E+00 
    2.0444345858747726E+00 
    2.0413292070718647E+00 
    2.0439076117956394E+00 
    2.0406304253039829E+00 
    2.0419495761484856E+00 
    2.0381660505192820E+00 
    2.0345439918730306E+00 
    2.0295459747611417E+00 
    2.0343424609569651E+00 
    2.0310607727451990E+00 
    2.0265456619459679E+00 
    2.0373580048861233E+00 
    2.0395892292809545E+00 
    2.0339244479496297E+00 
    2.0331551434636994E+00 
    2.0243028685864841E+00 
    2.0290381895239014E+00 
    2.0284476866989909E+00 
    2.0219365521652377E+00 
    2.0224884412761153E+00 
    2.0209848986642389E+00 
    2.0154863415940887E+00 
    2.0150511325143112E+00 
    2.0187867881292108E+00 
    2.0155143482493387E+00 
    2.0104370225309824E+00 
    2.0136622888458984E+00 
    2.0085024647854444E+00 
    2.0105557576726589E+00 
    2.0059224568737646E+00 
    2.0011604778948264E+00 
    1.9954259351784158E+00 
    2.0014999033743508E+00 
    1.9978063743217365E+00 
    1.9922815033901389E+00 
    2.0059158552408483E+00 
    2.0097773350871613E+00 
    2.0025986508238751E+00 
    2.0009926001406764E+00 
    1.9900360870743550E+00 
    1.9959227348826893E+00 
    1.9958043804715999E+00 
    1.9879593471060750E+00 
    1.9874089754904067E+00 
    1.9858630298235465E+00 
    1.9798047331685868E+00 
    1.9795373312054649E+00 
    1.9836766506336945E+00 
    1.9803743041962028E+00 
    1.9746457270221771E+00 
    1.9783001145896291E+00 
    1.9730142343600099E+00 
    1.9749527983589330E+00 
    1.9702735428258238E+00 
    1.9663610662670719E+00 
    1.9613925149216036E+00 
    1.9660981920609166E+00 
    1.9625752778359355E+00 
    1.9584933609025266E+00 
    1.9702430852831050E+00 
    1.9743359509330476E+00 
    1.9670805787070043E+00 
    1.9656763828792347E+00 
    1.9563404330816898E+00 
    1.9611209219953991E+00 
    1.9609484124100451E+00 
    1.9547643667487136E+00 
    1.9559322865795332E+00 
    1.9542749375768778E+00 
    1.9503555014840881E+00 
    1.9506096356713833E+00 
    1.9523095107368951E+00 
    1.9495841841556101E+00 
    1.9460314396825729E+00 
    1.9491624584551697E+00 
    1.9460626915957207E+00 
    1.9470642361005017E+00 
    1.9437148690939279E+00 
    1.9415495846928856E+00 
    1.9380705294525347E+00 
    1.9407300467747548E+00 
    1.9383672333909379E+00 
    1.9359243349285125E+00 
    1.9429773197553610E+00 
    1.9451178573226395E+00 
    1.9404598715410988E+00 
    1.9400050866733010E+00 
    1.9341735842069656E+00 
    1.9371761253395690E+00 
    1.9366192328037801E+00 
    1.9326372978419846E+00 
    1.9343376802757186E+00 
    1.9330589882862095E+00 
    1.9303539211562799E+00 
    1.9305170003287919E+00 
    1.9314967901910629E+00 
    1.9293479136835734E+00 
    1.9271265014464203E+00 
    1.9292864102724636E+00 
    1.9271901917347150E+00 
    1.9279414503997343E+00 
    1.9254099399625846E+00 
    1.9235469874394500E+00 
    1.9205629953439134E+00 
    1.9228826268370789E+00 
    1.9207942615279763E+00 
    1.9185617158727111E+00 
    1.9245313415591860E+00 
    1.9259339286288750E+00 
    1.9222358756182243E+00 
    1.9219201599652649E+00 
    1.9168765858706445E+00 
    1.9194666935603211E+00 
    1.9188491435511583E+00 
    1.9150332471569091E+00 
    1.9170613546094035E+00 
    1.9159204092685036E+00 
    1.9132749391574757E+00 
    1.9134180207727602E+00 
    1.9142668712908664E+00 
    1.9118486408396691E+00 
    1.9098924225018661E+00 
    1.9120219065704711E+00 
    1.9103353677455102E+00 
    1.9108271014279026E+00 
    1.9084206535050643E+00 
    1.9070745279419050E+00 
    1.9043992058094568E+00 
    1.9061002354708283E+00 
    1.9040593032194049E+00 
    1.9023801299976346E+00 
    1.9073323294131359E+00 
    1.9083586108805122E+00 
    1.9048090705896847E+00 
    1.9048709637175787E+00 
    1.9005916429752632E+00 
    1.9026950914480893E+00 
    1.9017708337291181E+00 
    1.8986083103155500E+00 
    1.9018155776929628E+00 
    1.9004240633546483E+00 
    1.8985616449410354E+00 
    1.8991044454839316E+00 
    1.8987266639218203E+00 
    1.8963853130738935E+00 
    1.8954350840545047E+00 
    1.8973259594363752E+00 
    1.8967919262464639E+00 
    1.8967771862401477E+00 
    1.8947740722546429E+00 
    1.8942076939344819E+00 
    1.8918599463153631E+00 
    1.8926405281398544E+00 
    1.8907084762940560E+00 
    1.8897628900809276E+00 
    1.8930750378357986E+00 
    1.8932132483133273E+00 
    1.8902715598903512E+00 
    1.8909030224560233E+00 
    1.8878079737678142E+00 
    1.8891974009377053E+00 
    1.8878826759285241E+00 
    1.8854946364238989E+00 
    1.8900718128750582E+00 
    1.8885198475152873E+00 
    1.8871506740731196E+00 
    1.8878654331467577E+00 
    1.8866622248514717E+00 
    1.8842001112394566E+00 
    1.8839837413385827E+00 
    1.8857435277094599E+00 
    1.8859075726324361E+00 
    1.8855756347037422E+00 
    1.8838184273984990E+00 
    1.8836322270204517E+00 
    1.8814024424837463E+00 
    1.8818823597279051E+00 
    1.8800398826677573E+00 
    1.8792718011507712E+00 
    1.8818523049943761E+00 
    1.8813057096000163E+00 
    1.8789280215894588E+00 
    1.8798881108607060E+00 
    1.8772973009041913E+00 
    1.8784143002309228E+00 
    1.8769141461473413E+00 
    1.8748660236308974E+00 
    1.8796786871631035E+00 
    1.8781186380847263E+00 
    1.8768172385728918E+00 
    1.8774781225895647E+00 
    1.8762734186334011E+00 
    1.8738479361977523E+00 
    1.8737593175936131E+00 
    1.8753892832313515E+00 
    1.8755053502260906E+00 
    1.8752777559764457E+00 
    1.8734450424226889E+00 
    1.8728921762529867E+00 
    1.8703333104921496E+00 
    1.8713508805347179E+00 
    1.8694416468473536E+00 