# vtk DataFile Version 2.0
Pressure Field Data 
ASCII 
DATASET UNSTRUCTURED_GRID 

POINTS 6273 double 

    0.0000000000000000E+00     0.0000000000000000E+00     0.0000000000000000E+00 
    1.0000000000000000E+00     0.0000000000000000E+00     0.0000000000000000E+00 
    1.0000000000000000E+00     1.0000000000000000E+00     0.0000000000000000E+00 
    0.0000000000000000E+00     1.0000000000000000E+00     0.0000000000000000E+00 
    1.5624999999970249E-02     0.0000000000000000E+00     0.0000000000000000E+00 
    3.1249999999940652E-02     0.0000000000000000E+00     0.0000000000000000E+00 
    4.6874999999905617E-02     0.0000000000000000E+00     0.0000000000000000E+00 
    6.2499999999870597E-02     0.0000000000000000E+00     0.0000000000000000E+00 
    7.8124999999846401E-02     0.0000000000000000E+00     0.0000000000000000E+00 
    9.3749999999822212E-02     0.0000000000000000E+00     0.0000000000000000E+00 
    1.0937499999979799E-01     0.0000000000000000E+00     0.0000000000000000E+00 
    1.2499999999977381E-01     0.0000000000000000E+00     0.0000000000000000E+00 
    1.4062499999972811E-01     0.0000000000000000E+00     0.0000000000000000E+00 
    1.5624999999968239E-01     0.0000000000000000E+00     0.0000000000000000E+00 
    1.7187499999963671E-01     0.0000000000000000E+00     0.0000000000000000E+00 
    1.8749999999959110E-01     0.0000000000000000E+00     0.0000000000000000E+00 
    2.0312499999954539E-01     0.0000000000000000E+00     0.0000000000000000E+00 
    2.1874999999949971E-01     0.0000000000000000E+00     0.0000000000000000E+00 
    2.3437499999945391E-01     0.0000000000000000E+00     0.0000000000000000E+00 
    2.4999999999940831E-01     0.0000000000000000E+00     0.0000000000000000E+00 
    2.6562499999936218E-01     0.0000000000000000E+00     0.0000000000000000E+00 
    2.8124999999931621E-01     0.0000000000000000E+00     0.0000000000000000E+00 
    2.9687499999927008E-01     0.0000000000000000E+00     0.0000000000000000E+00 
    3.1249999999922412E-01     0.0000000000000000E+00     0.0000000000000000E+00 
    3.2812499999917810E-01     0.0000000000000000E+00     0.0000000000000000E+00 
    3.4374999999913203E-01     0.0000000000000000E+00     0.0000000000000000E+00 
    3.5937499999908601E-01     0.0000000000000000E+00     0.0000000000000000E+00 
    3.7499999999903999E-01     0.0000000000000000E+00     0.0000000000000000E+00 
    3.9062499999899403E-01     0.0000000000000000E+00     0.0000000000000000E+00 
    4.0624999999894801E-01     0.0000000000000000E+00     0.0000000000000000E+00 
    4.2187499999890188E-01     0.0000000000000000E+00     0.0000000000000000E+00 
    4.3749999999885592E-01     0.0000000000000000E+00     0.0000000000000000E+00 
    4.5312499999880979E-01     0.0000000000000000E+00     0.0000000000000000E+00 
    4.6874999999876382E-01     0.0000000000000000E+00     0.0000000000000000E+00 
    4.8437499999871780E-01     0.0000000000000000E+00     0.0000000000000000E+00 
    4.9999999999867167E-01     0.0000000000000000E+00     0.0000000000000000E+00 
    5.1562499999871325E-01     0.0000000000000000E+00     0.0000000000000000E+00 
    5.3124999999875477E-01     0.0000000000000000E+00     0.0000000000000000E+00 
    5.4687499999879630E-01     0.0000000000000000E+00     0.0000000000000000E+00 
    5.6249999999883782E-01     0.0000000000000000E+00     0.0000000000000000E+00 
    5.7812499999887934E-01     0.0000000000000000E+00     0.0000000000000000E+00 
    5.9374999999892086E-01     0.0000000000000000E+00     0.0000000000000000E+00 
    6.0937499999896239E-01     0.0000000000000000E+00     0.0000000000000000E+00 
    6.2499999999900380E-01     0.0000000000000000E+00     0.0000000000000000E+00 
    6.4062499999904521E-01     0.0000000000000000E+00     0.0000000000000000E+00 
    6.5624999999908673E-01     0.0000000000000000E+00     0.0000000000000000E+00 
    6.7187499999912825E-01     0.0000000000000000E+00     0.0000000000000000E+00 
    6.8749999999916978E-01     0.0000000000000000E+00     0.0000000000000000E+00 
    7.0312499999921130E-01     0.0000000000000000E+00     0.0000000000000000E+00 
    7.1874999999925282E-01     0.0000000000000000E+00     0.0000000000000000E+00 
    7.3437499999929434E-01     0.0000000000000000E+00     0.0000000000000000E+00 
    7.4999999999933586E-01     0.0000000000000000E+00     0.0000000000000000E+00 
    7.6562499999937739E-01     0.0000000000000000E+00     0.0000000000000000E+00 
    7.8124999999941891E-01     0.0000000000000000E+00     0.0000000000000000E+00 
    7.9687499999946043E-01     0.0000000000000000E+00     0.0000000000000000E+00 
    8.1249999999950195E-01     0.0000000000000000E+00     0.0000000000000000E+00 
    8.2812499999954348E-01     0.0000000000000000E+00     0.0000000000000000E+00 
    8.4374999999958500E-01     0.0000000000000000E+00     0.0000000000000000E+00 
    8.5937499999962652E-01     0.0000000000000000E+00     0.0000000000000000E+00 
    8.7499999999966793E-01     0.0000000000000000E+00     0.0000000000000000E+00 
    8.9062499999970934E-01     0.0000000000000000E+00     0.0000000000000000E+00 
    9.0624999999975087E-01     0.0000000000000000E+00     0.0000000000000000E+00 
    9.2187499999979239E-01     0.0000000000000000E+00     0.0000000000000000E+00 
    9.3749999999983391E-01     0.0000000000000000E+00     0.0000000000000000E+00 
    9.5312499999987543E-01     0.0000000000000000E+00     0.0000000000000000E+00 
    9.6874999999991696E-01     0.0000000000000000E+00     0.0000000000000000E+00 
    9.8437499999995848E-01     0.0000000000000000E+00     0.0000000000000000E+00 
    1.0000000000000000E+00     1.5624999999970249E-02     0.0000000000000000E+00 
    1.0000000000000000E+00     3.1249999999940652E-02     0.0000000000000000E+00 
    1.0000000000000000E+00     4.6874999999905617E-02     0.0000000000000000E+00 
    1.0000000000000000E+00     6.2499999999870597E-02     0.0000000000000000E+00 
    1.0000000000000000E+00     7.8124999999846401E-02     0.0000000000000000E+00 
    1.0000000000000000E+00     9.3749999999822212E-02     0.0000000000000000E+00 
    1.0000000000000000E+00     1.0937499999979799E-01     0.0000000000000000E+00 
    1.0000000000000000E+00     1.2499999999977381E-01     0.0000000000000000E+00 
    1.0000000000000000E+00     1.4062499999972811E-01     0.0000000000000000E+00 
    1.0000000000000000E+00     1.5624999999968239E-01     0.0000000000000000E+00 
    1.0000000000000000E+00     1.7187499999963671E-01     0.0000000000000000E+00 
    1.0000000000000000E+00     1.8749999999959110E-01     0.0000000000000000E+00 
    1.0000000000000000E+00     2.0312499999954539E-01     0.0000000000000000E+00 
    1.0000000000000000E+00     2.1874999999949971E-01     0.0000000000000000E+00 
    1.0000000000000000E+00     2.3437499999945391E-01     0.0000000000000000E+00 
    1.0000000000000000E+00     2.4999999999940831E-01     0.0000000000000000E+00 
    1.0000000000000000E+00     2.6562499999936218E-01     0.0000000000000000E+00 
    1.0000000000000000E+00     2.8124999999931621E-01     0.0000000000000000E+00 
    1.0000000000000000E+00     2.9687499999927008E-01     0.0000000000000000E+00 
    1.0000000000000000E+00     3.1249999999922412E-01     0.0000000000000000E+00 
    1.0000000000000000E+00     3.2812499999917810E-01     0.0000000000000000E+00 
    1.0000000000000000E+00     3.4374999999913203E-01     0.0000000000000000E+00 
    1.0000000000000000E+00     3.5937499999908601E-01     0.0000000000000000E+00 
    1.0000000000000000E+00     3.7499999999903999E-01     0.0000000000000000E+00 
    1.0000000000000000E+00     3.9062499999899403E-01     0.0000000000000000E+00 
    1.0000000000000000E+00     4.0624999999894801E-01     0.0000000000000000E+00 
    1.0000000000000000E+00     4.2187499999890188E-01     0.0000000000000000E+00 
    1.0000000000000000E+00     4.3749999999885592E-01     0.0000000000000000E+00 
    1.0000000000000000E+00     4.5312499999880979E-01     0.0000000000000000E+00 
    1.0000000000000000E+00     4.6874999999876382E-01     0.0000000000000000E+00 
    1.0000000000000000E+00     4.8437499999871780E-01     0.0000000000000000E+00 
    1.0000000000000000E+00     4.9999999999867167E-01     0.0000000000000000E+00 
    1.0000000000000000E+00     5.1562499999871325E-01     0.0000000000000000E+00 
    1.0000000000000000E+00     5.3124999999875477E-01     0.0000000000000000E+00 
    1.0000000000000000E+00     5.4687499999879630E-01     0.0000000000000000E+00 
    1.0000000000000000E+00     5.6249999999883782E-01     0.0000000000000000E+00 
    1.0000000000000000E+00     5.7812499999887934E-01     0.0000000000000000E+00 
    1.0000000000000000E+00     5.9374999999892086E-01     0.0000000000000000E+00 
    1.0000000000000000E+00     6.0937499999896239E-01     0.0000000000000000E+00 
    1.0000000000000000E+00     6.2499999999900380E-01     0.0000000000000000E+00 
    1.0000000000000000E+00     6.4062499999904521E-01     0.0000000000000000E+00 
    1.0000000000000000E+00     6.5624999999908673E-01     0.0000000000000000E+00 
    1.0000000000000000E+00     6.7187499999912825E-01     0.0000000000000000E+00 
    1.0000000000000000E+00     6.8749999999916978E-01     0.0000000000000000E+00 
    1.0000000000000000E+00     7.0312499999921130E-01     0.0000000000000000E+00 
    1.0000000000000000E+00     7.1874999999925282E-01     0.0000000000000000E+00 
    1.0000000000000000E+00     7.3437499999929434E-01     0.0000000000000000E+00 
    1.0000000000000000E+00     7.4999999999933586E-01     0.0000000000000000E+00 
    1.0000000000000000E+00     7.6562499999937739E-01     0.0000000000000000E+00 
    1.0000000000000000E+00     7.8124999999941891E-01     0.0000000000000000E+00 
    1.0000000000000000E+00     7.9687499999946043E-01     0.0000000000000000E+00 
    1.0000000000000000E+00     8.1249999999950195E-01     0.0000000000000000E+00 
    1.0000000000000000E+00     8.2812499999954348E-01     0.0000000000000000E+00 
[...]
CELL_DATA 6144 
SCALARS Pressure double 1 
LOOKUP_TABLE default 

    2.9881577253618308E+00 
    2.8906227140482650E+00 
    2.8752667317310756E+00 
    2.8945787712065383E+00 
    2.8355980357258606E+00 
    2.8002133882564988E+00 
    2.8159603247246521E+00 
    2.8477219883926730E+00 
    2.8357286330132547E+00 
    2.8459267200917231E+00 
    2.8182375845342813E+00 
    2.8000681033708505E+00 
    2.7822821965423259E+00 
    2.7976084062025408E+00 
    2.7814588572258994E+00 
    2.7710433970284565E+00 
    2.7989166825232310E+00 
    2.7835263692985870E+00 
    2.7718477333209721E+00 
    2.7829529508870170E+00 
    2.7603308529829640E+00 
    2.7718785994970738E+00 
    2.7616557260063250E+00 
    2.7484149651191188E+00 
    2.7598892631203502E+00 
    2.7567270181647165E+00 
    2.7421089729261241E+00 
    2.7394231919679144E+00 
    2.7492156768618563E+00 
    2.7378290118451463E+00 
    2.7287289011378726E+00 
    2.7376112764701941E+00 
    2.7216560843367610E+00 
    2.7294658160923251E+00 
    2.7189821242612893E+00 
    2.7054954882244693E+00 
    2.6960031474852069E+00 
    2.7093990093292510E+00 
    2.7016177581744532E+00 
    2.6909713312731669E+00 
    2.7177242856583264E+00 
    2.7226399543752313E+00 
    2.7079979704813359E+00 
    2.7069492090383087E+00 
    2.6864411324143638E+00 
    2.6970437823920945E+00 
    2.6951502867410539E+00 
    2.6809779914232701E+00 
    2.6792372420316948E+00 
    2.6783807071265580E+00 
    2.6662862788082236E+00 
    2.6632359385322224E+00 
    2.6747936159974453E+00 
    2.6683231567051107E+00 
    2.6581176516298242E+00 
    2.6637672256557727E+00 
    2.6488866558023019E+00 
    2.6561307477907325E+00 
    2.6473178084359499E+00 
    2.6349898182483691E+00 
    2.6273934627013364E+00 
    2.6395388978199708E+00 
    2.6337187454355577E+00 
    2.6240982727919731E+00 
    2.6488900657269832E+00 
    2.6562553029818998E+00 
    2.6426014269438687E+00 
    2.6396286544293566E+00 
    2.6211349016272876E+00 
    2.6309069062215924E+00 
    2.6304695597090295E+00 
    2.6176370269154594E+00 
    2.6146927941117188E+00 
    2.6140119464442599E+00 
    2.6049157862015022E+00 
    2.6034227242606574E+00 
    2.6115283564867982E+00 
    2.6067977042610235E+00 
    2.5986287656901941E+00 
    2.6039121833121168E+00 
    2.5936727632024912E+00 
    2.5980279402944548E+00 
    2.5921771780703713E+00 
    2.5857515823242765E+00 
    2.5814375444850040E+00 
    2.5878873360599699E+00 
    2.5848151862624817E+00 
    2.5796550714579709E+00 
    2.5936223675478041E+00 
    2.5985415107225456E+00 
    2.5903788740838980E+00 
    2.5887630618497179E+00 
    2.5777091244002568E+00 
    2.5834922885397051E+00 
    2.5830045041400536E+00 
    2.5756505986724396E+00 
    2.5742091507087168E+00 
    2.5738320065239138E+00 
    2.5683491867669925E+00 
    2.5669978041286856E+00 
    2.5724398864998244E+00 
    2.5699549817230456E+00 
    2.5648936518841015E+00 
    2.5674345799470455E+00 
    2.5600794027438663E+00 
    2.5636799965558410E+00 
    2.5595397983816559E+00 
    2.5531015572480751E+00 
    2.5489305063178196E+00 
    2.5557507763360485E+00 
    2.5530095054381308E+00 
    2.5473392987599959E+00 
    2.5608416411902972E+00 
    2.5646718776588813E+00 
    2.5582305778312375E+00 
    2.5562911716398911E+00 
    2.5461077158884393E+00 
    2.5516776199074176E+00 
    2.5520708753612471E+00 
    2.5446542891139590E+00 
    2.5404490157460375E+00 
    2.5405333986895786E+00 
    2.5337457355176882E+00 
    2.5315206772823577E+00 
    2.5394100512989404E+00 
    2.5369245415687707E+00 
    2.5299870739318107E+00 
    2.5326253075924621E+00 
    2.5229308125150447E+00 
    2.5277683011340977E+00 
    2.5225732395865412E+00 
    2.5138628816006494E+00 
    2.5083783077849984E+00 
    2.5178583406103745E+00 
    2.5145599998186112E+00 
    2.5065414655405549E+00 
    2.5249191725706197E+00 
    2.5309133584270094E+00 
    2.5226045746787529E+00 
    2.5192481382147762E+00 
    2.5053917494413831E+00 
    2.5131149769578669E+00 
    2.5143211977362410E+00 
    2.5042665614536812E+00 
    2.4971089141909504E+00 
    2.4972668976616217E+00 
    2.4881852073041029E+00 
    2.4854323459005370E+00 
    2.4961252335873279E+00 
    2.4934862212553432E+00 
    2.4838858539239346E+00 
    2.4871736628906342E+00 
    2.4744205076909962E+00 
    2.4806130156082120E+00 
    2.4741273146862675E+00 
    2.4633145071075382E+00 
    2.4570118376444632E+00 
    2.4685375902669100E+00 
    2.4646203839161736E+00 
    2.4551766220372380E+00 
    2.4778187980765396E+00 
    2.4860223632746461E+00 
    2.4753202320515606E+00 
    2.4708254651732164E+00 
    2.4540362861443814E+00 
    2.4633244564398820E+00 
    2.4650894870462712E+00 
    2.4531565280971019E+00 
    2.4445247340959804E+00 
    2.4447503977959606E+00 
    2.4350442233101668E+00 
    2.4324008165974478E+00 
    2.4435616016674753E+00 
    2.4406420998815008E+00 
    2.4299949078954795E+00 
    2.4340873814101829E+00 
    2.4210537813521804E+00 
    2.4272474166664515E+00 
    2.4207176595167774E+00 
    2.4104653181846545E+00 
    2.4044201877944600E+00 
    2.4152022795482795E+00 
    2.4107352770603647E+00 
    2.4020567993248991E+00 
    2.4240078843481170E+00 
    2.4326016320696486E+00 
    2.4216174088008091E+00 
    2.4172378198450808E+00 
    2.4008589502413602E+00 
    2.4096297335154504E+00 
    2.4116020593988310E+00 
    2.4005590412560522E+00 
    2.3930502059138470E+00 
    2.3930619302946177E+00 
    2.3847101096240269E+00 
    2.3826199397529599E+00 
    2.3920027097608858E+00 
    2.3895439154263052E+00 
    2.3801757410476387E+00 
    2.3839986039918530E+00 
    2.3728287943605975E+00 
    2.3780056194423653E+00 
    2.3723186221326564E+00 
    2.3638352187774330E+00 
    2.3585781247591187E+00 
    2.3677326105362462E+00 
    2.3644587774394523E+00 
    2.3569823304824764E+00 
    2.3752549358612116E+00 
    2.3826710020586388E+00 
    2.3735849644435949E+00 
    2.3698008494826053E+00 
    2.3561804422319095E+00 
    2.3637846365350614E+00 
    2.3653343053240410E+00 
    2.3558790255144442E+00 
    2.3476828610888090E+00 
    2.3477674962576733E+00 
    2.3386119149475690E+00 
    2.3364545923753708E+00 
    2.3470115759094221E+00 
    2.3448315524467658E+00 
    2.3346407389467170E+00 
    2.3381512968199014E+00 
    2.3268022917869620E+00 
    2.3320191488897803E+00 
    2.3265044470259006E+00 
    2.3180276101500410E+00 
    2.3132244962163657E+00 
    2.3219495937896411E+00 
    2.3188735429898357E+00 
    2.3117722065708954E+00 
    2.3295377840062113E+00 
    2.3377065950900473E+00 
    2.3278858133851994E+00 
    2.3240130357922064E+00 
    2.3108757338134822E+00 
    2.3181215313472059E+00 
    2.3195395823719536E+00 
    2.3103295118231326E+00 
    2.3041367012225304E+00 
    2.3041501104550739E+00 
    2.2973073061643019E+00 
    2.2957049396617584E+00 
    2.3033097788195276E+00 
    2.3012640945993628E+00 
    2.2939695192944569E+00 
    2.2967999080718098E+00 
    2.2882084736305832E+00 
    2.2921768370532929E+00 
    2.2879990594138575E+00 
    2.2815454896581002E+00 
    2.2777334285955946E+00 
    2.2843761583515452E+00 
    2.2814184001211602E+00 
    2.2760670875045776E+00 
    2.2899375371244899E+00 
    2.2955345293920764E+00 
    2.2880885030744507E+00 
    2.2853847625879560E+00 
    2.2750417411914823E+00 
    2.2804615678373272E+00 
    2.2814525528925764E+00 
    2.2743276339060943E+00 
    2.2706269962292080E+00 
    2.2704690341539431E+00 
    2.2653909948095179E+00 
    2.2641953453756223E+00 
    2.2695732652310756E+00 
    2.2676555755364967E+00 
    2.2624369041337991E+00 
    2.2647471959203638E+00 
    2.2584245748050851E+00 
    2.2613875540831492E+00 
    2.2578645278193119E+00 
    2.2530096725720048E+00 
    2.2500380726760656E+00 
    2.2549394969003065E+00 
    2.2529083947752722E+00 
    2.2488625388538419E+00 
    2.2590592305596284E+00 
    2.2629217785563709E+00 
    2.2571898260782337E+00 
    2.2555412568526072E+00 
    2.2477914510497929E+00 
    2.2519353175983485E+00 
    2.2521204647121484E+00 
    2.2465549437972587E+00 
    2.2446108619435980E+00 
    2.2444786207977092E+00 
    2.2404468165552314E+00 
    2.2394030187753353E+00 
    2.2434972465587473E+00 
    2.2415803646476937E+00 
    2.2377566392460189E+00 
    2.2396156208329963E+00 
    2.2347425324556554E+00 
    2.2370684852577574E+00 
    2.2342223050750896E+00 
    2.2302493301820645E+00 
    2.2276246385555094E+00 
    2.2316951129643074E+00 
    2.2296402897909751E+00 
    2.2262541446429580E+00 
    2.2348242456077836E+00 
    2.2375216633824571E+00 
    2.2327612804300676E+00 
    2.2316726955107953E+00 
    2.2251450116581033E+00 
    2.2284869292352347E+00 
    2.2284404975954710E+00 
    2.2237534155400249E+00 
    2.2227870698767815E+00 
    2.2226447439878276E+00 
    2.2191324723138619E+00 
    2.2181125551115604E+00 
    2.2216495093834663E+00 
    2.2196961983573313E+00 
    2.2166182700428094E+00 
    2.2182511173601145E+00 
    2.2139380604762819E+00 
    2.2160469360974888E+00 
    2.2134720729327548E+00 
    2.2097773172579269E+00 
    2.2073906869735516E+00 
    2.2110865492863896E+00 
    2.2092387760921199E+00 
    2.2061747411583337E+00 
    2.2137593771860944E+00 
    2.2159110819476151E+00 
    2.2116315738782353E+00 
    2.2108325069480088E+00 
    2.2050661616362692E+00 
    2.2080880055337593E+00 
    2.2077660294539503E+00 
    2.2035118853342994E+00 
    2.2030336873424599E+00 
    2.2027719977379436E+00 
    2.1996454137662611E+00 
    2.1989428828894497E+00 
    2.2017844330853569E+00 
    2.1999114929042292E+00 
    2.1973989439394961E+00 
    2.1988942420534516E+00 
    2.1955468434790713E+00 
    2.1971456975263739E+00 
    2.1951027516553121E+00 
    2.1925266646085273E+00 
    2.1908103732337336E+00 
    2.1932051752087611E+00 
    2.1914830221182666E+00 
    2.1895980728477764E+00 
    2.1950104831755830E+00 
    2.1964886590875192E+00 
    2.1928520453289342E+00 
    2.1925836731205952E+00 
    2.1884538735063543E+00 
    2.1904203675899483E+00 
    2.1898246954962532E+00 
    2.1869272613857538E+00 
    2.1881952245694696E+00 
    2.1877299295785488E+00 
    2.1862070636786242E+00 
    2.1861617911222178E+00 
    2.1867740635057538E+00 
    2.1851738732459829E+00 
    2.1845254302089177E+00 
    2.1856521073862059E+00 
    2.1847550403079974E+00 
    2.1851264747161712E+00 
    2.1841557757364387E+00 
    2.1838799054728066E+00 
    2.1835682213384175E+00 
    2.1833227501811887E+00 
    2.1824301516512095E+00 
    2.1827757506831293E+00 
    2.1831761008276049E+00 
    2.1828492349723643E+00 
    2.1811832250072776E+00 
    2.1820911529553619E+00 
    2.1815285034719887E+00 
    2.1815189646249848E+00 
    2.1802231802286389E+00 
    2.1798032772159868E+00 
    2.7613503593902684E+00 
    2.7418833910701985E+00 
    2.7431682334486349E+00 
    2.7574254875569397E+00 
    2.7249486191820442E+00 
    2.7097375256489191E+00 
    2.7220297272035610E+00 
    2.7311587216551390E+00 
    2.7502606263625489E+00 
    2.7391313318117452E+00 
    2.7306394114809631E+00 
    2.7388678682093106E+00 
    2.7239711316157802E+00 
    2.7205461468764010E+00 
    2.7099640630417521E+00 
    2.7098530368968254E+00 
    2.7125859231702236E+00 
    2.7000963368653954E+00 
    2.6943868360350947E+00 
    2.7041466500413378E+00 
    2.6975493765285519E+00 
    2.6997025430992805E+00 
    2.6894100319845635E+00 
    2.6837584207672607E+00 
    2.7171477164807181E+00 
    2.7058076176872352E+00 
    2.6992130527728837E+00 
    2.7048431265232131E+00 
    2.6945508161403868E+00 
    2.6814150392612133E+00 
    2.6819545741447390E+00 
    2.6915507658561642E+00 
    2.6931726646006751E+00 
    2.6911826717575877E+00 
    2.6813293509751825E+00 
    2.6796419072925053E+00 
    2.6667831815947571E+00 
    2.6709511679994278E+00 
    2.6615701813053656E+00 
    2.6564275716286492E+00 
    2.6715059429665655E+00 
    2.6685789569339717E+00 
    2.6576258441375558E+00 
    2.6617494244479034E+00 
    2.6475446457873928E+00 
    2.6542688023260457E+00 
    2.6480910796900892E+00 
    2.6375236222761882E+00 
    2.6557771877728333E+00 
    2.6485216470941850E+00 
    2.6399404525568499E+00 
    2.6424567880159606E+00 
    2.6403091898227355E+00 
    2.6295720718393936E+00 
    2.6252851473195062E+00 
    2.6337705022591251E+00 
    2.6305827659078833E+00 
    2.6310615036060021E+00 
    2.6215530759230163E+00 
    2.6176485732495132E+00 
    2.6071588743846834E+00 
    2.6126101875347993E+00 
    2.6047275145574447E+00 
    2.5998139156110978E+00 
    2.6155344375653065E+00 
    2.6161642101304228E+00 
    2.6038447722716445E+00 
    2.6064583444179785E+00 
    2.5934960790247801E+00 
    2.5995647890737197E+00 
    2.5947883132384510E+00 
    2.5869841417317287E+00 
    2.5989592361640370E+00 
    2.5940279570990734E+00 
    2.5887452767290391E+00 
    2.5909229937148837E+00 
    2.5888333798517773E+00 
    2.5823664866685423E+00 
    2.5797307825788875E+00 
    2.5858198410978037E+00 
    2.5830232035695326E+00 
    2.5836905420690930E+00 
    2.5779759350047780E+00 
    2.5757954431750565E+00 
    2.5701432189372797E+00 
    2.5728679348621282E+00 
    2.5683452705982730E+00 
    2.5656480351874706E+00 
    2.5744739654741404E+00 
    2.5744525197211923E+00 
    2.5675755987712843E+00 
    2.5693278935691621E+00 
    2.5614593356447353E+00 
    2.5651138958689383E+00 
    2.5622660698867725E+00 
    2.5569715874816619E+00 
    2.5648434137753351E+00 
    2.5617829403061281E+00 
    2.5576599704450853E+00 
    2.5585380413375094E+00 
    2.5581134470559541E+00 
    2.5533074887858440E+00 
    2.5511036027361258E+00 
    2.5548745526405234E+00 
    2.5527628029422331E+00 
    2.5534396164277298E+00 
    2.5489191177933339E+00 
    2.5459619745381863E+00 
    2.5400397697799870E+00 
    2.5442403902389157E+00 
    2.5400876371516676E+00 
    2.5358900799044308E+00 
    2.5463084759615047E+00 
    2.5470439534435934E+00 
    2.5409165808935499E+00 
    2.5414232418900227E+00 
    2.5324503434919574E+00 
    2.5370000155794092E+00 
    2.5351734161347732E+00 
    2.5284776808762381E+00 
    2.5325123949899004E+00 
    2.5302428543869500E+00 
    2.5242548472311648E+00 
    2.5240065427899552E+00 
    2.5270418719152290E+00 
    2.5224215815728095E+00 
    2.5176945611020978E+00 
    2.5215557849514321E+00 
    2.5163136770593968E+00 
    2.5184866806093469E+00 
    2.5128988866920472E+00 
    2.5072576062856249E+00 
    2.4999399421823898E+00 
    2.5072757675706372E+00 
    2.5025036253750006E+00 
    2.4956994717761711E+00 
    2.5119036745582801E+00 
    2.5152547424634197E+00 
    2.5068957881153007E+00 
    2.5057227197515388E+00 
    2.4925142497762875E+00 
    2.4995957437624927E+00 
    2.4987899348796732E+00 
    2.4891192491538545E+00 
    2.4891374411541043E+00 
    2.4872482207255189E+00 
    2.4788529895387268E+00 
    2.4778917069854733E+00 
    2.4841981526352437E+00 
    2.4794954533706615E+00 
    2.4716652461532043E+00 
    2.4763187033272596E+00 
    2.4680447876601299E+00 
    2.4714677284529754E+00 
    2.4646097154198561E+00 
    2.4570337524778232E+00 
    2.4486509709804190E+00 
    2.4581133721406720E+00 
    2.4527229945973694E+00 
    2.4443111747182802E+00 
    2.4649638127041280E+00 
    2.4709577913209237E+00 
    2.4602163209655736E+00 
    2.4576675349436772E+00 
    2.4412663954714393E+00 
    2.4501176623563796E+00 
    2.4500693479527036E+00 
    2.4384642042449460E+00 
    2.4364475731957649E+00 
    2.4346028129402795E+00 
    2.4254812004170625E+00 
    2.4245942392130728E+00 
    2.4317387952393967E+00 
    2.4272461712240507E+00 
    2.4184282062114018E+00 
    2.4236191963181115E+00 
    2.4145420628895793E+00 
    2.4181807299489231E+00 
    2.4112789080443000E+00 
    2.4040927144656834E+00 
    2.3964559892641244E+00 
    2.4050720719053857E+00 
    2.3999776947189289E+00 
    2.3925967812385083E+00 
    2.4120891270024285E+00 
    2.4186430590047361E+00 
    2.4081073769215759E+00 
    2.4052677702448855E+00 
    2.3900863711491009E+00 
    2.3980682613795028E+00 
    2.3987118058293428E+00 
    2.3885274831047667E+00 
    2.3861427005533149E+00 
    2.3846464358560944E+00 
    2.3771468383410648E+00 
    2.3763465417799892E+00 
    2.3823496766645116E+00 
    2.3786785384470934E+00 
    2.3709047648071984E+00 
    2.3756199205363213E+00 
    2.3678973070804252E+00 
    2.3709739081352454E+00 
    2.3649811229761677E+00 
    2.3590324134133103E+00 
    2.3521526141959770E+00 
    2.3595111689890906E+00 
    2.3552273773194821E+00 
    2.3486318710802125E+00 
    2.3654266565054511E+00 
    2.3713015786657383E+00 
    2.3620516821214710E+00 
    2.3595374525917121E+00 
    2.3461298690133239E+00 
    2.3534089713028905E+00 
    2.3535502390537184E+00 
    2.3440406037602841E+00 
    2.3418111038841185E+00 
    2.3405586209100058E+00 
    2.3321688642735414E+00 
    2.3308333676793977E+00 
    2.3382581767060255E+00 
    2.3344020011816622E+00 
    2.3258730153653646E+00 
    2.3306437615573170E+00 
    2.3221234437536111E+00 
    2.3254823035431502E+00 
    2.3192749981867857E+00 
    2.3131768307995189E+00 
    2.3067125378714928E+00 
    2.3136033160862270E+00 
    2.3093422439426221E+00 
    2.3033328597468765E+00 
    2.3196922027137732E+00 
    2.3262407220699970E+00 
    2.3158677773213734E+00 
    2.3134292289661906E+00 
    2.3007278510889306E+00 
    2.3073748963632643E+00 
    2.3072270632252843E+00 
    2.2982370145290965E+00 
    2.2981349596138148E+00 
    2.2967580508923522E+00 
    2.2905380818309236E+00 
    2.2899733106471412E+00 
    2.2942791616192282E+00 
    2.2902177362151308E+00 
    2.2844751833945072E+00 
    2.2886957124575331E+00 
    2.2830959782048339E+00 
    2.2851693675530078E+00 
    2.2801714639101429E+00 
    2.2760142404966226E+00 
    2.2706279163925798E+00 
    2.2755536683562019E+00 
    2.2717101594195870E+00 
    2.2672334636336160E+00 
    2.2794962239022620E+00 
    2.2833174286802644E+00 
    2.2755557122773000E+00 
    2.2743946760864415E+00 
    2.2644610238520917E+00 
    2.2695590247582573E+00 
    2.2687648258774025E+00 
    2.2615990707496558E+00 
    2.2641930574570237E+00 
    2.2622542974430622E+00 
    2.2577030619489311E+00 
    2.2579597046670319E+00 
    2.2596330450493700E+00 
    2.2557850706065290E+00 
    2.2522511025015564E+00 
    2.2557937381959809E+00 
    2.2527517622828919E+00 
    2.2537297746540701E+00 
    2.2496290654915363E+00 
    2.2471276135144151E+00 
    2.2425098392806366E+00 
    2.2455225290696981E+00 
    2.2420638782702578E+00 
    2.2391217227674072E+00 
    2.2477844195142511E+00 
    2.2497581086440293E+00 
    2.2435408374038168E+00 
    2.2435037597606233E+00 
    2.2361546851414480E+00 
    2.2397574597523566E+00 
    2.2382903978280564E+00 
    2.2328125408437742E+00 
    2.2378462252164821E+00 
    2.2356870275378129E+00 
    2.2322349645374393E+00 
    2.2328560739323651E+00 
    2.2328458053013511E+00 
    2.2288501397295568E+00 
    2.2268362302341256E+00 
    2.2300557634470457E+00 
    2.2285548691400012E+00 
    2.2288017570479255E+00 
    2.2253052203588903E+00 
    2.2238195923671666E+00 
    2.2196580411333136E+00 
    2.2217091704234444E+00 
    2.2184661195602247E+00 
    2.2162158553892843E+00 
    2.2228959893598179E+00 
    2.2234971923899267E+00 
    2.2184419013352099E+00 
    2.2191189403864664E+00 
    2.2131748562011104E+00 
    2.2159857849539155E+00 
    2.2141039358680445E+00 
    2.2096194558769593E+00 
    2.2157511641089025E+00 
    2.2133978830454266E+00 
    2.2105583373175492E+00 
    2.2113790398233366E+00 
    2.2105396243178581E+00 
    2.2066903591939973E+00 
    2.2055315060572416E+00 
    2.2083764773812220E+00 
    2.2076251518422731E+00 
    2.2076284532587658E+00 
    2.2044253299731200E+00 
    2.2032816880943176E+00 
    2.1993698258164112E+00 
    2.2009595535282513E+00 
    2.1978683522243658E+00 