# vtk DataFile Version 2.0
Pressure Field Data 
ASCII 
DATASET UNSTRUCTURED_GRID 

POINTS 6273 double 

    0.0000000000000000E+00     0.0000000000000000E+00     0.0000000000000000E+00 
    1.0000000000000000E+00     0.0000000000000000E+00     0.0000000000000000E+00 
    1.0000000000000000E+00     1.0000000000000000E+00     0.0000000000000000E+00 
    0.0000000000000000E+00     1.0000000000000000E+00     0.0000000000000000E+00 
    1.5624999999970249E-02     0.0000000000000000E+00     0.0000000000000000E+00 
    3.1249999999940652E-02     0.0000000000000000E+00     0.0000000000000000E+00 
    4.6874999999905617E-02     0.0000000000000000E+00     0.0000000000000000E+00 
    6.2499999999870597E-02     0.0000000000000000E+00     0.0000000000000000E+00 
    7.8124999999846401E-02     0.0000000000000000E+00     0.0000000000000000E+00 
    9.3749999999822212E-02     0.0000000000000000E+00     0.0000000000000000E+00 
    1.0937499999979799E-01     0.0000000000000000E+00     0.0000000000000000E+00 
    1.2499999999977381E-01     0.0000000000000000E+00     0.0000000000000000E+00 
    1.4062499999972811E-01     0.0000000000000000E+00     0.0000000000000000E+00 
    1.5624999999968239E-01     0.0000000000000000E+00     0.0000000000000000E+00 
    1.7187499999963671E-01     0.0000000000000000E+00     0.0000000000000000E+00 
    1.8749999999959110E-01     0.0000000000000000E+00     0.0000000000000000E+00 
    2.0312499999954539E-01     0.0000000000000000E+00     0.0000000000000000E+00 
    2.1874999999949971E-01     0.0000000000000000E+00     0.0000000000000000E+00 
    2.3437499999945391E-01     0.0000000000000000E+00     0.0000000000000000E+00 
    2.4999999999940831E-01     0.0000000000000000E+00     0.0000000000000000E+00 
    2.6562499999936218E-01     0.0000000000000000E+00     0.0000000000000000E+00 
    2.8124999999931621E-01     0.0000000000000000E+00     0.0000000000000000E+00 
    2.9687499999927008E-01     0.0000000000000000E+00     0.0000000000000000E+00 
    3.1249999999922412E-01     0.0000000000000000E+00     0.0000000000000000E+00 
    3.2812499999917810E-01     0.0000000000000000E+00     0.0000000000000000E+00 
    3.4374999999913203E-01     0.0000000000000000E+00     0.0000000000000000E+00 
    3.5937499999908601E-01     0.0000000000000000E+00     0.0000000000000000E+00 
    3.7499999999903999E-01     0.0000000000000000E+00     0.0000000000000000E+00 
    3.9062499999899403E-01     0.0000000000000000E+00     0.0000000000000000E+00 
    4.0624999999894801E-01     0.0000000000000000E+00     0.0000000000000000E+00 
    4.2187499999890188E-01     0.0000000000000000E+00     0.0000000000000000E+00 
    4.3749999999885592E-01     0.0000000000000000E+00     0.0000000000000000E+00 
    4.5312499999880979E-01     0.0000000000000000E+00     0.0000000000000000E+00 
    4.6874999999876382E-01     0.0000000000000000E+00     0.0000000000000000E+00 
    4.8437499999871780E-01     0.0000000000000000E+00     0.0000000000000000E+00 
    4.9999999999867167E-01     0.0000000000000000E+00     0.0000000000000000E+00 
    5.1562499999871325E-01     0.0000000000000000E+00     0.0000000000000000E+00 
    5.3124999999875477E-01     0.0000000000000000E+00     0.0000000000000000E+00 
    5.4687499999879630E-01     0.0000000000000000E+00     0.0000000000000000E+00 
    5.6249999999883782E-01     0.0000000000000000E+00     0.0000000000000000E+00 
    5.7812499999887934E-01     0.0000000000000000E+00     0.0000000000000000E+00 
    5.9374999999892086E-01     0.0000000000000000E+00     0.0000000000000000E+00 
    6.0937499999896239E-01     0.0000000000000000E+00     0.0000000000000000E+00 
    6.2499999999900380E-01     0.0000000000000000E+00     0.0000000000000000E+00 
    6.4062499999904521E-01     0.0000000000000000E+00     0.0000000000000000E+00 
    6.5624999999908673E-01     0.0000000000000000E+00     0.0000000000000000E+00 
    6.7187499999912825E-01     0.0000000000000000E+00     0.0000000000000000E+00 
    6.8749999999916978E-01     0.0000000000000000E+00     0.0000000000000000E+00 
    7.0312499999921130E-01     0.0000000000000000E+00     0.0000000000000000E+00 
    7.1874999999925282E-01     0.0000000000000000E+00     0.0000000000000000E+00 
    7.3437499999929434E-01     0.0000000000000000E+00     0.0000000000000000E+00 
    7.4999999999933586E-01     0.0000000000000000E+00     0.0000000000000000E+00 
    7.6562499999937739E-01     0.0000000000000000E+00     0.0000000000000000E+00 
    7.8124999999941891E-01     0.0000000000000000E+00     0.0000000000000000E+00 
    7.9687499999946043E-01     0.0000000000000000E+00     0.0000000000000000E+00 
    8.1249999999950195E-01     0.0000000000000000E+00     0.0000000000000000E+00 
    8.2812499999954348E-01     0.0000000000000000E+00     0.0000000000000000E+00 
    8.4374999999958500E-01     0.0000000000000000E+00     0.0000000000000000E+00 
    8.5937499999962652E-01     0.0000000000000000E+00     0.0000000000000000E+00 
    8.7499999999966793E-01     0.0000000000000000E+00     0.0000000000000000E+00 
    8.9062499999970934E-01     0.0000000000000000E+00     0.0000000000000000E+00 
    9.0624999999975087E-01     0.0000000000000000E+00     0.0000000000000000E+00 
    9.2187499999979239E-01     0.0000000000000000E+00     0.0000000000000000E+00 
    9.3749999999983391E-01     0.0000000000000000E+00     0.0000000000000000E+00 
    9.5312499999987543E-01     0.0000000000000000E+00     0.0000000000000000E+00 
    9.6874999999991696E-01     0.0000000000000000E+00     0.0000000000000000E+00 
    9.8437499999995848E-01     0.0000000000000000E+00     0.0000000000000000E+00 
    1.0000000000000000E+00     1.5624999999970249E-02     0.0000000000000000E+00 
    1.0000000000000000E+00     3.1249999999940652E-02     0.0000000000000000E+00 
    1.0000000000000000E+00     4.6874999999905617E-02     0.0000000000000000E+00 
    1.0000000000000000E+00     6.2499999999870597E-02     0.0000000000000000E+00 
    1.0000000000000000E+00     7.8124999999846401E-02     0.0000000000000000E+00 
    1.0000000000000000E+00     9.3749999999822212E-02     0.0000000000000000E+00 
    1.0000000000000000E+00     1.0937499999979799E-01     0.0000000000000000E+00 
    1.0000000000000000E+00     1.2499999999977381E-01     0.0000000000000000E+00 
    1.0000000000000000E+00     1.4062499999972811E-01     0.0000000000000000E+00 
    1.0000000000000000E+00     1.5624999999968239E-01     0.0000000000000000E+00 
    1.0000000000000000E+00     1.7187499999963671E-01     0.0000000000000000E+00 
    1.0000000000000000E+00     1.8749999999959110E-01     0.0000000000000000E+00 
    1.0000000000000000E+00     2.0312499999954539E-01     0.0000000000000000E+00 
    1.0000000000000000E+00     2.1874999999949971E-01     0.0000000000000000E+00 
    1.0000000000000000E+00     2.3437499999945391E-01     0.0000000000000000E+00 
    1.0000000000000000E+00     2.4999999999940831E-01     0.0000000000000000E+00 
    1.0000000000000000E+00     2.6562499999936218E-01     0.0000000000000000E+00 
    1.0000000000000000E+00     2.8124999999931621E-01     0.0000000000000000E+00 
    1.0000000000000000E+00     2.9687499999927008E-01     0.0000000000000000E+00 
    1.0000000000000000E+00     3.1249999999922412E-01     0.0000000000000000E+00 
    1.0000000000000000E+00     3.2812499999917810E-01     0.0000000000000000E+00 
    1.0000000000000000E+00     3.4374999999913203E-01     0.0000000000000000E+00 
    1.0000000000000000E+00     3.5937499999908601E-01     0.0000000000000000E+00 
    1.0000000000000000E+00     3.7499999999903999E-01     0.0000000000000000E+00 
    1.0000000000000000E+00     3.9062499999899403E-01     0.0000000000000000E+00 
    1.0000000000000000E+00     4.0624999999894801E-01     0.0000000000000000E+00 
    1.0000000000000000E+00     4.2187499999890188E-01     0.0000000000000000E+00 
    1.0000000000000000E+00     4.3749999999885592E-01     0.0000000000000000E+00 
    1.0000000000000000E+00     4.5312499999880979E-01     0.0000000000000000E+00 
    1.0000000000000000E+00     4.6874999999876382E-01     0.0000000000000000E+00 
    1.0000000000000000E+00     4.8437499999871780E-01     0.0000000000000000E+00 
    1.0000000000000000E+00     4.9999999999867167E-01     0.0000000000000000E+00 
    1.0000000000000000E+00     5.1562499999871325E-01     0.0000000000000000E+00 
    1.0000000000000000E+00     5.3124999999875477E-01     0.0000000000000000E+00 
    1.0000000000000000E+00     5.4687499999879630E-01     0.0000000000000000E+00 
    1.0000000000000000E+00     5.6249999999883782E-01     0.0000000000000000E+00 
    1.0000000000000000E+00     5.7812499999887934E-01     0.0000000000000000E+00 
    1.0000000000000000E+00     5.9374999999892086E-01     0.0000000000000000E+00 
    1.0000000000000000E+00     6.0937499999896239E-01     0.0000000000000000E+00 
    1.0000000000000000E+00     6.2499999999900380E-01     0.0000000000000000E+00 
    1.0000000000000000E+00     6.4062499999904521E-01     0.0000000000000000E+00 
    1.0000000000000000E+00     6.5624999999908673E-01     0.0000000000000000E+00 
    1.0000000000000000E+00     6.7187499999912825E-01     0.0000000000000000E+00 
    1.0000000000000000E+00     6.8749999999916978E-01     0.0000000000000000E+00 
    1.0000000000000000E+00     7.0312499999921130E-01     0.0000000000000000E+00 
    1.0000000000000000E+00     7.1874999999925282E-01     0.0000000000000000E+00 
    1.0000000000000000E+00     7.3437499999929434E-01     0.0000000000000000E+00 
    1.0000000000000000E+00     7.4999999999933586E-01     0.0000000000000000E+00 
    1.0000000000000000E+00     7.6562499999937739E-01     0.0000000000000000E+00 
    1.0000000000000000E+00     7.8124999999941891E-01     0.0000000000000000E+00 
    1.0000000000000000E+00     7.9687499999946043E-01     0.0000000000000000E+00 
    1.0000000000000000E+00     8.1249999999950195E-01     0.0000000000000000E+00 
    1.0000000000000000E+00     8.2812499999954348E-01     0.0000000000000000E+00 
[...]
CELL_DATA 6144 
SCALARS Pressure double 1 
LOOKUP_TABLE default 

    3.7661229353580952E+00 
    3.6325133245289978E+00 
    3.6100115826760319E+00 
    3.6349689516816062E+00 
    3.5453877084547591E+00 
    3.4796145749217691E+00 
    3.5128617532761255E+00 
    3.5639016960933678E+00 
    3.5431199674597447E+00 
    3.5607734291010233E+00 
    3.5124659496743074E+00 
    3.4763922817922892E+00 
    3.4396028745763974E+00 
    3.4727478249515027E+00 
    3.4393052122201193E+00 
    3.4150610167769750E+00 
    3.4756578352795091E+00 
    3.4446192574026737E+00 
    3.4192205400182623E+00 
    3.4421083108764781E+00 
    3.3910648182479362E+00 
    3.4176293049036999E+00 
    3.3944509356514510E+00 
    3.3623616245055747E+00 
    3.3877292883125412E+00 
    3.3803351297824320E+00 
    3.3433777991553266E+00 
    3.3362565119335650E+00 
    3.3629254758711906E+00 
    3.3351290979897712E+00 
    3.3099236364309323E+00 
    3.3333904121679154E+00 
    3.2886583313225155E+00 
    3.3105007628048493E+00 
    3.2821757582042994E+00 
    3.2451224055330488E+00 
    3.2196493086238660E+00 
    3.2574166275605063E+00 
    3.2370539582957734E+00 
    3.2070446019938443E+00 
    3.2819371681621048E+00 
    3.2963168226286252E+00 
    3.2571013617563209E+00 
    3.2533605644448151E+00 
    3.1961908653858462E+00 
    3.2266154471978887E+00 
    3.2225018169353721E+00 
    3.1840686204542075E+00 
    3.1735710068389924E+00 
    3.1709747435894964E+00 
    3.1356535361549773E+00 
    3.1280443574145567E+00 
    3.1623935309276812E+00 
    3.1444774567145544E+00 
    3.1087149424239109E+00 
    3.1301256283964705E+00 
    3.0774786391614244E+00 
    3.1030677959653477E+00 
    3.0703813713460968E+00 
    3.0294821630544670E+00 
    3.0059149163962191E+00 
    3.0446985001427636E+00 
    3.0271502198567855E+00 
    2.9972307723748801E+00 
    3.0780028587990178E+00 
    3.1058807961459904E+00 
    3.0578095932551430E+00 
    3.0476910780164546E+00 
    2.9895403249613248E+00 
    3.0201649484653146E+00 
    3.0202899816849378E+00 
    2.9812011738215896E+00 
    2.9661926518794206E+00 
    2.9657080225632106E+00 
    2.9368257831986710E+00 
    2.9299421463221247E+00 
    2.9597543977281213E+00 
    2.9467715240308565E+00 
    2.9189456602497947E+00 
    2.9334435813470319E+00 
    2.8979348577606081E+00 
    2.9139006297524985E+00 
    2.8948762743959304E+00 
    2.8700772100242107E+00 
    2.8555539034714594E+00 
    2.8802915717131294E+00 
    2.8697962105793131E+00 
    2.8502225915602666E+00 
    2.9016730217765905E+00 
    2.9207256562806654E+00 
    2.8915988267237474E+00 
    2.8837464974883136E+00 
    2.8452021427771599E+00 
    2.8654491151594903E+00 
    2.8654713988189515E+00 
    2.8399560497605281E+00 
    2.8295056072644811E+00 
    2.8291975208925293E+00 
    2.8099456804185778E+00 
    2.8050115932637807E+00 
    2.8256323942639501E+00 
    2.8187243729164142E+00 
    2.7999319660624185E+00 
    2.8077174429496425E+00 
    2.7827452672715602E+00 
    2.7944925692686282E+00 
    2.7813886490779800E+00 
    2.7616079510008595E+00 
    2.7496707090492483E+00 
    2.7701689899551618E+00 
    2.7624030998174041E+00 
    2.7456245799929304E+00 
    2.7873645595536032E+00 
    2.8019399963128828E+00 
    2.7807283649945091E+00 
    2.7734401788632690E+00 
    2.7428440018077076E+00 
    2.7594924195284416E+00 
    2.7616724892279905E+00 
    2.7401248353819749E+00 
    2.7264526701456804E+00 
    2.7267194962597401E+00 
    2.7089047114489766E+00 
    2.7035509923149403E+00 
    2.7242285446963210E+00 
    2.7184536776274095E+00 
    2.6997400370126456E+00 
    2.7067080547263696E+00 
    2.6824293141720905E+00 
    2.6941644177580155E+00 
    2.6815759558773564E+00 
    2.6614590715446740E+00 
    2.6494366063683912E+00 
    2.6707899982845622E+00 
    2.6635357347001554E+00 
    2.6457874668648418E+00 
    2.6878758282973716E+00 
    2.7034811993451320E+00 
    2.6831785290224217E+00 
    2.6748141849190628E+00 
    2.6435873718632616E+00 
    2.6608172614466810E+00 
    2.6640029671273471E+00 
    2.6417555889729631E+00 
    2.6252884810029165E+00 
    2.6258871802553094E+00 
    2.6071542670585388E+00 
    2.6015783876379266E+00 
    2.6238161556459567E+00 
    2.6187021139114921E+00 
    2.5986674563499457E+00 
    2.6053829682093954E+00 
    2.5797351379554914E+00 
    2.5919361493580801E+00 
    2.5791691731927853E+00 
    2.5584585328618310E+00 
    2.5466318311032219E+00 
    2.5684818715891606E+00 
    2.5612408371477473E+00 
    2.5434756808828971E+00 
    2.5868627575903700E+00 
    2.6036910120941816E+00 
    2.5825150817876286E+00 
    2.5734329179995847E+00 
    2.5417851271449940E+00 
    2.5592263507463575E+00 
    2.5630126909055568E+00 
    2.5408802032163815E+00 
    2.5236282657693843E+00 
    2.5242798362871670E+00 
    2.5067947938011921E+00 
    2.5020014890052331E+00 
    2.5225627669908532E+00 
    2.5179421365577768E+00 
    2.4984656832113266E+00 
    2.5054902601671438E+00 
    2.4822405047299174E+00 
    2.4931779832572984E+00 
    2.4820002561667067E+00 
    2.4644726371895183E+00 
    2.4547540068082832E+00 
    2.4729225569902686E+00 
    2.4657097151420007E+00 
    2.4511376696833800E+00 
    2.4884766398472826E+00 
    2.5041562492229645E+00 
    2.4851870073548232E+00 
    2.4770972091779955E+00 
    2.4495673310242161E+00 
    2.4643075875018043E+00 
    2.4682018484410984E+00 
    2.4497578018958976E+00 
    2.4363025066734112E+00 
    2.4364450665548771E+00 
    2.4232114372308384E+00 
    2.4199717794619375E+00 
    2.4350071179878960E+00 
    2.4315118056546519E+00 
    2.4164640514252751E+00 
    2.4223469849545047E+00 
    2.4051280692309209E+00 
    2.4129725094649941E+00 
    2.4044395393123872E+00 
    2.3920243463471440E+00 
    2.3849064645200322E+00 
    2.3977799862569822E+00 
    2.3931124092879421E+00 
    2.3827197479403286E+00 
    2.4091551120149473E+00 
    2.4209254207316415E+00 
    2.4069605898964896E+00 
    2.4010835583382684E+00 
    2.3815111525802188E+00 
    2.3922235509669907E+00 
    2.3946059262301436E+00 
    2.3811606460063861E+00 
    2.3715913024181816E+00 
    2.3716253819424438E+00 
    2.3618019476562591E+00 
    2.3595234495797399E+00 
    2.3705929065880511E+00 
    2.3679926050186761E+00 
    2.3572192018889857E+00 
    2.3612755352606833E+00 
    2.3486175075862574E+00 
    2.3544407347255492E+00 
    2.3482077066792355E+00 
    2.3387992995345659E+00 
    2.3334662957706120E+00 
    2.3431010693941796E+00 
    2.3396604184790553E+00 
    2.3318470035234240E+00 
    2.3515435743981565E+00 
    2.3599859381242618E+00 
    2.3495442873731429E+00 
    2.3454248876675412E+00 
    2.3308256793392266E+00 
    2.3388488146666631E+00 
    2.3403478486468607E+00 
    2.3302183247949713E+00 
    2.3234907721560800E+00 
    2.3234802031986241E+00 
    2.3159994434172493E+00 
    2.3142852623303032E+00 
    2.3225505276939167E+00 
    2.3203116803124324E+00 
    2.3123437987112876E+00 
    2.3154694574665617E+00 
    2.3061152867417110E+00 
    2.3104266068117707E+00 
    2.3058795772255047E+00 
    2.2989029721453593E+00 
    2.2947966410564855E+00 
    2.3019579076581720E+00 
    2.2987642323482076E+00 
    2.2930106118222722E+00 
    2.3079808656032865E+00 
    2.3140558887199618E+00 
    2.3059846980538445E+00 
    2.3030658024765533E+00 
    2.2919083095443029E+00 
    2.2977512863285621E+00 
    2.2988234829647727E+00 
    2.2911622630375525E+00 
    2.2871864576425533E+00 
    2.2870086645193028E+00 
    2.2815846235073569E+00 
    2.2803320031667527E+00 
    2.2860523096920273E+00 
    2.2840116274332902E+00 
    2.2784361774507493E+00 
    2.2809205034646611E+00 
    2.2741947377607845E+00 
    2.2773386510596549E+00 
    2.2735969052058977E+00 
    2.2684808054989403E+00 
    2.2653626384558341E+00 
    2.2705112290314351E+00 
    2.2683688785154335E+00 
    2.2641261358360683E+00 
    2.2748664437229555E+00 
    2.2789652174252231E+00 
    2.2728858984341964E+00 
    2.2711559739964575E+00 
    2.2630021576122132E+00 
    2.2673542844481478E+00 
    2.2675499191572919E+00 
    2.2617211831271478E+00 
    2.2596455119702608E+00 
    2.2595150097794563E+00 
    2.2552442858594715E+00 
    2.2541249667006373E+00 
    2.2584917330495098E+00 
    2.2564858287263689E+00 
    2.2524171939601167E+00 
    2.2543671557505207E+00 
    2.2491709211568112E+00 
    2.2516553925405911E+00 
    2.2486319131515025E+00 
    2.2443663017079127E+00 
    2.2415451527576336E+00 
    2.2459382681951010E+00 
    2.2437562011266090E+00 
    2.2400832470966452E+00 
    2.2493111490603575E+00 
    2.2522157145094108E+00 
    2.2471646746067337E+00 
    2.2459558875469745E+00 
    2.2389280792788431E+00 
    2.2425441176603091E+00 
    2.2425433455127846E+00 
    2.2374919079849387E+00 
    2.2363027009403980E+00 
    2.2361635206742818E+00 
    2.2323430750766260E+00 
    2.2312183220149899E+00 
    2.2351155053887428E+00 
    2.2330440644500373E+00 
    2.2296372512269520E+00 
    2.2313995445168975E+00 
    2.2266561944528447E+00 
    2.2289699905622764E+00 
    2.2261572613134235E+00 
    2.2220878734140919E+00 
    2.2194528473078030E+00 
    2.2235485866767677E+00 
    2.2215474793516914E+00 
    2.2181307409569744E+00 
    2.2265391304371946E+00 
    2.2289796769607100E+00 
    2.2243064543074080E+00 
    2.2233521964943148E+00 
    2.2169613219103392E+00 
    2.2203306179550419E+00 
    2.2200602640723512E+00 
    2.2153515091752314E+00 
    2.2145914615631765E+00 
    2.2143252775588720E+00 
    2.2108135022492665E+00 
    2.2099947736449690E+00 
    2.2132753607485438E+00 
    2.2112704998378523E+00 
    2.2083544476166623E+00 
    2.2099991370181673E+00 
    2.2061400467849248E+00 
    2.2079817396989703E+00 
    2.2056770035239954E+00 
    2.2026760277634749E+00 
    2.2006944015371626E+00 
    2.2035359960073539E+00 
    2.2016140584539681E+00 
    2.1993527507641200E+00 
    2.2056989104222109E+00 
    2.2075203970613750E+00 
    2.2034289387638983E+00 
    2.2029740588175928E+00 
    2.1981484467831764E+00 
    2.2004876453780153E+00 
    2.1999702843231455E+00 
    2.1965954028318198E+00 
    2.1975915048377925E+00 
    2.1971002189250570E+00 
    2.1952500657785938E+00 
    2.1951754768517295E+00 
    2.1960878705302695E+00 
    2.1943757002045023E+00 
    2.1933939510067715E+00 
    2.1946909653991180E+00 
    2.1934861813021920E+00 
    2.1939725411393738E+00 
    2.1928273954950162E+00 
    2.1924890463771551E+00 
    2.1921637564305980E+00 
    2.1918989647794764E+00 
    2.1909293844076605E+00 
    2.1913184332067477E+00 
    2.1918936851386337E+00 
    2.1917749254107535E+00 
    2.1897995035020017E+00 
    2.1906808229340715E+00 
    2.1899777023295646E+00 
    2.1900118662933550E+00 
    2.1886688789732234E+00 
    2.1881953044158773E+00 
    3.3937617911838935E+00 
    3.3444174071506092E+00 
    3.3491183575447487E+00 
    3.3847258613632110E+00 
    3.2993129732125990E+00 
    3.2577011926595136E+00 
    3.2917801479310707E+00 
    3.3183795260054594E+00 
    3.3668633572391213E+00 
    3.3387902972238663E+00 
    3.3165404293709235E+00 
    3.3386474784018678E+00 
    3.3002936479582967E+00 
    3.2896604908578628E+00 
    3.2614491692856222E+00 
    3.2625609905839665E+00 
    3.2674588460411553E+00 
    3.2319446877229119E+00 
    3.2166981469149074E+00 
    3.2452612001595340E+00 
    3.2285558744217453E+00 
    3.2335642916522764E+00 
    3.2040144485015296E+00 
    3.1903452523493327E+00 
    3.2827263008262073E+00 
    3.2523204007113202E+00 
    3.2346153429231270E+00 
    3.2496381339786384E+00 
    3.2214015829790954E+00 
    3.1846317663508308E+00 
    3.1868248234755652E+00 
    3.2136888192390431E+00 
    3.2178158784755282E+00 
    3.2127170479173586E+00 
    3.1853624260246378E+00 
    3.1806154259977668E+00 
    3.1430907086358757E+00 
    3.1559739615600697E+00 
    3.1268403197377874E+00 
    3.1099719349970165E+00 
    3.1570658237625251E+00 
    3.1465227051413431E+00 
    3.1111617248048402E+00 
    3.1270847720313522E+00 
    3.0783030854863962E+00 
    3.1009528316315387E+00 
    3.0780577279958186E+00 
    3.0447880028765391E+00 
    3.1076130275033513E+00 
    3.0827633004163975E+00 
    3.0518872855569708E+00 
    3.0596757933525236E+00 
    3.0550632654755892E+00 
    3.0224893408163163E+00 
    3.0086726662197925E+00 
    3.0346439759144674E+00 
    3.0223804872182374E+00 
    3.0251167909377599E+00 
    2.9972474466777688E+00 
    2.9842017227473177E+00 
    2.9538755078537604E+00 
    2.9719329955278333E+00 
    2.9501776498873573E+00 
    2.9332174501461279E+00 
    2.9818631755610658E+00 
    2.9846463038653326E+00 
    2.9508564663024544E+00 
    2.9563499742721868E+00 
    2.9155912941916871E+00 
    2.9354170261550490E+00 
    2.9238512350585619E+00 
    2.8969847263943431E+00 
    2.9244515927683681E+00 
    2.9116763481102219E+00 
    2.8913875731492831E+00 
    2.8948074499816863E+00 
    2.8968548348756018E+00 
    2.8775192841796597E+00 
    2.8650391295151607E+00 
    2.8820076425746319E+00 
    2.8684903838774876E+00 
    2.8734283740307744E+00 
    2.8553217045544694E+00 
    2.8439520917420444E+00 
    2.8260002872745646E+00 
    2.8392829530682540E+00 
    2.8253881185279570E+00 
    2.8132697581599180E+00 
    2.8478283773886925E+00 
    2.8522271558604926E+00 
    2.8290776795296222E+00 
    2.8309897018250014E+00 
    2.8022867801945166E+00 
    2.8163010707569520E+00 
    2.8101621446082863E+00 
    2.7907673072488541E+00 
    2.8052815349766229E+00 
    2.7979007334507910E+00 
    2.7828219652425283E+00 
    2.7837320288577811E+00 
    2.7884519397680410E+00 
    2.7756006625218710E+00 
    2.7651453134123565E+00 
    2.7760917107298320E+00 
    2.7653305381414981E+00 
    2.7693504103061390E+00 
    2.7560645984283014E+00 
    2.7453707437041630E+00 
    2.7296828409378895E+00 
    2.7432614592952991E+00 
    2.7323884477616058E+00 
    2.7199516254755802E+00 
    2.7517017731560176E+00 
    2.7573101106238709E+00 
    2.7386368174326381E+00 
    2.7380307666054184E+00 
    2.7121108732540096E+00 
    2.7253223451855564E+00 
    2.7219808527630298E+00 
    2.7035501110121354E+00 
    2.7089937635948060E+00 
    2.7043265693317196E+00 
    2.6888251697929073E+00 
    2.6876123027912349E+00 
    2.6973423525455433E+00 
    2.6870894464592876E+00 
    2.6743162899570367E+00 
    2.6833496212315988E+00 
    2.6692655554112101E+00 
    2.6751362988331673E+00 
    2.6623933788712897E+00 
    2.6489869347168900E+00 
    2.6335932084766807E+00 
    2.6501572751078371E+00 
    2.6400942903226206E+00 
    2.6252910244896461E+00 
    2.6614183276616545E+00 
    2.6703895310415904E+00 
    2.6511952081214205E+00 
    2.6478482201017606E+00 
    2.6191688986903832E+00 
    2.6344307097590201E+00 
    2.6333516911114638E+00 
    2.6128899134321997E+00 
    2.6107466996896247E+00 
    2.6075315892287079E+00 
    2.5905155740203201E+00 
    2.5882065017179827E+00 
    2.6019573263439155E+00 
    2.5932141699449183E+00 
    2.5773463629667708E+00 
    2.5861224166248227E+00 
    2.5691859105010151E+00 
    2.5762749393450917E+00 
    2.5635092920555613E+00 
    2.5488165015972584E+00 
    2.5340671746876398E+00 
    2.5517972483375937E+00 
    2.5423349600942720E+00 
    2.5269946963758296E+00 
    2.5650091412329239E+00 
    2.5769029196171771E+00 
    2.5568728855842253E+00 
    2.5517332333028113E+00 
    2.5221144912463211E+00 
    2.5380165825337158E+00 
    2.5384135670587158E+00 
    2.5177134132037553E+00 
    2.5118462820032939E+00 
    2.5094926421615540E+00 
    2.4933060737809991E+00 
    2.4910255759709954E+00 
    2.5051392733656455E+00 
    2.4979020208239744E+00 
    2.4821300119011025E+00 
    2.4904701915769367E+00 
    2.4738619247304157E+00 
    2.4807378017759940E+00 
    2.4692795277254023E+00 
    2.4563779761035169E+00 
    2.4440903201620179E+00 
    2.4590791042764928E+00 
    2.4507682936276161E+00 
    2.4381919023477017E+00 
    2.4714550700697706E+00 
    2.4832933914717685E+00 
    2.4651864086981230E+00 
    2.4598625875903970E+00 
    2.4344204870315269E+00 
    2.4477152671896132E+00 
    2.4490941309866305E+00 
    2.4319562156275447E+00 
    2.4269469990705361E+00 
    2.4250362208892864E+00 
    2.4131112273287587E+00 
    2.4115576573957322E+00 
    2.4216905808088378E+00 
    2.4160881787757260E+00 
    2.4039333977223718E+00 
    2.4109899127320187E+00 
    2.3986176219211472E+00 
    2.4036267013175068E+00 
    2.3947744239107496E+00 
    2.3856554377366659E+00 
    2.3766453094499851E+00 
    2.3871060780228341E+00 
    2.3813326962361629E+00 
    2.3723559659426088E+00 
    2.3958902841589476E+00 
    2.4046729530951079E+00 
    2.3911510005321324E+00 
    2.3875256769143074E+00 
    2.3692162064961186E+00 
    2.3790318967074624E+00 
    2.3794068707593818E+00 
    2.3666856691420222E+00 
    2.3641404059301911E+00 
    2.3624699969419103E+00 
    2.3536477230974300E+00 
    2.3526337621659335E+00 
    2.3596488735691428E+00 
    2.3550643731721230E+00 
    2.3463955905590521E+00 
    2.3517891368652508E+00 
    2.3430983046559399E+00 
    2.3466046970737673E+00 
    2.3398266161069472E+00 
    2.3332710969253467E+00 
    2.3261709172364218E+00 
    2.3336430605490182E+00 
    2.3289647522481030E+00 
    2.3224728320278287E+00 
    2.3398506618285286E+00 
    2.3460876843974394E+00 
    2.3356761220244966E+00 
    2.3333158053928371E+00 
    2.3196166749157325E+00 
    2.3268355158956968E+00 
    2.3266968095136891E+00 
    2.3169560652944741E+00 
    2.3168727596187093E+00 
    2.3153511740047912E+00 
    2.3086190631934467E+00 
    2.3080337555519304E+00 
    2.3126590066049446E+00 
    2.3082737412665799E+00 
    2.3020566431882306E+00 
    2.3066446398148348E+00 
    2.3005945047278917E+00 
    2.3028324793331922E+00 
    2.2974383214377943E+00 
    2.2929732415512261E+00 
    2.2871944020983097E+00 
    2.2924737305033567E+00 
    2.2883472809006600E+00 
    2.2835628419724441E+00 
    2.2967084720629871E+00 
    2.3008236305277538E+00 
    2.2924661594084368E+00 
    2.2912326486416390E+00 
    2.2805908866773703E+00 
    2.2860510258773425E+00 
    2.2851768855029104E+00 
    2.2775395124053048E+00 
    2.2803292145097167E+00 
    2.2782528199953136E+00 
    2.2734278977037987E+00 
    2.2737175718416323E+00 
    2.2754630248115051E+00 
    2.2713834746208952E+00 
    2.2676505304783774E+00 
    2.2714365467340079E+00 
    2.2682175328952865E+00 
    2.2692503648011590E+00 
    2.2649329924532511E+00 
    2.2623306542592823E+00 
    2.2574913938480501E+00 
    2.2606288257315663E+00 
    2.2570073372155131E+00 
    2.2539413957730856E+00 
    2.2629851582998137E+00 
    2.2650272689840869E+00 
    2.2585362264813789E+00 
    2.2585128086501376E+00 
    2.2508284111817440E+00 
    2.2545929962892646E+00 
    2.2530564059653320E+00 
    2.2473307272478640E+00 
    2.2525793600629131E+00 
    2.2503305517085987E+00 
    2.2466959357752732E+00 
    2.2473093541623386E+00 
    2.2473536240602754E+00 
    2.2431668532807918E+00 
    2.2410373859286365E+00 
    2.2443992275871927E+00 
    2.2427346234999495E+00 
    2.2430568265628885E+00 
    2.2393597665352512E+00 
    2.2376672034934861E+00 
    2.2332392627591098E+00 
    2.2355457283302758E+00 
    2.2321243985185668E+00 
    2.2296331495339747E+00 
    2.2368763487165788E+00 
    2.2375511969441462E+00 
    2.2322198705043892E+00 
    2.2328732007226013E+00 
    2.2264682527350410E+00 
    2.2295223308726504E+00 
    2.2275995988833119E+00 
    2.2227681585722521E+00 
    2.2289352313775153E+00 
    2.2265171327430049E+00 
    2.2233722497248016E+00 
    2.2241463249383981E+00 
    2.2235396511079184E+00 
    2.2195042911955056E+00 
    2.2180801493822511E+00 
    2.2210938271907401E+00 
    2.2200278546752727E+00 
    2.2201642294526365E+00 
    2.2166971957248021E+00 
    2.2152632251021140E+00 
    2.2110304607938787E+00 
    2.2129755113371465E+00 
    2.2096904812693512E+00 