# vtk DataFile Version 2.0
Pressure Field Data 
ASCII 
DATASET UNSTRUCTURED_GRID 

POINTS 6273 double 

    0.0000000000000000E+00     0.0000000000000000E+00     0.0000000000000000E+00 
    1.0000000000000000E+00     0.0000000000000000E+00     0.0000000000000000E+00 
    1.0000000000000000E+00     1.0000000000000000E+00     0.0000000000000000E+00 
    0.0000000000000000E+00     1.0000000000000000E+00     0.0000000000000000E+00 
    1.5624999999970249E-02     0.0000000000000000E+00     0.0000000000000000E+00 
    3.1249999999940652E-02     0.0000000000000000E+00     0.0000000000000000E+00 
    4.6874999999905617E-02     0.0000000000000000E+00     0.0000000000000000E+00 
    6.2499999999870597E-02     0.0000000000000000E+00     0.0000000000000000E+00 
    7.8124999999846401E-02     0.0000000000000000E+00     0.0000000000000000E+00 
    9.3749999999822212E-02     0.0000000000000000E+00     0.0000000000000000E+00 
    1.0937499999979799E-01     0.0000000000000000E+00     0.0000000000000000E+00 
    1.2499999999977381E-01     0.0000000000000000E+00     0.0000000000000000E+00 
    1.4062499999972811E-01     0.0000000000000000E+00     0.0000000000000000E+00 
    1.5624999999968239E-01     0.0000000000000000E+00     0.0000000000000000E+00 
    1.7187499999963671E-01     0.0000000000000000E+00     0.0000000000000000E+00 
    1.8749999999959110E-01     0.0000000000000000E+00     0.0000000000000000E+00 
    2.0312499999954539E-01     0.0000000000000000E+00     0.0000000000000000E+00 
    2.1874999999949971E-01     0.0000000000000000E+00     0.0000000000000000E+00 
    2.3437499999945391E-01     0.0000000000000000E+00     0.0000000000000000E+00 
    2.4999999999940831E-01     0.0000000000000000E+00     0.0000000000000000E+00 
    2.6562499999936218E-01     0.0000000000000000E+00     0.0000000000000000E+00 
    2.8124999999931621E-01     0.0000000000000000E+00     0.0000000000000000E+00 
    2.9687499999927008E-01     0.0000000000000000E+00     0.0000000000000000E+00 
    3.1249999999922412E-01     0.0000000000000000E+00     0.0000000000000000E+00 
    3.2812499999917810E-01     0.0000000000000000E+00     0.0000000000000000E+00 
    3.4374999999913203E-01     0.0000000000000000E+00     0.0000000000000000E+00 
    3.5937499999908601E-01     0.0000000000000000E+00     0.0000000000000000E+00 
    3.7499999999903999E-01     0.0000000000000000E+00     0.0000000000000000E+00 
    3.9062499999899403E-01     0.0000000000000000E+00     0.0000000000000000E+00 
    4.0624999999894801E-01     0.0000000000000000E+00     0.0000000000000000E+00 
    4.2187499999890188E-01     0.0000000000000000E+00     0.0000000000000000E+00 
    4.3749999999885592E-01     0.0000000000000000E+00     0.0000000000000000E+00 
    4.5312499999880979E-01     0.0000000000000000E+00     0.0000000000000000E+00 
    4.6874999999876382E-01     0.0000000000000000E+00     0.0000000000000000E+00 
    4.8437499999871780E-01     0.0000000000000000E+00     0.0000000000000000E+00 
    4.9999999999867167E-01     0.0000000000000000E+00     0.0000000000000000E+00 
    5.1562499999871325E-01     0.0000000000000000E+00     0.0000000000000000E+00 
    5.3124999999875477E-01     0.0000000000000000E+00     0.0000000000000000E+00 
    5.4687499999879630E-01     0.0000000000000000E+00     0.0000000000000000E+00 
    5.6249999999883782E-01     0.0000000000000000E+00     0.0000000000000000E+00 
    5.7812499999887934E-01     0.0000000000000000E+00     0.0000000000000000E+00 
    5.9374999999892086E-01     0.0000000000000000E+00     0.0000000000000000E+00 
    6.0937499999896239E-01     0.0000000000000000E+00     0.0000000000000000E+00 
    6.2499999999900380E-01     0.0000000000000000E+00     0.0000000000000000E+00 
    6.4062499999904521E-01     0.0000000000000000E+00     0.0000000000000000E+00 
    6.5624999999908673E-01     0.0000000000000000E+00     0.0000000000000000E+00 
    6.7187499999912825E-01     0.0000000000000000E+00     0.0000000000000000E+00 
    6.8749999999916978E-01     0.0000000000000000E+00     0.0000000000000000E+00 
    7.0312499999921130E-01     0.0000000000000000E+00     0.0000000000000000E+00 
    7.1874999999925282E-01     0.0000000000000000E+00     0.0000000000000000E+00 
    7.3437499999929434E-01     0.0000000000000000E+00     0.0000000000000000E+00 
    7.4999999999933586E-01     0.0000000000000000E+00     0.0000000000000000E+00 
    7.6562499999937739E-01     0.0000000000000000E+00     0.0000000000000000E+00 
    7.8124999999941891E-01     0.0000000000000000E+00     0.0000000000000000E+00 
    7.9687499999946043E-01     0.0000000000000000E+00     0.0000000000000000E+00 
    8.1249999999950195E-01     0.0000000000000000E+00     0.0000000000000000E+00 
    8.2812499999954348E-01     0.0000000000000000E+00     0.0000000000000000E+00 
    8.4374999999958500E-01     0.0000000000000000E+00     0.0000000000000000E+00 
    8.5937499999962652E-01     0.0000000000000000E+00     0.0000000000000000E+00 
    8.7499999999966793E-01     0.0000000000000000E+00     0.0000000000000000E+00 
    8.9062499999970934E-01     0.0000000000000000E+00     0.0000000000000000E+00 
    9.0624999999975087E-01     0.0000000000000000E+00     0.0000000000000000E+00 
    9.2187499999979239E-01     0.0000000000000000E+00     0.0000000000000000E+00 
    9.3749999999983391E-01     0.0000000000000000E+00     0.0000000000000000E+00 
    9.5312499999987543E-01     0.0000000000000000E+00     0.0000000000000000E+00 
    9.6874999999991696E-01     0.0000000000000000E+00     0.0000000000000000E+00 
    9.8437499999995848E-01     0.0000000000000000E+00     0.0000000000000000E+00 
    1.0000000000000000E+00     1.5624999999970249E-02     0.0000000000000000E+00 
    1.0000000000000000E+00     3.1249999999940652E-02     0.0000000000000000E+00 
    1.0000000000000000E+00     4.6874999999905617E-02     0.0000000000000000E+00 
    1.0000000000000000E+00     6.2499999999870597E-02     0.0000000000000000E+00 
    1.0000000000000000E+00     7.8124999999846401E-02     0.0000000000000000E+00 
    1.0000000000000000E+00     9.3749999999822212E-02     0.0000000000000000E+00 
    1.0000000000000000E+00     1.0937499999979799E-01     0.0000000000000000E+00 
    1.0000000000000000E+00     1.2499999999977381E-01     0.0000000000000000E+00 
    1.0000000000000000E+00     1.4062499999972811E-01     0.0000000000000000E+00 
    1.0000000000000000E+00     1.5624999999968239E-01     0.0000000000000000E+00 
    1.0000000000000000E+00     1.7187499999963671E-01     0.0000000000000000E+00 
    1.0000000000000000E+00     1.8749999999959110E-01     0.0000000000000000E+00 
    1.0000000000000000E+00     2.0312499999954539E-01     0.0000000000000000E+00 
    1.0000000000000000E+00     2.1874999999949971E-01     0.0000000000000000E+00 
    1.0000000000000000E+00     2.3437499999945391E-01     0.0000000000000000E+00 
    1.0000000000000000E+00     2.4999999999940831E-01     0.0000000000000000E+00 
    1.0000000000000000E+00     2.6562499999936218E-01     0.0000000000000000E+00 
    1.0000000000000000E+00     2.8124999999931621E-01     0.0000000000000000E+00 
    1.0000000000000000E+00     2.9687499999927008E-01     0.0000000000000000E+00 
    1.0000000000000000E+00     3.1249999999922412E-01     0.0000000000000000E+00 
    1.0000000000000000E+00     3.2812499999917810E-01     0.0000000000000000E+00 
    1.0000000000000000E+00     3.4374999999913203E-01     0.0000000000000000E+00 
    1.0000000000000000E+00     3.5937499999908601E-01     0.0000000000000000E+00 
    1.0000000000000000E+00     3.7499999999903999E-01     0.0000000000000000E+00 
    1.0000000000000000E+00     3.9062499999899403E-01     0.0000000000000000E+00 
    1.0000000000000000E+00     4.0624999999894801E-01     0.0000000000000000E+00 
    1.0000000000000000E+00     4.2187499999890188E-01     0.0000000000000000E+00 
    1.0000000000000000E+00     4.3749999999885592E-01     0.0000000000000000E+00 
    1.0000000000000000E+00     4.5312499999880979E-01     0.0000000000000000E+00 
    1.0000000000000000E+00     4.6874999999876382E-01     0.0000000000000000E+00 
    1.0000000000000000E+00     4.8437499999871780E-01     0.0000000000000000E+00 
    1.0000000000000000E+00     4.9999999999867167E-01     0.0000000000000000E+00 
    1.0000000000000000E+00     5.1562499999871325E-01     0.0000000000000000E+00 
    1.0000000000000000E+00     5.3124999999875477E-01     0.0000000000000000E+00 
    1.0000000000000000E+00     5.4687499999879630E-01     0.0000000000000000E+00 
    1.0000000000000000E+00     5.6249999999883782E-01     0.0000000000000000E+00 
    1.0000000000000000E+00     5.7812499999887934E-01     0.0000000000000000E+00 
    1.0000000000000000E+00     5.9374999999892086E-01     0.0000000000000000E+00 
    1.0000000000000000E+00     6.0937499999896239E-01     0.0000000000000000E+00 
    1.0000000000000000E+00     6.2499999999900380E-01     0.0000000000000000E+00 
    1.0000000000000000E+00     6.4062499999904521E-01     0.0000000000000000E+00 
    1.0000000000000000E+00     6.5624999999908673E-01     0.0000000000000000E+00 
    1.0000000000000000E+00     6.7187499999912825E-01     0.0000000000000000E+00 
    1.0000000000000000E+00     6.8749999999916978E-01     0.0000000000000000E+00 
    1.0000000000000000E+00     7.0312499999921130E-01     0.0000000000000000E+00 
    1.0000000000000000E+00     7.1874999999925282E-01     0.0000000000000000E+00 
    1.0000000000000000E+00     7.3437499999929434E-01     0.0000000000000000E+00 
    1.0000000000000000E+00     7.4999999999933586E-01     0.0000000000000000E+00 
    1.0000000000000000E+00     7.6562499999937739E-01     0.0000000000000000E+00 
    1.0000000000000000E+00     7.8124999999941891E-01     0.0000000000000000E+00 
    1.0000000000000000E+00     7.9687499999946043E-01     0.0000000000000000E+00 
    1.0000000000000000E+00     8.1249999999950195E-01     0.0000000000000000E+00 
    1.0000000000000000E+00     8.2812499999954348E-01     0.0000000000000000E+00 
[...]
CELL_DATA 6144 
SCALARS Pressure double 1 
LOOKUP_TABLE default 

    2.7250207752790465E+00 
    2.6276503198899790E+00 
    2.6123427926031826E+00 
    2.6314338924691310E+00 
    2.5728094513688173E+00 
    2.5378311813596883E+00 
    2.5533450585806730E+00 
    2.5846850183870829E+00 
    2.5729679636775988E+00 
    2.5829871993490348E+00 
    2.5555767285643110E+00 
    2.5377416080394832E+00 
    2.5203400682434611E+00 
    2.5352149461281877E+00 
    2.5193829077905940E+00 
    2.5092663132103428E+00 
    2.5364872603888124E+00 
    2.5214596259961493E+00 
    2.5099717187134711E+00 
    2.5207877608505256E+00 
    2.4989023361377818E+00 
    2.5100142467164148E+00 
    2.5001107853644395E+00 
    2.4874523527866015E+00 
    2.4986429474529674E+00 
    2.4955731233347835E+00 
    2.4818058231838656E+00 
    2.4792936207604921E+00 
    2.4883614729567936E+00 
    2.4775337028176478E+00 
    2.4692042663109408E+00 
    2.4774773576255873E+00 
    2.4629126016590619E+00 
    2.4699785682003714E+00 
    2.4603368866802797E+00 
    2.4482081152771835E+00 
    2.4395873911612491E+00 
    2.4515042299080698E+00 
    2.4443898056723188E+00 
    2.4348953721805429E+00 
    2.4589617208707644E+00 
    2.4633419694140595E+00 
    2.4499234493291637E+00 
    2.4490897365546136E+00 
    2.4307819743170009E+00 
    2.4401519825840854E+00 
    2.4383345290066503E+00 
    2.4257877102019929E+00 
    2.4246431704742344E+00 
    2.4238695150589789E+00 
    2.4134082404546144E+00 
    2.4106909211628995E+00 
    2.4206393841933149E+00 
    2.4148737036186083E+00 
    2.4062733240384730E+00 
    2.4110913062067714E+00 
    2.3983972268797049E+00 
    2.4045652641927853E+00 
    2.3970414351327771E+00 
    2.3864858482542384E+00 
    2.3799505633458997E+00 
    2.3903451498618664E+00 
    2.3853805248495927E+00 
    2.3771167835139666E+00 
    2.3982631120252540E+00 
    2.4044062444799366E+00 
    2.3928007330969741E+00 
    2.3903189842372328E+00 
    2.3745512831903857E+00 
    2.3828431599251578E+00 
    2.3824618788780922E+00 
    2.3713834028983851E+00 
    2.3689280391690191E+00 
    2.3684130868347735E+00 
    2.3604998338833494E+00 
    2.3592530204730968E+00 
    2.3661899231873771E+00 
    2.3619146599928440E+00 
    2.3550290533477454E+00 
    2.3594560497381534E+00 
    2.3512717832153687E+00 
    2.3546625653886384E+00 
    2.3497795857828048E+00 
    2.3450666502440551E+00 
    2.3417882345503198E+00 
    2.3463261077688435E+00 
    2.3439023980662612E+00 
    2.3403275022243362E+00 
    2.3506766337758997E+00 
    2.3546165626886273E+00 
    2.3479489524263912E+00 
    2.3469444615576700E+00 
    2.3387638210907045E+00 
    2.3430167609928714E+00 
    2.3426060595330203E+00 
    2.3373055510885186E+00 
    2.3365059871198501E+00 
    2.3361873080594928E+00 
    2.3323597895609320E+00 
    2.3314435981775063E+00 
    2.3351564054744025E+00 
    2.3333421362066882E+00 
    2.3298797251057088E+00 
    2.3316524598160608E+00 
    2.3266791650089118E+00 
    2.3291443186911724E+00 
    2.3263025802862725E+00 
    2.3218501809172993E+00 
    2.3189376173864100E+00 
    2.3236201872446398E+00 
    2.3216490092804629E+00 
    2.3177556617254331E+00 
    2.3270032977374711E+00 
    2.3295373101456871E+00 
    2.3250735097490898E+00 
    2.3238034873012787E+00 
    2.3167981162291262E+00 
    2.3205932793946475E+00 
    2.3207888259354394E+00 
    2.3156177812025471E+00 
    2.3130385957627491E+00 
    2.3130750672621754E+00 
    2.3083740311544281E+00 
    2.3067623427003299E+00 
    2.3121616021732909E+00 
    2.3102587005481050E+00 
    2.3055934857351552E+00 
    2.3074049353713271E+00 
    2.3007916304680194E+00 
    2.3041238490019089E+00 
    2.3004737111150080E+00 
    2.2943888770069933E+00 
    2.2904983408775679E+00 
    2.2970572974263135E+00 
    2.2946295869715851E+00 
    2.2890689724284363E+00 
    2.3018549801463273E+00 
    2.3058979238638440E+00 
    2.2999386752616777E+00 
    2.2977422902746558E+00 
    2.2880355475906193E+00 
    2.2933854821411339E+00 
    2.2940342400604408E+00 
    2.2869114122000367E+00 
    2.2825147058295383E+00 
    2.2825863381037346E+00 
    2.2761654474528230E+00 
    2.2741316071286395E+00 
    2.2815661454150451E+00 
    2.2794264832691606E+00 
    2.2729129204380025E+00 
    2.2751916638503822E+00 
    2.2663280354455235E+00 
    2.2706967466340839E+00 
    2.2660657914116720E+00 
    2.2583696252865511E+00 
    2.2538872074382152E+00 
    2.2619900683790775E+00 
    2.2590845731511093E+00 
    2.2524713631115603E+00 
    2.2683664428315753E+00 
    2.2739347216258028E+00 
    2.2662971647454064E+00 
    2.2632933746664818E+00 
    2.2514644096291967E+00 
    2.2579489915987576E+00 
    2.2589849886031126E+00 
    2.2505100588001716E+00 
    2.2450788796193462E+00 
    2.2451614420883117E+00 
    2.2383668285892329E+00 
    2.2365302166477199E+00 
    2.2441341967702368E+00 
    2.2417933966225787E+00 
    2.2346109837147168E+00 
    2.2375218769395269E+00 
    2.2286670266948079E+00 
    2.2328756620037358E+00 
    2.2283087680000735E+00 
    2.2214568695645265E+00 
    2.2174506439694470E+00 
    2.2244562429509522E+00 
    2.2213032820368297E+00 
    2.2158043345550404E+00 
    2.2302490991832187E+00 
    2.2358724026852492E+00 
    2.2281014925250160E+00 
    2.2254782920890199E+00 
    2.2147216275867301E+00 
    2.2203621314826507E+00 
    2.2212674417922740E+00 
    2.2140561407706123E+00 
    2.2103804441409673E+00 
    2.2102269308602063E+00 
    2.2051535095347119E+00 
    2.2040399031518585E+00 
    2.2093255202459159E+00 
    2.2074182255900641E+00 
    2.2020458042636566E+00 
    2.2045671391822212E+00 
    2.1982396019834516E+00 
    2.2011558290782833E+00 
    2.1977450094436288E+00 
    2.1930790614259545E+00 
    2.1902221716404391E+00 
    2.1949730133061984E+00 
    2.1929084389671663E+00 
    2.1890901638138898E+00 
    2.1989363380954265E+00 
    2.2028258007419135E+00 
    2.1973443880172780E+00 
    2.1956419815045387E+00 
    2.1882213754073230E+00 
    2.1921908768687852E+00 
    2.1925668064685717E+00 
    2.1874829432328511E+00 
    2.1850282849431308E+00 
    2.1848901663331617E+00 
    2.1810821320353235E+00 
    2.1802054346522244E+00 
    2.1841919631068683E+00 
    2.1827819228334828E+00 
    2.1789574578914270E+00 
    2.1806479486879846E+00 
    2.1758143077331975E+00 
    2.1780996994642332E+00 
    2.1755388410814294E+00 
    2.1717147231621210E+00 
    2.1693987843251636E+00 
    2.1733241257408888E+00 
    2.1717460795164802E+00 
    2.1685296598748036E+00 
    2.1764711439635667E+00 
    2.1793606656261053E+00 
    2.1752190497498991E+00 
    2.1738687987694316E+00 
    2.1678695985622882E+00 
    2.1711449643898408E+00 
    2.1714608478185449E+00 
    2.1671962745311708E+00 
    2.1650259274116435E+00 
    2.1649425696524052E+00 
    2.1616233192975174E+00 
    2.1608466381625795E+00 
    2.1643433906335434E+00 
    2.1630492875601441E+00 
    2.1597421976899414E+00 
    2.1612029069639962E+00 
    2.1571077753062893E+00 
    2.1590334013798111E+00 
    2.1568879337537616E+00 
    2.1537017361071489E+00 
    2.1517094510622026E+00 
    2.1549628250803532E+00 
    2.1533198799027908E+00 
    2.1506938796237365E+00 
    2.1575513469067968E+00 
    2.1599871282921881E+00 
    2.1561900880326395E+00 
    2.1551323985519386E+00 
    2.1499644840007739E+00 
    2.1526392422165541E+00 
    2.1528278836158172E+00 
    2.1492475035078886E+00 
    2.1481099463509779E+00 
    2.1479170242853365E+00 
    2.1453781184456111E+00 
    2.1448148780205858E+00 
    2.1472904670122914E+00 
    2.1460663939947460E+00 
    2.1436606160181144E+00 
    2.1449352126601076E+00 
    2.1418333098405480E+00 
    2.1433052722885275E+00 
    2.1414532243393496E+00 
    2.1389782397405672E+00 
    2.1373323971056766E+00 
    2.1398347826628905E+00 
    2.1386331886731611E+00 
    2.1365425373798574E+00 
    2.1417856850084487E+00 
    2.1434452040595557E+00 
    2.1404465474627572E+00 
    2.1398373529923234E+00 
    2.1357583327688219E+00 
    2.1379112972122232E+00 
    2.1377525021015051E+00 
    2.1347501385262628E+00 
    2.1343509860584304E+00 
    2.1341858698500062E+00 
    2.1319379948397810E+00 
    2.1313568509801932E+00 
    2.1334791739628316E+00 
    2.1321837910896169E+00 
    2.1302324185912593E+00 
    2.1313407121652239E+00 
    2.1286068048014126E+00 
    2.1299577029540244E+00 
    2.1282503979143019E+00 
    2.1257935674943607E+00 
    2.1240070624882170E+00 
    2.1266619066023433E+00 
    2.1253158482199073E+00 
    2.1230879517245955E+00 
    2.1284098923482135E+00 
    2.1297185653380808E+00 
    2.1269451817509792E+00 
    2.1264624787898070E+00 
    2.1223619853765618E+00 
    2.1245196304336176E+00 
    2.1243608067499933E+00 
    2.1213875325105604E+00 
    2.1204160683120463E+00 
    2.1203372218749390E+00 
    2.1175913182058048E+00 
    2.1168530983831988E+00 
    2.1197007427991936E+00 
    2.1183414598421701E+00 
    2.1158050395623667E+00 
    2.1170069628115580E+00 
    2.1138475234732605E+00 
    2.1153807629746724E+00 
    2.1135307539687944E+00 
    2.1108691984668155E+00 
    2.1091692102595818E+00 
    2.1118372923245419E+00 
    2.1105387301328040E+00 
    2.1083314086900029E+00 
    2.1137932695056540E+00 
    2.1155985687406687E+00 
    2.1123934080767475E+00 
    2.1117229214189193E+00 
    2.1075748791426809E+00 
    2.1097581872115594E+00 
    2.1095932689112535E+00 
    2.1065305145882776E+00 
    2.1060606397149360E+00 
    2.1058879080134529E+00 
    2.1036477144299481E+00 
    2.1031463631994241E+00 
    2.1052117944866535E+00 
    2.1039166203275261E+00 
    2.1020770429316440E+00 
    2.1031384198244396E+00 
    2.1007204487381461E+00 
    2.1018713248346979E+00 
    2.1004194279457145E+00 
    2.0985722340677517E+00 
    2.0973586135401425E+00 
    2.0990809969686772E+00 
    2.0978705623368046E+00 
    2.0965192391870162E+00 
    2.1003967648155135E+00 
    2.1014984959760366E+00 
    2.0989062509344283E+00 
    2.0986811108780397E+00 
    2.0957301183776620E+00 
    2.0971410440225222E+00 
    2.0967499976802491E+00 
    2.0946851468414125E+00 
    2.0955067648696253E+00 
    2.0951855548416169E+00 
    2.0941011994669454E+00 
    2.0940718183129325E+00 
    2.0945270696330747E+00 
    2.0934193244553017E+00 
    2.0929309707180841E+00 
    2.0937270948918005E+00 
    2.0930753109689704E+00 
    2.0933417786607595E+00 
    2.0926575129331599E+00 
    2.0924617760435900E+00 
    2.0922492879203318E+00 
    2.0920794130677645E+00 
    2.0914616364257883E+00 
    2.0917038972614455E+00 
    2.0919935924577437E+00 
    2.0917893774027347E+00 
    2.0906141568595280E+00 
    2.0912375413124433E+00 
    2.0908391125631329E+00 
    2.0908359377054322E+00 
    2.0899398464443197E+00 
    2.0896446082916125E+00 
    2.4999301282500097E+00 
    2.4815315703282224E+00 
    2.4826560856416084E+00 
    2.4960898270563394E+00 
    2.4658477781679666E+00 
    2.4519400511636107E+00 
    2.4630766927505783E+00 
    2.4714110575240893E+00 
    2.4892364092736678E+00 
    2.4787597083228081E+00 
    2.4707964760661021E+00 
    2.4784239944985402E+00 
    2.4644964127715068E+00 
    2.4614440403328830E+00 
    2.4517362179188495E+00 
    2.4515178784566602E+00 
    2.4543293405037625E+00 
    2.4430917963099072E+00 
    2.4377622088985413E+00 
    2.4465119846931915E+00 
    2.4403962960675951E+00 
    2.4424231360282578E+00 
    2.4332027178801869E+00 
    2.4280752824318497E+00 
    2.4581705595158678E+00 
    2.4477777680044555E+00 
    2.4417967126168345E+00 
    2.4469499802768224E+00 
    2.4376181319695305E+00 
    2.4259239463046227E+00 
    2.4263635871781872E+00 
    2.4349168451200423E+00 
    2.4364434582985379E+00 
    2.4345958781101196E+00 
    2.4258445078114597E+00 
    2.4244554076592033E+00 
    2.4132108296827868E+00 
    2.4167376122558379E+00 
    2.4086041161683176E+00 
    2.4042561644619647E+00 
    2.4171968036020992E+00 
    2.4146660118866934E+00 
    2.4052038917962739E+00 
    2.4087591810087430E+00 
    2.3967032637580012E+00 
    2.4023776437851803E+00 
    2.3971336702076771E+00 
    2.3883305226460521E+00 
    2.4038415853107340E+00 
    2.3975990576072159E+00 
    2.3904276036489676E+00 
    2.3926013027540183E+00 
    2.3906903448976387E+00 
    2.3817658757579823E+00 
    2.3781570498026077E+00 
    2.3852155818053049E+00 
    2.3825468824510256E+00 
    2.3829619266099562E+00 
    2.3749576935763006E+00 
    2.3714397359515509E+00 
    2.3622342181425720E+00 
    2.3672457861075769E+00 
    2.3603564729879443E+00 
    2.3557000919943571E+00 
    2.3698744527179958E+00 
    2.3705490394097986E+00 
    2.3597966911318733E+00 
    2.3618196955859712E+00 
    2.3502877835597831E+00 
    2.3556993220638556E+00 
    2.3515755775736151E+00 
    2.3447066312216753E+00 
    2.3548994552839329E+00 
    2.3506132614060715E+00 
    2.3463995953820742E+00 
    2.3485176432429560E+00 
    2.3462202158928971E+00 
    2.3410336219674641E+00 
    2.3392086646577064E+00 
    2.3443572660500718E+00 
    2.3424818680348292E+00 
    2.3427463970551248E+00 
    2.3383874561776219E+00 
    2.3371654150158712E+00 
    2.3329313807067549E+00 
    2.3345435400301113E+00 
    2.3311833772191699E+00 
    2.3295579936713953E+00 
    2.3354886774171688E+00 
    2.3352074303543389E+00 
    2.3303854808466733E+00 
    2.3318204473110971E+00 
    2.3264146167416384E+00 
    2.3288600748626527E+00 
    2.3267109725335207E+00 
    2.3231732304730990E+00 
    2.3294330025584240E+00 
    2.3270962281680601E+00 
    2.3244190578083130E+00 
    2.3251351901220745E+00 
    2.3243809407972145E+00 
    2.3209066444236370E+00 
    2.3196942084164487E+00 
    2.3223079505614646E+00 
    2.3211874114584017E+00 
    2.3215327957545182E+00 
    2.3183841653584376E+00 
    2.3164479543171623E+00 
    2.3121793344572654E+00 
    2.3150053631394814E+00 
    2.3119683475676682E+00 
    2.3090251653377067E+00 
    2.3162383457997606E+00 
    2.3164949410786102E+00 
    2.3122309475264542E+00 
    2.3127194295371543E+00 
    2.3064618909840542E+00 
    2.3096113843721411E+00 
    2.3082078958679180E+00 
    2.3034880372543998E+00 
    2.3068096640696196E+00 
    2.3050367673535677E+00 
    2.3007941834744585E+00 
    2.3007260070537785E+00 
    2.3026481224626507E+00 
    2.2992590962522943E+00 
    2.2959546355140925E+00 
    2.2987311788714688E+00 
    2.2952445308777567E+00 
    2.2966483018970334E+00 
    2.2926055937080467E+00 
    2.2887433300830291E+00 
    2.2834014035574364E+00 
    2.2885119147843778E+00 
    2.2850005563767177E+00 
    2.2801858025929107E+00 
    2.2917174638804849E+00 
    2.2940731518550015E+00 
    2.2880245162266122E+00 
    2.2872269860550771E+00 
    2.2777716135271842E+00 
    2.2828245785011414E+00 
    2.2821737772913862E+00 
    2.2752158409899672E+00 
    2.2758295114409339E+00 
    2.2742357635883659E+00 
    2.2683386201735725E+00 
    2.2678516002502684E+00 
    2.2718782317403332E+00 
    2.2683593165904852E+00 
    2.2629304037461622E+00 
    2.2663773636777633E+00 
    2.2608321953148129E+00 
    2.2630499951500638E+00 
    2.2580812835472264E+00 
    2.2529464401576420E+00 
    2.2467951850805892E+00 
    2.2533319306809148E+00 
    2.2493578133612138E+00 
    2.2434217865419726E+00 
    2.2580641010135012E+00 
    2.2621876748937280E+00 
    2.2544770370447580E+00 
    2.2527694633835602E+00 
    2.2410052559171789E+00 
    2.2473237388159286E+00 
    2.2471737250387060E+00 
    2.2387530131193709E+00 
    2.2381893270257827E+00 
    2.2365394231495093E+00 
    2.2300656246065547E+00 
    2.2297781081928449E+00 
    2.2341930093068068E+00 
    2.2306436935142120E+00 
    2.2245462429105114E+00 
    2.2284746244758558E+00 
    2.2227948958169788E+00 
    2.2248914860930680E+00 
    2.2198933176149285E+00 
    2.2156525068325523E+00 
    2.2103079796965810E+00 
    2.2154174428593287E+00 
    2.2116448363594525E+00 
    2.2072041972632497E+00 
    2.2198502514376415E+00 
    2.2241802869761012E+00 
    2.2164604126516596E+00 
    2.2149692728702104E+00 
    2.2049184885325492E+00 
    2.2100704712282160E+00 
    2.2099097440034479E+00 
    2.2032374476512855E+00 
    2.2042720598903842E+00 
    2.2025618116062242E+00 
    2.1982170947766604E+00 
    2.1983952102441555E+00 
    2.2004839833412646E+00 
    2.1975611493343448E+00 
    2.1935819425661545E+00 
    2.1969384960894298E+00 
    2.1933791454112246E+00 
    2.1945812345757565E+00 
    2.1909094776238889E+00 
    2.1883646672964012E+00 
    2.1845339267599697E+00 
    2.1876323741438566E+00 
    2.1850379104802222E+00 
    2.1822138664963657E+00 
    2.1902169961915727E+00 
    2.1926853426444106E+00 
    2.1875092346859599E+00 
    2.1869120419076955E+00 
    2.1803279239017392E+00 
    2.1837382158341083E+00 
    2.1831902289661929E+00 
    2.1786525229406752E+00 
    2.1802628803180251E+00 
    2.1789175143177424E+00 
    2.1758110097718233E+00 
    2.1759226429727474E+00 
    2.1772202461481927E+00 
    2.1748330108013265E+00 
    2.1722239806065913E+00 
    2.1746319069580062E+00 
    2.1721493310664570E+00 
    2.1730573845872403E+00 
    2.1701880674915874E+00 
    2.1680120178135720E+00 
    2.1646488918807014E+00 
    2.1673297731424790E+00 
    2.1649753045816063E+00 
    2.1624258736544779E+00 
    2.1692693213328331E+00 
    2.1709524701194165E+00 
    2.1667023714833431E+00 
    2.1662991115869117E+00 
    2.1605751566887559E+00 
    2.1635192134617691E+00 
    2.1628571551452196E+00 
    2.1585835896871934E+00 
    2.1607142474603913E+00 
    2.1594596426748507E+00 
    2.1565178431742904E+00 
    2.1566723308996845E+00 
    2.1576560673321534E+00 
    2.1550213848304387E+00 
    2.1527922841688252E+00 
    2.1551757835645513E+00 
    2.1532367387000151E+00 
    2.1538101326837542E+00 
    2.1511388216185900E+00 
    2.1496006200186670E+00 
    2.1466017014551788E+00 
    2.1485615694032605E+00 
    2.1463034709624402E+00 
    2.1443651493173328E+00 
    2.1499890386107436E+00 
    2.1511951106644420E+00 
    2.1472565910167725E+00 
    2.1472564561954175E+00 
    2.1424044408641749E+00 
    2.1448062948263886E+00 
    2.1438432173313142E+00 
    2.1402488785660529E+00 
    2.1436063437565256E+00 
    2.1420907624941163E+00 
    2.1399079721255276E+00 
    2.1404405175521997E+00 
    2.1402221100519316E+00 
    2.1376328258990744E+00 
    2.1364055430894804E+00 
    2.1385237565532553E+00 
    2.1377129532141885E+00 
    2.1378087778264123E+00 
    2.1354855442271616E+00 
    2.1346230184717379E+00 
    2.1318587330812782E+00 
    2.1330161221451860E+00 
    2.1308168350102412E+00 
    2.1295136789167133E+00 
    2.1337028068157933E+00 
    2.1340556458712032E+00 
    2.1306377038542710E+00 
    2.1311855259797765E+00 
    2.1273719340531949E+00 
    2.1291421596445863E+00 
    2.1277883241596340E+00 
    2.1248589163345875E+00 
    2.1294981772888337E+00 
    2.1278428490375689E+00 
    2.1260328310221248E+00 
    2.1266933192842110E+00 
    2.1258000846551401E+00 
    2.1230490094311372E+00 
    2.1224263002505506E+00 
    2.1244676695956421E+00 
    2.1242122165845227E+00 
    2.1240432745395039E+00 
    2.1218932776686290E+00 
    2.1213134777546281E+00 
    2.1185176530333285E+00 
    2.1195706851343941E+00 
    2.1174166163189838E+00 
    2.1161237620867257E+00 
    2.1199078474499102E+00 
    2.1196792450040114E+00 
    2.1167312669346963E+00 
    2.1175455545449289E+00 
    2.1140425134746170E+00 
    2.1156782849114690E+00 
    2.1141913862265200E+00 
    2.1115375221228927E+00 
    2.1157365665178567E+00 
    2.1141474981889856E+00 
    2.1118728350578295E+00 
    2.1123499986349117E+00 
    2.1121990673880986E+00 
    2.1095276717273781E+00 
    2.1083428504820363E+00 
    2.1103996464741792E+00 
    2.1095771272671975E+00 
    2.1096855666068426E+00 
    2.1073710854429732E+00 
    2.1064476716360194E+00 
    2.1036713434328012E+00 
    2.1048946838601688E+00 
    2.1027003274820317E+00 