# vtk DataFile Version 2.0
Pressure Field Data 
ASCII 
DATASET UNSTRUCTURED_GRID 

POINTS 6273 double 

    0.0000000000000000E+00     0.0000000000000000E+00     0.0000000000000000E+00 
    1.0000000000000000E+00     0.0000000000000000E+00     0.0000000000000000E+00 
    1.0000000000000000E+00     1.0000000000000000E+00     0.0000000000000000E+00 
    0.0000000000000000E+00     1.0000000000000000E+00     0.0000000000000000E+00 
    1.5624999999970249E-02     0.0000000000000000E+00     0.0000000000000000E+00 
    3.1249999999940652E-02     0.0000000000000000E+00     0.0000000000000000E+00 
    4.6874999999905617E-02     0.0000000000000000E+00     0.0000000000000000E+00 
    6.2499999999870597E-02     0.0000000000000000E+00     0.0000000000000000E+00 
    7.8124999999846401E-02     0.0000000000000000E+00     0.0000000000000000E+00 
    9.3749999999822212E-02     0.0000000000000000E+00     0.0000000000000000E+00 
    1.0937499999979799E-01     0.0000000000000000E+00     0.0000000000000000E+00 
    1.2499999999977381E-01     0.0000000000000000E+00     0.0000000000000000E+00 
    1.4062499999972811E-01     0.0000000000000000E+00     0.0000000000000000E+00 
    1.5624999999968239E-01     0.0000000000000000E+00     0.0000000000000000E+00 
    1.7187499999963671E-01     0.0000000000000000E+00     0.0000000000000000E+00 
    1.8749999999959110E-01     0.0000000000000000E+00     0.0000000000000000E+00 
    2.0312499999954539E-01     0.0000000000000000E+00     0.0000000000000000E+00 
    2.1874999999949971E-01     0.0000000000000000E+00     0.0000000000000000E+00 
    2.3437499999945391E-01     0.0000000000000000E+00     0.0000000000000000E+00 
    2.4999999999940831E-01     0.0000000000000000E+00     0.0000000000000000E+00 
    2.6562499999936218E-01     0.0000000000000000E+00     0.0000000000000000E+00 
    2.8124999999931621E-01     0.0000000000000000E+00     0.0000000000000000E+00 
    2.9687499999927008E-01     0.0000000000000000E+00     0.0000000000000000E+00 
    3.1249999999922412E-01     0.0000000000000000E+00     0.0000000000000000E+00 
    3.2812499999917810E-01     0.0000000000000000E+00     0.0000000000000000E+00 
    3.4374999999913203E-01     0.0000000000000000E+00     0.0000000000000000E+00 
    3.5937499999908601E-01     0.0000000000000000E+00     0.0000000000000000E+00 
    3.7499999999903999E-01     0.0000000000000000E+00     0.0000000000000000E+00 
    3.9062499999899403E-01     0.0000000000000000E+00     0.0000000000000000E+00 
    4.0624999999894801E-01     0.0000000000000000E+00     0.0000000000000000E+00 
    4.2187499999890188E-01     0.0000000000000000E+00     0.0000000000000000E+00 
    4.3749999999885592E-01     0.0000000000000000E+00     0.0000000000000000E+00 
    4.5312499999880979E-01     0.0000000000000000E+00     0.0000000000000000E+00 
    4.6874999999876382E-01     0.0000000000000000E+00     0.0000000000000000E+00 
    4.8437499999871780E-01     0.0000000000000000E+00     0.0000000000000000E+00 
    4.9999999999867167E-01     0.0000000000000000E+00     0.0000000000000000E+00 
    5.1562499999871325E-01     0.0000000000000000E+00     0.0000000000000000E+00 
    5.3124999999875477E-01     0.0000000000000000E+00     0.0000000000000000E+00 
    5.4687499999879630E-01     0.0000000000000000E+00     0.0000000000000000E+00 
    5.6249999999883782E-01     0.0000000000000000E+00     0.0000000000000000E+00 
    5.7812499999887934E-01     0.0000000000000000E+00     0.0000000000000000E+00 
    5.9374999999892086E-01     0.0000000000000000E+00     0.0000000000000000E+00 
    6.0937499999896239E-01     0.0000000000000000E+00     0.0000000000000000E+00 
    6.2499999999900380E-01     0.0000000000000000E+00     0.0000000000000000E+00 
    6.4062499999904521E-01     0.0000000000000000E+00     0.0000000000000000E+00 
    6.5624999999908673E-01     0.0000000000000000E+00     0.0000000000000000E+00 
    6.7187499999912825E-01     0.0000000000000000E+00     0.0000000000000000E+00 
    6.8749999999916978E-01     0.0000000000000000E+00     0.0000000000000000E+00 
    7.0312499999921130E-01     0.0000000000000000E+00     0.0000000000000000E+00 
    7.1874999999925282E-01     0.0000000000000000E+00     0.0000000000000000E+00 
    7.3437499999929434E-01     0.0000000000000000E+00     0.0000000000000000E+00 
    7.4999999999933586E-01     0.0000000000000000E+00     0.0000000000000000E+00 
    7.6562499999937739E-01     0.0000000000000000E+00     0.0000000000000000E+00 
    7.8124999999941891E-01     0.0000000000000000E+00     0.0000000000000000E+00 
    7.9687499999946043E-01     0.0000000000000000E+00     0.0000000000000000E+00 
    8.1249999999950195E-01     0.0000000000000000E+00     0.0000000000000000E+00 
    8.2812499999954348E-01     0.0000000000000000E+00     0.0000000000000000E+00 
    8.4374999999958500E-01     0.0000000000000000E+00     0.0000000000000000E+00 
    8.5937499999962652E-01     0.0000000000000000E+00     0.0000000000000000E+00 
    8.7499999999966793E-01     0.0000000000000000E+00     0.0000000000000000E+00 
    8.9062499999970934E-01     0.0000000000000000E+00     0.0000000000000000E+00 
    9.0624999999975087E-01     0.0000000000000000E+00     0.0000000000000000E+00 
    9.2187499999979239E-01     0.0000000000000000E+00     0.0000000000000000E+00 
    9.3749999999983391E-01     0.0000000000000000E+00     0.0000000000000000E+00 
    9.5312499999987543E-01     0.0000000000000000E+00     0.0000000000000000E+00 
    9.6874999999991696E-01     0.0000000000000000E+00     0.0000000000000000E+00 
    9.8437499999995848E-01     0.0000000000000000E+00     0.0000000000000000E+00 
    1.0000000000000000E+00     1.5624999999970249E-02     0.0000000000000000E+00 
    1.0000000000000000E+00     3.1249999999940652E-02     0.0000000000000000E+00 
    1.0000000000000000E+00     4.6874999999905617E-02     0.0000000000000000E+00 
    1.0000000000000000E+00     6.2499999999870597E-02     0.0000000000000000E+00 
    1.0000000000000000E+00     7.8124999999846401E-02     0.0000000000000000E+00 
    1.0000000000000000E+00     9.3749999999822212E-02     0.0000000000000000E+00 
    1.0000000000000000E+00     1.0937499999979799E-01     0.0000000000000000E+00 
    1.0000000000000000E+00     1.2499999999977381E-01     0.0000000000000000E+00 
    1.0000000000000000E+00     1.4062499999972811E-01     0.0000000000000000E+00 
    1.0000000000000000E+00     1.5624999999968239E-01     0.0000000000000000E+00 
    1.0000000000000000E+00     1.7187499999963671E-01     0.0000000000000000E+00 
    1.0000000000000000E+00     1.8749999999959110E-01     0.0000000000000000E+00 
    1.0000000000000000E+00     2.0312499999954539E-01     0.0000000000000000E+00 
    1.0000000000000000E+00     2.1874999999949971E-01     0.0000000000000000E+00 
    1.0000000000000000E+00     2.3437499999945391E-01     0.0000000000000000E+00 
    1.0000000000000000E+00     2.4999999999940831E-01     0.0000000000000000E+00 
    1.0000000000000000E+00     2.6562499999936218E-01     0.0000000000000000E+00 
    1.0000000000000000E+00     2.8124999999931621E-01     0.0000000000000000E+00 
    1.0000000000000000E+00     2.9687499999927008E-01     0.0000000000000000E+00 
    1.0000000000000000E+00     3.1249999999922412E-01     0.0000000000000000E+00 
    1.0000000000000000E+00     3.2812499999917810E-01     0.0000000000000000E+00 
    1.0000000000000000E+00     3.4374999999913203E-01     0.0000000000000000E+00 
    1.0000000000000000E+00     3.5937499999908601E-01     0.0000000000000000E+00 
    1.0000000000000000E+00     3.7499999999903999E-01     0.0000000000000000E+00 
    1.0000000000000000E+00     3.9062499999899403E-01     0.0000000000000000E+00 
    1.0000000000000000E+00     4.0624999999894801E-01     0.0000000000000000E+00 
    1.0000000000000000E+00     4.2187499999890188E-01     0.0000000000000000E+00 
    1.0000000000000000E+00     4.3749999999885592E-01     0.0000000000000000E+00 
    1.0000000000000000E+00     4.5312499999880979E-01     0.0000000000000000E+00 
    1.0000000000000000E+00     4.6874999999876382E-01     0.0000000000000000E+00 
    1.0000000000000000E+00     4.8437499999871780E-01     0.0000000000000000E+00 
    1.0000000000000000E+00     4.9999999999867167E-01     0.0000000000000000E+00 
    1.0000000000000000E+00     5.1562499999871325E-01     0.0000000000000000E+00 
    1.0000000000000000E+00     5.3124999999875477E-01     0.0000000000000000E+00 
    1.0000000000000000E+00     5.4687499999879630E-01     0.0000000000000000E+00 
    1.0000000000000000E+00     5.6249999999883782E-01     0.0000000000000000E+00 
    1.0000000000000000E+00     5.7812499999887934E-01     0.0000000000000000E+00 
    1.0000000000000000E+00     5.9374999999892086E-01     0.0000000000000000E+00 
    1.0000000000000000E+00     6.0937499999896239E-01     0.0000000000000000E+00 
    1.0000000000000000E+00     6.2499999999900380E-01     0.0000000000000000E+00 
    1.0000000000000000E+00     6.4062499999904521E-01     0.0000000000000000E+00 
    1.0000000000000000E+00     6.5624999999908673E-01     0.0000000000000000E+00 
    1.0000000000000000E+00     6.7187499999912825E-01     0.0000000000000000E+00 
    1.0000000000000000E+00     6.8749999999916978E-01     0.0000000000000000E+00 
    1.0000000000000000E+00     7.0312499999921130E-01     0.0000000000000000E+00 
    1.0000000000000000E+00     7.1874999999925282E-01     0.0000000000000000E+00 
    1.0000000000000000E+00     7.3437499999929434E-01     0.0000000000000000E+00 
    1.0000000000000000E+00     7.4999999999933586E-01     0.0000000000000000E+00 
    1.0000000000000000E+00     7.6562499999937739E-01     0.0000000000000000E+00 
    1.0000000000000000E+00     7.8124999999941891E-01     0.0000000000000000E+00 
    1.0000000000000000E+00     7.9687499999946043E-01     0.0000000000000000E+00 
    1.0000000000000000E+00     8.1249999999950195E-01     0.0000000000000000E+00 
    1.0000000000000000E+00     8.2812499999954348E-01     0.0000000000000000E+00 
[...]
CELL_DATA 6144 
SCALARS Pressure double 1 
LOOKUP_TABLE default 

    2.6743556368998593E+00 
    2.5769876077714295E+00 
    2.5616817683959630E+00 
    2.5807664557095715E+00 
    2.5221472876215048E+00 
    2.4871755361345169E+00 
    2.5026878372200358E+00 
    2.5340166937196122E+00 
    2.5223104611264939E+00 
    2.5323237489405819E+00 
    2.5049199101719339E+00 
    2.4870943505139040E+00 
    2.4697019784736365E+00 
    2.4845631890116069E+00 
    2.4687372815138566E+00 
    2.4586294128021118E+00 
    2.4858313523079185E+00 
    2.4708100108625031E+00 
    2.4593265022786479E+00 
    2.4701373058585308E+00 
    2.4482725191779475E+00 
    2.4593715510075147E+00 
    2.4494740625544971E+00 
    2.4368324331841245E+00 
    2.4480222413343347E+00 
    2.4449533416382123E+00 
    2.4312096729855437E+00 
    2.4287031177141629E+00 
    2.4377483820612871E+00 
    2.4269350713814637E+00 
    2.4186294854328043E+00 
    2.4268855095471413E+00 
    2.4123626217876111E+00 
    2.4194058064014143E+00 
    2.4097891283922515E+00 
    2.3977038547998082E+00 
    2.3891115199025461E+00 
    2.4009799405916730E+00 
    2.3938864827534259E+00 
    2.3844297084232395E+00 
    2.4084099390720044E+00 
    2.4127724031514863E+00 
    2.3993920326299070E+00 
    2.3985661520992716E+00 
    2.3803295330128034E+00 
    2.3896594986963127E+00 
    2.3878437895430715E+00 
    2.3753505600160469E+00 
    2.3742271222810705E+00 
    2.3734554083815156E+00 
    2.3630494973725442E+00 
    2.3603447059953129E+00 
    2.3702372487137162E+00 
    2.3644953224841605E+00 
    2.3559495313090917E+00 
    2.3607403566453016E+00 
    2.3481226042972230E+00 
    2.3542523109162130E+00 
    2.3467731749782463E+00 
    2.3362832627483900E+00 
    2.3297874183680589E+00 
    2.3401158263556856E+00 
    2.3351824851485121E+00 
    2.3269708949718475E+00 
    2.3479825135466665E+00 
    2.3540823688026968E+00 
    2.3425486424840494E+00 
    2.3400860154461918E+00 
    2.3244213797187419E+00 
    2.3326570186363753E+00 
    2.3322768116059702E+00 
    2.3212682196041698E+00 
    2.3188285658443126E+00 
    2.3183215366054708E+00 
    2.3104547767772439E+00 
    2.3092126727533788E+00 
    2.3161110806506100E+00 
    2.3118558898643982E+00 
    2.3050178733018778E+00 
    2.3094100950234240E+00 
    2.3012945602284467E+00 
    2.3046549148201279E+00 
    2.2998065166774131E+00 
    2.2951489322480216E+00 
    2.2919082405218734E+00 
    2.2963820426157642E+00 
    2.2939782689774724E+00 
    2.2904583821924547E+00 
    2.3006862435441127E+00 
    2.3045928863854521E+00 
    2.2979710074338349E+00 
    2.2969870518336926E+00 
    2.2889080867731284E+00 
    2.2931057983786882E+00 
    2.2926978660041786E+00 
    2.2874730800395144E+00 
    2.2866912386175855E+00 
    2.2863752609278114E+00 
    2.2826013686602398E+00 
    2.2816988404810372E+00 
    2.2853573520445143E+00 
    2.2835685255588825E+00 
    2.2801576277990665E+00 
    2.2819019348984821E+00 
    2.2770055506123206E+00 
    2.2794335148593414E+00 
    2.2766357502123777E+00 
    2.2722475270786280E+00 
    2.2693765543253188E+00 
    2.2739915472774164E+00 
    2.2720476190486334E+00 
    2.2682104511355337E+00 
    2.2773212786351289E+00 
    2.2798157523944766E+00 
    2.2754182706781148E+00 
    2.2741671126689833E+00 
    2.2672660343228466E+00 
    2.2710035248865648E+00 
    2.2711952292038955E+00 
    2.2660997945109878E+00 
    2.2635652949356571E+00 
    2.2636011548177501E+00 
    2.2589721773723572E+00 
    2.2573820189281602E+00 
    2.2626974324216835E+00 
    2.2608183888969560E+00 
    2.2562275290111571E+00 
    2.2580112113610293E+00 
    2.2515019075876781E+00 
    2.2547819363833352E+00 
    2.2511857716640526E+00 
    2.2451925938557249E+00 
    2.2413594675295010E+00 
    2.2478155756989966E+00 
    2.2454214851046408E+00 
    2.2399485349825587E+00 
    2.2525384710216030E+00 
    2.2565192728389287E+00 
    2.2506422212275941E+00 
    2.2484825797666819E+00 
    2.2389239199013478E+00 
    2.2441896297053292E+00 
    2.2448226382980714E+00 
    2.2378062499211504E+00 
    2.2334991755020925E+00 
    2.2335699301970990E+00 
    2.2272492694008723E+00 
    2.2252393909003243E+00 
    2.2325566256217058E+00 
    2.2304389608480677E+00 
    2.2240372113812708E+00 
    2.2262779303496041E+00 
    2.2175522396202130E+00 
    2.2218566889085221E+00 
    2.2172948684534206E+00 
    2.2097056847103218E+00 
    2.2052892000821807E+00 
    2.2132752945559950E+00 
    2.2104105546849548E+00 
    2.2038951709667916E+00 
    2.2195481886879818E+00 
    2.2250235967055287E+00 
    2.2175002871611476E+00 
    2.2145483738090985E+00 
    2.2029002690624813E+00 
    2.2092866961023279E+00 
    2.2103016653911203E+00 
    2.2019537955615469E+00 
    2.1966193743180940E+00 
    2.1966982242094479E+00 
    2.1900130492522543E+00 
    2.1882067616079128E+00 
    2.1956815272356613E+00 
    2.1933698381243527E+00 
    2.1863075754625108E+00 
    2.1891755773138044E+00 
    2.1804678050287243E+00 
    2.1846076534940670E+00 
    2.1801137026576862E+00 
    2.1733716520947270E+00 
    2.1694324737595010E+00 
    2.1763182806901531E+00 
    2.1732105008121003E+00 
    2.1678152748454393E+00 
    2.1820093134464740E+00 
    2.1875333935013210E+00 
    2.1798770997707790E+00 
    2.1773090964482273E+00 
    2.1667413895061003E+00 
    2.1722772650217914E+00 
    2.1731518497421742E+00 
    2.1660697166492460E+00 
    2.1625106878232048E+00 
    2.1623556522418435E+00 
    2.1573916747910618E+00 
    2.1563076504786283E+00 
    2.1614610499589473E+00 
    2.1595750154556801E+00 
    2.1543299453522136E+00 
    2.1568077883332566E+00 
    2.1506313573973137E+00 
    2.1534773021337510E+00 
    2.1501382989588942E+00 
    2.1455884648897152E+00 
    2.1427985359629274E+00 
    2.1474238903360452E+00 
    2.1454003410842661E+00 
    2.1416844699399800E+00 
    2.1512792288106901E+00 
    2.1550627973113778E+00 
    2.1497011807419129E+00 
    2.1480566066518532E+00 
    2.1408214483360490E+00 
    2.1446866499447719E+00 
    2.1450350887683154E+00 
    2.1400792948687819E+00 
    2.1377355635818693E+00 
    2.1375950787541580E+00 
    2.1338870275734449E+00 
    2.1330344726463100E+00 
    2.1369025690353802E+00 
    2.1355135955162541E+00 
    2.1318055991635205E+00 
    2.1334544610527550E+00 
    2.1287589377564906E+00 
    2.1309810450944671E+00 
    2.1284862388916386E+00 
    2.1247652151181433E+00 
    2.1225080471079134E+00 
    2.1263256032128406E+00 
    2.1247847355188627E+00 
    2.1216571591596707E+00 
    2.1293767195253563E+00 
    2.1321707956218230E+00 
    2.1281433223673987E+00 
    2.1268417278840448E+00 
    2.1210096151345486E+00 
    2.1241926051447342E+00 
    2.1244908687173663E+00 
    2.1203454796734782E+00 
    2.1182459143092780E+00 
    2.1181641667527815E+00 
    2.1149292568449405E+00 
    2.1141710453896256E+00 
    2.1175781570739498E+00 
    2.1163138457363102E+00 
    2.1130961644533115E+00 
    2.1145169130739627E+00 
    2.1105331058958563E+00 
    2.1124062362024598E+00 
    2.1103184009216527E+00 
    2.1072214240751594E+00 
    2.1052859203400582E+00 
    2.1084444366128845E+00 
    2.1068428252098981E+00 
    2.1042951838609754E+00 
    2.1109596552803187E+00 
    2.1133269962873884E+00 
    2.1096239913857282E+00 
    2.1086011252844892E+00 
    2.1035812392704281E+00 
    2.1061774479399431E+00 
    2.1063504947822356E+00 
    2.1028750072665323E+00 
    2.1018029219069225E+00 
    2.1016092798437067E+00 
    2.0991613767752928E+00 
    2.0986268089170639E+00 
    2.1009970978066468E+00 
    2.0998055669927163E+00 
    2.0974965195591571E+00 
    2.0987352096591052E+00 
    2.0957594994656796E+00 
    2.0971686271383683E+00 
    2.0953873941250869E+00 
    2.0930251981290415E+00 
    2.0914481931021549E+00 
    2.0938318726860987E+00 
    2.0926725115660063E+00 
    2.0906819748913281E+00 
    2.0956912458392298E+00 
    2.0972680990095562E+00 
    2.0943817245742173E+00 
    2.0938161539264142E+00 
    2.0899137926774625E+00 
    2.0919685939257140E+00 
    2.0917955579925196E+00 
    2.0889199741421196E+00 
    2.0886024230839695E+00 
    2.0884358272863208E+00 
    2.0862927774610789E+00 
    2.0857437824559537E+00 
    2.0877466463086449E+00 
    2.0864864782809445E+00 
    2.0846490279625551E+00 
    2.0857103415708003E+00 
    2.0831323994669284E+00 
    2.0843993235375216E+00 
    2.0827750743163058E+00 
    2.0805128697899935E+00 
    2.0788833530388264E+00 
    2.0812624875845276E+00 
    2.0799839947444307E+00 
    2.0779751082481344E+00 
    2.0828953215224857E+00 
    2.0841079401027005E+00 
    2.0814536843276352E+00 
    2.0810277470098342E+00 
    2.0772459759763140E+00 
    2.0791908940099737E+00 
    2.0789968587113838E+00 
    2.0762718033222347E+00 
    2.0757215924692050E+00 
    2.0756276944597514E+00 
    2.0730048978780387E+00 
    2.0722285870259736E+00 
    2.0749648648391306E+00 
    2.0736661508579144E+00 
    2.0712404287784465E+00 
    2.0724410108698095E+00 
    2.0691773914739158E+00 
    2.0707089363221693E+00 
    2.0688681150278296E+00 
    2.0662554415097238E+00 
    2.0645922250045081E+00 
    2.0672065074681019E+00 
    2.0659418676961510E+00 
    2.0637766191886540E+00 
    2.0692107542870057E+00 
    2.0710336636627895E+00 
    2.0678042661027942E+00 
    2.0671275601917074E+00 
    2.0630399839824904E+00 
    2.0651845865818528E+00 
    2.0650214984172717E+00 
    2.0620208569438740E+00 
    2.0615521600930573E+00 
    2.0613844755170581E+00 
    2.0591930979136821E+00 
    2.0587036515120709E+00 
    2.0607266845678223E+00 
    2.0594639655507256E+00 
    2.0576609518863420E+00 
    2.0586989789197352E+00 
    2.0563316565920622E+00 
    2.0574576849970332E+00 
    2.0560391568833345E+00 
    2.0542330862143761E+00 
    2.0530484537739535E+00 
    2.0547331752676810E+00 
    2.0535531571457426E+00 
    2.0522318333624376E+00 
    2.0560222216530368E+00 
    2.0571027335258929E+00 
    2.0545720797039193E+00 
    2.0543485607358360E+00 
    2.0514653931343716E+00 
    2.0528449879411821E+00 
    2.0524678107101244E+00 
    2.0504522822647697E+00 
    2.0512403150976821E+00 
    2.0509281818547627E+00 
    2.0498685031533110E+00 
    2.0498400839575490E+00 
    2.0502890018342597E+00 
    2.0492130390706325E+00 
    2.0487303479612349E+00 
    2.0495070396420227E+00 
    2.0488669469906866E+00 
    2.0491279892731020E+00 
    2.0484605448337536E+00 
    2.0482695149939203E+00 
    2.0480636577822651E+00 
    2.0478985494498523E+00 
    2.0472986828993305E+00 
    2.0475345857443434E+00 
    2.0478192531466450E+00 
    2.0476265457532286E+00 
    2.0464806733280754E+00 
    2.0470840852827639E+00 
    2.0466948990586458E+00 
    2.0466928605938626E+00 
    2.0458237903180492E+00 
    2.0455364997351073E+00 
    2.4492932041498645E+00 
    2.4309191846771281E+00 
    2.4320406871778264E+00 
    2.4454555228922685E+00 
    2.4152677737849424E+00 
    2.4013971146831938E+00 
    2.4125017061966947E+00 
    2.4208156690842602E+00 
    2.4386105836155987E+00 
    2.4281487168700444E+00 
    2.4202001672345652E+00 
    2.4278152942159936E+00 
    2.4139155460735449E+00 
    2.4108689768380471E+00 
    2.4011871263849685E+00 
    2.4009694958134440E+00 
    2.4037757123794150E+00 
    2.3925740171267860E+00 
    2.3872576455677881E+00 
    2.3959787093806661E+00 
    2.3898826185958675E+00 
    2.3919024725461506E+00 
    2.3827136289423145E+00 
    2.3776066142771848E+00 
    2.4076080184942188E+00 
    2.3972421816968703E+00 
    2.3912826685176465E+00 
    2.3964227380905441E+00 
    2.3871153882037652E+00 
    2.3754663575896040E+00 
    2.3759068771361407E+00 
    2.3844267034011679E+00 
    2.3859542899228678E+00 
    2.3841094326325645E+00 
    2.3753943182641972E+00 
    2.3740173611733870E+00 
    2.3628264395538867E+00 
    2.3663294627330433E+00 
    2.3582371952381296E+00 
    2.3539178179711113E+00 
    2.3667824547268257E+00 
    2.3642607588313624E+00 
    2.3548502133268636E+00 
    2.3583891036373781E+00 
    2.3464088746133429E+00 
    2.3520456997718173E+00 
    2.3468311234937351E+00 
    2.3380912428228422E+00 
    2.3535137424158554E+00 
    2.3473047635823701E+00 
    2.3401834937229173E+00 
    2.3423468335558226E+00 
    2.3404401737157317E+00 
    2.3315796937839517E+00 
    2.3279985701452794E+00 
    2.3350066649919698E+00 
    2.3323598147228579E+00 
    2.3327703665494481E+00 
    2.3248230332562763E+00 
    2.3213257639233973E+00 
    2.3121735458550350E+00 
    2.3171615591537189E+00 
    2.3103146981144569E+00 
    2.3056720802866391E+00 
    2.3197751556104835E+00 
    2.3204472712068047E+00 
    2.3097645402950957E+00 
    2.3117667289876800E+00 
    2.3002922679185382E+00 
    2.3056779928543332E+00 
    2.3015808574410794E+00 
    2.2947427206590096E+00 
    2.3048696004027645E+00 
    2.3006078455659469E+00 
    2.2964265339991874E+00 
    2.2985387159762385E+00 
    2.2962416536163350E+00 
    2.2910960814052621E+00 
    2.2893002112781007E+00 
    2.2944132142507310E+00 
    2.2925717164052704E+00 
    2.2928217328560225E+00 
    2.2885132638469274E+00 
    2.2873268684344183E+00 
    2.2831440045061373E+00 
    2.2847168366343680E+00 
    2.2813981517139776E+00 
    2.2798099671722749E+00 
    2.2856355296759934E+00 
    2.2853417649495920E+00 
    2.2805978229921808E+00 
    2.2820215732346378E+00 
    2.2767039354683360E+00 
    2.2791059074236233E+00 
    2.2769832705762321E+00 
    2.2735077547043518E+00 
    2.2797048135606941E+00 
    2.2773951813478557E+00 
    2.2747669410958249E+00 
    2.2754741862044510E+00 
    2.2747144770844194E+00 
    2.2712888027978280E+00 
    2.2701100909891370E+00 
    2.2726815045614219E+00 
    2.2715885025970537E+00 
    2.2719266344498545E+00 
    2.2688276208042808E+00 
    2.2669210798108406E+00 
    2.2627144824418997E+00 
    2.2654970666040204E+00 
    2.2625013639341258E+00 
    2.2595999782675613E+00 
    2.2667032936156231E+00 
    2.2669449519236968E+00 
    2.2627475400897477E+00 
    2.2632332787448273E+00 
    2.2570707751761914E+00 
    2.2601714218253361E+00 
    2.2587852558290868E+00 
    2.2541357850081156E+00 
    2.2574154389541796E+00 
    2.2556657326006873E+00 
    2.2514817699109861E+00 
    2.2514145595109638E+00 
    2.2533105191172726E+00 
    2.2499711041325838E+00 
    2.2467132368741063E+00 
    2.2494463671900693E+00 
    2.2460110931080406E+00 
    2.2473938360997385E+00 
    2.2434091985874254E+00 
    2.2396033386365768E+00 
    2.2343378530029412E+00 
    2.2393753321914569E+00 
    2.2359144381348899E+00 
    2.2311686997014704E+00 
    2.2425351649270073E+00 
    2.2448605609416781E+00 
    2.2388980209063236E+00 
    2.2381089990145897E+00 
    2.2287909435428142E+00 
    2.2337710496963403E+00 
    2.2331314550486927E+00 
    2.2262748584187957E+00 
    2.2268816761086865E+00 
    2.2253071709946370E+00 
    2.2195000447698296E+00 
    2.2190242115431982E+00 
    2.2229838148885666E+00 
    2.2195180856379539E+00 
    2.2141707669467854E+00 
    2.2175684290227196E+00 
    2.2121131721710725E+00 
    2.2142924037484955E+00 
    2.2093986604756086E+00 
    2.2043484844124897E+00 
    2.1982874052971160E+00 
    2.2047207045504305E+00 
    2.2008078146055055E+00 
    2.1949627678805830E+00 
    2.2093803287187397E+00 
    2.2134425267881208E+00 
    2.2058507659697142E+00 
    2.2041676983455250E+00 
    2.1925828862288692E+00 
    2.1988054324561164E+00 
    2.1986608587631076E+00 
    2.1903674777572721E+00 
    2.1898084878897710E+00 
    2.1881815386789696E+00 
    2.1817990801931617E+00 
    2.1815168437656496E+00 
    2.1858702078671302E+00 
    2.1823742323686490E+00 
    2.1763601402395829E+00 
    2.1802277319020331E+00 
    2.1746412665800263E+00 
    2.1766991462281942E+00 
    2.1717735463163468E+00 
    2.1676131124579867E+00 
    2.1623545981714205E+00 
    2.1673658349180212E+00 
    2.1636493635360434E+00 
    2.1592959471990825E+00 
    2.1717294985980131E+00 
    2.1760035893169993E+00 
    2.1683873606683237E+00 
    2.1669202769879035E+00 
    2.1570379738183734E+00 
    2.1621014894953827E+00 
    2.1619338840553834E+00 
    2.1553783360360845E+00 
    2.1564557548751773E+00 
    2.1547561177758245E+00 
    2.1505110979800057E+00 
    2.1507079154363158E+00 
    2.1527029501923116E+00 
    2.1498247877188064E+00 
    2.1459479100050864E+00 
    2.1492517781288325E+00 
    2.1458038771710664E+00 
    2.1469571354665127E+00 
    2.1433616459054230E+00 
    2.1409091948243426E+00 
    2.1371620659177846E+00 
    2.1401533386565368E+00 
    2.1376128507094285E+00 
    2.1348813342602906E+00 
    2.1426558378068190E+00 
    2.1450440835409195E+00 
    2.1399922857109162E+00 
    2.1394297890174503E+00 
    2.1330249513383981E+00 
    2.1363376977530879E+00 
    2.1357864450480983E+00 
    2.1313786204475935E+00 
    2.1330230623941420E+00 
    2.1316907095206488E+00 
    2.1286832629970669E+00 
    2.1288104472063054E+00 
    2.1300227763444006E+00 
    2.1276882802245813E+00 
    2.1251780085923757E+00 
    2.1275279110549437E+00 
    2.1251467652436671E+00 
    2.1260128620129382E+00 
    2.1232240708110401E+00 
    2.1211280416318914E+00 
    2.1178518578518344E+00 
    2.1204416487263580E+00 
    2.1181454935042399E+00 
    2.1156737378044195E+00 
    2.1223054384832771E+00 
    2.1239134753134481E+00 
    2.1197922537944685E+00 
    2.1194164981610175E+00 
    2.1138549115331497E+00 
    2.1167132816526015E+00 
    2.1160536978800715E+00 
    2.1118890551314222E+00 
    2.1140230738532058E+00 
    2.1127877678227871E+00 
    2.1099208133480976E+00 
    2.1100804085262070E+00 
    2.1110131575832192E+00 
    2.1084241060329285E+00 
    2.1062709984787098E+00 
    2.1085972119137040E+00 
    2.1067355514898298E+00 
    2.1072798246380549E+00 
    2.1046742465110757E+00 
    2.1031979290483038E+00 
    2.1002800034805658E+00 
    2.1021604362764279E+00 
    2.0999548700281392E+00 
    2.0980916055617271E+00 
    2.1035281306442246E+00 
    2.1046784041878945E+00 
    2.1008409655477904E+00 
    2.1008651674233043E+00 
    2.0961663750791488E+00 
    2.0984863436366807E+00 
    2.0975257338439657E+00 
    2.0940444012920381E+00 
    2.0973988193172710E+00 
    2.0959061208364025E+00 
    2.0938095981339520E+00 
    2.0943512678983489E+00 
    2.0940725121961767E+00 
    2.0915363633733444E+00 
    2.0903905637794731E+00 
    2.0924541323158734E+00 
    2.0917270331140547E+00 
    2.0917882673283561E+00 
    2.0895406254073885E+00 
    2.0887541581899538E+00 
    2.0860796785820321E+00 
    2.0871449060451868E+00 
    2.0850019843467407E+00 
    2.0837811920325504E+00 
    2.0877639513449036E+00 
    2.0880535856870321E+00 
    2.0847486392644416E+00 
    2.0853235509704238E+00 
    2.0816734034686148E+00 
    2.0833563211213311E+00 
    2.0820043449049721E+00 
    2.0791938329550748E+00 
    2.0838447514675873E+00 
    2.0822044758033997E+00 
    2.0804860985259328E+00 
    2.0811606161055565E+00 
    2.0801942120198560E+00 
    2.0774961622335950E+00 
    2.0769630815256290E+00 
    2.0789459049729166E+00 
    2.0787851675797553E+00 
    2.0785768202342596E+00 
    2.0765098129945159E+00 
    2.0760395688924054E+00 
    2.0733682955306745E+00 
    2.0742677206994387E+00 
    2.0721785533624533E+00 
    2.0710291282850020E+00 
    2.0745174676338189E+00 
    2.0742172756826696E+00 
    2.0713794684360960E+00 
    2.0722324219713437E+00 
    2.0689467859727477E+00 
    2.0704479768555464E+00 
    2.0689454630670454E+00 
    2.0664359272344250E+00 
    2.0710033221076904E+00 
    2.0693783648470419E+00 
    2.0673906266616662E+00 
    2.0678073997028434E+00 
    2.0674467014771816E+00 
    2.0648459633230249E+00 
    2.0639206806170400E+00 
    2.0659303441100101E+00 
    2.0649968433235699E+00 
    2.0651612303774520E+00 
    2.0628572796545219E+00 
    2.0619330265812161E+00 
    2.0592220711933509E+00 
    2.0604069805939513E+00 
    2.0582574548129968E+00 