# vtk DataFile Version 2.0
Pressure Field Data 
ASCII 
DATASET UNSTRUCTURED_GRID 

POINTS 6273 double 

    0.0000000000000000E+00     0.0000000000000000E+00     0.0000000000000000E+00 
    1.0000000000000000E+00     0.0000000000000000E+00     0.0000000000000000E+00 
    1.0000000000000000E+00     1.0000000000000000E+00     0.0000000000000000E+00 
    0.0000000000000000E+00     1.0000000000000000E+00     0.0000000000000000E+00 
    1.5624999999970249E-02     0.0000000000000000E+00     0.0000000000000000E+00 
    3.1249999999940652E-02     0.0000000000000000E+00     0.0000000000000000E+00 
    4.6874999999905617E-02     0.0000000000000000E+00     0.0000000000000000E+00 
    6.2499999999870597E-02     0.0000000000000000E+00     0.0000000000000000E+00 
    7.8124999999846401E-02     0.0000000000000000E+00     0.0000000000000000E+00 
    9.3749999999822212E-02     0.0000000000000000E+00     0.0000000000000000E+00 
    1.0937499999979799E-01     0.0000000000000000E+00     0.0000000000000000E+00 
    1.2499999999977381E-01     0.0000000000000000E+00     0.0000000000000000E+00 
    1.4062499999972811E-01     0.0000000000000000E+00     0.0000000000000000E+00 
    1.5624999999968239E-01     0.0000000000000000E+00     0.0000000000000000E+00 
    1.7187499999963671E-01     0.0000000000000000E+00     0.0000000000000000E+00 
    1.8749999999959110E-01     0.0000000000000000E+00     0.0000000000000000E+00 
    2.0312499999954539E-01     0.0000000000000000E+00     0.0000000000000000E+00 
    2.1874999999949971E-01     0.0000000000000000E+00     0.0000000000000000E+00 
    2.3437499999945391E-01     0.0000000000000000E+00     0.0000000000000000E+00 
    2.4999999999940831E-01     0.0000000000000000E+00     0.0000000000000000E+00 
    2.6562499999936218E-01     0.0000000000000000E+00     0.0000000000000000E+00 
    2.8124999999931621E-01     0.0000000000000000E+00     0.0000000000000000E+00 
    2.9687499999927008E-01     0.0000000000000000E+00     0.0000000000000000E+00 
    3.1249999999922412E-01     0.0000000000000000E+00     0.0000000000000000E+00 
    3.2812499999917810E-01     0.0000000000000000E+00     0.0000000000000000E+00 
    3.4374999999913203E-01     0.0000000000000000E+00     0.0000000000000000E+00 
    3.5937499999908601E-01     0.0000000000000000E+00     0.0000000000000000E+00 
    3.7499999999903999E-01     0.0000000000000000E+00     0.0000000000000000E+00 
    3.9062499999899403E-01     0.0000000000000000E+00     0.0000000000000000E+00 
    4.0624999999894801E-01     0.0000000000000000E+00     0.0000000000000000E+00 
    4.2187499999890188E-01     0.0000000000000000E+00     0.0000000000000000E+00 
    4.3749999999885592E-01     0.0000000000000000E+00     0.0000000000000000E+00 
    4.5312499999880979E-01     0.0000000000000000E+00     0.0000000000000000E+00 
    4.6874999999876382E-01     0.0000000000000000E+00     0.0000000000000000E+00 
    4.8437499999871780E-01     0.0000000000000000E+00     0.0000000000000000E+00 
    4.9999999999867167E-01     0.0000000000000000E+00     0.0000000000000000E+00 
    5.1562499999871325E-01     0.0000000000000000E+00     0.0000000000000000E+00 
    5.3124999999875477E-01     0.0000000000000000E+00     0.0000000000000000E+00 
    5.4687499999879630E-01     0.0000000000000000E+00     0.0000000000000000E+00 
    5.6249999999883782E-01     0.0000000000000000E+00     0.0000000000000000E+00 
    5.7812499999887934E-01     0.0000000000000000E+00     0.0000000000000000E+00 
    5.9374999999892086E-01     0.0000000000000000E+00     0.0000000000000000E+00 
    6.0937499999896239E-01     0.0000000000000000E+00     0.0000000000000000E+00 
    6.2499999999900380E-01     0.0000000000000000E+00     0.0000000000000000E+00 
    6.4062499999904521E-01     0.0000000000000000E+00     0.0000000000000000E+00 
    6.5624999999908673E-01     0.0000000000000000E+00     0.0000000000000000E+00 
    6.7187499999912825E-01     0.0000000000000000E+00     0.0000000000000000E+00 
    6.8749999999916978E-01     0.0000000000000000E+00     0.0000000000000000E+00 
    7.0312499999921130E-01     0.0000000000000000E+00     0.0000000000000000E+00 
    7.1874999999925282E-01     0.0000000000000000E+00     0.0000000000000000E+00 
    7.3437499999929434E-01     0.0000000000000000E+00     0.0000000000000000E+00 
    7.4999999999933586E-01     0.0000000000000000E+00     0.0000000000000000E+00 
    7.6562499999937739E-01     0.0000000000000000E+00     0.0000000000000000E+00 
    7.8124999999941891E-01     0.0000000000000000E+00     0.0000000000000000E+00 
    7.9687499999946043E-01     0.0000000000000000E+00     0.0000000000000000E+00 
    8.1249999999950195E-01     0.0000000000000000E+00     0.0000000000000000E+00 
    8.2812499999954348E-01     0.0000000000000000E+00     0.0000000000000000E+00 
    8.4374999999958500E-01     0.0000000000000000E+00     0.0000000000000000E+00 
    8.5937499999962652E-01     0.0000000000000000E+00     0.0000000000000000E+00 
    8.7499999999966793E-01     0.0000000000000000E+00     0.0000000000000000E+00 
    8.9062499999970934E-01     0.0000000000000000E+00     0.0000000000000000E+00 
    9.0624999999975087E-01     0.0000000000000000E+00     0.0000000000000000E+00 
    9.2187499999979239E-01     0.0000000000000000E+00     0.0000000000000000E+00 
    9.3749999999983391E-01     0.0000000000000000E+00     0.0000000000000000E+00 
    9.5312499999987543E-01     0.0000000000000000E+00     0.0000000000000000E+00 
    9.6874999999991696E-01     0.0000000000000000E+00     0.0000000000000000E+00 
    9.8437499999995848E-01     0.0000000000000000E+00     0.0000000000000000E+00 
    1.0000000000000000E+00     1.5624999999970249E-02     0.0000000000000000E+00 
    1.0000000000000000E+00     3.1249999999940652E-02     0.0000000000000000E+00 
    1.0000000000000000E+00     4.6874999999905617E-02     0.0000000000000000E+00 
    1.0000000000000000E+00     6.2499999999870597E-02     0.0000000000000000E+00 
    1.0000000000000000E+00     7.8124999999846401E-02     0.0000000000000000E+00 
    1.0000000000000000E+00     9.3749999999822212E-02     0.0000000000000000E+00 
    1.0000000000000000E+00     1.0937499999979799E-01     0.0000000000000000E+00 
    1.0000000000000000E+00     1.2499999999977381E-01     0.0000000000000000E+00 
    1.0000000000000000E+00     1.4062499999972811E-01     0.0000000000000000E+00 
    1.0000000000000000E+00     1.5624999999968239E-01     0.0000000000000000E+00 
    1.0000000000000000E+00     1.7187499999963671E-01     0.0000000000000000E+00 
    1.0000000000000000E+00     1.8749999999959110E-01     0.0000000000000000E+00 
    1.0000000000000000E+00     2.0312499999954539E-01     0.0000000000000000E+00 
    1.0000000000000000E+00     2.1874999999949971E-01     0.0000000000000000E+00 
    1.0000000000000000E+00     2.3437499999945391E-01     0.0000000000000000E+00 
    1.0000000000000000E+00     2.4999999999940831E-01     0.0000000000000000E+00 
    1.0000000000000000E+00     2.6562499999936218E-01     0.0000000000000000E+00 
    1.0000000000000000E+00     2.8124999999931621E-01     0.0000000000000000E+00 
    1.0000000000000000E+00     2.9687499999927008E-01     0.0000000000000000E+00 
    1.0000000000000000E+00     3.1249999999922412E-01     0.0000000000000000E+00 
    1.0000000000000000E+00     3.2812499999917810E-01     0.0000000000000000E+00 
    1.0000000000000000E+00     3.4374999999913203E-01     0.0000000000000000E+00 
    1.0000000000000000E+00     3.5937499999908601E-01     0.0000000000000000E+00 
    1.0000000000000000E+00     3.7499999999903999E-01     0.0000000000000000E+00 
    1.0000000000000000E+00     3.9062499999899403E-01     0.0000000000000000E+00 
    1.0000000000000000E+00     4.0624999999894801E-01     0.0000000000000000E+00 
    1.0000000000000000E+00     4.2187499999890188E-01     0.0000000000000000E+00 
    1.0000000000000000E+00     4.3749999999885592E-01     0.0000000000000000E+00 
    1.0000000000000000E+00     4.5312499999880979E-01     0.0000000000000000E+00 
    1.0000000000000000E+00     4.6874999999876382E-01     0.0000000000000000E+00 
    1.0000000000000000E+00     4.8437499999871780E-01     0.0000000000000000E+00 
    1.0000000000000000E+00     4.9999999999867167E-01     0.0000000000000000E+00 
    1.0000000000000000E+00     5.1562499999871325E-01     0.0000000000000000E+00 
    1.0000000000000000E+00     5.3124999999875477E-01     0.0000000000000000E+00 
    1.0000000000000000E+00     5.4687499999879630E-01     0.0000000000000000E+00 
    1.0000000000000000E+00     5.6249999999883782E-01     0.0000000000000000E+00 
    1.0000000000000000E+00     5.7812499999887934E-01     0.0000000000000000E+00 
    1.0000000000000000E+00     5.9374999999892086E-01     0.0000000000000000E+00 
    1.0000000000000000E+00     6.0937499999896239E-01     0.0000000000000000E+00 
    1.0000000000000000E+00     6.2499999999900380E-01     0.0000000000000000E+00 
    1.0000000000000000E+00     6.4062499999904521E-01     0.0000000000000000E+00 
    1.0000000000000000E+00     6.5624999999908673E-01     0.0000000000000000E+00 
    1.0000000000000000E+00     6.7187499999912825E-01     0.0000000000000000E+00 
    1.0000000000000000E+00     6.8749999999916978E-01     0.0000000000000000E+00 
    1.0000000000000000E+00     7.0312499999921130E-01     0.0000000000000000E+00 
    1.0000000000000000E+00     7.1874999999925282E-01     0.0000000000000000E+00 
    1.0000000000000000E+00     7.3437499999929434E-01     0.0000000000000000E+00 
    1.0000000000000000E+00     7.4999999999933586E-01     0.0000000000000000E+00 
    1.0000000000000000E+00     7.6562499999937739E-01     0.0000000000000000E+00 
    1.0000000000000000E+00     7.8124999999941891E-01     0.0000000000000000E+00 
    1.0000000000000000E+00     7.9687499999946043E-01     0.0000000000000000E+00 
    1.0000000000000000E+00     8.1249999999950195E-01     0.0000000000000000E+00 
    1.0000000000000000E+00     8.2812499999954348E-01     0.0000000000000000E+00 
[...]
CELL_DATA 6144 
SCALARS Pressure double 1 
LOOKUP_TABLE default 

    2.8377821343072043E+00 
    2.7404106289207322E+00 
    2.7251026188420133E+00 
    2.7442032375206193E+00 
    2.6855693595873049E+00 
    2.6505809722219666E+00 
    2.6661019286209462E+00 
    2.6974558219211220E+00 
    2.6857267280648180E+00 
    2.6957536346698641E+00 
    2.6683361489789350E+00 
    2.6504881323504308E+00 
    2.6330742691385813E+00 
    2.6479683729982879E+00 
    2.6321281866767015E+00 
    2.6220005244169347E+00 
    2.6492425261460286E+00 
    2.6342000687064431E+00 
    2.6227109823653088E+00 
    2.6335370631729806E+00 
    2.6116264968867808E+00 
    2.6227543826884747E+00 
    2.6128407031255869E+00 
    2.6001606510096802E+00 
    2.6113546809477790E+00 
    2.6082844335364381E+00 
    2.5944839618402127E+00 
    2.5919632447629515E+00 
    2.6010631227820258E+00 
    2.5902140442381518E+00 
    2.5818521475333114E+00 
    2.5901491297997952E+00 
    2.5755246924655428E+00 
    2.5826235628708578E+00 
    2.5729462606030395E+00 
    2.5607544175829133E+00 
    2.5520927730389369E+00 
    2.5640799111066861E+00 
    2.5569352237417720E+00 
    2.5473866463184671E+00 
    2.5715762905052846E+00 
    2.5759804482803514E+00 
    2.5625076613016948E+00 
    2.5616636971020830E+00 
    2.5432540118493354E+00 
    2.5526813463114015E+00 
    2.5508604955934158E+00 
    2.5382367802749348E+00 
    2.5370629605985826E+00 
    2.5362867185133244E+00 
    2.5257456550586328E+00 
    2.5230102791113862E+00 
    2.5330391709302966E+00 
    2.5272387174600230E+00 
    2.5185601296955706E+00 
    2.5234174089451287E+00 
    2.5106136213170362E+00 
    2.5168368309736202E+00 
    2.5092485427568030E+00 
    2.4985986810422007E+00 
    2.4920067887637400E+00 
    2.5024960607239195E+00 
    2.4974860139673019E+00 
    2.4891478503380928E+00 
    2.5104873297482810E+00 
    2.5166920361848710E+00 
    2.5049827745074991E+00 
    2.5024743494607664E+00 
    2.4865589190046280E+00 
    2.4949312755992632E+00 
    2.4945474228360993E+00 
    2.4833693423636478E+00 
    2.4808939853254288E+00 
    2.4803671011814963E+00 
    2.4723885086316986E+00 
    2.4711354631894684E+00 
    2.4781255832308786E+00 
    2.4738217921570129E+00 
    2.4668692926893354E+00 
    2.4713463802758286E+00 
    2.4630642338551101E+00 
    2.4664982533944233E+00 
    2.4615659792025193E+00 
    2.4567732979670760E+00 
    2.4534383153909523E+00 
    2.4580703088112159E+00 
    2.4556179444204829E+00 
    2.4519616471270465E+00 
    2.4624878515303230E+00 
    2.4664747425858158E+00 
    2.4597432573831450E+00 
    2.4587083560411629E+00 
    2.4503784204881423E+00 
    2.4547129869103124E+00 
    2.4542993264200996E+00 
    2.4488858342862732E+00 
    2.4480578971610778E+00 
    2.4477355651169508E+00 
    2.4438273389865022E+00 
    2.4428902730415634E+00 
    2.4466857249700764E+00 
    2.4448346369021943E+00 
    2.4412939891211476E+00 
    2.4431085194489279E+00 
    2.4380189717901226E+00 
    2.4405403992873849E+00 
    2.4376330351554576E+00 
    2.4330833878648024E+00 
    2.4301087331873843E+00 
    2.4348941278977856E+00 
    2.4328830378275579E+00 
    2.4289051023450741E+00 
    2.4383583280718635E+00 
    2.4409529275473214E+00 
    2.4363901467583573E+00 
    2.4350907194623117E+00 
    2.4279296463009041E+00 
    2.4318110195660307E+00 
    2.4320136720081384E+00 
    2.4267303016830426E+00 
    2.4240789693536193E+00 
    2.4241177998170347E+00 
    2.4193088120027970E+00 
    2.4176645937878569E+00 
    2.4231915432655997E+00 
    2.4212554120244811E+00 
    2.4164776895996618E+00 
    2.4183294270245370E+00 
    2.4115587558829068E+00 
    2.4149699802212727E+00 
    2.4112401462965902E+00 
    2.4050168306026740E+00 
    2.4010417359729668E+00 
    2.4077565271455144E+00 
    2.4052810204515560E+00 
    2.3995887882093427E+00 
    2.4126675731364862E+00 
    2.4168050044207212E+00 
    2.4107251201155560E+00 
    2.4084721092816510E+00 
    2.3985455764405912E+00 
    2.4040214650512266E+00 
    2.4046960905456305E+00 
    2.3974163738935745E+00 
    2.3928771448139714E+00 
    2.3929520631399761E+00 
    2.3863830330962865E+00 
    2.3843134329797349E+00 
    2.3919242158793059E+00 
    2.3897567238041013E+00 
    2.3830744386986180E+00 
    2.3854080223192526E+00 
    2.3763380348743697E+00 
    2.3808035311714191E+00 
    2.3760721771838873E+00 
    2.3682137287699034E+00 
    2.3636347451236794E+00 
    2.3719167998146320E+00 
    2.3689560914543746E+00 
    2.3621943617874703E+00 
    2.3784442581700196E+00 
    2.3841550874665924E+00 
    2.3763467231906508E+00 
    2.3732665560988866E+00 
    2.3611748198953642E+00 
    2.3678083713288465E+00 
    2.3688769025661420E+00 
    2.3602166011573424E+00 
    2.3546213476995073E+00 
    2.3547128949133520E+00 
    2.3477516056345644E+00 
    2.3458706026268836E+00 
    2.3536725775502991E+00 
    2.3512939523541116E+00 
    2.3439222996378004E+00 
    2.3468966504983904E+00 
    2.3378202577557055E+00 
    2.3421310263848527E+00 
    2.3374610802016180E+00 
    2.3304460687080053E+00 
    2.3263424881038350E+00 
    2.3335320631529108E+00 
    2.3303158289158570E+00 
    2.3246605722066875E+00 
    2.3394754601947616E+00 
    2.3452528567140907E+00 
    2.3373151523784266E+00 
    2.3346072340267412E+00 
    2.3235725823405518E+00 
    2.3293667111318963E+00 
    2.3303233045395331E+00 
    2.3229258444882781E+00 
    2.3190601208810122E+00 
    2.3189147155481087E+00 
    2.3136842828253177E+00 
    2.3125254466012581E+00 
    2.3180106534484826E+00 
    2.3160780341827918E+00 
    2.3105106449873518E+00 
    2.3130975263965321E+00 
    2.3065371538877866E+00 
    2.3095611198143544E+00 
    2.3060413233744184E+00 
    2.3011998437979955E+00 
    2.2982454207409466E+00 
    2.3031861317905866E+00 
    2.3010651329376670E+00 
    2.2970929317649205E+00 
    2.3073150702237224E+00 
    2.3113694423393589E+00 
    2.3057104807341129E+00 
    2.3039167118383541E+00 
    2.2962207652082025E+00 
    2.3003471741736381E+00 
    2.3007697274531753E+00 
    2.2954946314441851E+00 
    2.2928581389657046E+00 
    2.2927264166664623E+00 
    2.2887682445507402E+00 
    2.2878551733856720E+00 
    2.2920235236907263E+00 
    2.2905866191952153E+00 
    2.2865834173654567E+00 
    2.2883343148991933E+00 
    2.2832935538766499E+00 
    2.2856733763756676E+00 
    2.2830157722689384E+00 
    2.2790401977196315E+00 
    2.2766390477779606E+00 
    2.2807230527397726E+00 
    2.2790921983117198E+00 
    2.2757453107295138E+00 
    2.2840139177346939E+00 
    2.2870506899351386E+00 
    2.2827388300422382E+00 
    2.2813133463616295E+00 
    2.2750689482510280E+00 
    2.2784805953594289E+00 
    2.2788253436222852E+00 
    2.2743861749843575E+00 
    2.2721027394657050E+00 
    2.2720170041610146E+00 
    2.2685660985106693E+00 
    2.2677602582061152E+00 
    2.2713994618765612E+00 
    2.2700644332923918E+00 
    2.2666171014782721E+00 
    2.2681360554498857E+00 
    2.2638684385008467E+00 
    2.2658746658752595E+00 
    2.2636460332573405E+00 
    2.2603263955426391E+00 
    2.2582503576701596E+00 
    2.2616476728495334E+00 
    2.2599449212783367E+00 
    2.2571991870357597E+00 
    2.2643485239142187E+00 
    2.2668930824715554E+00 
    2.2629559762403266E+00 
    2.2618413796500900E+00 
    2.2564490277721956E+00 
    2.2592441772605323E+00 
    2.2594607247988483E+00 
    2.2557213374753853E+00 
    2.2544765477332169E+00 
    2.2542844985872925E+00 
    2.2516087096647821E+00 
    2.2510039052958719E+00 
    2.2536381284955320E+00 
    2.2523695990155734E+00 
    2.2498159325380791E+00 
    2.2511438859309476E+00 
    2.2478532110269631E+00 
    2.2494181638677486E+00 
    2.2474621859980104E+00 
    2.2448234548883788E+00 
    2.2430809594255976E+00 
    2.2457550324088045E+00 
    2.2444952427819396E+00 
    2.2422608660869536E+00 
    2.2478426841422796E+00 
    2.2496288088966523E+00 
    2.2464681308815426E+00 
    2.2457913300631054E+00 
    2.2414582758822670E+00 
    2.2437533322706478E+00 
    2.2436201485856531E+00 
    2.2404384251051574E+00 
    2.2399117741572119E+00 
    2.2397480092800413E+00 
    2.2373504599263359E+00 
    2.2367233168251328E+00 
    2.2390202284641139E+00 
    2.2376835036010059E+00 
    2.2355592471288470E+00 
    2.2367383090330208E+00 
    2.2336755318198911E+00 
    2.2352198930085638E+00 
    2.2333103528876519E+00 
    2.2302978948728143E+00 
    2.2282484177687603E+00 
    2.2315572904830088E+00 
    2.2300862504652206E+00 
    2.2272830222076920E+00 
    2.2336313309932252E+00 
    2.2351050353249060E+00 
    2.2321525896044743E+00 
    2.2315365117397925E+00 
    2.2265256693464655E+00 
    2.2293087720280966E+00 
    2.2292959000169756E+00 
    2.2256648273013013E+00 
    2.2244246097060403E+00 
    2.2243851416180300E+00 
    2.2217790783934022E+00 
    2.2210120107529709E+00 
    2.2237074633678660E+00 
    2.2223350902577028E+00 
    2.2199800488141506E+00 
    2.2211735081050752E+00 
    2.2179410947860925E+00 
    2.2195134145574391E+00 
    2.2176217460609697E+00 
    2.2148842639937376E+00 
    2.2131360800718940E+00 
    2.2158828244204702E+00 
    2.2145462613502884E+00 
    2.2122722630263532E+00 
    2.2179016833026211E+00 
    2.2195657756666263E+00 
    2.2164051019682556E+00 
    2.2157627744762785E+00 
    2.2114906443136952E+00 
    2.2137374160641135E+00 
    2.2135510051947698E+00 
    2.2104037207305702E+00 
    2.2099340525389182E+00 
    2.2097558344279928E+00 
    2.2074479608356370E+00 
    2.2069306315893034E+00 
    2.2090562819264248E+00 
    2.2077156648576581E+00 
    2.2058259234512447E+00 
    2.2069195836939692E+00 
    2.2044316677187732E+00 
    2.2056165331713680E+00 
    2.2041197068099652E+00 
    2.2022175569505227E+00 
    2.2009664510684326E+00 
    2.2027386589831028E+00 
    2.2014883151835525E+00 
    2.2000981522995469E+00 
    2.2040903101411597E+00 
    2.2052196052276125E+00 
    2.2025457344677992E+00 
    2.2023191818789716E+00 
    2.1992798618067808E+00 
    2.2007315080289662E+00 
    2.2003217984326295E+00 
    2.1981937704290075E+00 
    2.1990590267531371E+00 
    2.1987260318087669E+00 
    2.1976106076670519E+00 
    2.1975807582902163E+00 
    2.1980432410782083E+00 
    2.1968953153573834E+00 
    2.1964002397460747E+00 
    2.1972214049045000E+00 
    2.1965548986009180E+00 
    2.1968280362554102E+00 
    2.1961229088688579E+00 
    2.1959216860601352E+00 
    2.1957011884882349E+00 
    2.1955251600791490E+00 
    2.1948851958874087E+00 
    2.1951354000987702E+00 
    2.1954306812253273E+00 
    2.1952106370468876E+00 
    2.1939996557079504E+00 
    2.1946487614660799E+00 
    2.1942391612475509E+00 
    2.1942344190598058E+00 
    2.1933040710054388E+00 
    2.1929986970670132E+00 
    2.6126519978671139E+00 
    2.5942161228122869E+00 
    2.5953475813856910E+00 
    2.6088111884781249E+00 
    2.5784826897137330E+00 
    2.5645183322860752E+00 
    2.5757071161400877E+00 
    2.5840720247186901E+00 
    2.6019480774861008E+00 
    2.5914467565600416E+00 
    2.5834631170460254E+00 
    2.5911130517005634E+00 
    2.5771454484151630E+00 
    2.5740799182041609E+00 
    2.5643337878566288E+00 
    2.5641179778139191E+00 
    2.5669285644684110E+00 
    2.5556328080912385E+00 
    2.5502878516971945E+00 
    2.5590829006279745E+00 
    2.5529438815303602E+00 
    2.5549776474876054E+00 
    2.5457087412931880E+00 
    2.5405548256346169E+00 
    2.5707962752508533E+00 
    2.5603623152402473E+00 
    2.5543520835364992E+00 
    2.5595262534492793E+00 
    2.5501530649077551E+00 
    2.5383914175535711E+00 
    2.5388338038050109E+00 
    2.5474362023637553E+00 
    2.5489655592778515E+00 
    2.5471119930817512E+00 
    2.5383081441461042E+00 
    2.5369040340804800E+00 
    2.5255812693891047E+00 
    2.5291399202226974E+00 
    2.5209458202276620E+00 
    2.5165582118210761E+00 
    2.5296051956404360E+00 
    2.5270572949154619E+00 
    2.5175214458744537E+00 
    2.5211032592747618E+00 
    2.5089396001572850E+00 
    2.5146670119731724E+00 
    2.5093780143479911E+00 
    2.5004840661421879E+00 
    2.5161315403522462E+00 
    2.5098386616770956E+00 
    2.5025953666807070E+00 
    2.5047854561790719E+00 
    2.5028640668421476E+00 
    2.4938444337790591E+00 
    2.4901982685165054E+00 
    2.4973309668095371E+00 
    2.4946338747691543E+00 
    2.4950537437279747E+00 
    2.4869668398241758E+00 
    2.4834218851402716E+00 
    2.4741403803086928E+00 
    2.4791820878629030E+00 
    2.4722315418656482E+00 
    2.4675596378432925E+00 
    2.4818295217897131E+00 
    2.4825040734717208E+00 
    2.4716528756668326E+00 
    2.4737089078006269E+00 
    2.4621007856888415E+00 
    2.4675451183158694E+00 
    2.4633820292938298E+00 
    2.4564746054682982E+00 
    2.4667653706312560E+00 
    2.4624444516607413E+00 
    2.4581861123076898E+00 
    2.4603125650315301E+00 
    2.4580131023219303E+00 
    2.4527676859282539E+00 
    2.4509030717487823E+00 
    2.4561010560997434E+00 
    2.4541780913977433E+00 
    2.4544629513584981E+00 
    2.4500307829431698E+00 
    2.4487552977479625E+00 
    2.4444457099253474E+00 
    2.4461166582118925E+00 
    2.4426952133531215E+00 
    2.4410144902208799E+00 
    2.4471008150549931E+00 
    2.4468378856023820E+00 
    2.4419006551125180E+00 
    2.4433522190231964E+00 
    2.4378163329442133E+00 
    2.4403259680258449E+00 
    2.4381376855014878E+00 
    2.4345084686617935E+00 
    2.4408596043138684E+00 
    2.4384836315881548E+00 
    2.4357337928777860E+00 
    2.4364617267810895E+00 
    2.4357179797676802E+00 
    2.4321728892269951E+00 
    2.4309102411157246E+00 
    2.4335855027954620E+00 
    2.4324216420215987E+00 
    2.4327793992680649E+00 
    2.4295580159650028E+00 
    2.4275760337286285E+00 
    2.4232171346631035E+00 
    2.4261089945456016E+00 
    2.4230122965209118E+00 
    2.4200065058016018E+00 
    2.4273829204465898E+00 
    2.4276624077039712E+00 
    2.4233014857551769E+00 
    2.4237927637455052E+00 
    2.4173950290058941E+00 
    2.4206170141965142E+00 
    2.4191896391728975E+00 
    2.4143665173565960E+00 
    2.4177421864390447E+00 
    2.4159372669160777E+00 
    2.4116082517218937E+00 
    2.4115368210223287E+00 
    2.4135017892981616E+00 
    2.4100424383474151E+00 
    2.4066672901207280E+00 
    2.4095063073543499E+00 
    2.4059410001503614E+00 
    2.4073776790369656E+00 
    2.4032509236775037E+00 
    2.3993032952171069E+00 
    2.3938513662468903E+00 
    2.3990710768351295E+00 
    2.3954876300782035E+00 
    2.3905710711525918E+00 
    2.4023450901162664E+00 
    2.4047479407672951E+00 
    2.3985739382838998E+00 
    2.3977618926331163E+00 
    2.3881064795388220E+00 
    2.3932658941716114E+00 
    2.3926006312419235E+00 
    2.3854956074245433E+00 
    2.3861083064575608E+00 
    2.3844904091022610E+00 
    2.3784599564372737E+00 
    2.3779512661153888E+00 
    2.3820865671398579E+00 
    2.3784934207273287E+00 
    2.3729433600755083E+00 
    2.3764594264413557E+00 
    2.3707771183666901E+00 
    2.3730547602135723E+00 
    2.3679802178459721E+00 
    2.3627210889988075E+00 
    2.3564400451014644E+00 
    2.3631290925062949E+00 
    2.3590685632284347E+00 
    2.3529988562088096E+00 
    2.3679686386213468E+00 
    2.3721842540283817E+00 
    2.3643023940023360E+00 
    2.3625568457009942E+00 
    2.3505323103397728E+00 
    2.3569909003844893E+00 
    2.3568356351337929E+00 
    2.3482308425049334E+00 
    2.3476420299004186E+00 
    2.3459651222417746E+00 
    2.3393537372336044E+00 
    2.3390515298861749E+00 
    2.3435728300552712E+00 
    2.3399516359841792E+00 
    2.3337281465083826E+00 
    2.3377397204736607E+00 
    2.3319126992193753E+00 
    2.3340725566128904E+00 
    2.3289726811668925E+00 
    2.3246076660425019E+00 
    2.3191429091154476E+00 
    2.3244011624974061E+00 
    2.3205505191115345E+00 
    2.3159798928643829E+00 
    2.3289399731922544E+00 
    2.3333572916925718E+00 
    2.3254878936695600E+00 
    2.3239562483735683E+00 
    2.3136592001234351E+00 
    2.3189412676099441E+00 
    2.3187955327553582E+00 
    2.3119519158317869E+00 
    2.3129032358017323E+00 
    2.3111845257975077E+00 
    2.3066902535369223E+00 
    2.3068337276558104E+00 
    2.3090760188693471E+00 
    2.3060916331722474E+00 
    2.3019575841667237E+00 
    2.3053876441542855E+00 
    2.3016532997678554E+00 
    2.3029337512490033E+00 
    2.2991514983923871E+00 
    2.2964618420203888E+00 
    2.2925094464953117E+00 
    2.2957753987652882E+00 
    2.2931049678795197E+00 
    2.2901369964556717E+00 
    2.2984878773566741E+00 
    2.3010768151941021E+00 
    2.2957240195870892E+00 
    2.2950691080037720E+00 
    2.2882141400134377E+00 
    2.2917744605281780E+00 
    2.2912411776885153E+00 
    2.2865051958059706E+00 
    2.2880349992113649E+00 
    2.2866769611855542E+00 
    2.2834186936606717E+00 
    2.2835018064544506E+00 
    2.2849420561041436E+00 
    2.2824830785567554E+00 
    2.2797176536283783E+00 
    2.2822087804165712E+00 
    2.2795661355972454E+00 
    2.2805410350008475E+00 
    2.2775545994077930E+00 
    2.2752560741223578E+00 
    2.2717685030386683E+00 
    2.2745881869211928E+00 
    2.2721525249156058E+00 
    2.2694861364774370E+00 
    2.2766452634115169E+00 
    2.2784481126457736E+00 
    2.2740089792405422E+00 
    2.2735590294559627E+00 
    2.2675947291021452E+00 
    2.2706671209813964E+00 
    2.2700080094230821E+00 
    2.2655735480088297E+00 
    2.2676742785139790E+00 
    2.2663982243552367E+00 
    2.2633424569117038E+00 
    2.2634829302938027E+00 
    2.2645581266108414E+00 
    2.2618628274361190E+00 
    2.2595130887402659E+00 
    2.2619779017414099E+00 
    2.2599112868646252E+00 
    2.2605347691635429E+00 
    2.2577672040490815E+00 
    2.2561278310570727E+00 
    2.2530125487185404E+00 
    2.2550995451185880E+00 
    2.2527694939663685E+00 
    2.2507148374732457E+00 
    2.2566246887039156E+00 
    2.2579229376778378E+00 
    2.2538388517012304E+00 
    2.2537937726724016E+00 
    2.2487121196361977E+00 
    2.2512387249904422E+00 
    2.2502827190651118E+00 
    2.2465212584286927E+00 
    2.2498438750436223E+00 
    2.2483049524865075E+00 
    2.2459935063420775E+00 
    2.2465053580725263E+00 
    2.2463955479175590E+00 
    2.2437411189168666E+00 
    2.2423846538382564E+00 
    2.2445758661282151E+00 
    2.2436296381481351E+00 
    2.2437834282633253E+00 
    2.2413555526730100E+00 
    2.2403751657306863E+00 
    2.2374901063363417E+00 
    2.2387877811809687E+00 
    2.2365158211870004E+00 
    2.2350900564043967E+00 
    2.2395806065137704E+00 
    2.2400366704424446E+00 
    2.2364613649389389E+00 
    2.2369599942236289E+00 
    2.2329126110062369E+00 
    2.2348103070957066E+00 
    2.2334664101164701E+00 
    2.2303712336355708E+00 
    2.2349513618286041E+00 
    2.2332826190525945E+00 
    2.2313386584082466E+00 
    2.2319722298450873E+00 
    2.2312037104050382E+00 
    2.2283909191056535E+00 
    2.2276092660442082E+00 
    2.2297414439337069E+00 
    2.2292825176525719E+00 
    2.2292197487198315E+00 
    2.2269080241419266E+00 
    2.2259351301598267E+00 
    2.2228696772902095E+00 
    2.2244441873206027E+00 
    2.2221741835587503E+00 
    2.2203897712793474E+00 
    2.2249750954784320E+00 
    2.2248964369132080E+00 
    2.2217706199545666E+00 
    2.2224801213625973E+00 
    2.2182525328016762E+00 
    2.2204495961232609E+00 
    2.2190297934505052E+00 
    2.2157575617668162E+00 
    2.2196361107261149E+00 
    2.2180110401204201E+00 
    2.2158020921972446E+00 
    2.2163229008388283E+00 
    2.2159983636462548E+00 
    2.2132357407928729E+00 
    2.2121779596386424E+00 
    2.2142683296522816E+00 
    2.2135236214872256E+00 
    2.2136164755657837E+00 
    2.2112513194230150E+00 
    2.2103092220684473E+00 
    2.2074492587045391E+00 
    2.2087109490055261E+00 
    2.2064574910354269E+00 