# vtk DataFile Version 2.0
Pressure Field Data 
ASCII 
DATASET UNSTRUCTURED_GRID 

POINTS 6273 double 

    0.0000000000000000E+00     0.0000000000000000E+00     0.0000000000000000E+00 
    1.0000000000000000E+00     0.0000000000000000E+00     0.0000000000000000E+00 
    1.0000000000000000E+00     1.0000000000000000E+00     0.0000000000000000E+00 
    0.0000000000000000E+00     1.0000000000000000E+00     0.0000000000000000E+00 
    1.5624999999970249E-02     0.0000000000000000E+00     0.0000000000000000E+00 
    3.1249999999940652E-02     0.0000000000000000E+00     0.0000000000000000E+00 
    4.6874999999905617E-02     0.0000000000000000E+00     0.0000000000000000E+00 
    6.2499999999870597E-02     0.0000000000000000E+00     0.0000000000000000E+00 
    7.8124999999846401E-02     0.0000000000000000E+00     0.0000000000000000E+00 
    9.3749999999822212E-02     0.0000000000000000E+00     0.0000000000000000E+00 
    1.0937499999979799E-01     0.0000000000000000E+00     0.0000000000000000E+00 
    1.2499999999977381E-01     0.0000000000000000E+00     0.0000000000000000E+00 
    1.4062499999972811E-01     0.0000000000000000E+00     0.0000000000000000E+00 
    1.5624999999968239E-01     0.0000000000000000E+00     0.0000000000000000E+00 
    1.7187499999963671E-01     0.0000000000000000E+00     0.0000000000000000E+00 
    1.8749999999959110E-01     0.0000000000000000E+00     0.0000000000000000E+00 
    2.0312499999954539E-01     0.0000000000000000E+00     0.0000000000000000E+00 
    2.1874999999949971E-01     0.0000000000000000E+00     0.0000000000000000E+00 
    2.3437499999945391E-01     0.0000000000000000E+00     0.0000000000000000E+00 
    2.4999999999940831E-01     0.0000000000000000E+00     0.0000000000000000E+00 
    2.6562499999936218E-01     0.0000000000000000E+00     0.0000000000000000E+00 
    2.8124999999931621E-01     0.0000000000000000E+00     0.0000000000000000E+00 
    2.9687499999927008E-01     0.0000000000000000E+00     0.0000000000000000E+00 
    3.1249999999922412E-01     0.0000000000000000E+00     0.0000000000000000E+00 
    3.2812499999917810E-01     0.0000000000000000E+00     0.0000000000000000E+00 
    3.4374999999913203E-01     0.0000000000000000E+00     0.0000000000000000E+00 
    3.5937499999908601E-01     0.0000000000000000E+00     0.0000000000000000E+00 
    3.7499999999903999E-01     0.0000000000000000E+00     0.0000000000000000E+00 
    3.9062499999899403E-01     0.0000000000000000E+00     0.0000000000000000E+00 
    4.0624999999894801E-01     0.0000000000000000E+00     0.0000000000000000E+00 
    4.2187499999890188E-01     0.0000000000000000E+00     0.0000000000000000E+00 
    4.3749999999885592E-01     0.0000000000000000E+00     0.0000000000000000E+00 
    4.5312499999880979E-01     0.0000000000000000E+00     0.0000000000000000E+00 
    4.6874999999876382E-01     0.0000000000000000E+00     0.0000000000000000E+00 
    4.8437499999871780E-01     0.0000000000000000E+00     0.0000000000000000E+00 
    4.9999999999867167E-01     0.0000000000000000E+00     0.0000000000000000E+00 
    5.1562499999871325E-01     0.0000000000000000E+00     0.0000000000000000E+00 
    5.3124999999875477E-01     0.0000000000000000E+00     0.0000000000000000E+00 
    5.4687499999879630E-01     0.0000000000000000E+00     0.0000000000000000E+00 
    5.6249999999883782E-01     0.0000000000000000E+00     0.0000000000000000E+00 
    5.7812499999887934E-01     0.0000000000000000E+00     0.0000000000000000E+00 
    5.9374999999892086E-01     0.0000000000000000E+00     0.0000000000000000E+00 
    6.0937499999896239E-01     0.0000000000000000E+00     0.0000000000000000E+00 
    6.2499999999900380E-01     0.0000000000000000E+00     0.0000000000000000E+00 
    6.4062499999904521E-01     0.0000000000000000E+00     0.0000000000000000E+00 
    6.5624999999908673E-01     0.0000000000000000E+00     0.0000000000000000E+00 
    6.7187499999912825E-01     0.0000000000000000E+00     0.0000000000000000E+00 
    6.8749999999916978E-01     0.0000000000000000E+00     0.0000000000000000E+00 
    7.0312499999921130E-01     0.0000000000000000E+00     0.0000000000000000E+00 
    7.1874999999925282E-01     0.0000000000000000E+00     0.0000000000000000E+00 
    7.3437499999929434E-01     0.0000000000000000E+00     0.0000000000000000E+00 
    7.4999999999933586E-01     0.0000000000000000E+00     0.0000000000000000E+00 
    7.6562499999937739E-01     0.0000000000000000E+00     0.0000000000000000E+00 
    7.8124999999941891E-01     0.0000000000000000E+00     0.0000000000000000E+00 
    7.9687499999946043E-01     0.0000000000000000E+00     0.0000000000000000E+00 
    8.1249999999950195E-01     0.0000000000000000E+00     0.0000000000000000E+00 
    8.2812499999954348E-01     0.0000000000000000E+00     0.0000000000000000E+00 
    8.4374999999958500E-01     0.0000000000000000E+00     0.0000000000000000E+00 
    8.5937499999962652E-01     0.0000000000000000E+00     0.0000000000000000E+00 
    8.7499999999966793E-01     0.0000000000000000E+00     0.0000000000000000E+00 
    8.9062499999970934E-01     0.0000000000000000E+00     0.0000000000000000E+00 
    9.0624999999975087E-01     0.0000000000000000E+00     0.0000000000000000E+00 
    9.2187499999979239E-01     0.0000000000000000E+00     0.0000000000000000E+00 
    9.3749999999983391E-01     0.0000000000000000E+00     0.0000000000000000E+00 
    9.5312499999987543E-01     0.0000000000000000E+00     0.0000000000000000E+00 
    9.6874999999991696E-01     0.0000000000000000E+00     0.0000000000000000E+00 
    9.8437499999995848E-01     0.0000000000000000E+00     0.0000000000000000E+00 
    1.0000000000000000E+00     1.5624999999970249E-02     0.0000000000000000E+00 
    1.0000000000000000E+00     3.1249999999940652E-02     0.0000000000000000E+00 
    1.0000000000000000E+00     4.6874999999905617E-02     0.0000000000000000E+00 
    1.0000000000000000E+00     6.2499999999870597E-02     0.0000000000000000E+00 
    1.0000000000000000E+00     7.8124999999846401E-02     0.0000000000000000E+00 
    1.0000000000000000E+00     9.3749999999822212E-02     0.0000000000000000E+00 
    1.0000000000000000E+00     1.0937499999979799E-01     0.0000000000000000E+00 
    1.0000000000000000E+00     1.2499999999977381E-01     0.0000000000000000E+00 
    1.0000000000000000E+00     1.4062499999972811E-01     0.0000000000000000E+00 
    1.0000000000000000E+00     1.5624999999968239E-01     0.0000000000000000E+00 
    1.0000000000000000E+00     1.7187499999963671E-01     0.0000000000000000E+00 
    1.0000000000000000E+00     1.8749999999959110E-01     0.0000000000000000E+00 
    1.0000000000000000E+00     2.0312499999954539E-01     0.0000000000000000E+00 
    1.0000000000000000E+00     2.1874999999949971E-01     0.0000000000000000E+00 
    1.0000000000000000E+00     2.3437499999945391E-01     0.0000000000000000E+00 
    1.0000000000000000E+00     2.4999999999940831E-01     0.0000000000000000E+00 
    1.0000000000000000E+00     2.6562499999936218E-01     0.0000000000000000E+00 
    1.0000000000000000E+00     2.8124999999931621E-01     0.0000000000000000E+00 
    1.0000000000000000E+00     2.9687499999927008E-01     0.0000000000000000E+00 
    1.0000000000000000E+00     3.1249999999922412E-01     0.0000000000000000E+00 
    1.0000000000000000E+00     3.2812499999917810E-01     0.0000000000000000E+00 
    1.0000000000000000E+00     3.4374999999913203E-01     0.0000000000000000E+00 
    1.0000000000000000E+00     3.5937499999908601E-01     0.0000000000000000E+00 
    1.0000000000000000E+00     3.7499999999903999E-01     0.0000000000000000E+00 
    1.0000000000000000E+00     3.9062499999899403E-01     0.0000000000000000E+00 
    1.0000000000000000E+00     4.0624999999894801E-01     0.0000000000000000E+00 
    1.0000000000000000E+00     4.2187499999890188E-01     0.0000000000000000E+00 
    1.0000000000000000E+00     4.3749999999885592E-01     0.0000000000000000E+00 
    1.0000000000000000E+00     4.5312499999880979E-01     0.0000000000000000E+00 
    1.0000000000000000E+00     4.6874999999876382E-01     0.0000000000000000E+00 
    1.0000000000000000E+00     4.8437499999871780E-01     0.0000000000000000E+00 
    1.0000000000000000E+00     4.9999999999867167E-01     0.0000000000000000E+00 
    1.0000000000000000E+00     5.1562499999871325E-01     0.0000000000000000E+00 
    1.0000000000000000E+00     5.3124999999875477E-01     0.0000000000000000E+00 
    1.0000000000000000E+00     5.4687499999879630E-01     0.0000000000000000E+00 
    1.0000000000000000E+00     5.6249999999883782E-01     0.0000000000000000E+00 
    1.0000000000000000E+00     5.7812499999887934E-01     0.0000000000000000E+00 
    1.0000000000000000E+00     5.9374999999892086E-01     0.0000000000000000E+00 
    1.0000000000000000E+00     6.0937499999896239E-01     0.0000000000000000E+00 
    1.0000000000000000E+00     6.2499999999900380E-01     0.0000000000000000E+00 
    1.0000000000000000E+00     6.4062499999904521E-01     0.0000000000000000E+00 
    1.0000000000000000E+00     6.5624999999908673E-01     0.0000000000000000E+00 
    1.0000000000000000E+00     6.7187499999912825E-01     0.0000000000000000E+00 
    1.0000000000000000E+00     6.8749999999916978E-01     0.0000000000000000E+00 
    1.0000000000000000E+00     7.0312499999921130E-01     0.0000000000000000E+00 
    1.0000000000000000E+00     7.1874999999925282E-01     0.0000000000000000E+00 
    1.0000000000000000E+00     7.3437499999929434E-01     0.0000000000000000E+00 
    1.0000000000000000E+00     7.4999999999933586E-01     0.0000000000000000E+00 
    1.0000000000000000E+00     7.6562499999937739E-01     0.0000000000000000E+00 
    1.0000000000000000E+00     7.8124999999941891E-01     0.0000000000000000E+00 
    1.0000000000000000E+00     7.9687499999946043E-01     0.0000000000000000E+00 
    1.0000000000000000E+00     8.1249999999950195E-01     0.0000000000000000E+00 
    1.0000000000000000E+00     8.2812499999954348E-01     0.0000000000000000E+00 
[...]
CELL_DATA 6144 
SCALARS Pressure double 1 
LOOKUP_TABLE default 

    2.6065661835454215E+00 
    2.5091998836433507E+00 
    2.4938939898185271E+00 
    2.5129720853647437E+00 
    2.4543627437931392E+00 
    2.4194024763735582E+00 
    2.4349055031916986E+00 
    2.4662233832624363E+00 
    2.4545249853596620E+00 
    2.4645326705482891E+00 
    2.4371353216467626E+00 
    2.4193205904247401E+00 
    2.4019397222998737E+00 
    2.4167854934177182E+00 
    2.4009681873209812E+00 
    2.3908699102885484E+00 
    2.4180533469162437E+00 
    2.4030471481282909E+00 
    2.3915660379678831E+00 
    2.4023665038438429E+00 
    2.3805232749057885E+00 
    2.3916091845836944E+00 
    2.3817224672450528E+00 
    2.3690994400507961E+00 
    2.3802806433939927E+00 
    2.3772130378964977E+00 
    2.3634967094944987E+00 
    2.3609972756973092E+00 
    2.3700177992854821E+00 
    2.3592244278905063E+00 
    2.3509435133049372E+00 
    2.3591794290344277E+00 
    2.3447039491472528E+00 
    2.3517209909742589E+00 
    2.3421338904381455E+00 
    2.3300994462690632E+00 
    2.3215413005699586E+00 
    2.3333533432783349E+00 
    2.3262856913120404E+00 
    2.3168727005851584E+00 
    2.3407528705892577E+00 
    2.3450979137696364E+00 
    2.3317625106248396E+00 
    2.3309432510943933E+00 
    2.3127896570151134E+00 
    2.3220732885399427E+00 
    2.3202621226084532E+00 
    2.3078315291895835E+00 
    2.3067273532613037E+00 
    2.3059584539964111E+00 
    2.2956173716403927E+00 
    2.2929272697972984E+00 
    2.3027556981163899E+00 
    2.2970437130281072E+00 
    2.2885600689159995E+00 
    2.2933184365093386E+00 
    2.2807893305412374E+00 
    2.2868743471875339E+00 
    2.2794479950038280E+00 
    2.2690349193554775E+00 
    2.2625857063287085E+00 
    2.2728370559709283E+00 
    2.2679413351014994E+00 
    2.2597904898693031E+00 
    2.2806449122782668E+00 
    2.2866962458892837E+00 
    2.2752469091980387E+00 
    2.2728049787512261E+00 
    2.2572611506489131E+00 
    2.2654311446753752E+00 
    2.2650539564754730E+00 
    2.2541275629683022E+00 
    2.2517012533074046E+00 
    2.2512045049038756E+00 
    2.2433918071015588E+00 
    2.2421539715837007E+00 
    2.2490103062200228E+00 
    2.2447803393545329E+00 
    2.2379962137715910E+00 
    2.2423467359238294E+00 
    2.2343088766985413E+00 
    2.2376352720923296E+00 
    2.2328271927622341E+00 
    2.2282325446138480E+00 
    2.2250378413199305E+00 
    2.2294372580378696E+00 
    2.2270568263474484E+00 
    2.2236016782832895E+00 
    2.2336888436292290E+00 
    2.2375589820816413E+00 
    2.2309882690520157E+00 
    2.2300271982079285E+00 
    2.2220680993376836E+00 
    2.2262002443605660E+00 
    2.2257959859580319E+00 
    2.2206623890241195E+00 
    2.2198990477701570E+00 
    2.2195866613532385E+00 
    2.2158759988821939E+00 
    2.2149894448222507E+00 
    2.2185847291683563E+00 
    2.2168268878838981E+00 
    2.2134762472845368E+00 
    2.2151863764235533E+00 
    2.2103800714933706E+00 
    2.2127641759963055E+00 
    2.2100183017849293E+00 
    2.2057056709842748E+00 
    2.2028832875584836E+00 
    2.2074192163141104E+00 
    2.2055077138999772E+00 
    2.2017353606183949E+00 
    2.2106873103247269E+00 
    2.2131365829542915E+00 
    2.2088174537224474E+00 
    2.2075870687421402E+00 
    2.2008070783768678E+00 
    2.2044780255948795E+00 
    2.2046662138236819E+00 
    2.1996586610249622E+00 
    2.1971745280140760E+00 
    2.1972092235476204E+00 
    2.1926650816064144E+00 
    2.1911006724776745E+00 
    2.1963171033621234E+00 
    2.1944663558585140E+00 
    2.1899618074161786E+00 
    2.1917137128430184E+00 
    2.1853270960049720E+00 
    2.1885449992881822E+00 
    2.1850119663046086E+00 
    2.1791276175965981E+00 
    2.1753612623495528E+00 
    2.1816952480538845E+00 
    2.1793401704795188E+00 
    2.1739703863081368E+00 
    2.1863307723240761E+00 
    2.1902400320713604E+00 
    2.1844585274886681E+00 
    2.1823412777534958E+00 
    2.1729556881680359E+00 
    2.1781227381162815E+00 
    2.1787376739449491E+00 
    2.1718456881638062E+00 
    2.1676457875286816E+00 
    2.1677148166743638E+00 
    2.1615129297547977E+00 
    2.1595315079607524E+00 
    2.1667094774269389E+00 
    2.1646167176379136E+00 
    2.1583468370387382E+00 
    2.1605440416325479E+00 
    2.1519811694542494E+00 
    2.1562089754148297E+00 
    2.1517272420483837E+00 
    2.1442655884850477E+00 
    2.1399255949807765E+00 
    2.1477709678300561E+00 
    2.1449522906855254E+00 
    2.1385562069344597E+00 
    2.1539241935682578E+00 
    2.1592912387223810E+00 
    2.1519003627990956E+00 
    2.1490070978938869E+00 
    2.1375767915949355E+00 
    2.1438410353345927E+00 
    2.1448300426631093E+00 
    2.1366390141243734E+00 
    2.1314170072043992E+00 
    2.1314915751694046E+00 
    2.1249328625639010E+00 
    2.1231633648013699E+00 
    2.1304889535918998E+00 
    2.1282122022128633E+00 
    2.1212839852572776E+00 
    2.1241049628339281E+00 
    2.1155685744398678E+00 
    2.1196280196402340E+00 
    2.1152157908874658E+00 
    2.1086011820799100E+00 
    2.1047383793154730E+00 
    2.1114834159408229E+00 
    2.1084291802689639E+00 
    2.1031532935700126E+00 
    2.1170570361847014E+00 
    2.1224731913040240E+00 
    2.1149451910899155E+00 
    2.1124372538435612E+00 
    2.1020892782625471E+00 
    2.1075047709006185E+00 
    2.1083430797068439E+00 
    2.1014089997544287E+00 
    2.0979819062036671E+00 
    2.0978255224941607E+00 
    2.0929855203245080E+00 
    2.0919333014016552E+00 
    2.0969372590446551E+00 
    2.0950751822591052E+00 
    2.0899776004438992E+00 
    2.0924040749075972E+00 
    2.0863987949537726E+00 
    2.0891663187973197E+00 
    2.0859062179895385E+00 
    2.0814813945508446E+00 
    2.0787618276007733E+00 
    2.0832516225833348E+00 
    2.0812710084630917E+00 
    2.0776664205934212E+00 
    2.0869894433039948E+00 
    2.0906540606154329E+00 
    2.0854244306248408E+00 
    2.0838430971907744E+00 
    2.0768106036091196E+00 
    2.0805610138582913E+00 
    2.0808797210079240E+00 
    2.0760653727976353E+00 
    2.0738388614936900E+00 
    2.0736966411281834E+00 
    2.0700953748956410E+00 
    2.0692677653768952E+00 
    2.0730112961020541E+00 
    2.0716460801977639E+00 
    2.0680616277017831E+00 
    2.0696649247474461E+00 
    2.0651159014762359E+00 
    2.0672707754621422E+00 
    2.0648468912151179E+00 
    2.0612356240728786E+00 
    2.0590420757325445E+00 
    2.0627447988738239E+00 
    2.0612448462074853E+00 
    2.0582124593405537E+00 
    2.0656948033657816E+00 
    2.0683888062183433E+00 
    2.0644839538022852E+00 
    2.0632327201291574E+00 
    2.0575808095501293E+00 
    2.0606642089435181E+00 
    2.0609458392252500E+00 
    2.0569307980644957E+00 
    2.0548999539523680E+00 
    2.0548209436802725E+00 
    2.0516749409302162E+00 
    2.0509352298472345E+00 
    2.0542512106215649E+00 
    2.0530223319337031E+00 
    2.0498940831345380E+00 
    2.0512726706112741E+00 
    2.0473969549074402E+00 
    2.0492192272041234E+00 
    2.0471898960070667E+00 
    2.0441810864290253E+00 
    2.0423054682799466E+00 
    2.0453699196704704E+00 
    2.0438132584086537E+00 
    2.0413435961630251E+00 
    2.0478154062577274E+00 
    2.0501188502244334E+00 
    2.0465130910576961E+00 
    2.0455196881521620E+00 
    2.0406492865422377E+00 
    2.0431669986123131E+00 
    2.0433292666445340E+00 
    2.0399597180626081E+00 
    2.0389432686275519E+00 
    2.0387498315205810E+00 
    2.0363948014404119E+00 
    2.0358911707684437E+00 
    2.0381545588594694E+00 
    2.0369999364104765E+00 
    2.0347863829279986E+00 
    2.0359888012161136E+00 
    2.0331436019130740E+00 
    2.0344863229446473E+00 
    2.0327798411167839E+00 
    2.0305413088325355E+00 
    2.0290429065494724E+00 
    2.0312945542504011E+00 
    2.0301835111663027E+00 
    2.0283061927671580E+00 
    2.0330576047876923E+00 
    2.0345520515350102E+00 
    2.0317849476696495E+00 
    2.0312642541554737E+00 
    2.0275591833370372E+00 
    2.0295045531576812E+00 
    2.0293188293383029E+00 
    2.0265887797866196E+00 
    2.0263557045030924E+00 
    2.0261885301043834E+00 
    2.0241710035954128E+00 
    2.0236579697004315E+00 
    2.0255221191274044E+00 
    2.0243077676841676E+00 
    2.0226013854155931E+00 
    2.0236097897637171E+00 
    2.0211942071824689E+00 
    2.0223838742097722E+00 
    2.0208520658719924E+00 
    2.0187291624824577E+00 
    2.0172320790784783E+00 
    2.0194237849700740E+00 
    2.0182113674013036E+00 
    2.0163681268980520E+00 
    2.0209341361955935E+00 
    2.0220377100936906E+00 
    2.0195290248690161E+00 
    2.0191613757211995E+00 
    2.0156381691978926E+00 
    2.0174287447406920E+00 
    2.0172048853642095E+00 
    2.0146454774791609E+00 
    2.0144341123923786E+00 
    2.0143044840237874E+00 
    2.0121169031318518E+00 
    2.0114351783759736E+00 
    2.0136585324864247E+00 
    2.0124249045073932E+00 
    2.0104594936532663E+00 
    2.0115586607389675E+00 
    2.0083913165271801E+00 
    2.0099547664701611E+00 
    2.0080833517699750E+00 
    2.0054312321777750E+00 
    2.0038036368400682E+00 
    2.0064116912342507E+00 
    2.0051582486615138E+00 
    2.0030335945957969E+00 
    2.0085071901640394E+00 
    2.0100512021413559E+00 
    2.0071215386254089E+00 
    2.0064125351228532E+00 
    2.0023306287138860E+00 
    2.0044421306827718E+00 
    2.0042959789879902E+00 
    2.0013482910264022E+00 
    2.0008589635283642E+00 
    2.0007023590226876E+00 
    1.9985733998514790E+00 
    1.9980977844686474E+00 
    2.0000718627631122E+00 
    1.9988512276349091E+00 
    1.9970907175850465E+00 
    1.9980985833371772E+00 
    1.9957965333218761E+00 
    1.9968902640694866E+00 
    1.9955140360440440E+00 
    1.9937609786874739E+00 
    1.9926119011806482E+00 
    1.9942472335915935E+00 
    1.9931029464299701E+00 
    1.9918202341572677E+00 
    1.9955011352677776E+00 
    1.9965546138315835E+00 
    1.9940963841668755E+00 
    1.9938771141526248E+00 
    1.9910774383970338E+00 
    1.9924172243827765E+00 
    1.9920531671106934E+00 
    1.9900963199156758E+00 
    1.9908578562478390E+00 
    1.9905551576855391E+00 
    1.9895271161115786E+00 
    1.9894996573799781E+00 
    1.9899355577575026E+00 
    1.9888924903648435E+00 
    1.9884231671867656E+00 
    1.9891767722082980E+00 
    1.9885556419204971E+00 
    1.9888087559632612E+00 
    1.9881612700755298E+00 
    1.9879761629748562E+00 
    1.9877763912729727E+00 
    1.9876160972791939E+00 
    1.9870343827791004E+00 
    1.9872632478880725E+00 
    1.9875395676136123E+00 
    1.9873535607514776E+00 
    1.9862416638679068E+00 
    1.9868265996344769E+00 
    1.9864489318275280E+00 
    1.9864470601932351E+00 
    1.9856044229603365E+00 
    1.9853257641528059E+00 
    2.3815497585132759E+00 
    2.3632093267920991E+00 
    2.3643245630056837E+00 
    2.3777129472056679E+00 
    2.3476012280587417E+00 
    2.3337795602063500E+00 
    2.3448389458515444E+00 
    2.3531267973289598E+00 
    2.3708765198081685E+00 
    2.3604370869607325E+00 
    2.3525063623570204E+00 
    2.3601009512749074E+00 
    2.3462359185732411E+00 
    2.3432018061416291E+00 
    2.3335528710982301E+00 
    2.3333323718329115E+00 
    2.3361401717048969E+00 
    2.3249888209172629E+00 
    2.3196858218240539E+00 
    2.3283676767807338E+00 
    2.3222905709745305E+00 
    2.3243051870082758E+00 
    2.3151581045200680E+00 
    2.3100725933056796E+00 
    2.3399466806680054E+00 
    2.3296170436943116E+00 
    2.3236808592726566E+00 
    2.3288018866392508E+00 
    2.3195328577811636E+00 
    2.3079410189499949E+00 
    2.3083773594849517E+00 
    2.3168556604527719E+00 
    2.3183778871097513E+00 
    2.3165398017748999E+00 
    2.3078682010466181E+00 
    2.3065011533986892E+00 
    2.2953749878323002E+00 
    2.2988541799174169E+00 
    2.2908121681743019E+00 
    2.2865235837929014E+00 
    2.2993041345937031E+00 
    2.2967987247333825E+00 
    2.2874480812606182E+00 
    2.2909634652026907E+00 
    2.2790695174467519E+00 
    2.2846642401352102E+00 
    2.2794878705976744E+00 
    2.2708208018516149E+00 
    2.2861262757530540E+00 
    2.2799599867405775E+00 
    2.2728961681476814E+00 
    2.2750447958970721E+00 
    2.2731502804859041E+00 
    2.2643687531776884E+00 
    2.2608163276919910E+00 
    2.2677632041248175E+00 
    2.2651370259319141E+00 
    2.2655448454659122E+00 
    2.2576656605190268E+00 
    2.2541897577660688E+00 
    2.2451021705607053E+00 
    2.2500654952008596E+00 
    2.2432712038904818E+00 
    2.2386420467157042E+00 
    2.2526648363861890E+00 
    2.2533387864339667E+00 
    2.2427396243517501E+00 
    2.2447130857767892E+00 
    2.2333027685395894E+00 
    2.2386612459430948E+00 
    2.2345992881999308E+00 
    2.2277932083562435E+00 
    2.2378311792086665E+00 
    2.2336004330176631E+00 
    2.2294538810678919E+00 
    2.2315565398756441E+00 
    2.2292675764779220E+00 
    2.2241716727435308E+00 
    2.2224052837018822E+00 
    2.2274761422733649E+00 
    2.2256696671424301E+00 
    2.2259051887795476E+00 
    2.2216569636975172E+00 
    2.2205113510059222E+00 
    2.2163907260799531E+00 
    2.2179187655436676E+00 
    2.2146510271321582E+00 
    2.2131055393012309E+00 
    2.2188081561560646E+00 
    2.2185023365330458E+00 
    2.2138523996345816E+00 
    2.2152601702520509E+00 
    2.2100460990268593E+00 
    2.2123975338307051E+00 
    2.2103094388463425E+00 
    2.2069068185799372E+00 
    2.2130197040492292E+00 
    2.2107442416847696E+00 
    2.2081727547732224E+00 
    2.2088679663021993E+00 
    2.2081064160822290E+00 
    2.2047405843992713E+00 
    2.2035987864875128E+00 
    2.2061192910863565E+00 
    2.2050550530483846E+00 
    2.2053865254879392E+00 
    2.2023465787242871E+00 
    2.2004718827514864E+00 
    2.1963391707379682E+00 
    2.1990737425307003E+00 
    2.1961277291948349E+00 
    2.1932735507839500E+00 
    2.2002509474032652E+00 
    2.2004784802866855E+00 
    2.1963593577060205E+00 
    2.1968390915317388E+00 
    2.1907863349579593E+00 
    2.1938309387400410E+00 
    2.1924677491290518E+00 
    2.1878994250423802E+00 
    2.1911207759065729E+00 
    2.1894005209787628E+00 
    2.1852830509916537E+00 
    2.1852151935208219E+00 
    2.1870861340823256E+00 
    2.1838069213578732E+00 
    2.1806005786306795E+00 
    2.1832817720448929E+00 
    2.1799019468112890E+00 
    2.1812622186032908E+00 
    2.1773456088759651E+00 
    2.1736030974041221E+00 
    2.1684277208200151E+00 
    2.1733824731589824E+00 
    2.1699816446156639E+00 
    2.1653145890547871E+00 
    2.1764922760010581E+00 
    2.1787858075430986E+00 
    2.1729235137392324E+00 
    2.1721415416699990E+00 
    2.1629814919193198E+00 
    2.1678783442274998E+00 
    2.1672546038496874E+00 
    2.1605149255256380E+00 
    2.1611066973964985E+00 
    2.1595552048445144E+00 
    2.1538521849335681E+00 
    2.1533898200588313E+00 
    2.1572732432007613E+00 
    2.1538718741794294E+00 
    2.1486167949088539E+00 
    2.1519562329117679E+00 
    2.1466009275948092E+00 
    2.1487374702264184E+00 
    2.1439323760488609E+00 
    2.1389814625895345E+00 
    2.1330287987734984E+00 
    2.1393401141085957E+00 
    2.1355000648364597E+00 
    2.1297622569766892E+00 
    2.1439166560918568E+00 
    2.1479099922975067E+00 
    2.1404573229664141E+00 
    2.1388008773048082E+00 
    2.1274265241357475E+00 
    2.1335365190786244E+00 
    2.1334002463042796E+00 
    2.1252565598548032E+00 
    2.1247016793991738E+00 
    2.1231007043382126E+00 
    2.1168235502659098E+00 
    2.1165454684348926E+00 
    2.1208307199319432E+00 
    2.1173987693067540E+00 
    2.1114791115377889E+00 
    2.1152747140715609E+00 
    2.1097895956280008E+00 
    2.1118063020135742E+00 
    2.1069648365818838E+00 
    2.1028920827925139E+00 
    2.0977326047335061E+00 
    2.1026364720599582E+00 
    2.0989851567414926E+00 
    2.0947268943640491E+00 
    2.1069248024250400E+00 
    2.1111380152427031E+00 
    2.1036417149732758E+00 
    2.1021975964714117E+00 
    2.0925029926460312E+00 
    2.0974688556863508E+00 
    2.0972974838975618E+00 
    2.0908708639209079E+00 
    2.0919866621464185E+00 
    2.0902997809695480E+00 
    2.0861659558114356E+00 
    2.0863826914137484E+00 
    2.0882756087067413E+00 
    2.0854493784142134E+00 
    2.0816844460686212E+00 
    2.0849290266421412E+00 
    2.0816017289005448E+00 
    2.0827024833789363E+00 
    2.0791922238845069E+00 
    2.0768401779459555E+00 
    2.0731861640864295E+00 
    2.0760610758516043E+00 
    2.0735816218114649E+00 
    2.0709511689962175E+00 
    2.0784741721291109E+00 
    2.0807765026400937E+00 
    2.0758597876440477E+00 
    2.0753358675003768E+00 
    2.0691306652821311E+00 
    2.0723352548201168E+00 
    2.0717813216785324E+00 
    2.0675221771006744E+00 
    2.0691898686883907E+00 
    2.0678747548175158E+00 
    2.0649737718689676E+00 
    2.0651147341317806E+00 
    2.0662425091457641E+00 
    2.0639712445581408E+00 
    2.0615637628960384E+00 
    2.0638478471368367E+00 
    2.0615697864840219E+00 
    2.0623939946397876E+00 
    2.0596949736387189E+00 
    2.0576822976376516E+00 
    2.0545055398330492E+00 
    2.0569997490166241E+00 
    2.0547730315699266E+00 
    2.0523842323984129E+00 
    2.0587859421404788E+00 
    2.0603192696789669E+00 
    2.0563426883551927E+00 
    2.0559907344250865E+00 
    2.0506073711538546E+00 
    2.0533730021578931E+00 
    2.0527237108572751E+00 
    2.0486778542276789E+00 
    2.0507893100063845E+00 
    2.0495825833369130E+00 
    2.0467920289804211E+00 
    2.0469492843211579E+00 
    2.0478455838437162E+00 
    2.0453112096023487E+00 
    2.0432300933368110E+00 
    2.0454908559320018E+00 
    2.0436969975684032E+00 
    2.0442186148292727E+00 
    2.0416824320161080E+00 
    2.0402597072738891E+00 
    2.0374279189127589E+00 
    2.0392364486184822E+00 
    2.0370882900944527E+00 
    2.0352963770338861E+00 
    2.0405507287188733E+00 
    2.0416523487688623E+00 
    2.0379179542194517E+00 
    2.0379601600516204E+00 
    2.0334155595235579E+00 
    2.0356547536349416E+00 
    2.0347034844546781E+00 
    2.0313378601248226E+00 
    2.0346594697524267E+00 
    2.0331981208200096E+00 
    2.0311889771239153E+00 
    2.0317352278633152E+00 
    2.0314086271745850E+00 
    2.0289367729104657E+00 
    2.0278686867692977E+00 
    2.0298715732377572E+00 
    2.0292232957897882E+00 
    2.0292526417052175E+00 
    2.0270905520167517E+00 
    2.0263849358674153E+00 
    2.0238196257065328E+00 
    2.0247830679026286E+00 
    2.0227094646306232E+00 
    2.0215837111968833E+00 
    2.0253319268560972E+00 
    2.0255606513084605E+00 
    2.0223822777670502E+00 
    2.0229824127754359E+00 
    2.0195220943502341E+00 
    2.0211043956161645E+00 
    2.0197601174476754E+00 
    2.0170910232681609E+00 
    2.0217336515408721E+00 
    2.0201185270978135E+00 
    2.0185129543094158E+00 
    2.0192010285740531E+00 
    2.0181537146620325E+00 
    2.0155273270455392E+00 
    2.0150990698488460E+00 
    2.0170096678368257E+00 
    2.0169540982350718E+00 
    2.0167061348510122E+00 
    2.0147356609157971E+00 
    2.0143522682953185E+00 
    2.0118465251350077E+00 
    2.0125904112394113E+00 
    2.0105750878185851E+00 
    2.0095608364795612E+00 
    2.0127470313999503E+00 
    2.0123668016302765E+00 
    2.0096678704245541E+00 
    2.0105565792195699E+00 
    2.0074922687916881E+00 
    2.0088650870949381E+00 
    2.0073558323429048E+00 
    2.0049785103978319E+00 
    2.0097601577070900E+00 
    2.0081094222978120E+00 
    2.0064487028404261E+00 
    2.0070334070367948E+00 
    2.0061812209705137E+00 
    2.0036378792686151E+00 
    2.0031627131288374E+00 
    2.0050056050228608E+00 
    2.0043455151406491E+00 
    2.0044937049988598E+00 
    2.0022746546052530E+00 
    2.0012776711407154E+00 
    1.9986043347036013E+00 
    1.9998970153890290E+00 
    1.9977860609890785E+00 