# vtk DataFile Version 2.0
Pressure Field Data 
ASCII 
DATASET UNSTRUCTURED_GRID 

POINTS 6273 double 

    0.0000000000000000E+00     0.0000000000000000E+00     0.0000000000000000E+00 
    1.0000000000000000E+00     0.0000000000000000E+00     0.0000000000000000E+00 
    1.0000000000000000E+00     1.0000000000000000E+00     0.0000000000000000E+00 
    0.0000000000000000E+00     1.0000000000000000E+00     0.0000000000000000E+00 
    1.5624999999970249E-02     0.0000000000000000E+00     0.0000000000000000E+00 
    3.1249999999940652E-02     0.0000000000000000E+00     0.0000000000000000E+00 
    4.6874999999905617E-02     0.0000000000000000E+00     0.0000000000000000E+00 
    6.2499999999870597E-02     0.0000000000000000E+00     0.0000000000000000E+00 
    7.8124999999846401E-02     0.0000000000000000E+00     0.0000000000000000E+00 
    9.3749999999822212E-02     0.0000000000000000E+00     0.0000000000000000E+00 
    1.0937499999979799E-01     0.0000000000000000E+00     0.0000000000000000E+00 
    1.2499999999977381E-01     0.0000000000000000E+00     0.0000000000000000E+00 
    1.4062499999972811E-01     0.0000000000000000E+00     0.0000000000000000E+00 
    1.5624999999968239E-01     0.0000000000000000E+00     0.0000000000000000E+00 
    1.7187499999963671E-01     0.0000000000000000E+00     0.0000000000000000E+00 
    1.8749999999959110E-01     0.0000000000000000E+00     0.0000000000000000E+00 
    2.0312499999954539E-01     0.0000000000000000E+00     0.0000000000000000E+00 
    2.1874999999949971E-01     0.0000000000000000E+00     0.0000000000000000E+00 
    2.3437499999945391E-01     0.0000000000000000E+00     0.0000000000000000E+00 
    2.4999999999940831E-01     0.0000000000000000E+00     0.0000000000000000E+00 
    2.6562499999936218E-01     0.0000000000000000E+00     0.0000000000000000E+00 
    2.8124999999931621E-01     0.0000000000000000E+00     0.0000000000000000E+00 
    2.9687499999927008E-01     0.0000000000000000E+00     0.0000000000000000E+00 
    3.1249999999922412E-01     0.0000000000000000E+00     0.0000000000000000E+00 
    3.2812499999917810E-01     0.0000000000000000E+00     0.0000000000000000E+00 
    3.4374999999913203E-01     0.0000000000000000E+00     0.0000000000000000E+00 
    3.5937499999908601E-01     0.0000000000000000E+00     0.0000000000000000E+00 
    3.7499999999903999E-01     0.0000000000000000E+00     0.0000000000000000E+00 
    3.9062499999899403E-01     0.0000000000000000E+00     0.0000000000000000E+00 
    4.0624999999894801E-01     0.0000000000000000E+00     0.0000000000000000E+00 
    4.2187499999890188E-01     0.0000000000000000E+00     0.0000000000000000E+00 
    4.3749999999885592E-01     0.0000000000000000E+00     0.0000000000000000E+00 
    4.5312499999880979E-01     0.0000000000000000E+00     0.0000000000000000E+00 
    4.6874999999876382E-01     0.0000000000000000E+00     0.0000000000000000E+00 
    4.8437499999871780E-01     0.0000000000000000E+00     0.0000000000000000E+00 
    4.9999999999867167E-01     0.0000000000000000E+00     0.0000000000000000E+00 
    5.1562499999871325E-01     0.0000000000000000E+00     0.0000000000000000E+00 
    5.3124999999875477E-01     0.0000000000000000E+00     0.0000000000000000E+00 
    5.4687499999879630E-01     0.0000000000000000E+00     0.0000000000000000E+00 
    5.6249999999883782E-01     0.0000000000000000E+00     0.0000000000000000E+00 
    5.7812499999887934E-01     0.0000000000000000E+00     0.0000000000000000E+00 
    5.9374999999892086E-01     0.0000000000000000E+00     0.0000000000000000E+00 
    6.0937499999896239E-01     0.0000000000000000E+00     0.0000000000000000E+00 
    6.2499999999900380E-01     0.0000000000000000E+00     0.0000000000000000E+00 
    6.4062499999904521E-01     0.0000000000000000E+00     0.0000000000000000E+00 
    6.5624999999908673E-01     0.0000000000000000E+00     0.0000000000000000E+00 
    6.7187499999912825E-01     0.0000000000000000E+00     0.0000000000000000E+00 
    6.8749999999916978E-01     0.0000000000000000E+00     0.0000000000000000E+00 
    7.0312499999921130E-01     0.0000000000000000E+00     0.0000000000000000E+00 
    7.1874999999925282E-01     0.0000000000000000E+00     0.0000000000000000E+00 
    7.3437499999929434E-01     0.0000000000000000E+00     0.0000000000000000E+00 
    7.4999999999933586E-01     0.0000000000000000E+00     0.0000000000000000E+00 
    7.6562499999937739E-01     0.0000000000000000E+00     0.0000000000000000E+00 
    7.8124999999941891E-01     0.0000000000000000E+00     0.0000000000000000E+00 
    7.9687499999946043E-01     0.0000000000000000E+00     0.0000000000000000E+00 
    8.1249999999950195E-01     0.0000000000000000E+00     0.0000000000000000E+00 
    8.2812499999954348E-01     0.0000000000000000E+00     0.0000000000000000E+00 
    8.4374999999958500E-01     0.0000000000000000E+00     0.0000000000000000E+00 
    8.5937499999962652E-01     0.0000000000000000E+00     0.0000000000000000E+00 
    8.7499999999966793E-01     0.0000000000000000E+00     0.0000000000000000E+00 
    8.9062499999970934E-01     0.0000000000000000E+00     0.0000000000000000E+00 
    9.0624999999975087E-01     0.0000000000000000E+00     0.0000000000000000E+00 
    9.2187499999979239E-01     0.0000000000000000E+00     0.0000000000000000E+00 
    9.3749999999983391E-01     0.0000000000000000E+00     0.0000000000000000E+00 
    9.5312499999987543E-01     0.0000000000000000E+00     0.0000000000000000E+00 
    9.6874999999991696E-01     0.0000000000000000E+00     0.0000000000000000E+00 
    9.8437499999995848E-01     0.0000000000000000E+00     0.0000000000000000E+00 
    1.0000000000000000E+00     1.5624999999970249E-02     0.0000000000000000E+00 
    1.0000000000000000E+00     3.1249999999940652E-02     0.0000000000000000E+00 
    1.0000000000000000E+00     4.6874999999905617E-02     0.0000000000000000E+00 
    1.0000000000000000E+00     6.2499999999870597E-02     0.0000000000000000E+00 
    1.0000000000000000E+00     7.8124999999846401E-02     0.0000000000000000E+00 
    1.0000000000000000E+00     9.3749999999822212E-02     0.0000000000000000E+00 
    1.0000000000000000E+00     1.0937499999979799E-01     0.0000000000000000E+00 
    1.0000000000000000E+00     1.2499999999977381E-01     0.0000000000000000E+00 
    1.0000000000000000E+00     1.4062499999972811E-01     0.0000000000000000E+00 
    1.0000000000000000E+00     1.5624999999968239E-01     0.0000000000000000E+00 
    1.0000000000000000E+00     1.7187499999963671E-01     0.0000000000000000E+00 
    1.0000000000000000E+00     1.8749999999959110E-01     0.0000000000000000E+00 
    1.0000000000000000E+00     2.0312499999954539E-01     0.0000000000000000E+00 
    1.0000000000000000E+00     2.1874999999949971E-01     0.0000000000000000E+00 
    1.0000000000000000E+00     2.3437499999945391E-01     0.0000000000000000E+00 
    1.0000000000000000E+00     2.4999999999940831E-01     0.0000000000000000E+00 
    1.0000000000000000E+00     2.6562499999936218E-01     0.0000000000000000E+00 
    1.0000000000000000E+00     2.8124999999931621E-01     0.0000000000000000E+00 
    1.0000000000000000E+00     2.9687499999927008E-01     0.0000000000000000E+00 
    1.0000000000000000E+00     3.1249999999922412E-01     0.0000000000000000E+00 
    1.0000000000000000E+00     3.2812499999917810E-01     0.0000000000000000E+00 
    1.0000000000000000E+00     3.4374999999913203E-01     0.0000000000000000E+00 
    1.0000000000000000E+00     3.5937499999908601E-01     0.0000000000000000E+00 
    1.0000000000000000E+00     3.7499999999903999E-01     0.0000000000000000E+00 
    1.0000000000000000E+00     3.9062499999899403E-01     0.0000000000000000E+00 
    1.0000000000000000E+00     4.0624999999894801E-01     0.0000000000000000E+00 
    1.0000000000000000E+00     4.2187499999890188E-01     0.0000000000000000E+00 
    1.0000000000000000E+00     4.3749999999885592E-01     0.0000000000000000E+00 
    1.0000000000000000E+00     4.5312499999880979E-01     0.0000000000000000E+00 
    1.0000000000000000E+00     4.6874999999876382E-01     0.0000000000000000E+00 
    1.0000000000000000E+00     4.8437499999871780E-01     0.0000000000000000E+00 
    1.0000000000000000E+00     4.9999999999867167E-01     0.0000000000000000E+00 
    1.0000000000000000E+00     5.1562499999871325E-01     0.0000000000000000E+00 
    1.0000000000000000E+00     5.3124999999875477E-01     0.0000000000000000E+00 
    1.0000000000000000E+00     5.4687499999879630E-01     0.0000000000000000E+00 
    1.0000000000000000E+00     5.6249999999883782E-01     0.0000000000000000E+00 
    1.0000000000000000E+00     5.7812499999887934E-01     0.0000000000000000E+00 
    1.0000000000000000E+00     5.9374999999892086E-01     0.0000000000000000E+00 
    1.0000000000000000E+00     6.0937499999896239E-01     0.0000000000000000E+00 
    1.0000000000000000E+00     6.2499999999900380E-01     0.0000000000000000E+00 
    1.0000000000000000E+00     6.4062499999904521E-01     0.0000000000000000E+00 
    1.0000000000000000E+00     6.5624999999908673E-01     0.0000000000000000E+00 
    1.0000000000000000E+00     6.7187499999912825E-01     0.0000000000000000E+00 
    1.0000000000000000E+00     6.8749999999916978E-01     0.0000000000000000E+00 
    1.0000000000000000E+00     7.0312499999921130E-01     0.0000000000000000E+00 
    1.0000000000000000E+00     7.1874999999925282E-01     0.0000000000000000E+00 
    1.0000000000000000E+00     7.3437499999929434E-01     0.0000000000000000E+00 
    1.0000000000000000E+00     7.4999999999933586E-01     0.0000000000000000E+00 
    1.0000000000000000E+00     7.6562499999937739E-01     0.0000000000000000E+00 
    1.0000000000000000E+00     7.8124999999941891E-01     0.0000000000000000E+00 
    1.0000000000000000E+00     7.9687499999946043E-01     0.0000000000000000E+00 
    1.0000000000000000E+00     8.1249999999950195E-01     0.0000000000000000E+00 
    1.0000000000000000E+00     8.2812499999954348E-01     0.0000000000000000E+00 
[...]
CELL_DATA 6144 
SCALARS Pressure double 1 
LOOKUP_TABLE default 

    2.7785350531815203E+00 
    2.6811428746121293E+00 
    2.6658169521711730E+00 
    2.6849164409833040E+00 
    2.6262659032219275E+00 
    2.5912138980846935E+00 
    2.6067582792194393E+00 
    2.6381567511859547E+00 
    2.6263674082892590E+00 
    2.6364283991871957E+00 
    2.6089564142856099E+00 
    2.5910343624307348E+00 
    2.5735469917895935E+00 
    2.5885302393136294E+00 
    2.5726329092353417E+00 
    2.5624313915682646E+00 
    2.5898460225936213E+00 
    2.5747742027376361E+00 
    2.5632138897003287E+00 
    2.5740683552046972E+00 
    2.5520056520327423E+00 
    2.5632189638976484E+00 
    2.5532629979162316E+00 
    2.5404669853248820E+00 
    2.5516876500281476E+00 
    2.5486051545210526E+00 
    2.5346717161368271E+00 
    2.5321151363174268E+00 
    2.5413368643613428E+00 
    2.5303980069561272E+00 
    2.5219174786176382E+00 
    2.5303024221474866E+00 
    2.5154700506300851E+00 
    2.5226772387746461E+00 
    2.5128728670535070E+00 
    2.5004787859366897E+00 
    2.4916815249930355E+00 
    2.5038880729408097E+00 
    2.4966413258709110E+00 
    2.4869177569441678E+00 
    2.5115175505272367E+00 
    2.5160076971735506E+00 
    2.5023438439586787E+00 
    2.5014637753085727E+00 
    2.4827245601710568E+00 
    2.4923339977245340E+00 
    2.4905038226273746E+00 
    2.4776385454170065E+00 
    2.4763757709565404E+00 
    2.4755894969354681E+00 
    2.4648129168547523E+00 
    2.4620223739735594E+00 
    2.4722896001761909E+00 
    2.4663865353197165E+00 
    2.4574793142151603E+00 
    2.4624506326997309E+00 
    2.4493277693498925E+00 
    2.4557088915930296E+00 
    2.4479356042390559E+00 
    2.4370174824619206E+00 
    2.4302639314709884E+00 
    2.4410232970612800E+00 
    2.4358886923065808E+00 
    2.4273372969078619E+00 
    2.4492275924687563E+00 
    2.4556115288873879E+00 
    2.4436082617675714E+00 
    2.4410203701170707E+00 
    2.4246876069640138E+00 
    2.4332868565002692E+00 
    2.4329024838814739E+00 
    2.4214402767748289E+00 
    2.4188840027869216E+00 
    2.4183337093511508E+00 
    2.4101602359845171E+00 
    2.4088760396483377E+00 
    2.4160442334114007E+00 
    2.4116558163303949E+00 
    2.4045062491977029E+00 
    2.4091152006998096E+00 
    2.4005506408030257E+00 
    2.4041122582219887E+00 
    2.3990383708292846E+00 
    2.3940296554690672E+00 
    2.3905650545509505E+00 
    2.3954294415933388E+00 
    2.3928924192512260E+00 
    2.3890438896630060E+00 
    2.4000254880072136E+00 
    2.4041484163864992E+00 
    2.3972094024769701E+00 
    2.3961039118399414E+00 
    2.3874055076626894E+00 
    2.3919338198841951E+00 
    2.3915011824291512E+00 
    2.3858285573778191E+00 
    2.3849561221445565E+00 
    2.3846213041934541E+00 
    2.3805232442271809E+00 
    2.3795385164561433E+00 
    2.3835198533282682E+00 
    2.3815722812020104E+00 
    2.3778592640266405E+00 
    2.3797727787021299E+00 
    2.3744164710415272E+00 
    2.3770658096676947E+00 
    2.3740026920670236E+00 
    2.3692293433692351E+00 
    2.3661034408829473E+00 
    2.3711248754462986E+00 
    2.3690124514773818E+00 
    2.3648328614709913E+00 
    2.3747743837287287E+00 
    2.3775015787019895E+00 
    2.3727028283327374E+00 
    2.3713399771466817E+00 
    2.3638042948221365E+00 
    2.3678917503019181E+00 
    2.3681004720286767E+00 
    2.3625432671574176E+00 
    2.3597616363533787E+00 
    2.3597956817406431E+00 
    2.3547383199287650E+00 
    2.3530215788842970E+00 
    2.3588258583767523E+00 
    2.3567926189793882E+00 
    2.3517645688258080E+00 
    2.3537210996681956E+00 
    2.3466005455108103E+00 
    2.3501856742863851E+00 
    2.3462640827159551E+00 
    2.3397300604329558E+00 
    2.3355484449145698E+00 
    2.3426078233669370E+00 
    2.3400051074192558E+00 
    2.3340119758560278E+00 
    2.3477709974708101E+00 
    2.3521157472582477E+00 
    2.3457378972901362E+00 
    2.3433678608621706E+00 
    2.3329225078403084E+00 
    2.3386901773604976E+00 
    2.3394050275931271E+00 
    2.3317494309160511E+00 
    2.3269578150470962E+00 
    2.3270245323188661E+00 
    2.3201220017144570E+00 
    2.3179698912633371E+00 
    2.3259532818084168E+00 
    2.3236851360617288E+00 
    2.3166476213788711E+00 
    2.3191186803813011E+00 
    2.3095926194313958E+00 
    2.3142741517005962E+00 
    2.3093041974751181E+00 
    2.3010679871136701E+00 
    2.2962435930702942E+00 
    2.3049417292395358E+00 
    2.3018267016695941E+00 
    2.2947078014738618E+00 
    2.3118024138221136E+00 
    2.3177997455503538E+00 
    2.3095930589480180E+00 
    2.3063644874936085E+00 
    2.2936315043907194E+00 
    2.3006209470762320E+00 
    2.3017450595787383E+00 
    2.2926293483286524E+00 
    2.2867360159055128E+00 
    2.2868277899212215E+00 
    2.2794931506784843E+00 
    2.2775128807122047E+00 
    2.2857326680304690E+00 
    2.2832337880807909E+00 
    2.2754653529049613E+00 
    2.2785927509916442E+00 
    2.2690274895733462E+00 
    2.2735707844935575E+00 
    2.2686506849989674E+00 
    2.2612385005992888E+00 
    2.2568738989292063E+00 
    2.2645041650490376E+00 
    2.2611045672548316E+00 
    2.2550557101584512E+00 
    2.2707829118232343E+00 
    2.2768801716162312E+00 
    2.2685306567863357E+00 
    2.2656483701784471E+00 
    2.2539072581772950E+00 
    2.2600897124618680E+00 
    2.2611338246116652E+00 
    2.2532349368173215E+00 
    2.2490006353984726E+00 
    2.2488570845470655E+00 
    2.2431776911823293E+00 
    2.2418816323609736E+00 
    2.2478894449461739E+00 
    2.2458264370431453E+00 
    2.2397702875948524E+00 
    2.2425403353375883E+00 
    2.2353477575755738E+00 
    2.2386709368927415E+00 
    2.2348337179211741E+00 
    2.2294818751444518E+00 
    2.2262263020760136E+00 
    2.2317179908615028E+00 
    2.2294118670473084E+00 
    2.2249869953966952E+00 
    2.2362940045573922E+00 
    2.2407647124911625E+00 
    2.2346037813023192E+00 
    2.2325790280071791E+00 
    2.2240780593755858E+00 
    2.2286570177519009E+00 
    2.2291827316424295E+00 
    2.2233432078152804E+00 
    2.2202433203594971E+00 
    2.2201241590272893E+00 
    2.2157152357335756E+00 
    2.2146877601419916E+00 
    2.2193866773713640E+00 
    2.2178415646286722E+00 
    2.2133301673655343E+00 
    2.2152623605618067E+00 
    2.2096076648782672E+00 
    2.2122736720338061E+00 
    2.2093151009287997E+00 
    2.2048574944237544E+00 
    2.2021771779206230E+00 
    2.2067717503620790E+00 
    2.2049696398298462E+00 
    2.2012053000184499E+00 
    2.2104933834112011E+00 
    2.2139488600870423E+00 
    2.2091317066728657E+00 
    2.2074893510480500E+00 
    2.2004834626888949E+00 
    2.2043221729326463E+00 
    2.2047523009114154E+00 
    2.1997805235844505E+00 
    2.1971082548016412E+00 
    2.1970237105215809E+00 
    2.1931624742813969E+00 
    2.1922649293560443E+00 
    2.1963618414138981E+00 
    2.1949153055124859E+00 
    2.1910211819763252E+00 
    2.1927154434686105E+00 
    2.1879162468867275E+00 
    2.1901679016138091E+00 
    2.1876857451428120E+00 
    2.1839625882121956E+00 
    2.1816416227124069E+00 
    2.1854676805121347E+00 
    2.1835849950177861E+00 
    2.1804890808245232E+00 
    2.1885205252940256E+00 
    2.1914183167405259E+00 
    2.1870424923024352E+00 
    2.1857437536004745E+00 
    2.1796807949928567E+00 
    2.1828337581893154E+00 
    2.1831363219513844E+00 
    2.1789313897820342E+00 
    2.1773946531153499E+00 
    2.1771947181581304E+00 
    2.1741621426816415E+00 
    2.1734714646077253E+00 
    2.1764934128164657E+00 
    2.1751089478215091E+00 
    2.1721712043944184E+00 
    2.1736574481988700E+00 
    2.1698996127060441E+00 
    2.1716862218260404E+00 
    2.1694711133726772E+00 
    2.1664626164656031E+00 
    2.1644686269141569E+00 
    2.1675509924299989E+00 
    2.1661528861957056E+00 
    2.1635769983531188E+00 
    2.1699667249581078E+00 
    2.1720585101919583E+00 
    2.1685045620951913E+00 
    2.1676770517433264E+00 
    2.1627516907060258E+00 
    2.1653818031273171E+00 
    2.1653127973363508E+00 
    2.1617510944763794E+00 
    2.1607209884649512E+00 
    2.1605933732138367E+00 
    2.1573865608832197E+00 
    2.1564790713247861E+00 
    2.1598314636083997E+00 
    2.1583893272268289E+00 
    2.1552408378851746E+00 
    2.1567530082029238E+00 
    2.1525568407475117E+00 
    2.1544912681574582E+00 
    2.1521735056757345E+00 
    2.1489785961629404E+00 
    2.1468929993058539E+00 
    2.1501478697131695E+00 
    2.1485409768831474E+00 
    2.1458222656416637E+00 
    2.1528462886518582E+00 
    2.1552823864497888E+00 
    2.1513063077751524E+00 
    2.1502661793823608E+00 
    2.1449687675351394E+00 
    2.1476715035692941E+00 
    2.1477156863723152E+00 
    2.1439116361381525E+00 
    2.1430316185712255E+00 
    2.1429297772260578E+00 
    2.1401163373397525E+00 
    2.1392945421165277E+00 
    2.1421530233895769E+00 
    2.1406161763099205E+00 
    2.1381193230556157E+00 
    2.1394199404074405E+00 
    2.1359513417361402E+00 
    2.1376465378267051E+00 
    2.1355845792348971E+00 
    2.1326147306934811E+00 
    2.1307002554700496E+00 
    2.1336735392590551E+00 
    2.1321937019935522E+00 
    2.1297280632718145E+00 
    2.1358317296076130E+00 
    2.1375894606251968E+00 
    2.1341437731330557E+00 
    2.1334831011010928E+00 
    2.1288395486415910E+00 
    2.1312734208088129E+00 
    2.1310261956394685E+00 
    2.1275937935685367E+00 
    2.1272023991605069E+00 
    2.1269932914322314E+00 
    2.1244817508410136E+00 
    2.1239173445587602E+00 
    2.1261982802956894E+00 
    2.1246892484208613E+00 
    2.1226726910165619E+00 
    2.1238746522826828E+00 
    2.1211921655786807E+00 
    2.1224744039005099E+00 
    2.1208328837157246E+00 
    2.1187674545163708E+00 
    2.1173888932544247E+00 
    2.1193051915045200E+00 
    2.1179152579904374E+00 
    2.1164084225985049E+00 
    2.1207463939375772E+00 
    2.1219273638250851E+00 
    2.1189945623418600E+00 
    2.1187894712735575E+00 
    2.1154752526787344E+00 
    2.1170486113950244E+00 
    2.1165540111623060E+00 
    2.1142226433104678E+00 
    2.1152941321365124E+00 
    2.1149156107156055E+00 
    2.1136991204147861E+00 
    2.1136639604329992E+00 
    2.1141351387348370E+00 
    2.1128298609371514E+00 
    2.1123344000452895E+00 
    2.1132407491318213E+00 
    2.1125389356938458E+00 
    2.1128314949028408E+00 
    2.1120519837744771E+00 
    2.1118309585212707E+00 
    2.1115754268283977E+00 
    2.1113760429756372E+00 
    2.1106482279903109E+00 
    2.1109279647612755E+00 
    2.1112378730387675E+00 
    2.1109445452957369E+00 
    2.1096045931554714E+00 
    2.1103570128691023E+00 
    2.1099093404468028E+00 
    2.1098960393545640E+00 
    2.1088313758041988E+00 
    2.1084906439213853E+00 
    2.5531177999851313E+00 
    2.5345415334325181E+00 
    2.5356791678042518E+00 
    2.5492376705453843E+00 
    2.5186439736334649E+00 
    2.5045039688872541E+00 
    2.5158285360892831E+00 
    2.5242922997475681E+00 
    2.5423090167315379E+00 
    2.5317333047838071E+00 
    2.5236632224793620E+00 
    2.5313620175939469E+00 
    2.5172427163861077E+00 
    2.5141661045793975E+00 
    2.5042923301329361E+00 
    2.5040568584472793E+00 
    2.5069371742017270E+00 
    2.4954973864656949E+00 
    2.4900646503133790E+00 
    2.4989812212518312E+00 
    2.4927254935174159E+00 
    2.4948057811419022E+00 
    2.4853993543970594E+00 
    2.4801404132994134E+00 
    2.5107893697686454E+00 
    2.5002289187399249E+00 
    2.4941117461170967E+00 
    2.4993437824281748E+00 
    2.4898723516539492E+00 
    2.4779141969670335E+00 
    2.4783397239826672E+00 
    2.4870898218849606E+00 
    2.4886034034971818E+00 
    2.4867421937910317E+00 
    2.4777765156602278E+00 
    2.4763124932690150E+00 
    2.4647605959576713E+00 
    2.4684274440668834E+00 
    2.4600616956513197E+00 
    2.4555500197881517E+00 
    2.4689286191609470E+00 
    2.4663545963606128E+00 
    2.4565986679269463E+00 
    2.4602400757089553E+00 
    2.4477583267999066E+00 
    2.4536440494214955E+00 
    2.4482427567998801E+00 
    2.4390922133530246E+00 
    2.4550707615471801E+00 
    2.4486454228021168E+00 
    2.4411969875379773E+00 
    2.4434254408640492E+00 
    2.4415002357457292E+00 
    2.4322370569065157E+00 
    2.4284706908210301E+00 
    2.4357989786990704E+00 
    2.4330029702520495E+00 
    2.4334465810897545E+00 
    2.4251370006809263E+00 
    2.4214987740889118E+00 
    2.4119983389660771E+00 
    2.4171530107730721E+00 
    2.4100331880635886E+00 
    2.4052770774391310E+00 
    2.4198732118090933E+00 
    2.4205725486062959E+00 
    2.4094398074758838E+00 
    2.4115620581847956E+00 
    2.3996804387014490E+00 
    2.4052545566154393E+00 
    2.4009898141261616E+00 
    2.3939124579522981E+00 
    2.4044630702385361E+00 
    2.4000384832160053E+00 
    2.3956316669686233E+00 
    2.3977827865686177E+00 
    2.3954883517626926E+00 
    2.3900661118922990E+00 
    2.3880850664017874E+00 
    2.3934360225367959E+00 
    2.3913878066857346E+00 
    2.3917235121948477E+00 
    2.3871026872033179E+00 
    2.3857155238710677E+00 
    2.3812176746817992E+00 
    2.3830178741293913E+00 
    2.3794418356581630E+00 
    2.3776337977616508E+00 
    2.3840854436204966E+00 
    2.3838542370112843E+00 
    2.3786438243500561E+00 
    2.3801424020479005E+00 
    2.3742904406256362E+00 
    2.3769530952356162E+00 
    2.3746663757757052E+00 
    2.3708107123166697E+00 
    2.3774202179036794E+00 
    2.3749348765766491E+00 
    2.3720143527329411E+00 
    2.3727833403911536E+00 
    2.3720327220150663E+00 
    2.3683003898047188E+00 
    2.3669313721182101E+00 
    2.3697651488655258E+00 
    2.3685209528877302E+00 
    2.3688953925193372E+00 
    2.3654940089806273E+00 
    2.3634131056707663E+00 
    2.3588271203763367E+00 
    2.3618665316473688E+00 
    2.3586120654723599E+00 
    2.3554616533792769E+00 
    2.3632212321733710E+00 
    2.3635376996143012E+00 
    2.3589321055254224E+00 
    2.3594479978123504E+00 
    2.3527125423701136E+00 
    2.3561029036421699E+00 
    2.3545981365050741E+00 
    2.3495211793297681E+00 
    2.3530984259575658E+00 
    2.3511972282391627E+00 
    2.3466562761442309E+00 
    2.3465911967418123E+00 
    2.3486268379973647E+00 
    2.3449733002608313E+00 
    2.3414446452693478E+00 
    2.3444448206849331E+00 
    2.3407131562886598E+00 
    2.3422143827162141E+00 
    2.3378732716708850E+00 
    2.3337374390260166E+00 
    2.3280013542237454E+00 
    2.3334725309992015E+00 
    2.3296987644776634E+00 
    2.3245411005533598E+00 
    2.3368997302074237E+00 
    2.3393960734857235E+00 
    2.3329078761015665E+00 
    2.3320777507627737E+00 
    2.3219323133903638E+00 
    2.3273491658814960E+00 
    2.3266295643424315E+00 
    2.3191614242643848E+00 
    2.3198579793436767E+00 
    2.3181524777705054E+00 
    2.3118098221837227E+00 
    2.3112784348734925E+00 
    2.3156113324334355E+00 
    2.3118110656677855E+00 
    2.3059891251793529E+00 
    2.3096936486405002E+00 
    2.3037405320353321E+00 
    2.3061255173076183E+00 
    2.3007815439558570E+00 
    2.2952598744086590E+00 
    2.2886392192577212E+00 
    2.2956650400225946E+00 
    2.2913735432234930E+00 
    2.2849966807889506E+00 
    2.3007373354810237E+00 
    2.3051486417121043E+00 
    2.2968406731188504E+00 
    2.2950283417195831E+00 
    2.2823773626893145E+00 
    2.2891673447780754E+00 
    2.2889727759237015E+00 
    2.2799207888849988E+00 
    2.2793939279234672E+00 
    2.2776116087941389E+00 
    2.2706777125553228E+00 
    2.2703674508944274E+00 
    2.2750753137429061E+00 
    2.2712419064316705E+00 
    2.2647357465512803E+00 
    2.2689709378363427E+00 
    2.2628362338519219E+00 
    2.2651201761286512E+00 
    2.2597416406591462E+00 
    2.2550859971013684E+00 
    2.2492602104519293E+00 
    2.2548920160028447E+00 
    2.2508071655070077E+00 
    2.2458920068695991E+00 
    2.2596830553571383E+00 
    2.2642953306180358E+00 
    2.2560253727350363E+00 
    2.2544071167060080E+00 
    2.2434410904785769E+00 
    2.2490745733023432E+00 
    2.2489404013711258E+00 
    2.2416214458785251E+00 
    2.2424763725123547E+00 
    2.2406876273632208E+00 
    2.2358013414418054E+00 
    2.2358836434746494E+00 
    2.2384551713847598E+00 
    2.2352670811376845E+00 
    2.2307434944180615E+00 
    2.2344016333383734E+00 
    2.2302327148370709E+00 
    2.2317005206842411E+00 
    2.2275910014343761E+00 
    2.2245205248576134E+00 
    2.2201942943322250E+00 
    2.2239148014141521E+00 
    2.2210131255531684E+00 
    2.2176463299372084E+00 
    2.2269649703042420E+00 
    2.2298613206222129E+00 
    2.2240168505955484E+00 
    2.2232177429512427E+00 
    2.2156014699506676E+00 
    2.2195808486435951E+00 
    2.2190715387327709E+00 
    2.2137840145945007E+00 
    2.2151424500100578E+00 
    2.2137273735934806E+00 
    2.2100420106705023E+00 
    2.2100546870143321E+00 
    2.2118735638771314E+00 
    2.2092073304593605E+00 
    2.2060083437517184E+00 
    2.2087413513778373E+00 
    2.2056462389359206E+00 
    2.2068105413125294E+00 
    2.2034864583574123E+00 
    2.2008271620686517E+00 
    2.1969769137846340E+00 
    2.2002125429993935E+00 
    2.1975499583405540E+00 
    2.1945326393451348E+00 
    2.2026091675644333E+00 
    2.2047475165530259E+00 
    2.1997898661331261E+00 
    2.1992003926382289E+00 
    2.1925298760327587E+00 
    2.1959844612629040E+00 
    2.1953459282475722E+00 
    2.1904255929217937E+00 
    2.1923850098838900E+00 
    2.1910623751752332E+00 
    2.1876389653902502E+00 
    2.1877180949969928E+00 
    2.1891196616900572E+00 
    2.1862389727886073E+00 
    2.1834989259915893E+00 
    2.1862015430383690E+00 
    2.1837217383132868E+00 
    2.1845110275260677E+00 
    2.1814459097241952E+00 
    2.1794918365561582E+00 
    2.1760421289688412E+00 
    2.1785053538427341E+00 
    2.1759558370326624E+00 
    2.1735690374415961E+00 
    2.1803352054346350E+00 
    2.1819319753735873E+00 
    2.1773728472456426E+00 
    2.1771932321404726E+00 
    2.1714408477790261E+00 
    2.1743241763813810E+00 
    2.1733760347442206E+00 
    2.1691401027029795E+00 
    2.1724113309777788E+00 
    2.1707980539686411E+00 
    2.1681634060541022E+00 
    2.1686462684200669E+00 
    2.1687701255611120E+00 
    2.1659321430561982E+00 
    2.1642670865975635E+00 
    2.1666680225651858E+00 
    2.1654194542054053E+00 
    2.1656926725402315E+00 
    2.1630092919301478E+00 
    2.1618004391403955E+00 
    2.1585656117583505E+00 
    2.1601972091090178E+00 
    2.1577425714192779E+00 
    2.1560193646236550E+00 
    2.1612215621278108E+00 
    2.1618932461926312E+00 
    2.1579407752651241E+00 
    2.1583562075086156E+00 
    2.1537486374906245E+00 
    2.1559568266423867E+00 
    2.1546049475443345E+00 
    2.1511224051552666E+00 
    2.1555022002903490E+00 
    2.1538083961605130E+00 
    2.1512422937050912E+00 
    2.1515870119564373E+00 
    2.1516537246047638E+00 
    2.1486483183201388E+00 
    2.1470309063606505E+00 
    2.1495780151435073E+00 
    2.1479228091788305E+00 
    2.1483418586742253E+00 
    2.1454280464647044E+00 
    2.1440401612618132E+00 
    2.1407153484414816E+00 
    2.1425009586689430E+00 
    2.1399038336335923E+00 
    2.1380110262607097E+00 
    2.1438155803205419E+00 
    2.1445996624352213E+00 
    2.1403553908680499E+00 
    2.1406325620072395E+00 
    2.1356381852874695E+00 
    2.1379974401402491E+00 
    2.1365932398774854E+00 
    2.1328744611261552E+00 
    2.1375157197669497E+00 
    2.1356755304372004E+00 
    2.1333489370795018E+00 
    2.1339734692875525E+00 
    2.1334287390734219E+00 
    2.1303815466193665E+00 
    2.1293348551601405E+00 
    2.1316221715765593E+00 
    2.1309345178267600E+00 
    2.1309727118256254E+00 
    2.1283839723405156E+00 
    2.1274221654509096E+00 
    2.1242645581897204E+00 
    2.1255862472605949E+00 
    2.1230948022015075E+00 