# vtk DataFile Version 2.0
Pressure Field Data 
ASCII 
DATASET UNSTRUCTURED_GRID 

POINTS 6273 double 

    0.0000000000000000E+00     0.0000000000000000E+00     0.0000000000000000E+00 
    1.0000000000000000E+00     0.0000000000000000E+00     0.0000000000000000E+00 
    1.0000000000000000E+00     1.0000000000000000E+00     0.0000000000000000E+00 
    0.0000000000000000E+00     1.0000000000000000E+00     0.0000000000000000E+00 
    1.5624999999970249E-02     0.0000000000000000E+00     0.0000000000000000E+00 
    3.1249999999940652E-02     0.0000000000000000E+00     0.0000000000000000E+00 
    4.6874999999905617E-02     0.0000000000000000E+00     0.0000000000000000E+00 
    6.2499999999870597E-02     0.0000000000000000E+00     0.0000000000000000E+00 
    7.8124999999846401E-02     0.0000000000000000E+00     0.0000000000000000E+00 
    9.3749999999822212E-02     0.0000000000000000E+00     0.0000000000000000E+00 
    1.0937499999979799E-01     0.0000000000000000E+00     0.0000000000000000E+00 
    1.2499999999977381E-01     0.0000000000000000E+00     0.0000000000000000E+00 
    1.4062499999972811E-01     0.0000000000000000E+00     0.0000000000000000E+00 
    1.5624999999968239E-01     0.0000000000000000E+00     0.0000000000000000E+00 
    1.7187499999963671E-01     0.0000000000000000E+00     0.0000000000000000E+00 
    1.8749999999959110E-01     0.0000000000000000E+00     0.0000000000000000E+00 
    2.0312499999954539E-01     0.0000000000000000E+00     0.0000000000000000E+00 
    2.1874999999949971E-01     0.0000000000000000E+00     0.0000000000000000E+00 
    2.3437499999945391E-01     0.0000000000000000E+00     0.0000000000000000E+00 
    2.4999999999940831E-01     0.0000000000000000E+00     0.0000000000000000E+00 
    2.6562499999936218E-01     0.0000000000000000E+00     0.0000000000000000E+00 
    2.8124999999931621E-01     0.0000000000000000E+00     0.0000000000000000E+00 
    2.9687499999927008E-01     0.0000000000000000E+00     0.0000000000000000E+00 
    3.1249999999922412E-01     0.0000000000000000E+00     0.0000000000000000E+00 
    3.2812499999917810E-01     0.0000000000000000E+00     0.0000000000000000E+00 
    3.4374999999913203E-01     0.0000000000000000E+00     0.0000000000000000E+00 
    3.5937499999908601E-01     0.0000000000000000E+00     0.0000000000000000E+00 
    3.7499999999903999E-01     0.0000000000000000E+00     0.0000000000000000E+00 
    3.9062499999899403E-01     0.0000000000000000E+00     0.0000000000000000E+00 
    4.0624999999894801E-01     0.0000000000000000E+00     0.0000000000000000E+00 
    4.2187499999890188E-01     0.0000000000000000E+00     0.0000000000000000E+00 
    4.3749999999885592E-01     0.0000000000000000E+00     0.0000000000000000E+00 
    4.5312499999880979E-01     0.0000000000000000E+00     0.0000000000000000E+00 
    4.6874999999876382E-01     0.0000000000000000E+00     0.0000000000000000E+00 
    4.8437499999871780E-01     0.0000000000000000E+00     0.0000000000000000E+00 
    4.9999999999867167E-01     0.0000000000000000E+00     0.0000000000000000E+00 
    5.1562499999871325E-01     0.0000000000000000E+00     0.0000000000000000E+00 
    5.3124999999875477E-01     0.0000000000000000E+00     0.0000000000000000E+00 
    5.4687499999879630E-01     0.0000000000000000E+00     0.0000000000000000E+00 
    5.6249999999883782E-01     0.0000000000000000E+00     0.0000000000000000E+00 
    5.7812499999887934E-01     0.0000000000000000E+00     0.0000000000000000E+00 
    5.9374999999892086E-01     0.0000000000000000E+00     0.0000000000000000E+00 
    6.0937499999896239E-01     0.0000000000000000E+00     0.0000000000000000E+00 
    6.2499999999900380E-01     0.0000000000000000E+00     0.0000000000000000E+00 
    6.4062499999904521E-01     0.0000000000000000E+00     0.0000000000000000E+00 
    6.5624999999908673E-01     0.0000000000000000E+00     0.0000000000000000E+00 
    6.7187499999912825E-01     0.0000000000000000E+00     0.0000000000000000E+00 
    6.8749999999916978E-01     0.0000000000000000E+00     0.0000000000000000E+00 
    7.0312499999921130E-01     0.0000000000000000E+00     0.0000000000000000E+00 
    7.1874999999925282E-01     0.0000000000000000E+00     0.0000000000000000E+00 
    7.3437499999929434E-01     0.0000000000000000E+00     0.0000000000000000E+00 
    7.4999999999933586E-01     0.0000000000000000E+00     0.0000000000000000E+00 
    7.6562499999937739E-01     0.0000000000000000E+00     0.0000000000000000E+00 
    7.8124999999941891E-01     0.0000000000000000E+00     0.0000000000000000E+00 
    7.9687499999946043E-01     0.0000000000000000E+00     0.0000000000000000E+00 
    8.1249999999950195E-01     0.0000000000000000E+00     0.0000000000000000E+00 
    8.2812499999954348E-01     0.0000000000000000E+00     0.0000000000000000E+00 
    8.4374999999958500E-01     0.0000000000000000E+00     0.0000000000000000E+00 
    8.5937499999962652E-01     0.0000000000000000E+00     0.0000000000000000E+00 
    8.7499999999966793E-01     0.0000000000000000E+00     0.0000000000000000E+00 
    8.9062499999970934E-01     0.0000000000000000E+00     0.0000000000000000E+00 
    9.0624999999975087E-01     0.0000000000000000E+00     0.0000000000000000E+00 
    9.2187499999979239E-01     0.0000000000000000E+00     0.0000000000000000E+00 
    9.3749999999983391E-01     0.0000000000000000E+00     0.0000000000000000E+00 
    9.5312499999987543E-01     0.0000000000000000E+00     0.0000000000000000E+00 
    9.6874999999991696E-01     0.0000000000000000E+00     0.0000000000000000E+00 
    9.8437499999995848E-01     0.0000000000000000E+00     0.0000000000000000E+00 
    1.0000000000000000E+00     1.5624999999970249E-02     0.0000000000000000E+00 
    1.0000000000000000E+00     3.1249999999940652E-02     0.0000000000000000E+00 
    1.0000000000000000E+00     4.6874999999905617E-02     0.0000000000000000E+00 
    1.0000000000000000E+00     6.2499999999870597E-02     0.0000000000000000E+00 
    1.0000000000000000E+00     7.8124999999846401E-02     0.0000000000000000E+00 
    1.0000000000000000E+00     9.3749999999822212E-02     0.0000000000000000E+00 
    1.0000000000000000E+00     1.0937499999979799E-01     0.0000000000000000E+00 
    1.0000000000000000E+00     1.2499999999977381E-01     0.0000000000000000E+00 
    1.0000000000000000E+00     1.4062499999972811E-01     0.0000000000000000E+00 
    1.0000000000000000E+00     1.5624999999968239E-01     0.0000000000000000E+00 
    1.0000000000000000E+00     1.7187499999963671E-01     0.0000000000000000E+00 
    1.0000000000000000E+00     1.8749999999959110E-01     0.0000000000000000E+00 
    1.0000000000000000E+00     2.0312499999954539E-01     0.0000000000000000E+00 
    1.0000000000000000E+00     2.1874999999949971E-01     0.0000000000000000E+00 
    1.0000000000000000E+00     2.3437499999945391E-01     0.0000000000000000E+00 
    1.0000000000000000E+00     2.4999999999940831E-01     0.0000000000000000E+00 
    1.0000000000000000E+00     2.6562499999936218E-01     0.0000000000000000E+00 
    1.0000000000000000E+00     2.8124999999931621E-01     0.0000000000000000E+00 
    1.0000000000000000E+00     2.9687499999927008E-01     0.0000000000000000E+00 
    1.0000000000000000E+00     3.1249999999922412E-01     0.0000000000000000E+00 
    1.0000000000000000E+00     3.2812499999917810E-01     0.0000000000000000E+00 
    1.0000000000000000E+00     3.4374999999913203E-01     0.0000000000000000E+00 
    1.0000000000000000E+00     3.5937499999908601E-01     0.0000000000000000E+00 
    1.0000000000000000E+00     3.7499999999903999E-01     0.0000000000000000E+00 
    1.0000000000000000E+00     3.9062499999899403E-01     0.0000000000000000E+00 
    1.0000000000000000E+00     4.0624999999894801E-01     0.0000000000000000E+00 
    1.0000000000000000E+00     4.2187499999890188E-01     0.0000000000000000E+00 
    1.0000000000000000E+00     4.3749999999885592E-01     0.0000000000000000E+00 
    1.0000000000000000E+00     4.5312499999880979E-01     0.0000000000000000E+00 
    1.0000000000000000E+00     4.6874999999876382E-01     0.0000000000000000E+00 
    1.0000000000000000E+00     4.8437499999871780E-01     0.0000000000000000E+00 
    1.0000000000000000E+00     4.9999999999867167E-01     0.0000000000000000E+00 
    1.0000000000000000E+00     5.1562499999871325E-01     0.0000000000000000E+00 
    1.0000000000000000E+00     5.3124999999875477E-01     0.0000000000000000E+00 
    1.0000000000000000E+00     5.4687499999879630E-01     0.0000000000000000E+00 
    1.0000000000000000E+00     5.6249999999883782E-01     0.0000000000000000E+00 
    1.0000000000000000E+00     5.7812499999887934E-01     0.0000000000000000E+00 
    1.0000000000000000E+00     5.9374999999892086E-01     0.0000000000000000E+00 
    1.0000000000000000E+00     6.0937499999896239E-01     0.0000000000000000E+00 
    1.0000000000000000E+00     6.2499999999900380E-01     0.0000000000000000E+00 
    1.0000000000000000E+00     6.4062499999904521E-01     0.0000000000000000E+00 
    1.0000000000000000E+00     6.5624999999908673E-01     0.0000000000000000E+00 
    1.0000000000000000E+00     6.7187499999912825E-01     0.0000000000000000E+00 
    1.0000000000000000E+00     6.8749999999916978E-01     0.0000000000000000E+00 
    1.0000000000000000E+00     7.0312499999921130E-01     0.0000000000000000E+00 
    1.0000000000000000E+00     7.1874999999925282E-01     0.0000000000000000E+00 
    1.0000000000000000E+00     7.3437499999929434E-01     0.0000000000000000E+00 
    1.0000000000000000E+00     7.4999999999933586E-01     0.0000000000000000E+00 
    1.0000000000000000E+00     7.6562499999937739E-01     0.0000000000000000E+00 
    1.0000000000000000E+00     7.8124999999941891E-01     0.0000000000000000E+00 
    1.0000000000000000E+00     7.9687499999946043E-01     0.0000000000000000E+00 
    1.0000000000000000E+00     8.1249999999950195E-01     0.0000000000000000E+00 
    1.0000000000000000E+00     8.2812499999954348E-01     0.0000000000000000E+00 
[...]
CELL_DATA 6144 
SCALARS Pressure double 1 
LOOKUP_TABLE default 

    2.5092637402790752E+00 
    2.4118955190527727E+00 
    2.3965879792771836E+00 
    2.4156607169086421E+00 
    2.3570619876887040E+00 
    2.3221176101930929E+00 
    2.3376035840636153E+00 
    2.3689120490381392E+00 
    2.3572226451221319E+00 
    2.3672226878415055E+00 
    2.3398323133557475E+00 
    2.3220346818048476E+00 
    2.3046705633544518E+00 
    2.3194921766256429E+00 
    2.3036868296492901E+00 
    2.2936042906911855E+00 
    2.3207596315268209E+00 
    2.3057783286924209E+00 
    2.2942984298054006E+00 
    2.3050842880598146E+00 
    2.2832708988407338E+00 
    2.2943388093637704E+00 
    2.2844671825107730E+00 
    2.2718705668547661E+00 
    2.2830421267820578E+00 
    2.2799748638035591E+00 
    2.2662968057177499E+00 
    2.2638091142565107E+00 
    2.2727927404979598E+00 
    2.2620272729003266E+00 
    2.2537802550608315E+00 
    2.2619898201316722E+00 
    2.2475801685047485E+00 
    2.2545610322415928E+00 
    2.2450144173611521E+00 
    2.2330506164625077E+00 
    2.2245402233813403E+00 
    2.2362737324865831E+00 
    2.2292417510209104E+00 
    2.2198900907026502E+00 
    2.2436305189801775E+00 
    2.2479509814421008E+00 
    2.2346783280024596E+00 
    2.2338687933191084E+00 
    2.2158302390587701E+00 
    2.2250498500621334E+00 
    2.2232446947166697E+00 
    2.2109008916964674E+00 
    2.2098241201848174E+00 
    2.2090586045798024E+00 
    2.1988065157049981E+00 
    2.1961374195872554E+00 
    2.2058768753629483E+00 
    2.2002061278059446E+00 
    2.1918076319183317E+00 
    2.1965220358562525E+00 
    2.1841148737190950E+00 
    2.1901384521927807E+00 
    2.1827844386004855E+00 
    2.1724774927346320E+00 
    2.1660928438302829E+00 
    2.1762374670872235E+00 
    2.1713933780444035E+00 
    2.1633270123280441E+00 
    2.1839640719575395E+00 
    2.1899485447471365E+00 
    2.1786151160900404E+00 
    2.1762021507185061E+00 
    2.1608254905544748E+00 
    2.1689046943244223E+00 
    2.1685311626141344E+00 
    2.1577195998223209E+00 
    2.1553120332015436E+00 
    2.1548293124462408E+00 
    2.1470922608015641E+00 
    2.1458594348978459E+00 
    2.1526581646162710E+00 
    2.1484644649746416E+00 
    2.1417548564419064E+00 
    2.1460476307400547E+00 
    2.1381126979421183E+00 
    2.1413951381292184E+00 
    2.1366423313752136E+00 
    2.1321286986208774E+00 
    2.1289977972380014E+00 
    2.1332996199040610E+00 
    2.1309501941214282E+00 
    2.1275810963576389E+00 
    2.1374813703513151E+00 
    2.1413021108352384E+00 
    2.1347991129874249E+00 
    2.1338684256855234E+00 
    2.1260706413280697E+00 
    2.1301136770080942E+00 
    2.1297127394081610E+00 
    2.1247040045191592E+00 
    2.1239660562095848E+00 
    2.1236587838465146E+00 
    2.1200328959856285E+00 
    2.1191678646831154E+00 
    2.1226783607248771E+00 
    2.1209615706461671E+00 
    2.1176924126908365E+00 
    2.1193566781509752E+00 
    2.1146709387449798E+00 
    2.1169959091703276E+00 
    2.1143193035003338E+00 
    2.1101088315846588E+00 
    2.1073512959362186E+00 
    2.1117807103151276E+00 
    2.1099126907626724E+00 
    2.1062262380637184E+00 
    2.1149668268517932E+00 
    2.1173555172647807E+00 
    2.1131416434558092E+00 
    2.1119388724589081E+00 
    2.1053196815934818E+00 
    2.1089027409884586E+00 
    2.1090861409819870E+00 
    2.1041956488500486E+00 
    2.1017790749050764E+00 
    2.1018108180551391E+00 
    2.0973808254842119E+00 
    2.0958525543925277E+00 
    2.1009341270440798E+00 
    2.0991212168668034E+00 
    2.0947316686575390E+00 
    2.0964426817817277E+00 
    2.0902224734204027E+00 
    2.0933551622941966E+00 
    2.0899066579528416E+00 
    2.0841718619435499E+00 
    2.0804949126628394E+00 
    2.0866612377038583E+00 
    2.0843578518629600E+00 
    2.0791278368577886E+00 
    2.0911790482259525E+00 
    2.0949929694398848E+00 
    2.0893393791801294E+00 
    2.0872788235318653E+00 
    2.0781255061796755E+00 
    2.0831600641498174E+00 
    2.0837508817391805E+00 
    2.0770261667886563E+00 
    2.0729746332345380E+00 
    2.0730390561080223E+00 
    2.0669997290105928E+00 
    2.0650589347854305E+00 
    2.0720442541342257E+00 
    2.0699838114192763E+00 
    2.0638935318924223E+00 
    2.0660345347819900E+00 
    2.0576945312990138E+00 
    2.0618160929042726E+00 
    2.0574419320002568E+00 
    2.0501574496816013E+00 
    2.0459198680743436E+00 
    2.0535700130324965E+00 
    2.0508119946893828E+00 
    2.0445777098806945E+00 
    2.0595619436075978E+00 
    2.0647800234150404E+00 
    2.0575713864980600E+00 
    2.0547579654521253E+00 
    2.0436157439185560E+00 
    2.0497162022734545E+00 
    2.0506717484407546E+00 
    2.0426887827816840E+00 
    2.0376329346646971E+00 
    2.0376986776749888E+00 
    2.0313170508137399E+00 
    2.0296012215968942E+00 
    2.0367140969970876E+00 
    2.0344857646796619E+00 
    2.0277464413861517E+00 
    2.0305046931320607E+00 
    2.0222050024091822E+00 
    2.0261509893962435E+00 
    2.0218500827936259E+00 
    2.0154139193323655E+00 
    2.0116512272519205E+00 
    2.0181995390469720E+00 
    2.0152139437016450E+00 
    2.0100995028831465E+00 
    2.0236183802952397E+00 
    2.0288839463944961E+00 
    2.0215339668106536E+00 
    2.0191049179236482E+00 
    2.0090455412024104E+00 
    2.0142992915339852E+00 
    2.0150918782919551E+00 
    2.0083507477448128E+00 
    2.0051121546747996E+00 
    2.0049515055716522E+00 
    2.0002736510000338E+00 
    1.9992599932965653E+00 
    2.0040657704801572E+00 
    2.0022299714242480E+00 
    1.9973327455798748E+00 
    1.9996907338140575E+00 
    1.9939117199927854E+00 
    1.9965746194411451E+00 
    1.9934201348111715E+00 
    1.9891593476204625E+00 
    1.9865277905989249E+00 
    1.9908440366895499E+00 
    1.9889174138732892E+00 
    1.9854520713506221E+00 
    1.9944263230165882E+00 
    1.9979294138311170E+00 
    1.9928763207783979E+00 
    1.9913799934357763E+00 
    1.9846027529223680E+00 
    1.9882093031246522E+00 
    1.9884880170967356E+00 
    1.9838524825542685E+00 
    1.9817782183523835E+00 
    1.9816321169588369E+00 
    1.9781656454299257E+00 
    1.9773691270768059E+00 
    1.9809545301012919E+00 
    1.9796196004318454E+00 
    1.9761926308023174E+00 
    1.9777377474621063E+00 
    1.9733727210144445E+00 
    1.9754432078092632E+00 
    1.9731088764831157E+00 
    1.9696356310272585E+00 
    1.9675230116050142E+00 
    1.9710810398142915E+00 
    1.9696332820998259E+00 
    1.9667212610735552E+00 
    1.9739047882866532E+00 
    1.9764725148840867E+00 
    1.9727234135135805E+00 
    1.9715349968132239E+00 
    1.9661109787051088E+00 
    1.9690683120241210E+00 
    1.9693298857909445E+00 
    1.9654814882334073E+00 
    1.9635348259408525E+00 
    1.9634598903089771E+00 
    1.9604297431801676E+00 
    1.9597139087176565E+00 
    1.9629125289386815E+00 
    1.9617321688830129E+00 
    1.9587182122757836E+00 
    1.9600420195416457E+00 
    1.9563008815424050E+00 
    1.9580610747397462E+00 
    1.9561044705859401E+00 
    1.9531980054713836E+00 
    1.9513941656524676E+00 
    1.9543509940142276E+00 
    1.9528505856625287E+00 
    1.9504705728612459E+00 
    1.9567147285089337E+00 
    1.9589402128970208E+00 
    1.9554606076515706E+00 
    1.9544980593506724E+00 
    1.9498044876494114E+00 
    1.9522305213337892E+00 
    1.9523860849559702E+00 
    1.9491418460451981E+00 
    1.9481765098876451E+00 
    1.9479860369697168E+00 
    1.9457438784798298E+00 
    1.9452787008888046E+00 
    1.9474147085029854E+00 
    1.9463090660980185E+00 
    1.9442076352985560E+00 
    1.9453656970367128E+00 
    1.9426806269639958E+00 
    1.9439407081777074E+00 
    1.9423265515614330E+00 
    1.9402463594155053E+00 
    1.9388523020285686E+00 
    1.9409311526515072E+00 
    1.9398818103402309E+00 
    1.9381542724053176E+00 
    1.9425753359441456E+00 
    1.9439731593076754E+00 
    1.9413519369809762E+00 
    1.9408856928841074E+00 
    1.9374364336849199E+00 
    1.9392386515695959E+00 
    1.9390383948936718E+00 
    1.9365029695589178E+00 
    1.9363827807396041E+00 
    1.9362121826685650E+00 
    1.9343707485897228E+00 
    1.9339151320876811E+00 
    1.9355771362808314E+00 
    1.9344289949924218E+00 
    1.9329032272419466E+00 
    1.9338434129962485E+00 
    1.9316654834533658E+00 
    1.9327397391580197E+00 
    1.9313392610003979E+00 
    1.9294236917463625E+00 
    1.9280654193204505E+00 
    1.9300295508826537E+00 
    1.9289098095086930E+00 
    1.9272616341537339E+00 
    1.9313657116667706E+00 
    1.9323163904211536E+00 
    1.9300245423236118E+00 
    1.9297379930019254E+00 
    1.9265567369727046E+00 
    1.9281616284068457E+00 
    1.9279067313812479E+00 
    1.9255720692942870E+00 
    1.9255370525110929E+00 
    1.9254228686407788E+00 
    1.9235530856503757E+00 
    1.9229745108248630E+00 
    1.9248031415047111E+00 
    1.9236197180511172E+00 
    1.9220954514460715E+00 
    1.9230087799883420E+00 
    1.9205454646226141E+00 
    1.9218164254738943E+00 
    1.9202567643531470E+00 
    1.9177315348524986E+00 
    1.9160253020842499E+00 
    1.9187411294004482E+00 
    1.9175616983661841E+00 
    1.9152705479705827E+00 
    1.9204049922322748E+00 
    1.9214910523330468E+00 
    1.9191171323305505E+00 
    1.9186524716230253E+00 
    1.9146225423506504E+00 
    1.9168977981080606E+00 
    1.9167816903860226E+00 
    1.9137373402577287E+00 
    1.9129803908738197E+00 
    1.9128554722405218E+00 
    1.9108220853956273E+00 
    1.9103644751969937E+00 
    1.9122797645300718E+00 
    1.9111372327040341E+00 
    1.9094240832331772E+00 
    1.9103831802684479E+00 
    1.9081803893236464E+00 
    1.9092232096213775E+00 
    1.9079149077747779E+00 
    1.9062462551366393E+00 
    1.9051528719461106E+00 
    1.9067090172329444E+00 
    1.9056201289220813E+00 
    1.9043985348000194E+00 
    1.9079061487911075E+00 
    1.9089039127753511E+00 
    1.9065678250400742E+00 
    1.9063592536927414E+00 
    1.9036907163475654E+00 
    1.9049676196706851E+00 
    1.9046222535819657E+00 
    1.9027566541871124E+00 
    1.9034819844396136E+00 
    1.9031936574268817E+00 
    1.9022140798874740E+00 
    1.9021865551961428E+00 
    1.9026024301842226E+00 
    1.9016073188564206E+00 
    1.9011601954976491E+00 
    1.9018778679418762E+00 
    1.9012864503788960E+00 
    1.9015281658656797E+00 
    1.9009103334047841E+00 
    1.9007329744286556E+00 
    1.9005412025697630E+00 
    1.9003885639969613E+00 
    1.8998319401870940E+00 
    1.9000500644691454E+00 
    1.9003150061988574E+00 
    1.9001383237079763E+00 
    1.8990750663914568E+00 
    1.8996331385353535E+00 
    1.8992715804139282E+00 
    1.8992700026738480E+00 
    1.8984648719716537E+00 
    1.8981981398584735E+00 
    2.2843075655707663E+00 
    2.2660113258824355E+00 
    2.2671168988536223E+00 
    2.2804708118975205E+00 
    2.2504612483294157E+00 
    2.2367062470680050E+00 
    2.2477020686469875E+00 
    2.2559572920306605E+00 
    2.2736448621304444E+00 
    2.2632360111421010E+00 
    2.2553288610339841E+00 
    2.2628968571391064E+00 
    2.2490794833800174E+00 
    2.2460605490516596E+00 
    2.2364565270982255E+00 
    2.2362339060911971E+00 
    2.2390416680078187E+00 
    2.2279609364973658E+00 
    2.2226747464727663E+00 
    2.2313033706259646E+00 
    2.2252529338547209E+00 
    2.2272597870709778E+00 
    2.2181692061333043E+00 
    2.2131139823752717E+00 
    2.2428172223733749E+00 
    2.2325364689475515E+00 
    2.2266333519733585E+00 
    2.2317292803841324E+00 
    2.2225100672734395E+00 
    2.2109960147432446E+00 
    2.2114282541691050E+00 
    2.2198502350368048E+00 
    2.2213670763788920E+00 
    2.2195373526562929E+00 
    2.2109256199171319E+00 
    2.2095736733188240E+00 
    2.1985362638499972E+00 
    2.2019812598419750E+00 
    2.1940076902504853E+00 
    2.1897624403870082E+00 
    2.2024253162310092E+00 
    2.1999401626461168E+00 
    2.1906720642526403E+00 
    2.1941569148383611E+00 
    2.1823822900729803E+00 
    2.1879185420214573E+00 
    2.1827929521504443E+00 
    2.1742262591108665E+00 
    2.1893761444553608E+00 
    2.1832674192562740E+00 
    2.1762827707290571E+00 
    2.1784120890079781E+00 
    2.1765317326684546E+00 
    2.1678572039877921E+00 
    2.1643458501630182E+00 
    2.1712096181512659E+00 
    2.1686135694591204E+00 
    2.1690165911005321E+00 
    2.1612311812041454E+00 
    2.1577873174696394E+00 
    2.1487910678980131E+00 
    2.1537167361314866E+00 
    2.1469967187484951E+00 
    2.1423894452365193E+00 
    2.1562943323498751E+00 
    2.1569684558916000E+00 
    2.1464883438032047E+00 
    2.1484239334643487E+00 
    2.1371051594747654E+00 
    2.1424252306482803E+00 
    2.1384116820442061E+00 
    2.1316494714135490E+00 
    2.1415678025779799E+00 
    2.1373792043004167E+00 
    2.1332785275750257E+00 
    2.1353664551152942E+00 
    2.1330910956310105E+00 
    2.1280603951637009E+00 
    2.1263324269237724E+00 
    2.1313464749336397E+00 
    2.1295863194612430E+00 
    2.1298035413933731E+00 
    2.1256365394057490E+00 
    2.1245470521841123E+00 
    2.1205118468979585E+00 
    2.1219784480459953E+00 
    2.1187802638930040E+00 
    2.1172928387416325E+00 
    2.1228267494110380E+00 
    2.1225023840000912E+00 
    2.1179809785515817E+00 
    2.1193686741156119E+00 
    2.1142961699159324E+00 
    2.1165783855093974E+00 
    2.1145364550833832E+00 
    2.1112328922743804E+00 
    2.1172310209342475E+00 
    2.1150018147124379E+00 
    2.1125056983028738E+00 
    2.1131848930407302E+00 
    2.1124214206465401E+00 
    2.1091356259705898E+00 
    2.1080429392109412E+00 
    2.1104954614569906E+00 
    2.1094693015852863E+00 
    2.1097918492001333E+00 
    2.1068311251569556E+00 
    2.1049984977186393E+00 
    2.1009655141777501E+00 
    2.1036361989733807E+00 
    2.1007572432025299E+00 
    2.0979667625561396E+00 
    2.1047745807207541E+00 
    2.1049833505351012E+00 
    2.1009693794706394E+00 
    2.1014411146565908E+00 
    2.0955360700957750E+00 
    2.0985051146630793E+00 
    2.0971727536014302E+00 
    2.0927136212363782E+00 
    2.0958551194260613E+00 
    2.0941756618648326E+00 
    2.0901462328840585E+00 
    2.0900765168923550E+00 
    2.0919161132484416E+00 
    2.0887180091092405E+00 
    2.0855813061793689E+00 
    2.0881919582405293E+00 
    2.0848837060457219E+00 
    2.0862151545272072E+00 
    2.0823900623391314E+00 
    2.0787310660815139E+00 
    2.0736775625085127E+00 
    2.0785227429946400E+00 
    2.0752035626306511E+00 
    2.0706413514221897E+00 
    2.0815671689300772E+00 
    2.0838176104331092E+00 
    2.0780910327863609E+00 
    2.0773180337901427E+00 
    2.0683697703228572E+00 
    2.0731553815567092E+00 
    2.0725541224884303E+00 
    2.0659715242168843E+00 
    2.0665385298067185E+00 
    2.0650189771856886E+00 
    2.0594566758313522E+00 
    2.0590135918640113E+00 
    2.0627939052688347E+00 
    2.0594804608506361E+00 
    2.0543480378231238E+00 
    2.0576094597127885E+00 
    2.0523892166338800E+00 
    2.0544680473804937E+00 
    2.0497805872122914E+00 
    2.0449604991794592E+00 
    2.0391575166473896E+00 
    2.0453047065496626E+00 
    2.0415648897989880E+00 
    2.0359736511583995E+00 
    2.0497704180542722E+00 
    2.0536726039392468E+00 
    2.0464078311979308E+00 
    2.0447865140396910E+00 
    2.0336988373587199E+00 
    2.0396555147879818E+00 
    2.0395309624481794E+00 
    2.0315918687278618E+00 
    2.0310441301860682E+00 
    2.0294790255615789E+00 
    2.0233509495534241E+00 
    2.0230807570555958E+00 
    2.0272650614478085E+00 
    2.0239209680558949E+00 
    2.0181324463378401E+00 
    2.0218317606726939E+00 
    2.0164835895025521E+00 
    2.0184462580536051E+00 
    2.0137159294822613E+00 
    2.0097551305157424E+00 
    2.0047270442376539E+00 
    2.0094927039484398E+00 
    2.0059294892574333E+00 
    2.0017937085349411E+00 
    2.0136817384323655E+00 
    2.0178118288971745E+00 
    2.0104803303769749E+00 
    2.0090646524310447E+00 
    1.9996173373336468E+00 
    2.0044552345935167E+00 
    2.0042820155345500E+00 
    1.9980227294042552E+00 
    1.9991793550494958E+00 
    1.9975111618874644E+00 
    1.9935250672511304E+00 
    1.9937687154844850E+00 
    1.9955259220265211E+00 
    1.9927681798403321E+00 
    1.9891500695142819E+00 
    1.9923172138239760E+00 
    1.9891479700834864E+00 
    1.9901795936968909E+00 
    1.9867796499104140E+00 
    1.9845570566594350E+00 
    1.9810233694969566E+00 
    1.9837488725856762E+00 
    1.9813491924281503E+00 
    1.9788486908048641E+00 
    1.9860468092588683E+00 
    1.9882372067712957E+00 
    1.9834979552913843E+00 
    1.9830225978522802E+00 
    1.9770753573832713E+00 
    1.9801403139201146E+00 
    1.9795834391477780E+00 
    1.9755158515211462E+00 
    1.9772094516805236E+00 
    1.9759183885953784E+00 
    1.9731527840455507E+00 
    1.9733096979164848E+00 
    1.9743335640298043E+00 
    1.9721459845939173E+00 
    1.9698676638686485E+00 
    1.9720665075778376E+00 
    1.9699150107991814E+00 
    1.9706882879666183E+00 
    1.9681046407253493E+00 
    1.9661959495437740E+00 
    1.9631513513070711E+00 
    1.9655246365965926E+00 
    1.9633924254476298E+00 
    1.9611112641267883E+00 
    1.9672152576750830E+00 
    1.9686576238295352E+00 
    1.9648722202512416E+00 
    1.9645459872293027E+00 
    1.9593961404992644E+00 
    1.9620409270696610E+00 
    1.9614121904928823E+00 
    1.9575238514412159E+00 
    1.9595824222670672E+00 
    1.9584197360047537E+00 
    1.9557284200448455E+00 
    1.9558766381304002E+00 
    1.9567387122956730E+00 
    1.9542825737527825E+00 
    1.9522879248243503E+00 
    1.9544594310766839E+00 
    1.9527402242856786E+00 
    1.9532406649806950E+00 
    1.9507930179377151E+00 
    1.9494242142105027E+00 
    1.9467000529269793E+00 
    1.9484328853759962E+00 
    1.9463578465217246E+00 
    1.9446449011800313E+00 
    1.9496896944592359E+00 
    1.9507384809398365E+00 
    1.9471305373288998E+00 
    1.9471875038015500E+00 
    1.9428262640885594E+00 
    1.9449711250444486E+00 
    1.9440370453240170E+00 
    1.9408117018210891E+00 
    1.9440611962465553E+00 
    1.9426464318899570E+00 
    1.9407402635876829E+00 
    1.9412858656174206E+00 
    1.9409189606356962E+00 
    1.9385354279616214E+00 
    1.9375522892009136E+00 
    1.9394783329413343E+00 
    1.9389134466979432E+00 
    1.9389101150175305E+00 
    1.9368586814326960E+00 
    1.9362530123452955E+00 
    1.9338392567793199E+00 
    1.9346717735717656E+00 
    1.9326954976820661E+00 
    1.9316978710960433E+00 
    1.9351374457848842E+00 
    1.9352993193398873E+00 
    1.9322854799576763E+00 
    1.9329109554907378E+00 
    1.9297074735944506E+00 
    1.9311535407792511E+00 
    1.9298263908218345E+00 
    1.9273538212066170E+00 
    1.9319623480103445E+00 
    1.9303892171472368E+00 
    1.9289490165660608E+00 
    1.9296566549691376E+00 
    1.9284960281108487E+00 
    1.9259799040793453E+00 
    1.9257030690056067E+00 
    1.9275095372256341E+00 
    1.9276102438117719E+00 
    1.9273026357084091E+00 
    1.9254794217859177E+00 
    1.9252322119599936E+00 
    1.9229224529037960E+00 
    1.9234779085570972E+00 
    1.9215796280237729E+00 
    1.9207408397885508E+00 
    1.9235006934705527E+00 
    1.9230002662296131E+00 
    1.9205213216719050E+00 
    1.9214638421762131E+00 
    1.9187281124459132E+00 
    1.9199216157071632E+00 
    1.9184122543780489E+00 
    1.9162587499885180E+00 
    1.9210962406912975E+00 
    1.9195082162202717E+00 
    1.9181293681747618E+00 
    1.9187946542735934E+00 
    1.9176248575572601E+00 
    1.9151470147093936E+00 
    1.9149791316822147E+00 
    1.9166756329573393E+00 
    1.9166748637990116E+00 
    1.9165040877363462E+00 
    1.9145484616244139E+00 
    1.9137850420685063E+00 
    1.9111330686597299E+00 
    1.9123810107060897E+00 
    1.9104340686081955E+00 