# vtk DataFile Version 2.0
Pressure Field Data 
ASCII 
DATASET UNSTRUCTURED_GRID 

POINTS 6273 double 

    0.0000000000000000E+00     0.0000000000000000E+00     0.0000000000000000E+00 
    1.0000000000000000E+00     0.0000000000000000E+00     0.0000000000000000E+00 
    1.0000000000000000E+00     1.0000000000000000E+00     0.0000000000000000E+00 
    0.0000000000000000E+00     1.0000000000000000E+00     0.0000000000000000E+00 
    1.5624999999970249E-02     0.0000000000000000E+00     0.0000000000000000E+00 
    3.1249999999940652E-02     0.0000000000000000E+00     0.0000000000000000E+00 
    4.6874999999905617E-02     0.0000000000000000E+00     0.0000000000000000E+00 
    6.2499999999870597E-02     0.0000000000000000E+00     0.0000000000000000E+00 
    7.8124999999846401E-02     0.0000000000000000E+00     0.0000000000000000E+00 
    9.3749999999822212E-02     0.0000000000000000E+00     0.0000000000000000E+00 
    1.0937499999979799E-01     0.0000000000000000E+00     0.0000000000000000E+00 
    1.2499999999977381E-01     0.0000000000000000E+00     0.0000000000000000E+00 
    1.4062499999972811E-01     0.0000000000000000E+00     0.0000000000000000E+00 
    1.5624999999968239E-01     0.0000000000000000E+00     0.0000000000000000E+00 
    1.7187499999963671E-01     0.0000000000000000E+00     0.0000000000000000E+00 
    1.8749999999959110E-01     0.0000000000000000E+00     0.0000000000000000E+00 
    2.0312499999954539E-01     0.0000000000000000E+00     0.0000000000000000E+00 
    2.1874999999949971E-01     0.0000000000000000E+00     0.0000000000000000E+00 
    2.3437499999945391E-01     0.0000000000000000E+00     0.0000000000000000E+00 
    2.4999999999940831E-01     0.0000000000000000E+00     0.0000000000000000E+00 
    2.6562499999936218E-01     0.0000000000000000E+00     0.0000000000000000E+00 
    2.8124999999931621E-01     0.0000000000000000E+00     0.0000000000000000E+00 
    2.9687499999927008E-01     0.0000000000000000E+00     0.0000000000000000E+00 
    3.1249999999922412E-01     0.0000000000000000E+00     0.0000000000000000E+00 
    3.2812499999917810E-01     0.0000000000000000E+00     0.0000000000000000E+00 
    3.4374999999913203E-01     0.0000000000000000E+00     0.0000000000000000E+00 
    3.5937499999908601E-01     0.0000000000000000E+00     0.0000000000000000E+00 
    3.7499999999903999E-01     0.0000000000000000E+00     0.0000000000000000E+00 
    3.9062499999899403E-01     0.0000000000000000E+00     0.0000000000000000E+00 
    4.0624999999894801E-01     0.0000000000000000E+00     0.0000000000000000E+00 
    4.2187499999890188E-01     0.0000000000000000E+00     0.0000000000000000E+00 
    4.3749999999885592E-01     0.0000000000000000E+00     0.0000000000000000E+00 
    4.5312499999880979E-01     0.0000000000000000E+00     0.0000000000000000E+00 
    4.6874999999876382E-01     0.0000000000000000E+00     0.0000000000000000E+00 
    4.8437499999871780E-01     0.0000000000000000E+00     0.0000000000000000E+00 
    4.9999999999867167E-01     0.0000000000000000E+00     0.0000000000000000E+00 
    5.1562499999871325E-01     0.0000000000000000E+00     0.0000000000000000E+00 
    5.3124999999875477E-01     0.0000000000000000E+00     0.0000000000000000E+00 
    5.4687499999879630E-01     0.0000000000000000E+00     0.0000000000000000E+00 
    5.6249999999883782E-01     0.0000000000000000E+00     0.0000000000000000E+00 
    5.7812499999887934E-01     0.0000000000000000E+00     0.0000000000000000E+00 
    5.9374999999892086E-01     0.0000000000000000E+00     0.0000000000000000E+00 
    6.0937499999896239E-01     0.0000000000000000E+00     0.0000000000000000E+00 
    6.2499999999900380E-01     0.0000000000000000E+00     0.0000000000000000E+00 
    6.4062499999904521E-01     0.0000000000000000E+00     0.0000000000000000E+00 
    6.5624999999908673E-01     0.0000000000000000E+00     0.0000000000000000E+00 
    6.7187499999912825E-01     0.0000000000000000E+00     0.0000000000000000E+00 
    6.8749999999916978E-01     0.0000000000000000E+00     0.0000000000000000E+00 
    7.0312499999921130E-01     0.0000000000000000E+00     0.0000000000000000E+00 
    7.1874999999925282E-01     0.0000000000000000E+00     0.0000000000000000E+00 
    7.3437499999929434E-01     0.0000000000000000E+00     0.0000000000000000E+00 
    7.4999999999933586E-01     0.0000000000000000E+00     0.0000000000000000E+00 
    7.6562499999937739E-01     0.0000000000000000E+00     0.0000000000000000E+00 
    7.8124999999941891E-01     0.0000000000000000E+00     0.0000000000000000E+00 
    7.9687499999946043E-01     0.0000000000000000E+00     0.0000000000000000E+00 
    8.1249999999950195E-01     0.0000000000000000E+00     0.0000000000000000E+00 
    8.2812499999954348E-01     0.0000000000000000E+00     0.0000000000000000E+00 
    8.4374999999958500E-01     0.0000000000000000E+00     0.0000000000000000E+00 
    8.5937499999962652E-01     0.0000000000000000E+00     0.0000000000000000E+00 
    8.7499999999966793E-01     0.0000000000000000E+00     0.0000000000000000E+00 
    8.9062499999970934E-01     0.0000000000000000E+00     0.0000000000000000E+00 
    9.0624999999975087E-01     0.0000000000000000E+00     0.0000000000000000E+00 
    9.2187499999979239E-01     0.0000000000000000E+00     0.0000000000000000E+00 
    9.3749999999983391E-01     0.0000000000000000E+00     0.0000000000000000E+00 
    9.5312499999987543E-01     0.0000000000000000E+00     0.0000000000000000E+00 
    9.6874999999991696E-01     0.0000000000000000E+00     0.0000000000000000E+00 
    9.8437499999995848E-01     0.0000000000000000E+00     0.0000000000000000E+00 
    1.0000000000000000E+00     1.5624999999970249E-02     0.0000000000000000E+00 
    1.0000000000000000E+00     3.1249999999940652E-02     0.0000000000000000E+00 
    1.0000000000000000E+00     4.6874999999905617E-02     0.0000000000000000E+00 
    1.0000000000000000E+00     6.2499999999870597E-02     0.0000000000000000E+00 
    1.0000000000000000E+00     7.8124999999846401E-02     0.0000000000000000E+00 
    1.0000000000000000E+00     9.3749999999822212E-02     0.0000000000000000E+00 
    1.0000000000000000E+00     1.0937499999979799E-01     0.0000000000000000E+00 
    1.0000000000000000E+00     1.2499999999977381E-01     0.0000000000000000E+00 
    1.0000000000000000E+00     1.4062499999972811E-01     0.0000000000000000E+00 
    1.0000000000000000E+00     1.5624999999968239E-01     0.0000000000000000E+00 
    1.0000000000000000E+00     1.7187499999963671E-01     0.0000000000000000E+00 
    1.0000000000000000E+00     1.8749999999959110E-01     0.0000000000000000E+00 
    1.0000000000000000E+00     2.0312499999954539E-01     0.0000000000000000E+00 
    1.0000000000000000E+00     2.1874999999949971E-01     0.0000000000000000E+00 
    1.0000000000000000E+00     2.3437499999945391E-01     0.0000000000000000E+00 
    1.0000000000000000E+00     2.4999999999940831E-01     0.0000000000000000E+00 
    1.0000000000000000E+00     2.6562499999936218E-01     0.0000000000000000E+00 
    1.0000000000000000E+00     2.8124999999931621E-01     0.0000000000000000E+00 
    1.0000000000000000E+00     2.9687499999927008E-01     0.0000000000000000E+00 
    1.0000000000000000E+00     3.1249999999922412E-01     0.0000000000000000E+00 
    1.0000000000000000E+00     3.2812499999917810E-01     0.0000000000000000E+00 
    1.0000000000000000E+00     3.4374999999913203E-01     0.0000000000000000E+00 
    1.0000000000000000E+00     3.5937499999908601E-01     0.0000000000000000E+00 
    1.0000000000000000E+00     3.7499999999903999E-01     0.0000000000000000E+00 
    1.0000000000000000E+00     3.9062499999899403E-01     0.0000000000000000E+00 
    1.0000000000000000E+00     4.0624999999894801E-01     0.0000000000000000E+00 
    1.0000000000000000E+00     4.2187499999890188E-01     0.0000000000000000E+00 
    1.0000000000000000E+00     4.3749999999885592E-01     0.0000000000000000E+00 
    1.0000000000000000E+00     4.5312499999880979E-01     0.0000000000000000E+00 
    1.0000000000000000E+00     4.6874999999876382E-01     0.0000000000000000E+00 
    1.0000000000000000E+00     4.8437499999871780E-01     0.0000000000000000E+00 
    1.0000000000000000E+00     4.9999999999867167E-01     0.0000000000000000E+00 
    1.0000000000000000E+00     5.1562499999871325E-01     0.0000000000000000E+00 
    1.0000000000000000E+00     5.3124999999875477E-01     0.0000000000000000E+00 
    1.0000000000000000E+00     5.4687499999879630E-01     0.0000000000000000E+00 
    1.0000000000000000E+00     5.6249999999883782E-01     0.0000000000000000E+00 
    1.0000000000000000E+00     5.7812499999887934E-01     0.0000000000000000E+00 
    1.0000000000000000E+00     5.9374999999892086E-01     0.0000000000000000E+00 
    1.0000000000000000E+00     6.0937499999896239E-01     0.0000000000000000E+00 
    1.0000000000000000E+00     6.2499999999900380E-01     0.0000000000000000E+00 
    1.0000000000000000E+00     6.4062499999904521E-01     0.0000000000000000E+00 
    1.0000000000000000E+00     6.5624999999908673E-01     0.0000000000000000E+00 
    1.0000000000000000E+00     6.7187499999912825E-01     0.0000000000000000E+00 
    1.0000000000000000E+00     6.8749999999916978E-01     0.0000000000000000E+00 
    1.0000000000000000E+00     7.0312499999921130E-01     0.0000000000000000E+00 
    1.0000000000000000E+00     7.1874999999925282E-01     0.0000000000000000E+00 
    1.0000000000000000E+00     7.3437499999929434E-01     0.0000000000000000E+00 
    1.0000000000000000E+00     7.4999999999933586E-01     0.0000000000000000E+00 
    1.0000000000000000E+00     7.6562499999937739E-01     0.0000000000000000E+00 
    1.0000000000000000E+00     7.8124999999941891E-01     0.0000000000000000E+00 
    1.0000000000000000E+00     7.9687499999946043E-01     0.0000000000000000E+00 
    1.0000000000000000E+00     8.1249999999950195E-01     0.0000000000000000E+00 
    1.0000000000000000E+00     8.2812499999954348E-01     0.0000000000000000E+00 
[...]
CELL_DATA 6144 
SCALARS Pressure double 1 
LOOKUP_TABLE default 

    2.8216015578105580E+00 
    2.7241965870324951E+00 
    2.7088714770701494E+00 
    2.7280078637233527E+00 
    2.6693221522468131E+00 
    2.6342591088392830E+00 
    2.6498064978490761E+00 
    2.6812463882288635E+00 
    2.6694452587541502E+00 
    2.6795127012335085E+00 
    2.6520331847678329E+00 
    2.6341120787621985E+00 
    2.6166185015737473E+00 
    2.6316085911447327E+00 
    2.6157060763553766E+00 
    2.6055101806339076E+00 
    2.6329107344793643E+00 
    2.6178176135265532E+00 
    2.6062693716369116E+00 
    2.6171440646835915E+00 
    2.5950680998195690E+00 
    2.6062930594730105E+00 
    2.5963204132311479E+00 
    2.5835101366335800E+00 
    2.5947523478032948E+00 
    2.5916653508618235E+00 
    2.5776931187905223E+00 
    2.5751333672929615E+00 
    2.5843832495858798E+00 
    2.5734167911644539E+00 
    2.5648967070328279E+00 
    2.5733188362163366E+00 
    2.5584080113483152E+00 
    2.5656608379445620E+00 
    2.5558067249282561E+00 
    2.5433247296869022E+00 
    2.5344712509270431E+00 
    2.5467762180176163E+00 
    2.5394861091699563E+00 
    2.5296889450277340E+00 
    2.5544548553199307E+00 
    2.5589708187272628E+00 
    2.5452356087973809E+00 
    2.5443466662338565E+00 
    2.5254642137848933E+00 
    2.5351551217632453E+00 
    2.5333158649185767E+00 
    2.5203403454447035E+00 
    2.5190440121386621E+00 
    2.5182518841871069E+00 
    2.5073543753881409E+00 
    2.5045396661272363E+00 
    2.5149237444380619E+00 
    2.5089655504487878E+00 
    2.4999406126923001E+00 
    2.5049750282812346E+00 
    2.4916867167535162E+00 
    2.4981518114936438E+00 
    2.4902781212139491E+00 
    2.4792180198119436E+00 
    2.4723790379828290E+00 
    2.4832788185883219E+00 
    2.4780718986431127E+00 
    2.4694117640271926E+00 
    2.4915918453608068E+00 
    2.4980661863473537E+00 
    2.4859013760455184E+00 
    2.4832779791089776E+00 
    2.4667244033449576E+00 
    2.4754435981733485E+00 
    2.4750491446980960E+00 
    2.4634441424024001E+00 
    2.4608680514797903E+00 
    2.4602973075043821E+00 
    2.4520324876392063E+00 
    2.4507363596234875E+00 
    2.4579818051030977E+00 
    2.4535559350796259E+00 
    2.4463095141391502E+00 
    2.4509942468785155E+00 
    2.4422661304740814E+00 
    2.4459038617258888E+00 
    2.4407537893278448E+00 
    2.4355999303062261E+00 
    2.4320427714348694E+00 
    2.4370763584422961E+00 
    2.4344892811689820E+00 
    2.4304969840847646E+00 
    2.4417867589691542E+00 
    2.4459825796891987E+00 
    2.4389376364172799E+00 
    2.4377791074492792E+00 
    2.4288266867439470E+00 
    2.4334919897740925E+00 
    2.4330503092981965E+00 
    2.4271891511494146E+00 
    2.4262669560672498E+00 
    2.4259265276787074E+00 
    2.4216855274398239E+00 
    2.4206646105465142E+00 
    2.4247922853061765E+00 
    2.4227810408525161E+00 
    2.4189307220827585E+00 
    2.4209168632250360E+00 
    2.4153549218555983E+00 
    2.4181021381432264E+00 
    2.4149240830104381E+00 
    2.4099825687788368E+00 
    2.4067485695712434E+00 
    2.4119493815763162E+00 
    2.4097693666916302E+00 
    2.4054400609834778E+00 
    2.4157438971469838E+00 
    2.4185792270572692E+00 
    2.4136086648114081E+00 
    2.4121927621035844E+00 
    2.4043840707894302E+00 
    2.4086238857896491E+00 
    2.4088465276200619E+00 
    2.4030955451167673E+00 
    2.4001813189591750E+00 
    2.4002178912650551E+00 
    2.3949772627709867E+00 
    2.3932089731087718E+00 
    2.3992290363168958E+00 
    2.3971432092519200E+00 
    2.3919183868586158E+00 
    2.3939471544436581E+00 
    2.3865589616567853E+00 
    2.3902756737055211E+00 
    2.3862190665543435E+00 
    2.3794557550507038E+00 
    2.3751322262782502E+00 
    2.3824497494621784E+00 
    2.3797681860344491E+00 
    2.3735550981541413E+00 
    2.3878086582387357E+00 
    2.3923197507939440E+00 
    2.3857395747252448E+00 
    2.3832687476641135E+00 
    2.3724545585296655E+00 
    2.3784339413858491E+00 
    2.3791977677808926E+00 
    2.3712801822457794E+00 
    2.3662455587673725E+00 
    2.3663172089603042E+00 
    2.3591742472033252E+00 
    2.3569636251706485E+00 
    2.3652373970825411E+00 
    2.3629237965768453E+00 
    2.3556057694193178E+00 
    2.3581758319210677E+00 
    2.3482959761198705E+00 
    2.3531391845318068E+00 
    2.3479980643545542E+00 
    2.3394945526363138E+00 
    2.3345111134704846E+00 
    2.3435033377576815E+00 
    2.3403029208667543E+00 
    2.3329340893993153E+00 
    2.3506288850890020E+00 
    2.3568633545521571E+00 
    2.3483867462583015E+00 
    2.3450233367594855E+00 
    2.3318447275131162E+00 
    2.3390865184513854E+00 
    2.3402758268610508E+00 
    2.3308506702750389E+00 
    2.3246836136696527E+00 
    2.3247823698607943E+00 
    2.3172025714523099E+00 
    2.3151626226882094E+00 
    2.3236734665016039E+00 
    2.3211294663259960E+00 
    2.3130756045141125E+00 
    2.3162992323472422E+00 
    2.3063966697188052E+00 
    2.3110979858127756E+00 
    2.3060217320644645E+00 
    2.2983392070203235E+00 
    2.2937976925250338E+00 
    2.3017391766225752E+00 
    2.2982286841784076E+00 
    2.2919057466916199E+00 
    2.3082630318631980E+00 
    2.3145991780202944E+00 
    2.3059877575901262E+00 
    2.3029645508484822E+00 
    2.2907446539345231E+00 
    2.2971956798211375E+00 
    2.2983298974790469E+00 
    2.2901007269655098E+00 
    2.2855250017473163E+00 
    2.2853951506826355E+00 
    2.2794042478994196E+00 
    2.2780100504027545E+00 
    2.2844088965409575E+00 
    2.2822891672798868E+00 
    2.2758625040045586E+00 
    2.2787522176198309E+00 
    2.2711010497608055E+00 
    2.2746367477056246E+00 
    2.2705856086333012E+00 
    2.2648865052714684E+00 
    2.2614381543237618E+00 
    2.2673049326476722E+00 
    2.2648875049967434E+00 
    2.2601541980403645E+00 
    2.2722115051001803E+00 
    2.2770091594658242E+00 
    2.2705007790698994E+00 
    2.2682887236626579E+00 
    2.2592366735665554E+00 
    2.2641290281700894E+00 
    2.2647505869531872E+00 
    2.2585254348281243E+00 
    2.2550697261731640E+00 
    2.2549574503920891E+00 
    2.2502359325142938E+00 
    2.2491334616149650E+00 
    2.2542037934549746E+00 
    2.2525994028707670E+00 
    2.2477175709417425E+00 
    2.2497787639219569E+00 
    2.2436815088773661E+00 
    2.2465510184911248E+00 
    2.2433845494817763E+00 
    2.2386022634745291E+00 
    2.2357468242707950E+00 
    2.2406786365024955E+00 
    2.2387672022519758E+00 
    2.2347294838806597E+00 
    2.2447064163176043E+00 
    2.2484717571840598E+00 
    2.2433034999008101E+00 
    2.2415009297575028E+00 
    2.2339820635368883E+00 
    2.2381089776227685E+00 
    2.2386065816682503E+00 
    2.2332815787197076E+00 
    2.2303574813079661E+00 
    2.2302671334727537E+00 
    2.2261658643032702E+00 
    2.2252274304772715E+00 
    2.2295772372126041E+00 
    2.2280676577453495E+00 
    2.2239062076144522E+00 
    2.2257167066405068E+00 
    2.2206154239238605E+00 
    2.2230030920321568E+00 
    2.2203758119848929E+00 
    2.2164352305041493E+00 
    2.2139748517884126E+00 
    2.2180350517424263E+00 
    2.2160543649738198E+00 
    2.2127669995662402E+00 
    2.2212811845104561E+00 
    2.2243819299870049E+00 
    2.2197639758205909E+00 
    2.2183619985090730E+00 
    2.2119287797829794E+00 
    2.2152809277305741E+00 
    2.2156397135679380E+00 
    2.2111838838502686E+00 
    2.2094449165869547E+00 
    2.2092521229159665E+00 
    2.2059890972495428E+00 
    2.2052010007790948E+00 
    2.2085236089989464E+00 
    2.2070859375787473E+00 
    2.2038735017775757E+00 
    2.2054605854400773E+00 
    2.2012193202361932E+00 
    2.2032927931453474E+00 
    2.2008368974848018E+00 
    2.1970959232755645E+00 
    2.1945836532933334E+00 
    2.1987026949653319E+00 
    2.1971851997083296E+00 
    2.1936653211027584E+00 
    2.2015043701811479E+00 
    2.2038703033148734E+00 
    2.2000635810432954E+00 
    2.1990329129740971E+00 
    2.1928770072436148E+00 
    2.1964688436641548E+00 
    2.1965412835096827E+00 
    2.1919670010054535E+00 
    2.1898491824435853E+00 
    2.1897605925926849E+00 
    2.1864598390093923E+00 
    2.1855853377719434E+00 
    2.1890018955696227E+00 
    2.1874770540887427E+00 
    2.1842865876718527E+00 
    2.1857886563580409E+00 
    2.1817553532777145E+00 
    2.1836816341948859E+00 
    2.1813414146593031E+00 
    2.1780362818781782E+00 
    2.1758556111491676E+00 
    2.1792539410137910E+00 
    2.1775587127650615E+00 
    2.1747241506032484E+00 
    2.1818716855547002E+00 
    2.1841567809443854E+00 
    2.1802073338061310E+00 
    2.1792634579609120E+00 
    2.1738147375567096E+00 
    2.1766102262130218E+00 
    2.1766065037570512E+00 
    2.1726790120481270E+00 
    2.1718133344299813E+00 
    2.1717027914477467E+00 
    2.1687597155450082E+00 
    2.1678977403789674E+00 
    2.1708782688356099E+00 
    2.1692541927638795E+00 
    2.1666594576504892E+00 
    2.1680201893068496E+00 
    2.1643971846604817E+00 
    2.1661699788715856E+00 
    2.1640092405898481E+00 
    2.1608986488356097E+00 
    2.1588900695340940E+00 
    2.1620029735537698E+00 
    2.1604470979279213E+00 
    2.1578645700528871E+00 
    2.1642558379455550E+00 
    2.1660824575505901E+00 
    2.1624737871291799E+00 
    2.1617905497857546E+00 
    2.1569269356066738E+00 
    2.1594750340411104E+00 
    2.1592070618312187E+00 
    2.1556107108562190E+00 
    2.1552221109452301E+00 
    2.1549995026766879E+00 
    2.1523686183113941E+00 
    2.1517785196855566E+00 
    2.1541608082231005E+00 
    2.1525718448032487E+00 
    2.1504663051981012E+00 
    2.1517285806178927E+00 
    2.1489237189472847E+00 
    2.1502644243402500E+00 
    2.1485434668561085E+00 
    2.1463843249166046E+00 
    2.1449399236098037E+00 
    2.1469410547244028E+00 
    2.1454825935853781E+00 
    2.1439085298789253E+00 
    2.1484447618350351E+00 
    2.1496730192826070E+00 
    2.1466006127127657E+00 
    2.1463932612142891E+00 
    2.1429261289382238E+00 
    2.1445705693776516E+00 
    2.1440455936411555E+00 
    2.1416068146224214E+00 
    2.1427470549959469E+00 
    2.1423482290090017E+00 
    2.1410766738106353E+00 
    2.1410400535861567E+00 
    2.1415269757188478E+00 
    2.1401548907490842E+00 
    2.1396431596354950E+00 
    2.1405929873421377E+00 
    2.1398626576766495E+00 
    2.1401677311529621E+00 
    2.1393512083315671E+00 
    2.1391208235114947E+00 
    2.1388513748137936E+00 
    2.1386410438816603E+00 
    2.1378758630184418E+00 
    2.1381693655848437E+00 
    2.1384917317377190E+00 
    2.1381776111605975E+00 
    2.1367746156448675E+00 
    2.1375670169355772E+00 
    2.1370986011197304E+00 
    2.1370838277549078E+00 
    2.1359641920723087E+00 
    2.1356069112343259E+00 
    2.5961404062745954E+00 
    2.5774994364935062E+00 
    2.5786516646258177E+00 
    2.5922682998815927E+00 
    2.5615169478180007E+00 
    2.5472834416898698E+00 
    2.5586970603298247E+00 
    2.5672209231653591E+00 
    2.5853318675745132E+00 
    2.5747103948518495E+00 
    2.5666118700364455E+00 
    2.5743650658880033E+00 
    2.5601909444800142E+00 
    2.5570703845666460E+00 
    2.5471378432289313E+00 
    2.5469263360445842E+00 
    2.5497650292799041E+00 
    2.5382236509842961E+00 
    2.5327759028516943E+00 
    2.5417745495986792E+00 
    2.5355054225305746E+00 
    2.5375820104762461E+00 
    2.5280905681453958E+00 
    2.5228055588232805E+00 
    2.5537231842282444E+00 
    2.5430920382698581E+00 
    2.5369427904900776E+00 
    2.5422159270624602E+00 
    2.5326516949742368E+00 
    2.5205816441746967E+00 
    2.5210322768650792E+00 
    2.5298607742162846E+00 
    2.5314016989401882E+00 
    2.5295204427090447E+00 
    2.5204763088371562E+00 
    2.5190043786136962E+00 
    2.5073300325831922E+00 
    2.5110311762525961E+00 
    2.5025662988039170E+00 
    2.4980029468139664E+00 
    2.5115243632920019E+00 
    2.5089019092321521E+00 
    2.4990361099569758E+00 
    2.5027349905225198E+00 
    2.4900958043240116E+00 
    2.4960564448956784E+00 
    2.4905696176501237E+00 
    2.4812814543169410E+00 
    2.4975230741634982E+00 
    2.4910084924766278E+00 
    2.4834518635952056E+00 
    2.4857142704799022E+00 
    2.4837476492227313E+00 
    2.4743210359083179E+00 
    2.4705132601848785E+00 
    2.4779646933282540E+00 
    2.4751434841959332E+00 
    2.4755841077552607E+00 
    2.4671452197991655E+00 
    2.4634861020713226E+00 
    2.4538798904298660E+00 
    2.4590536994625878E+00 
    2.4518463193253228E+00 
    2.4470922577866507E+00 
    2.4617838853940115E+00 
    2.4624609769792514E+00 
    2.4511966009245976E+00 
    2.4533869296800201E+00 
    2.4414191947863677E+00 
    2.4470274394787066E+00 
    2.4426969903879501E+00 
    2.4355749888230016E+00 
    2.4463030064696394E+00 
    2.4418223433031176E+00 
    2.4373433831919771E+00 
    2.4395020279343584E+00 
    2.4372072410041472E+00 
    2.4316794117674987E+00 
    2.4296373457655513E+00 
    2.4350649394310184E+00 
    2.4329420406387254E+00 
    2.4333124506728754E+00 
    2.4285700429730950E+00 
    2.4270957503825770E+00 
    2.4224735116763889E+00 
    2.4243707066059237E+00 
    2.4206919998818694E+00 
    2.4187910635717849E+00 
    2.4254962899757166E+00 
    2.4252838167302633E+00 
    2.4198842890088943E+00 
    2.4214188367132587E+00 
    2.4153535663472017E+00 
    2.4181207629479036E+00 
    2.4157638271172748E+00 
    2.4117568765197395E+00 
    2.4185201837496155E+00 
    2.4159693950997378E+00 
    2.4129205304593575E+00 
    2.4137085462791128E+00 
    2.4129809654753327E+00 
    2.4091273810307734E+00 
    2.4076710704963076E+00 
    2.4106103213304233E+00 
    2.4092859831581310E+00 
    2.4096840810115214E+00 
    2.4061592582773295E+00 
    2.4039968252525896E+00 
    2.3992628485065755E+00 
    2.4024162823553414E+00 
    2.3990641707338876E+00 
    2.3958091712456309E+00 
    2.4038425374530310E+00 
    2.4041986045439683E+00 
    2.3994309531728417E+00 
    2.3999512969479535E+00 
    2.3929818629984969E+00 
    2.3964933080014843E+00 
    2.3949492284313805E+00 
    2.3897018478796843E+00 
    2.3933558276668969E+00 
    2.3914077338505075E+00 
    2.3867194303128993E+00 
    2.3866428305320069E+00 
    2.3887627680414760E+00 
    2.3849966223477992E+00 
    2.3813496496881847E+00 
    2.3844491205335312E+00 
    2.3805727152535989E+00 
    2.3821367030026264E+00 
    2.3776588172426880E+00 
    2.3733714501295249E+00 
    2.3674596029214157E+00 
    2.3731203604360420E+00 
    2.3692328825231166E+00 
    2.3639027219408897E+00 
    2.3766675880130652E+00 
    2.3792438013072630E+00 
    2.3725531453792250E+00 
    2.3716954414145657E+00 
    2.3612197170087663E+00 
    2.3668138928782296E+00 
    2.3660759498019011E+00 
    2.3583669176930613E+00 
    2.3590287017043488E+00 
    2.3572940756780931E+00 
    2.3507303381645466E+00 
    2.3501614212713080E+00 
    2.3546861635435130E+00 
    2.3507733409733080E+00 
    2.3447428072969205E+00 
    2.3485568445267999E+00 
    2.3423685931859368E+00 
    2.3448573797334249E+00 
    2.3393412017848756E+00 
    2.3336036507111899E+00 
    2.3267816802207948E+00 
    2.3340638454868650E+00 
    2.3296381468435996E+00 
    2.3230433700278277E+00 
    2.3393197456666450E+00 
    2.3438917377244928E+00 
    2.3353063478016733E+00 
    2.3334249734789809E+00 
    2.3203563208184264E+00 
    2.3273722298309636E+00 
    2.3271763016948754E+00 
    2.3178342592661050E+00 
    2.3172334579396914E+00 
    2.3154184127516451E+00 
    2.3082701700533095E+00 
    2.3079273887189440E+00 
    2.3128222397042975E+00 
    2.3088881202977745E+00 
    2.3021742531301070E+00 
    2.3065344278946749E+00 
    2.3001436863924827E+00 
    2.3025417860496780E+00 
    2.2969998981638158E+00 
    2.2921145471307720E+00 
    2.2860772756966479E+00 
    2.2919910834301676E+00 
    2.2877784801349059E+00 
    2.2826147992420029E+00 
    2.2969759072441582E+00 
    2.3017439805733826E+00 
    2.2932351362477892E+00 
    2.2915279200621725E+00 
    2.2801188516145894E+00 
    2.2859920970111807E+00 
    2.2859042758085257E+00 
    2.2782716290511100E+00 
    2.2788983653054053E+00 
    2.2771108255970436E+00 
    2.2719322521179404E+00 
    2.2719309857843952E+00 
    2.2748371742256985E+00 
    2.2715557315534065E+00 
    2.2667101421622675E+00 
    2.2704958419227799E+00 
    2.2659512746829300E+00 
    2.2675891151917860E+00 
    2.2632658381866197E+00 
    2.2598845844381317E+00 
    2.2553181978256935E+00 
    2.2594020268030248E+00 
    2.2563628759108316E+00 
    2.2526847326262724E+00 
    2.2627379482751477E+00 
    2.2659092647873851E+00 
    2.2597199024982921E+00 
    2.2587701476471995E+00 
    2.2505907961755027E+00 
    2.2548876337154855E+00 
    2.2544366744234878E+00 
    2.2487394230545625E+00 
    2.2498432374883701E+00 
    2.2484200731569701E+00 
    2.2444199379459593E+00 
    2.2443619331766103E+00 
    2.2465127703013139E+00 
    2.2437329106431805E+00 
    2.2401878282691685E+00 
    2.2430807609126724E+00 
    2.2396223197719829E+00 
    2.2409414508495207E+00 
    2.2373889730229939E+00 
    2.2344606646428997E+00 
    2.2303858522866786E+00 
    2.2339225338400324E+00 
    2.2311284752938048E+00 
    2.2278698974640836E+00 
    2.2365826355904752E+00 
    2.2389958573873678E+00 
    2.2336884893545386E+00 
    2.2329745778420320E+00 
    2.2258291895490818E+00 
    2.2295461670647803E+00 
    2.2289573581747093E+00 
    2.2237286410812334E+00 
    2.2254799294279857E+00 
    2.2241518766841493E+00 
    2.2205080539189228E+00 
    2.2205416313905193E+00 
    2.2221793064584703E+00 
    2.2192293171194719E+00 
    2.2162264600115176E+00 
    2.2190593865050672E+00 
    2.2163118090027774E+00 
    2.2172094025720330E+00 
    2.2139902182733788E+00 
    2.2118514217794560E+00 
    2.2082402980395628E+00 
    2.2109204428369966E+00 
    2.2082785782391881E+00 
    2.2057082724282755E+00 
    2.2129402238567506E+00 
    2.2147441193531163E+00 
    2.2099384085388851E+00 
    2.2096533031706476E+00 
    2.2035514153316202E+00 
    2.2066275339518611E+00 
    2.2057198954664123E+00 
    2.2012441924984847E+00 
    2.2043498903416210E+00 
    2.2027369942964810E+00 
    2.1999235052146648E+00 
    2.2003429405326025E+00 
    2.2006827836239435E+00 
    2.1977816287732348E+00 
    2.1958890826212660E+00 
    2.1984078109822178E+00 
    2.1968546891465293E+00 
    2.1972963987886178E+00 
    2.1943969096356275E+00 
    2.1926068665828273E+00 
    2.1888632711011260E+00 
    2.1913604016050234E+00 
    2.1887029033474139E+00 
    2.1861295636475293E+00 
    2.1926791531000016E+00 
    2.1935650901198667E+00 
    2.1893530098770668E+00 
    2.1896084188694465E+00 
    2.1837677133795004E+00 
    2.1868984968645524E+00 
    2.1856816053941190E+00 
    2.1811967085145616E+00 
    2.1846209923493127E+00 
    2.1829431640532362E+00 
    2.1799558941336512E+00 
    2.1803773996607583E+00 
    2.1806748877744710E+00 
    2.1774500228416338E+00 
    2.1755628340304449E+00 
    2.1782119369790833E+00 
    2.1767706728566623E+00 
    2.1770667987210355E+00 
    2.1741501684941218E+00 
    2.1727975276005838E+00 
    2.1693250998634648E+00 
    2.1711575635204281E+00 
    2.1684674933796448E+00 
    2.1664878647697048E+00 
    2.1722907716134183E+00 
    2.1730388459376795E+00 
    2.1686948793824312E+00 
    2.1691179995562426E+00 
    2.1639964774307887E+00 
    2.1664429311157991E+00 
    2.1649760122010271E+00 
    2.1611042914880412E+00 
    2.1659877055225158E+00 
    2.1640515667817302E+00 
    2.1616210344213034E+00 
    2.1622823041802146E+00 
    2.1616901497296084E+00 
    2.1584935801154095E+00 
    2.1574074509140049E+00 
    2.1598046926459831E+00 
    2.1591007688367925E+00 
    2.1591314903111081E+00 
    2.1564174703639321E+00 
    2.1554193568343916E+00 
    2.1521053570565911E+00 
    2.1534822335717498E+00 
    2.1508674574746229E+00 