# vtk DataFile Version 2.0
Pressure Field Data 
ASCII 
DATASET UNSTRUCTURED_GRID 

POINTS 6273 double 

    0.0000000000000000E+00     0.0000000000000000E+00     0.0000000000000000E+00 
    1.0000000000000000E+00     0.0000000000000000E+00     0.0000000000000000E+00 
    1.0000000000000000E+00     1.0000000000000000E+00     0.0000000000000000E+00 
    0.0000000000000000E+00     1.0000000000000000E+00     0.0000000000000000E+00 
    1.5624999999970249E-02     0.0000000000000000E+00     0.0000000000000000E+00 
    3.1249999999940652E-02     0.0000000000000000E+00     0.0000000000000000E+00 
    4.6874999999905617E-02     0.0000000000000000E+00     0.0000000000000000E+00 
    6.2499999999870597E-02     0.0000000000000000E+00     0.0000000000000000E+00 
    7.8124999999846401E-02     0.0000000000000000E+00     0.0000000000000000E+00 
    9.3749999999822212E-02     0.0000000000000000E+00     0.0000000000000000E+00 
    1.0937499999979799E-01     0.0000000000000000E+00     0.0000000000000000E+00 
    1.2499999999977381E-01     0.0000000000000000E+00     0.0000000000000000E+00 
    1.4062499999972811E-01     0.0000000000000000E+00     0.0000000000000000E+00 
    1.5624999999968239E-01     0.0000000000000000E+00     0.0000000000000000E+00 
    1.7187499999963671E-01     0.0000000000000000E+00     0.0000000000000000E+00 
    1.8749999999959110E-01     0.0000000000000000E+00     0.0000000000000000E+00 
    2.0312499999954539E-01     0.0000000000000000E+00     0.0000000000000000E+00 
    2.1874999999949971E-01     0.0000000000000000E+00     0.0000000000000000E+00 
    2.3437499999945391E-01     0.0000000000000000E+00     0.0000000000000000E+00 
    2.4999999999940831E-01     0.0000000000000000E+00     0.0000000000000000E+00 
    2.6562499999936218E-01     0.0000000000000000E+00     0.0000000000000000E+00 
    2.8124999999931621E-01     0.0000000000000000E+00     0.0000000000000000E+00 
    2.9687499999927008E-01     0.0000000000000000E+00     0.0000000000000000E+00 
    3.1249999999922412E-01     0.0000000000000000E+00     0.0000000000000000E+00 
    3.2812499999917810E-01     0.0000000000000000E+00     0.0000000000000000E+00 
    3.4374999999913203E-01     0.0000000000000000E+00     0.0000000000000000E+00 
    3.5937499999908601E-01     0.0000000000000000E+00     0.0000000000000000E+00 
    3.7499999999903999E-01     0.0000000000000000E+00     0.0000000000000000E+00 
    3.9062499999899403E-01     0.0000000000000000E+00     0.0000000000000000E+00 
    4.0624999999894801E-01     0.0000000000000000E+00     0.0000000000000000E+00 
    4.2187499999890188E-01     0.0000000000000000E+00     0.0000000000000000E+00 
    4.3749999999885592E-01     0.0000000000000000E+00     0.0000000000000000E+00 
    4.5312499999880979E-01     0.0000000000000000E+00     0.0000000000000000E+00 
    4.6874999999876382E-01     0.0000000000000000E+00     0.0000000000000000E+00 
    4.8437499999871780E-01     0.0000000000000000E+00     0.0000000000000000E+00 
    4.9999999999867167E-01     0.0000000000000000E+00     0.0000000000000000E+00 
    5.1562499999871325E-01     0.0000000000000000E+00     0.0000000000000000E+00 
    5.3124999999875477E-01     0.0000000000000000E+00     0.0000000000000000E+00 
    5.4687499999879630E-01     0.0000000000000000E+00     0.0000000000000000E+00 
    5.6249999999883782E-01     0.0000000000000000E+00     0.0000000000000000E+00 
    5.7812499999887934E-01     0.0000000000000000E+00     0.0000000000000000E+00 
    5.9374999999892086E-01     0.0000000000000000E+00     0.0000000000000000E+00 
    6.0937499999896239E-01     0.0000000000000000E+00     0.0000000000000000E+00 
    6.2499999999900380E-01     0.0000000000000000E+00     0.0000000000000000E+00 
    6.4062499999904521E-01     0.0000000000000000E+00     0.0000000000000000E+00 
    6.5624999999908673E-01     0.0000000000000000E+00     0.0000000000000000E+00 
    6.7187499999912825E-01     0.0000000000000000E+00     0.0000000000000000E+00 
    6.8749999999916978E-01     0.0000000000000000E+00     0.0000000000000000E+00 
    7.0312499999921130E-01     0.0000000000000000E+00     0.0000000000000000E+00 
    7.1874999999925282E-01     0.0000000000000000E+00     0.0000000000000000E+00 
    7.3437499999929434E-01     0.0000000000000000E+00     0.0000000000000000E+00 
    7.4999999999933586E-01     0.0000000000000000E+00     0.0000000000000000E+00 
    7.6562499999937739E-01     0.0000000000000000E+00     0.0000000000000000E+00 
    7.8124999999941891E-01     0.0000000000000000E+00     0.0000000000000000E+00 
    7.9687499999946043E-01     0.0000000000000000E+00     0.0000000000000000E+00 
    8.1249999999950195E-01     0.0000000000000000E+00     0.0000000000000000E+00 
    8.2812499999954348E-01     0.0000000000000000E+00     0.0000000000000000E+00 
    8.4374999999958500E-01     0.0000000000000000E+00     0.0000000000000000E+00 
    8.5937499999962652E-01     0.0000000000000000E+00     0.0000000000000000E+00 
    8.7499999999966793E-01     0.0000000000000000E+00     0.0000000000000000E+00 
    8.9062499999970934E-01     0.0000000000000000E+00     0.0000000000000000E+00 
    9.0624999999975087E-01     0.0000000000000000E+00     0.0000000000000000E+00 
    9.2187499999979239E-01     0.0000000000000000E+00     0.0000000000000000E+00 
    9.3749999999983391E-01     0.0000000000000000E+00     0.0000000000000000E+00 
    9.5312499999987543E-01     0.0000000000000000E+00     0.0000000000000000E+00 
    9.6874999999991696E-01     0.0000000000000000E+00     0.0000000000000000E+00 
    9.8437499999995848E-01     0.0000000000000000E+00     0.0000000000000000E+00 
    1.0000000000000000E+00     1.5624999999970249E-02     0.0000000000000000E+00 
    1.0000000000000000E+00     3.1249999999940652E-02     0.0000000000000000E+00 
    1.0000000000000000E+00     4.6874999999905617E-02     0.0000000000000000E+00 
    1.0000000000000000E+00     6.2499999999870597E-02     0.0000000000000000E+00 
    1.0000000000000000E+00     7.8124999999846401E-02     0.0000000000000000E+00 
    1.0000000000000000E+00     9.3749999999822212E-02     0.0000000000000000E+00 
    1.0000000000000000E+00     1.0937499999979799E-01     0.0000000000000000E+00 
    1.0000000000000000E+00     1.2499999999977381E-01     0.0000000000000000E+00 
    1.0000000000000000E+00     1.4062499999972811E-01     0.0000000000000000E+00 
    1.0000000000000000E+00     1.5624999999968239E-01     0.0000000000000000E+00 
    1.0000000000000000E+00     1.7187499999963671E-01     0.0000000000000000E+00 
    1.0000000000000000E+00     1.8749999999959110E-01     0.0000000000000000E+00 
    1.0000000000000000E+00     2.0312499999954539E-01     0.0000000000000000E+00 
    1.0000000000000000E+00     2.1874999999949971E-01     0.0000000000000000E+00 
    1.0000000000000000E+00     2.3437499999945391E-01     0.0000000000000000E+00 
    1.0000000000000000E+00     2.4999999999940831E-01     0.0000000000000000E+00 
    1.0000000000000000E+00     2.6562499999936218E-01     0.0000000000000000E+00 
    1.0000000000000000E+00     2.8124999999931621E-01     0.0000000000000000E+00 
    1.0000000000000000E+00     2.9687499999927008E-01     0.0000000000000000E+00 
    1.0000000000000000E+00     3.1249999999922412E-01     0.0000000000000000E+00 
    1.0000000000000000E+00     3.2812499999917810E-01     0.0000000000000000E+00 
    1.0000000000000000E+00     3.4374999999913203E-01     0.0000000000000000E+00 
    1.0000000000000000E+00     3.5937499999908601E-01     0.0000000000000000E+00 
    1.0000000000000000E+00     3.7499999999903999E-01     0.0000000000000000E+00 
    1.0000000000000000E+00     3.9062499999899403E-01     0.0000000000000000E+00 
    1.0000000000000000E+00     4.0624999999894801E-01     0.0000000000000000E+00 
    1.0000000000000000E+00     4.2187499999890188E-01     0.0000000000000000E+00 
    1.0000000000000000E+00     4.3749999999885592E-01     0.0000000000000000E+00 
    1.0000000000000000E+00     4.5312499999880979E-01     0.0000000000000000E+00 
    1.0000000000000000E+00     4.6874999999876382E-01     0.0000000000000000E+00 
    1.0000000000000000E+00     4.8437499999871780E-01     0.0000000000000000E+00 
    1.0000000000000000E+00     4.9999999999867167E-01     0.0000000000000000E+00 
    1.0000000000000000E+00     5.1562499999871325E-01     0.0000000000000000E+00 
    1.0000000000000000E+00     5.3124999999875477E-01     0.0000000000000000E+00 
    1.0000000000000000E+00     5.4687499999879630E-01     0.0000000000000000E+00 
    1.0000000000000000E+00     5.6249999999883782E-01     0.0000000000000000E+00 
    1.0000000000000000E+00     5.7812499999887934E-01     0.0000000000000000E+00 
    1.0000000000000000E+00     5.9374999999892086E-01     0.0000000000000000E+00 
    1.0000000000000000E+00     6.0937499999896239E-01     0.0000000000000000E+00 
    1.0000000000000000E+00     6.2499999999900380E-01     0.0000000000000000E+00 
    1.0000000000000000E+00     6.4062499999904521E-01     0.0000000000000000E+00 
    1.0000000000000000E+00     6.5624999999908673E-01     0.0000000000000000E+00 
    1.0000000000000000E+00     6.7187499999912825E-01     0.0000000000000000E+00 
    1.0000000000000000E+00     6.8749999999916978E-01     0.0000000000000000E+00 
    1.0000000000000000E+00     7.0312499999921130E-01     0.0000000000000000E+00 
    1.0000000000000000E+00     7.1874999999925282E-01     0.0000000000000000E+00 
    1.0000000000000000E+00     7.3437499999929434E-01     0.0000000000000000E+00 
    1.0000000000000000E+00     7.4999999999933586E-01     0.0000000000000000E+00 
    1.0000000000000000E+00     7.6562499999937739E-01     0.0000000000000000E+00 
    1.0000000000000000E+00     7.8124999999941891E-01     0.0000000000000000E+00 
    1.0000000000000000E+00     7.9687499999946043E-01     0.0000000000000000E+00 
    1.0000000000000000E+00     8.1249999999950195E-01     0.0000000000000000E+00 
    1.0000000000000000E+00     8.2812499999954348E-01     0.0000000000000000E+00 
[...]
CELL_DATA 6144 
SCALARS Pressure double 1 
LOOKUP_TABLE default 

    3.0132879912603037E+00 
    2.9157095088178346E+00 
    2.9003376574982274E+00 
    2.9196770400267602E+00 
    2.8606275686632014E+00 
    2.8251395680299933E+00 
    2.8409369961987898E+00 
    2.8727887007815300E+00 
    2.8607281875945860E+00 
    2.8709659808768970E+00 
    2.8431992926732539E+00 
    2.8249481944695165E+00 
    2.8070642122724472E+00 
    2.8224916362136687E+00 
    2.8062582874014272E+00 
    2.7957640611851637E+00 
    2.8238264005657947E+00 
    2.8083693870835771E+00 
    2.7966134075357383E+00 
    2.8077784165563178E+00 
    2.7849705100270374E+00 
    2.7966240794249182E+00 
    2.7863304035590222E+00 
    2.7729545002756253E+00 
    2.7844946113550253E+00 
    2.7813037960292295E+00 
    2.7665071087914681E+00 
    2.7637877599560641E+00 
    2.7737269361443744E+00 
    2.7622249945670521E+00 
    2.7529679069615800E+00 
    2.7619752150810251E+00 
    2.7457498279856090E+00 
    2.7536984729679492E+00 
    2.7430514248917293E+00 
    2.7293223268971341E+00 
    2.7196726176226917E+00 
    2.7333282539897614E+00 
    2.7254247629488479E+00 
    2.7145711948987090E+00 
    2.7418185462893616E+00 
    2.7468401851301754E+00 
    2.7319659857707435E+00 
    2.7308755957798354E+00 
    2.7099678120040838E+00 
    2.7207935717694629E+00 
    2.7188894140753304E+00 
    2.7044293095070864E+00 
    2.7025809869501520E+00 
    2.7017053757037983E+00 
    2.6893351705668085E+00 
    2.6862337154505833E+00 
    2.6980590883414091E+00 
    2.6914723881099087E+00 
    2.6809937076950812E+00 
    2.6867878658477351E+00 
    2.6715464618238620E+00 
    2.6789631061144354E+00 
    2.6699384105491322E+00 
    2.6573363355518351E+00 
    2.6495746503355124E+00 
    2.6619886494324301E+00 
    2.6560390468993149E+00 
    2.6462130025455259E+00 
    2.6715730997361269E+00 
    2.6791401313223808E+00 
    2.6651560610646046E+00 
    2.6621068783649373E+00 
    2.6431966760937113E+00 
    2.6531945891712656E+00 
    2.6527524340651554E+00 
    2.6396595271246799E+00 
    2.6366081029367323E+00 
    2.6359154044611088E+00 
    2.6266276687430694E+00 
    2.6250750918941450E+00 
    2.6334026868960003E+00 
    2.6286032584591630E+00 
    2.6202180001301567E+00 
    2.6256223888691115E+00 
    2.6150401212995504E+00 
    2.6195608346001134E+00 
    2.6135471984400054E+00 
    2.6068451533603025E+00 
    2.6023763957041792E+00 
    2.6091178956602703E+00 
    2.6059263952477281E+00 
    2.6005314292138255E+00 
    2.6150770014187441E+00 
    2.6201680035285344E+00 
    2.6117180741194534E+00 
    2.6100100491424518E+00 
    2.5985184512036739E+00 
    2.6045306300655344E+00 
    2.6040297825764736E+00 
    2.5963773876369229E+00 
    2.5948357903040176E+00 
    2.5944487664604714E+00 
    2.5887007579434043E+00 
    2.5872741845519434E+00 
    2.5929988505935029E+00 
    2.5904125706293653E+00 
    2.5850996702704676E+00 
    2.5877499831930484E+00 
    2.5800101212954933E+00 
    2.5837944160481587E+00 
    2.5794484547642980E+00 
    2.5726825756507781E+00 
    2.5683059157776986E+00 
    2.5754808263535764E+00 
    2.5726132873779930E+00 
    2.5666482620010926E+00 
    2.5808511721899574E+00 
    2.5848936689894217E+00 
    2.5781322292117252E+00 
    2.5760778404952598E+00 
    2.5653735558829687E+00 
    2.5712342483405126E+00 
    2.5716603125800761E+00 
    2.5638765561700336E+00 
    2.5594090271715046E+00 
    2.5595006544652086E+00 
    2.5523803488894492E+00 
    2.5500523835915239E+00 
    2.5583388575640322E+00 
    2.5557552823545779E+00 
    2.5484545738901110E+00 
    2.5512281958377954E+00 
    2.5410396806898796E+00 
    2.5461178738652728E+00 
    2.5406712884110636E+00 
    2.5315377812925788E+00 
    2.5257979755490423E+00 
    2.5357410416907413E+00 
    2.5323021055109280E+00 
    2.5238945340169900E+00 
    2.5431649340277573E+00 
    2.5494751303394225E+00 
    2.5407761025486493E+00 
    2.5372379696269491E+00 
    2.5227145987078705E+00 
    2.5308172673861020E+00 
    2.5321045574867678E+00 
    2.5215741384007009E+00 
    2.5140062559897749E+00 
    2.5141835996725193E+00 
    2.5046894990317883E+00 
    2.5018077460971719E+00 
    2.5130093558989266E+00 
    2.5102717077144074E+00 
    2.5002035130622131E+00 
    2.5036454928170229E+00 
    2.4902771195578635E+00 
    2.4967679680880366E+00 
    2.4899705177756557E+00 
    2.4786223418309534E+00 
    2.4720072633768155E+00 
    2.4841144946164460E+00 
    2.4800212463034015E+00 
    2.4700992939965101E+00 
    2.4938606567724735E+00 
    2.5024780167574985E+00 
    2.4912704042761904E+00 
    2.4865425782738382E+00 
    2.4689311188165286E+00 
    2.4786954579725768E+00 
    2.4805708266272899E+00 
    2.4680630592884070E+00 
    2.4589092982594547E+00 
    2.4591457045788041E+00 
    2.4489617271853374E+00 
    2.4462083619167267E+00 
    2.4579218427454479E+00 
    2.4549052776977285E+00 
    2.4436952962805889E+00 
    2.4479972364521432E+00 
    2.4343030600952416E+00 
    2.4408103908629415E+00 
    2.4339707903026939E+00 
    2.4232178846699277E+00 
    2.4169275826015024E+00 
    2.4282398926068844E+00 
    2.4236281544448048E+00 
    2.4145410370324876E+00 
    2.4374860338397735E+00 
    2.4465424124246535E+00 
    2.4351031414580131E+00 
    2.4304708530084809E+00 
    2.4134011572786265E+00 
    2.4225768301919555E+00 
    2.4247255422152318E+00 
    2.4132697337063527E+00 
    2.4050199967295161E+00 
    2.4050925621878654E+00 
    2.3962525104350454E+00 
    2.3939501164613763E+00 
    2.4040843249934047E+00 
    2.4016629688917002E+00 
    2.3915667954553235E+00 
    2.3955981649487854E+00 
    2.3830234040859262E+00 
    2.3890105899913707E+00 
    2.3825098349868830E+00 
    2.3716398796930900E+00 
    2.3651520701247333E+00 
    2.3770619190775464E+00 
    2.3731067844778786E+00 
    2.3633155580050125E+00 
    2.3862949613677413E+00 
    2.3945794661005597E+00 
    2.3848512620386293E+00 
    2.3801598904619312E+00 
    2.3623702912979643E+00 
    2.3723349648008472E+00 
    2.3748203776145891E+00 
    2.3622560935683197E+00 
    2.3528799360982586E+00 
    2.3531714124052012E+00 
    2.3443479055083847E+00 
    2.3421788433690875E+00 
    2.3524230752970179E+00 
    2.3502058629320826E+00 
    2.3403887948751736E+00 
    2.3439092201032690E+00 
    2.3324144173462522E+00 
    2.3377125293148953E+00 
    2.3321150674267837E+00 
    2.3234912929886509E+00 
    2.3186115809645127E+00 
    2.3274927408611803E+00 
    2.3243742145349602E+00 
    2.3171463271020682E+00 
    2.3352362008576053E+00 
    2.3429340883132039E+00 
    2.3334645376740042E+00 
    2.3296463778351684E+00 
    2.3162424144029088E+00 
    2.3236264485771319E+00 
    2.3250378214841358E+00 
    2.3156869519930088E+00 
    2.3093873283844637E+00 
    2.3094019214325066E+00 
    2.3024570235282615E+00 
    2.3008370786884829E+00 
    2.3085553490482886E+00 
    2.3064842698989549E+00 
    2.2990757707091944E+00 
    2.3019521441601052E+00 
    2.2932356860715193E+00 
    2.2972590761908003E+00 
    2.2930246657773345E+00 
    2.2864888465717188E+00 
    2.2826326590895509E+00 
    2.2893577503397049E+00 
    2.2863665712098555E+00 
    2.2809516456799601E+00 
    2.2949963521637975E+00 
    2.3006755498699722E+00 
    2.2931321353772236E+00 
    2.2903897306913232E+00 
    2.2799189570337064E+00 
    2.2854061525601379E+00 
    2.2864157179728961E+00 
    2.2792082466923071E+00 
    2.2754488627094216E+00 
    2.2752899318509527E+00 
    2.2701568607535423E+00 
    2.2689510582896810E+00 
    2.2743887526143243E+00 
    2.2724578198611889E+00 
    2.2671762369358479E+00 
    2.2695122545978696E+00 
    2.2631211698941645E+00 
    2.2661146681165043E+00 
    2.2625567337847006E+00 
    2.2576568137082638E+00 
    2.2546607960618728E+00 
    2.2596067192257250E+00 
    2.2575598670241583E+00 
    2.2534786225264263E+00 
    2.2637704036086452E+00 
    2.2676793861509257E+00 
    2.2618919896591594E+00 
    2.2602227636520991E+00 
    2.2524022419793739E+00 
    2.2565843432901889E+00 
    2.2567766992239631E+00 
    2.2511637445617718E+00 
    2.2491915871305204E+00 
    2.2490587982563643E+00 
    2.2449959344763273E+00 
    2.2439458771654208E+00 
    2.2480727523400068E+00 
    2.2461459239974104E+00 
    2.2422882786247871E+00 
    2.2441623347946198E+00 
    2.2392516763429948E+00 
    2.2415944675372939E+00 
    2.2387283678454009E+00 
    2.2347296817955447E+00 
    2.2320896122122256E+00 
    2.2361858686195162E+00 
    2.2341194617282598E+00 
    2.2307126694487271E+00 
    2.2393387062531636E+00 
    2.2420602240245282E+00 
    2.2372673419133409E+00 
    2.2361684631624636E+00 
    2.2295987111846505E+00 
    2.2329623612512282E+00 
    2.2329189223817618E+00 
    2.2282033855912355E+00 
    2.2272255170518220E+00 
    2.2270824932783393E+00 
    2.2235511952843607E+00 
    2.2225269956781846E+00 
    2.2260831909199532E+00 
    2.2241214741719131E+00 
    2.2210249164632834E+00 
    2.2226671895108150E+00 
    2.2183313889023277E+00 
    2.2204507390392485E+00 
    2.2178631473587904E+00 
    2.2141520160368957E+00 
    2.2117556428428058E+00 
    2.2154671922894646E+00 
    2.2136114788465644E+00 
    2.2105350055025537E+00 
    2.2181533445696480E+00 
    2.2203174673425328E+00 
    2.2160168934354005E+00 
    2.2152135275287441E+00 
    2.2094218192462836E+00 
    2.2124567705404607E+00 
    2.2121337285555249E+00 
    2.2078616393941650E+00 
    2.2073825925759372E+00 
    2.2071193649401133E+00 
    2.2039819725791396E+00 
    2.2032781228697527E+00 
    2.2061279250272356E+00 
    2.2042477804376377E+00 
    2.2017271378969707E+00 
    2.2032287044644963E+00 
    2.1998711772643254E+00 
    2.2014746424242668E+00 
    2.1994251138248155E+00 
    2.1968425478097440E+00 
    2.1951216499212052E+00 
    2.1975217487778917E+00 
    2.1957941944840829E+00 
    2.1939054828714606E+00 
    2.1993310763103557E+00 
    2.2008121087418164E+00 
    2.1971638652393333E+00 
    2.1968968251557590E+00 
    2.1927567651299804E+00 
    2.1947275098418855E+00 
    2.1941280013850846E+00 
    2.1912233987373795E+00 
    2.1925000437361781E+00 
    2.1920332610035240E+00 
    2.1905068081589381E+00 
    2.1904612500504150E+00 
    2.1910740054338049E+00 
    2.1894680475039232E+00 
    2.1888200751020737E+00 
    2.1899494907920718E+00 
    2.1890509496115116E+00 
    2.1894235325834099E+00 
    2.1884503549995711E+00 
    2.1881733706854134E+00 
    2.1878605577049730E+00 
    2.1876146520111410E+00 
    2.1867186804446694E+00 
    2.1870650449902072E+00 
    2.1874661757422080E+00 
    2.1871358376904739E+00 
    2.1854653031732818E+00 
    2.1863772796271959E+00 
    2.1858131508528347E+00 
    2.1858033521647511E+00 
    2.1845021082176022E+00 
    2.1840803497635579E+00 
    2.7860323563364817E+00 
    2.7663440704382189E+00 
    2.7676539437316152E+00 
    2.7820725234142625E+00 
    2.7491756630717141E+00 
    2.7337330289172628E+00 
    2.7462168245952836E+00 
    2.7554983599246743E+00 
    2.7748297854242168E+00 
    2.7635768030170778E+00 
    2.7549749428323071E+00 
    2.7633094747004665E+00 
    2.7482206232800395E+00 
    2.7447380219339159E+00 
    2.7339956500434970E+00 
    2.7338941915011641E+00 
    2.7366444043930764E+00 
    2.7239494275222835E+00 
    2.7181519454601695E+00 
    2.7280847158438353E+00 
    2.7213826970177251E+00 
    2.7235694483198638E+00 
    2.7130923838984380E+00 
    2.7073422503971014E+00 
    2.7412940639970413E+00 
    2.7297845592451142E+00 
    2.7230735821825727E+00 
    2.7287852227191847E+00 
    2.7183375430938090E+00 
    2.7049566149869926E+00 
    2.7055009624394062E+00 
    2.7152781339718595E+00 
    2.7169025706274579E+00 
    2.7148946273877459E+00 
    2.7048492007055871E+00 
    2.7031008662761598E+00 
    2.6899688399067410E+00 
    2.6942552212683664E+00 
    2.6846665631676681E+00 
    2.6793851018611043E+00 
    2.6948355192420821E+00 
    2.6918526214454404E+00 
    2.6806459946429788E+00 
    2.6848569749705962E+00 
    2.6702909280655742E+00 
    2.6771923904378530E+00 
    2.6708666002544073E+00 
    2.6600166335303483E+00 
    2.6786835966006723E+00 
    2.6712685140198387E+00 
    2.6624588332770052E+00 
    2.6650295412154756E+00 
    2.6628551785033796E+00 
    2.6518505980902605E+00 
    2.6474509307989220E+00 
    2.6561562347433285E+00 
    2.6528773993851145E+00 
    2.6533683299165842E+00 
    2.6436397812284995E+00 
    2.6396797091343092E+00 
    2.6289984201306371E+00 
    2.6345255187064076E+00 
    2.6265063446109105E+00 
    2.6215238497574171E+00 
    2.6375025476578036E+00 
    2.6381367279283086E+00 
    2.6256063088495214E+00 
    2.6282880963636228E+00 
    2.6150564234424851E+00 
    2.6212595645755998E+00 
    2.6163992602558461E+00 
    2.6083822553016156E+00 
    2.6206099335636690E+00 
    2.6155757717797843E+00 
    2.6100827179090706E+00 
    2.6122644332247322E+00 
    2.6102401447470522E+00 
    2.6035521964320720E+00 
    2.6007780619767065E+00 
    2.6070220706687741E+00 
    2.6040834611868595E+00 
    2.6048100513362411E+00 
    2.5988907414203446E+00 
    2.5965722274855771E+00 
    2.5906918062054651E+00 
    2.5935900791972113E+00 
    2.5888805219906996E+00 
    2.5860111594772492E+00 
    2.5952911062220729E+00 
    2.5953104530720887E+00 
    2.5881334141232881E+00 
    2.5899207826597808E+00 
    2.5816565426882718E+00 
    2.5855059329025312E+00 
    2.5825627166076273E+00 
    2.5769801218589201E+00 
    2.5851032616657399E+00 
    2.5819227371945206E+00 
    2.5775756292338601E+00 
    2.5784762671859451E+00 
    2.5780998240928321E+00 
    2.5730829505146255E+00 
    2.5707271225510464E+00 
    2.5746823139692627E+00 
    2.5724077734762547E+00 
    2.5731430575299408E+00 
    2.5684063048550696E+00 
    2.5652741631146547E+00 
    2.5590862752801629E+00 
    2.5635168104009778E+00 
    2.5591766547448334E+00 
    2.5547686746438187E+00 
    2.5657149246876645E+00 
    2.5665240172251034E+00 
    2.5600896125928281E+00 
    2.5606011127354269E+00 
    2.5511806866313971E+00 
    2.5559575584836502E+00 
    2.5540601325210925E+00 
    2.5470371815505777E+00 
    2.5511899184067501E+00 
    2.5488370720676716E+00 
    2.5425549612047744E+00 
    2.5422768324499807E+00 
    2.5455009668856676E+00 
    2.5406802748358901E+00 
    2.5357162673817846E+00 
    2.5397531811290759E+00 
    2.5342186357791947E+00 
    2.5365182698255500E+00 
    2.5306762553393778E+00 
    2.5247435666763329E+00 
    2.5171030612689416E+00 
    2.5248051311018580E+00 
    2.5198283571651969E+00 
    2.5126978150398198E+00 
    2.5296698473974000E+00 
    2.5331891278136438E+00 
    2.5244516144969986E+00 
    2.5232140007681938E+00 
    2.5093934660871051E+00 
    2.5168077614790429E+00 
    2.5159818764360313E+00 
    2.5058763123678824E+00 
    2.5057786957927455E+00 
    2.5038383904190704E+00 
    2.4950371568674656E+00 
    2.4939995988837489E+00 
    2.5006812288742801E+00 
    2.4957990400606773E+00 
    2.4875702735339886E+00 
    2.4924193264357122E+00 
    2.4836990607357237E+00 
    2.4873148165634187E+00 
    2.4801576833858148E+00 
    2.4721906631754815E+00 
    2.4634568329076405E+00 
    2.4733916909736222E+00 
    2.4677960658987681E+00 
    2.4589995365343369E+00 
    2.4805908876136771E+00 
    2.4868999571734580E+00 
    2.4756921546197010E+00 
    2.4729984963140978E+00 
    2.4559010719771677E+00 
    2.4651356044168327E+00 
    2.4651287194229705E+00 
    2.4530778500106147E+00 
    2.4506695621534282E+00 
    2.4488487098840599E+00 
    2.4393264117180964E+00 
    2.4383138871016277E+00 
    2.4459710627648485E+00 
    2.4414180906995240E+00 
    2.4321788525607380E+00 
    2.4374963921121640E+00 
    2.4278942191730413E+00 
    2.4317738768143848E+00 
    2.4246865585466781E+00 
    2.4171231527369197E+00 
    2.4092907671125996E+00 
    2.4183372276256159E+00 
    2.4131244111411596E+00 
    2.4053830575555826E+00 
    2.4256920269581346E+00 
    2.4325795135874042E+00 
    2.4217215123460782E+00 
    2.4186750700851829E+00 
    2.4028550589470830E+00 
    2.4112185757444053E+00 
    2.4120118825175774E+00 
    2.4014034085549643E+00 
    2.3984540063746618E+00 
    2.3969877542754161E+00 
    2.3890181090975022E+00 
    2.3880658459474442E+00 
    2.3945910946243272E+00 
    2.3907667983450258E+00 
    2.3822566818879229E+00 
    2.3873303613889152E+00 
    2.3783792983958176E+00 
    2.3822258432064034E+00 
    2.3753559990068074E+00 
    2.3668925085432444E+00 
    2.3587751043913610E+00 
    2.3691132253742784E+00 
    2.3643110562030705E+00 
    2.3552133460328473E+00 
    2.3762026428222587E+00 
    2.3828501304225380E+00 
    2.3724732772609536E+00 
    2.3695144582553977E+00 
    2.3526453369109315E+00 
    2.3623422866308608E+00 
    2.3625390537102318E+00 
    2.3503194768716633E+00 
    2.3467852787923293E+00 
    2.3454533721357986E+00 
    2.3373713950449799E+00 
    2.3363126482238510E+00 
    2.3430014291811991E+00 
    2.3387759701948676E+00 
    2.3308170256575806E+00 
    2.3356532922169619E+00 
    2.3276197175934263E+00 
    2.3308852924568644E+00 
    2.3246821134456788E+00 
    2.3185606667744341E+00 
    2.3120034970556960E+00 
    2.3189794584377159E+00 
    2.3146444935245496E+00 
    2.3085745845224639E+00 
    2.3247086228944434E+00 
    2.3303661187259173E+00 
    2.3207505326733520E+00 
    2.3186198924093135E+00 
    2.3059282296731132E+00 
    2.3126231713966803E+00 
    2.3124563905384181E+00 
    2.3034055033376042E+00 
    2.3033150667544611E+00 
    2.3019204337814130E+00 
    2.2956223579679120E+00 
    2.2950491056620788E+00 
    2.2994108751011906E+00 
    2.2953047981291097E+00 
    2.2894937247108733E+00 
    2.2937641512055702E+00 
    2.2880859934992097E+00 
    2.2901908032096201E+00 
    2.2851359246033498E+00 
    2.2809236516739388E+00 
    2.2754830612166077E+00 
    2.2804715049359134E+00 
    2.2765922819221203E+00 
    2.2720635106227833E+00 
    2.2844664889132762E+00 
    2.2883378119079496E+00 
    2.2804949297972446E+00 
    2.2793139482630878E+00 
    2.2692724626043415E+00 
    2.2744279393760065E+00 
    2.2736345150416888E+00 
    2.2663954537034114E+00 
    2.2689759602544348E+00 
    2.2670278400520174E+00 
    2.2624273462739639E+00 
    2.2626796895486190E+00 
    2.2643909297399603E+00 
    2.2605169174007020E+00 
    2.2569355577141352E+00 
    2.2605095573782332E+00 
    2.2574215186554283E+00 
    2.2584176007071073E+00 
    2.2542814837481093E+00 
    2.2517494430945426E+00 
    2.2470978943838027E+00 
    2.2501441471423713E+00 
    2.2466618504072104E+00 
    2.2436915404247282E+00 
    2.2524357829276234E+00 
    2.2544400150113173E+00 
    2.2481685971358742E+00 
    2.2481223804666874E+00 
    2.2407090830490071E+00 
    2.2443448154671044E+00 
    2.2428742656654581E+00 
    2.2373520188248945E+00 
    2.2423951406068863E+00 
    2.2402270381173741E+00 
    2.2367480020841533E+00 
    2.2373694051020854E+00 
    2.2373720258124843E+00 
    2.2333550113993281E+00 
    2.2313192750777371E+00 
    2.2345598617161744E+00 
    2.2330384593432546E+00 
    2.2332923597766285E+00 
    2.2297739639496608E+00 
    2.2282741038739400E+00 
    2.2240900334222617E+00 
    2.2261577192295636E+00 
    2.2228976607276540E+00 
    2.2206320940959534E+00 
    2.2273572944342783E+00 
    2.2279693626789561E+00 
    2.2228822271188697E+00 
    2.2235589075297821E+00 
    2.2175773314033993E+00 
    2.2204067026890542E+00 
    2.2185179838328346E+00 
    2.2140068002250390E+00 
    2.2201599894577422E+00 
    2.2177967131296663E+00 
    2.2149412119613192E+00 
    2.2157651662196596E+00 
    2.2149258655191351E+00 
    2.2110589200777877E+00 
    2.2098908168658431E+00 
    2.2127505233098681E+00 
    2.2119927451320249E+00 
    2.2119971498036484E+00 
    2.2087786713486506E+00 
    2.2076298716972773E+00 
    2.2037012831914051E+00 
    2.2052971824434922E+00 
    2.2021919352104660E+00 