# vtk DataFile Version 2.0
Pressure Field Data 
ASCII 
DATASET UNSTRUCTURED_GRID 

POINTS 6273 double 

    0.0000000000000000E+00     0.0000000000000000E+00     0.0000000000000000E+00 
    1.0000000000000000E+00     0.0000000000000000E+00     0.0000000000000000E+00 
    1.0000000000000000E+00     1.0000000000000000E+00     0.0000000000000000E+00 
    0.0000000000000000E+00     1.0000000000000000E+00     0.0000000000000000E+00 
    1.5624999999970249E-02     0.0000000000000000E+00     0.0000000000000000E+00 
    3.1249999999940652E-02     0.0000000000000000E+00     0.0000000000000000E+00 
    4.6874999999905617E-02     0.0000000000000000E+00     0.0000000000000000E+00 
    6.2499999999870597E-02     0.0000000000000000E+00     0.0000000000000000E+00 
    7.8124999999846401E-02     0.0000000000000000E+00     0.0000000000000000E+00 
    9.3749999999822212E-02     0.0000000000000000E+00     0.0000000000000000E+00 
    1.0937499999979799E-01     0.0000000000000000E+00     0.0000000000000000E+00 
    1.2499999999977381E-01     0.0000000000000000E+00     0.0000000000000000E+00 
    1.4062499999972811E-01     0.0000000000000000E+00     0.0000000000000000E+00 
    1.5624999999968239E-01     0.0000000000000000E+00     0.0000000000000000E+00 
    1.7187499999963671E-01     0.0000000000000000E+00     0.0000000000000000E+00 
    1.8749999999959110E-01     0.0000000000000000E+00     0.0000000000000000E+00 
    2.0312499999954539E-01     0.0000000000000000E+00     0.0000000000000000E+00 
    2.1874999999949971E-01     0.0000000000000000E+00     0.0000000000000000E+00 
    2.3437499999945391E-01     0.0000000000000000E+00     0.0000000000000000E+00 
    2.4999999999940831E-01     0.0000000000000000E+00     0.0000000000000000E+00 
    2.6562499999936218E-01     0.0000000000000000E+00     0.0000000000000000E+00 
    2.8124999999931621E-01     0.0000000000000000E+00     0.0000000000000000E+00 
    2.9687499999927008E-01     0.0000000000000000E+00     0.0000000000000000E+00 
    3.1249999999922412E-01     0.0000000000000000E+00     0.0000000000000000E+00 
    3.2812499999917810E-01     0.0000000000000000E+00     0.0000000000000000E+00 
    3.4374999999913203E-01     0.0000000000000000E+00     0.0000000000000000E+00 
    3.5937499999908601E-01     0.0000000000000000E+00     0.0000000000000000E+00 
    3.7499999999903999E-01     0.0000000000000000E+00     0.0000000000000000E+00 
    3.9062499999899403E-01     0.0000000000000000E+00     0.0000000000000000E+00 
    4.0624999999894801E-01     0.0000000000000000E+00     0.0000000000000000E+00 
    4.2187499999890188E-01     0.0000000000000000E+00     0.0000000000000000E+00 
    4.3749999999885592E-01     0.0000000000000000E+00     0.0000000000000000E+00 
    4.5312499999880979E-01     0.0000000000000000E+00     0.0000000000000000E+00 
    4.6874999999876382E-01     0.0000000000000000E+00     0.0000000000000000E+00 
    4.8437499999871780E-01     0.0000000000000000E+00     0.0000000000000000E+00 
    4.9999999999867167E-01     0.0000000000000000E+00     0.0000000000000000E+00 
    5.1562499999871325E-01     0.0000000000000000E+00     0.0000000000000000E+00 
    5.3124999999875477E-01     0.0000000000000000E+00     0.0000000000000000E+00 
    5.4687499999879630E-01     0.0000000000000000E+00     0.0000000000000000E+00 
    5.6249999999883782E-01     0.0000000000000000E+00     0.0000000000000000E+00 
    5.7812499999887934E-01     0.0000000000000000E+00     0.0000000000000000E+00 
    5.9374999999892086E-01     0.0000000000000000E+00     0.0000000000000000E+00 
    6.0937499999896239E-01     0.0000000000000000E+00     0.0000000000000000E+00 
    6.2499999999900380E-01     0.0000000000000000E+00     0.0000000000000000E+00 
    6.4062499999904521E-01     0.0000000000000000E+00     0.0000000000000000E+00 
    6.5624999999908673E-01     0.0000000000000000E+00     0.0000000000000000E+00 
    6.7187499999912825E-01     0.0000000000000000E+00     0.0000000000000000E+00 
    6.8749999999916978E-01     0.0000000000000000E+00     0.0000000000000000E+00 
    7.0312499999921130E-01     0.0000000000000000E+00     0.0000000000000000E+00 
    7.1874999999925282E-01     0.0000000000000000E+00     0.0000000000000000E+00 
    7.3437499999929434E-01     0.0000000000000000E+00     0.0000000000000000E+00 
    7.4999999999933586E-01     0.0000000000000000E+00     0.0000000000000000E+00 
    7.6562499999937739E-01     0.0000000000000000E+00     0.0000000000000000E+00 
    7.8124999999941891E-01     0.0000000000000000E+00     0.0000000000000000E+00 
    7.9687499999946043E-01     0.0000000000000000E+00     0.0000000000000000E+00 
    8.1249999999950195E-01     0.0000000000000000E+00     0.0000000000000000E+00 
    8.2812499999954348E-01     0.0000000000000000E+00     0.0000000000000000E+00 
    8.4374999999958500E-01     0.0000000000000000E+00     0.0000000000000000E+00 
    8.5937499999962652E-01     0.0000000000000000E+00     0.0000000000000000E+00 
    8.7499999999966793E-01     0.0000000000000000E+00     0.0000000000000000E+00 
    8.9062499999970934E-01     0.0000000000000000E+00     0.0000000000000000E+00 
    9.0624999999975087E-01     0.0000000000000000E+00     0.0000000000000000E+00 
    9.2187499999979239E-01     0.0000000000000000E+00     0.0000000000000000E+00 
    9.3749999999983391E-01     0.0000000000000000E+00     0.0000000000000000E+00 
    9.5312499999987543E-01     0.0000000000000000E+00     0.0000000000000000E+00 
    9.6874999999991696E-01     0.0000000000000000E+00     0.0000000000000000E+00 
    9.8437499999995848E-01     0.0000000000000000E+00     0.0000000000000000E+00 
    1.0000000000000000E+00     1.5624999999970249E-02     0.0000000000000000E+00 
    1.0000000000000000E+00     3.1249999999940652E-02     0.0000000000000000E+00 
    1.0000000000000000E+00     4.6874999999905617E-02     0.0000000000000000E+00 
    1.0000000000000000E+00     6.2499999999870597E-02     0.0000000000000000E+00 
    1.0000000000000000E+00     7.8124999999846401E-02     0.0000000000000000E+00 
    1.0000000000000000E+00     9.3749999999822212E-02     0.0000000000000000E+00 
    1.0000000000000000E+00     1.0937499999979799E-01     0.0000000000000000E+00 
    1.0000000000000000E+00     1.2499999999977381E-01     0.0000000000000000E+00 
    1.0000000000000000E+00     1.4062499999972811E-01     0.0000000000000000E+00 
    1.0000000000000000E+00     1.5624999999968239E-01     0.0000000000000000E+00 
    1.0000000000000000E+00     1.7187499999963671E-01     0.0000000000000000E+00 
    1.0000000000000000E+00     1.8749999999959110E-01     0.0000000000000000E+00 
    1.0000000000000000E+00     2.0312499999954539E-01     0.0000000000000000E+00 
    1.0000000000000000E+00     2.1874999999949971E-01     0.0000000000000000E+00 
    1.0000000000000000E+00     2.3437499999945391E-01     0.0000000000000000E+00 
    1.0000000000000000E+00     2.4999999999940831E-01     0.0000000000000000E+00 
    1.0000000000000000E+00     2.6562499999936218E-01     0.0000000000000000E+00 
    1.0000000000000000E+00     2.8124999999931621E-01     0.0000000000000000E+00 
    1.0000000000000000E+00     2.9687499999927008E-01     0.0000000000000000E+00 
    1.0000000000000000E+00     3.1249999999922412E-01     0.0000000000000000E+00 
    1.0000000000000000E+00     3.2812499999917810E-01     0.0000000000000000E+00 
    1.0000000000000000E+00     3.4374999999913203E-01     0.0000000000000000E+00 
    1.0000000000000000E+00     3.5937499999908601E-01     0.0000000000000000E+00 
    1.0000000000000000E+00     3.7499999999903999E-01     0.0000000000000000E+00 
    1.0000000000000000E+00     3.9062499999899403E-01     0.0000000000000000E+00 
    1.0000000000000000E+00     4.0624999999894801E-01     0.0000000000000000E+00 
    1.0000000000000000E+00     4.2187499999890188E-01     0.0000000000000000E+00 
    1.0000000000000000E+00     4.3749999999885592E-01     0.0000000000000000E+00 
    1.0000000000000000E+00     4.5312499999880979E-01     0.0000000000000000E+00 
    1.0000000000000000E+00     4.6874999999876382E-01     0.0000000000000000E+00 
    1.0000000000000000E+00     4.8437499999871780E-01     0.0000000000000000E+00 
    1.0000000000000000E+00     4.9999999999867167E-01     0.0000000000000000E+00 
    1.0000000000000000E+00     5.1562499999871325E-01     0.0000000000000000E+00 
    1.0000000000000000E+00     5.3124999999875477E-01     0.0000000000000000E+00 
    1.0000000000000000E+00     5.4687499999879630E-01     0.0000000000000000E+00 
    1.0000000000000000E+00     5.6249999999883782E-01     0.0000000000000000E+00 
    1.0000000000000000E+00     5.7812499999887934E-01     0.0000000000000000E+00 
    1.0000000000000000E+00     5.9374999999892086E-01     0.0000000000000000E+00 
    1.0000000000000000E+00     6.0937499999896239E-01     0.0000000000000000E+00 
    1.0000000000000000E+00     6.2499999999900380E-01     0.0000000000000000E+00 
    1.0000000000000000E+00     6.4062499999904521E-01     0.0000000000000000E+00 
    1.0000000000000000E+00     6.5624999999908673E-01     0.0000000000000000E+00 
    1.0000000000000000E+00     6.7187499999912825E-01     0.0000000000000000E+00 
    1.0000000000000000E+00     6.8749999999916978E-01     0.0000000000000000E+00 
    1.0000000000000000E+00     7.0312499999921130E-01     0.0000000000000000E+00 
    1.0000000000000000E+00     7.1874999999925282E-01     0.0000000000000000E+00 
    1.0000000000000000E+00     7.3437499999929434E-01     0.0000000000000000E+00 
    1.0000000000000000E+00     7.4999999999933586E-01     0.0000000000000000E+00 
    1.0000000000000000E+00     7.6562499999937739E-01     0.0000000000000000E+00 
    1.0000000000000000E+00     7.8124999999941891E-01     0.0000000000000000E+00 
    1.0000000000000000E+00     7.9687499999946043E-01     0.0000000000000000E+00 
    1.0000000000000000E+00     8.1249999999950195E-01     0.0000000000000000E+00 
    1.0000000000000000E+00     8.2812499999954348E-01     0.0000000000000000E+00 
[...]
CELL_DATA 6144 
SCALARS Pressure double 1 
LOOKUP_TABLE default 

    2.8361557238805797E+00 
    2.7387463889057284E+00 
    2.7234217496290372E+00 
    2.7425676692202621E+00 
    2.6838632246692224E+00 
    2.6487811038167060E+00 
    2.6643461255953529E+00 
    2.6958001924053758E+00 
    2.6839943713743817E+00 
    2.6940673864528035E+00 
    2.6665800012800815E+00 
    2.6486464515315236E+00 
    2.6311383051201527E+00 
    2.6461456716695033E+00 
    2.6302305834681308E+00 
    2.6200249891838854E+00 
    2.6474421655586298E+00 
    2.6323251527023293E+00 
    2.6207759717319390E+00 
    2.6316669024966330E+00 
    2.6095677978004477E+00 
    2.6208063129782841E+00 
    2.6108170852292254E+00 
    2.5979862161795531E+00 
    2.6092474047785172E+00 
    2.6061577831505645E+00 
    2.5921521686228863E+00 
    2.5895845872165970E+00 
    2.5988620517097023E+00 
    2.5878698840073646E+00 
    2.5793225459499571E+00 
    2.5877690451789124E+00 
    2.5728026792903633E+00 
    2.5800862313190209E+00 
    2.5701970944719221E+00 
    2.5576567934078787E+00 
    2.5487652890719827E+00 
    2.5611338878126326E+00 
    2.5538143562236346E+00 
    2.5439685891286716E+00 
    2.5688467574081857E+00 
    2.5733807135476234E+00 
    2.5595945287243245E+00 
    2.5586994953061453E+00 
    2.5397245716656194E+00 
    2.5494668739647368E+00 
    2.5476214793434684E+00 
    2.5345770374043881E+00 
    2.5332605881497132E+00 
    2.5324651371319549E+00 
    2.5214968602821428E+00 
    2.5186671527040954E+00 
    2.5291202237512156E+00 
    2.5231292231405416E+00 
    2.5140367509166612E+00 
    2.5191072758297901E+00 
    2.5057241133230677E+00 
    2.5122365844930954E+00 
    2.5043061236496569E+00 
    2.4931666833144988E+00 
    2.4862799852309618E+00 
    2.4972580385847643E+00 
    2.4920116614298804E+00 
    2.4832907453418223E+00 
    2.5056328256606379E+00 
    2.5121583729567485E+00 
    2.4999030988713957E+00 
    2.4972594474550180E+00 
    2.4805833244128697E+00 
    2.4893687861954015E+00 
    2.4889697443133914E+00 
    2.4772848034969743E+00 
    2.4746950101471543E+00 
    2.4741144922042455E+00 
    2.4657980762346803E+00 
    2.4644944634989048E+00 
    2.4717848262608606E+00 
    2.4673367312377312E+00 
    2.4600366333070216E+00 
    2.4647617199066043E+00 
    2.4559474252711735E+00 
    2.4596247575574028E+00 
    2.4544330512264803E+00 
    2.4492056813417649E+00 
    2.4455996228480936E+00 
    2.4507185486516638E+00 
    2.4481042899635357E+00 
    2.4440394297753509E+00 
    2.4554881553586312E+00 
    2.4597232786703622E+00 
    2.4526195688839980E+00 
    2.4514344764458937E+00 
    2.4423513540932826E+00 
    2.4470871324584853E+00 
    2.4466414094768711E+00 
    2.4406828594820555E+00 
    2.4397356956236473E+00 
    2.4393921997334163E+00 
    2.4350771295880902E+00 
    2.4340371386858886E+00 
    2.4382406583498701E+00 
    2.4361967753979790E+00 
    2.4322757409830529E+00 
    2.4342982589176554E+00 
    2.4286308441482030E+00 
    2.4314286331132005E+00 
    2.4281918101002411E+00 
    2.4231625090563593E+00 
    2.4198725286113443E+00 
    2.4251669715607460E+00 
    2.4229517120509172E+00 
    2.4185450422921595E+00 
    2.4290356971861602E+00 
    2.4319265578996023E+00 
    2.4268668349258626E+00 
    2.4254237339685800E+00 
    2.4174747707951743E+00 
    2.4217923737110931E+00 
    2.4220216801722843E+00 
    2.4161708799836394E+00 
    2.4131897070563961E+00 
    2.4132282515207670E+00 
    2.4078937555715498E+00 
    2.4060982253678880E+00 
    2.4122291473025124E+00 
    2.4101156309117906E+00 
    2.4047911927023344E+00 
    2.4068563290515170E+00 
    2.3993312616390989E+00 
    2.4031156105613967E+00 
    2.3989902198386166E+00 
    2.3921089348074536E+00 
    2.3877139374661125E+00 
    2.3951632147700188E+00 
    2.3924416798250410E+00 
    2.3861189681887320E+00 
    2.4006212885327458E+00 
    2.4052164568891237E+00 
    2.3985322879177762E+00 
    2.3960111354463645E+00 
    2.3850110335529044E+00 
    2.3910965389000758E+00 
    2.3918841035443621E+00 
    2.3838351274335450E+00 
    2.3786758892357058E+00 
    2.3787511355113624E+00 
    2.3714825186640431E+00 
    2.3692431865563877E+00 
    2.3776630789317363E+00 
    2.3753297489519780E+00 
    2.3678699446348048E+00 
    2.3704818447458336E+00 
    2.3604336247757720E+00 
    2.3653547320292763E+00 
    2.3601359790681178E+00 
    2.3514966334502092E+00 
    2.3464322506830415E+00 
    2.3555747635168571E+00 
    2.3523248852225582E+00 
    2.3448356248011066E+00 
    2.3628311950630052E+00 
    2.3691830363358783E+00 
    2.3605655931547442E+00 
    2.3571346757288856E+00 
    2.3437430640603187E+00 
    2.3511019955130994E+00 
    2.3523224800458906E+00 
    2.3427497544879881E+00 
    2.3364464318892448E+00 
    2.3365519738150389E+00 
    2.3288459354895239E+00 
    2.3267738242400720E+00 
    2.3354376431251733E+00 
    2.3328654097234867E+00 
    2.3246618438148787E+00 
    2.3279389136159052E+00 
    2.3178585699796175E+00 
    2.3226428496298066E+00 
    2.3174843088701249E+00 
    2.3096616913639485E+00 
    2.3050326035340922E+00 
    2.3131335385473051E+00 
    2.3095689485639794E+00 
    2.3031096636032351E+00 
    2.3197819878042294E+00 
    2.3262407114856964E+00 
    2.3174965344680554E+00 
    2.3144019231361805E+00 
    2.3019433811129004E+00 
    2.3085281042310717E+00 
    2.3097065627345046E+00 
    2.3013117320768579E+00 
    2.2965699647285343E+00 
    2.2964487929940680E+00 
    2.2903109491383034E+00 
    2.2888709482890897E+00 
    2.2954548992851889E+00 
    2.2933067816136776E+00 
    2.2867064798251704E+00 
    2.2896523813975316E+00 
    2.2817881280115144E+00 
    2.2854221288786749E+00 
    2.2812760088041055E+00 
    2.2754252441480904E+00 
    2.2718865748668207E+00 
    2.2779220201660766E+00 
    2.2754513988231539E+00 
    2.2705755683196815E+00 
    2.2829751000123144E+00 
    2.2879210464761446E+00 
    2.2812515470536052E+00 
    2.2789571947323464E+00 
    2.2696490427660989E+00 
    2.2746877999184223E+00 
    2.2753496570071814E+00 
    2.2689426129954704E+00 
    2.2653372081624954E+00 
    2.2652228327739969E+00 
    2.2603577925607206E+00 
    2.2592227175597097E+00 
    2.2644578572952150E+00 
    2.2628207579706134E+00 
    2.2577756366641384E+00 
    2.2598969607573101E+00 
    2.2536102986289719E+00 
    2.2565660849046965E+00 
    2.2533059166832006E+00 
    2.2483854273825088E+00 
    2.2454511059144679E+00 
    2.2505229453909648E+00 
    2.2485558127701624E+00 
    2.2444046392875099E+00 
    2.2546803495223475E+00 
    2.2585786522858506E+00 
    2.2532448725472261E+00 
    2.2513783589771510E+00 
    2.2436343076634726E+00 
    2.2478833162560004E+00 
    2.2483996504081665E+00 
    2.2429176443751895E+00 
    2.2399258447833139E+00 
    2.2398273699845297E+00 
    2.2356278745602829E+00 
    2.2346722188446009E+00 
    2.2391152324479235E+00 
    2.2375645617881714E+00 
    2.2333047090542082E+00 
    2.2351679947426506E+00 
    2.2299456122631085E+00 
    2.2323902925741677E+00 
    2.2296987961306631E+00 
    2.2256635681563188E+00 
    2.2231251534071457E+00 
    2.2272951649110779E+00 
    2.2252571363346023E+00 
    2.2218715280817043E+00 
    2.2306151621407282E+00 
    2.2337858568280446E+00 
    2.2290598652211986E+00 
    2.2276231263515944E+00 
    2.2210054570023856E+00 
    2.2244570622488471E+00 
    2.2248301503003534E+00 
    2.2202485928099600E+00 
    2.2184250734451276E+00 
    2.2182219923656419E+00 
    2.2147802920391695E+00 
    2.2139393381932062E+00 
    2.2174692941801366E+00 
    2.2159983516040116E+00 
    2.2125813240081498E+00 
    2.2142455570470192E+00 
    2.2094455605805270E+00 
    2.2118095556248023E+00 
    2.2089947396800000E+00 
    2.2047446111318512E+00 
    2.2021947467496736E+00 
    2.2065711133483683E+00 
    2.2048950019796165E+00 
    2.2012460032130723E+00 
    2.2100416263943581E+00 
    2.2126711844054681E+00 
    2.2086193172717952E+00 
    2.2073104950071913E+00 
    2.2004109161261640E+00 
    2.2041277593610173E+00 
    2.2045023463721396E+00 
    2.1994850500043590E+00 
    2.1976119751315677E+00 
    2.1975565481302737E+00 
    2.1941701874690986E+00 
    2.1932653068142649E+00 
    2.1967752642618659E+00 
    2.1952161359190736E+00 
    2.1919478521667837E+00 
    2.1934804198649571E+00 
    2.1893528108037774E+00 
    2.1913251157170657E+00 
    2.1889307517084404E+00 
    2.1855458906004239E+00 
    2.1833125387509256E+00 
    2.1867918686387404E+00 
    2.1850530184231296E+00 
    2.1821512528244065E+00 
    2.1894664343914663E+00 
    2.1917833308569938E+00 
    2.1877498649451232E+00 
    2.1867920105065846E+00 
    2.1812163190322607E+00 
    2.1840754954549366E+00 
    2.1840619181134033E+00 
    2.1800429217297559E+00 
    2.1791715852792728E+00 
    2.1790576877364551E+00 
    2.1760434280706220E+00 
    2.1751603526072341E+00 
    2.1782109971605328E+00 
    2.1765435607677648E+00 
    2.1738911234116651E+00 
    2.1752847470363763E+00 
    2.1715749042432564E+00 
    2.1733905600327206E+00 
    2.1711775577267658E+00 
    2.1679916309855889E+00 
    2.1659347981681156E+00 
    2.1691231936066102E+00 
    2.1675299755587685E+00 
    2.1648855770234459E+00 
    2.1714288800596950E+00 
    2.1732939627861385E+00 
    2.1696009344451235E+00 
    2.1689042658868769E+00 
    2.1639263215866511E+00 
    2.1665344546458249E+00 
    2.1662584648832000E+00 
    2.1625786867785100E+00 
    2.1621785835978669E+00 
    2.1619514757024074E+00 
    2.1592568269608643E+00 
    2.1586522946056217E+00 
    2.1610941516412496E+00 
    2.1594689507844880E+00 
    2.1573115039318753E+00 
    2.1586032997205034E+00 
    2.1557283733778330E+00 
    2.1571025014317384E+00 
    2.1553407892398400E+00 
    2.1531280892868239E+00 
    2.1516498275006644E+00 
    2.1537016200544281E+00 
    2.1522103198230202E+00 
    2.1505971260026242E+00 
    2.1552438213979070E+00 
    2.1565034020156264E+00 
    2.1533597528855855E+00 
    2.1531450296215180E+00 
    2.1495951278759309E+00 
    2.1512797287703731E+00 
    2.1507456340950095E+00 
    2.1482498561770074E+00 
    2.1494042480187119E+00 
    2.1489980413778951E+00 
    2.1476944534705393E+00 
    2.1476563460459990E+00 
    2.1481609032454148E+00 
    2.1467610682424580E+00 
    2.1462315286882778E+00 
    2.1472027607499875E+00 
    2.1464500187562621E+00 
    2.1467644177730461E+00 
    2.1459288710237621E+00 
    2.1456916298964028E+00 
    2.1454175731864735E+00 
    2.1452040874356948E+00 
    2.1444235116048631E+00 
    2.1447229820799438E+00 
    2.1450559840185397E+00 
    2.1447406917248584E+00 
    2.1433051203665805E+00 
    2.1441113384309616E+00 
    2.1436310435242660E+00 
    2.1436171225562526E+00 
    2.1424759432857976E+00 
    2.1421104517541298E+00 
    2.6106194992960288E+00 
    2.5919302953756644E+00 
    2.5930926707163455E+00 
    2.6067481165208259E+00 
    2.5758892084286087E+00 
    2.5615936796628533E+00 
    2.5730662700569127E+00 
    2.5816260968538116E+00 
    2.5998019871478752E+00 
    2.5891476137528691E+00 
    2.5810271475666764E+00 
    2.5888131023513892E+00 
    2.5745970751368930E+00 
    2.5714530921973719E+00 
    2.5614809243376424E+00 
    2.5612793853398106E+00 
    2.5641026611509736E+00 
    2.5524973901709447E+00 
    2.5470377488465470E+00 
    2.5560861174473857E+00 
    2.5498029426593432E+00 
    2.5518804421167456E+00 
    2.5423376919083740E+00 
    2.5370339511043549E+00 
    2.5681134156925691E+00 
    2.5574367080212426E+00 
    2.5512644577774135E+00 
    2.5565622974510060E+00 
    2.5469446023460085E+00 
    2.5348076378610664E+00 
    2.5352696657858185E+00 
    2.5441456373341151E+00 
    2.5456992769700029E+00 
    2.5438072552931028E+00 
    2.5347148494121443E+00 
    2.5332359018953112E+00 
    2.5214897724346654E+00 
    2.5252131236486242E+00 
    2.5166919214313328E+00 
    2.5120977503357564E+00 
    2.5257047877149748E+00 
    2.5230578383046356E+00 
    2.5131285777633647E+00 
    2.5168576138109864E+00 
    2.5041281337546524E+00 
    2.5101320247911603E+00 
    2.5045998412327526E+00 
    2.4952355075565382E+00 
    2.5116148729339538E+00 
    2.5050517047910010E+00 
    2.4974346593600041E+00 
    2.4997149603211053E+00 
    2.4977291799275223E+00 
    2.4882161824176263E+00 
    2.4843829008445049E+00 
    2.4919003972491951E+00 
    2.4890621798333625E+00 
    2.4895028276277045E+00 
    2.4809939226389530E+00 
    2.4773199861116617E+00 
    2.4676535660636465E+00 
    2.4728432214950495E+00 
    2.4655869946698639E+00 
    2.4608273696978351E+00 
    2.4755823881903232E+00 
    2.4762514689601947E+00 
    2.4649123799436348E+00 
    2.4671356860232545E+00 
    2.4551125539349110E+00 
    2.4607437245783985E+00 
    2.4563788532114725E+00 
    2.4492262000748841E+00 
    2.4600469223606161E+00 
    2.4555355601788671E+00 
    2.4510162442257730E+00 
    2.4531805024519229E+00 
    2.4508846527012476E+00 
    2.4453004506964406E+00 
    2.4432269930242794E+00 
    2.4486961116271915E+00 
    2.4465359365297816E+00 
    2.4469225559033796E+00 
    2.4421169988574909E+00 
    2.4405987706185033E+00 
    2.4359103687460277E+00 
    2.4378571082547174E+00 
    2.4341237638306521E+00 
    2.4321750267252495E+00 
    2.4390125010782144E+00 
    2.4388104367778531E+00 
    2.4333124593996245E+00 
    2.4348646982195077E+00 
    2.4286873943053688E+00 
    2.4315092102697431E+00 
    2.4291161307481852E+00 
    2.4250295516573268E+00 
    2.4318775227784375E+00 
    2.4292914464901858E+00 
    2.4261774964397516E+00 
    2.4269755472520642E+00 
    2.4262570845482974E+00 
    2.4223396794088887E+00 
    2.4208407181048290E+00 
    2.4238342998283402E+00 
    2.4224705395979491E+00 
    2.4228803201875446E+00 
    2.4192917823858977E+00 
    2.4170881563512165E+00 
    2.4122773732440854E+00 
    2.4154883148070123E+00 
    2.4120843642289742E+00 
    2.4087756053296441E+00 
    2.4169497687561692E+00 
    2.4173241899990843E+00 
    2.4124719999667290E+00 
    2.4129961059044263E+00 
    2.4059057817947971E+00 
    2.4094792725715433E+00 
    2.4079131089865102E+00 
    2.4025775133131821E+00 
    2.4062780129226087E+00 
    2.4043035221329609E+00 
    2.3995402220713555E+00 
    2.3994591724041241E+00 
    2.4016185087706829E+00 
    2.3977927515073798E+00 
    2.3940867670632846E+00 
    2.3972378159716468E+00 
    2.3932910863767329E+00 
    2.3948852790320063E+00 
    2.3903369737682802E+00 
    2.3859750986826924E+00 
    2.3799726384383266E+00 
    2.3857273719891761E+00 
    2.3817804214921039E+00 
    2.3763643521556523E+00 
    2.3893330289713757E+00 
    2.3919481987690907E+00 
    2.3851529560080733E+00 
    2.3842833063586624E+00 
    2.3736411262581392E+00 
    2.3793240091597361E+00 
    2.3785739659058542E+00 
    2.3707434116434287E+00 
    2.3713989048133195E+00 
    2.3696462589589360E+00 
    2.3629717213157382E+00 
    2.3623842634550565E+00 
    2.3670018528586527E+00 
    2.3630293335903230E+00 
    2.3568972534960757E+00 
    2.3607677609659379E+00 
    2.3544634386098515E+00 
    2.3570037233079830E+00 
    2.3514013206465356E+00 
    2.3455600409640773E+00 
    2.3386350685423394E+00 
    2.3460422076412719E+00 
    2.3415479082521529E+00 
    2.3348458546796960E+00 
    2.3513870722202266E+00 
    2.3560357241258161E+00 
    2.3473110242011943E+00 
    2.3453982503353243E+00 
    2.3321219584055326E+00 
    2.3392495008379135E+00 
    2.3390500563547150E+00 
    2.3295632990334134E+00 
    2.3289337446863749E+00 
    2.3271010294801955E+00 
    2.3198445978640856E+00 
    2.3194858245923351E+00 
    2.3244722788924155E+00 
    2.3204843517249221E+00 
    2.3136672582602307E+00 
    2.3180907512644717E+00 
    2.3115746717648742E+00 
    2.3140283965423798E+00 
    2.3084022130801403E+00 
    2.3034033057960071E+00 
    2.2972596660996070E+00 
    2.3033118566048638E+00 
    2.2990333826888123E+00 
    2.2937486569543482E+00 
    2.3083923012290888E+00 
    2.3132376232870659E+00 
    2.3046054808971643E+00 
    2.3028560824496878E+00 
    2.2912279320732933E+00 
    2.2972191212978452E+00 
    2.2971503351950249E+00 
    2.2893634903189013E+00 
    2.2898919684277170E+00 
    2.2881018326009888E+00 
    2.2827843304230928E+00 
    2.2827471391675740E+00 
    2.2858061147455162E+00 
    2.2824764318236639E+00 
    2.2774797439174947E+00 
    2.2813284276976873E+00 
    2.2766150675408277E+00 
    2.2783275942778740E+00 
    2.2739015277482122E+00 
    2.2703798167457800E+00 
    2.2656939281449828E+00 
    2.2699440955576948E+00 
    2.2668333586974492E+00 
    2.2630094899828110E+00 
    2.2734115679344935E+00 
    2.2767102561536623E+00 
    2.2703511667198990E+00 
    2.2693337146213128E+00 
    2.2608823836842848E+00 
    2.2653306809263394E+00 
    2.2649007961192238E+00 
    2.2590032860350204E+00 
    2.2600223233668695E+00 
    2.2585835614206342E+00 
    2.2544359359095569E+00 
    2.2543550026287287E+00 
    2.2566397624016985E+00 
    2.2537926258751622E+00 
    2.2500917255287485E+00 
    2.2530692415807270E+00 
    2.2494579183611574E+00 
    2.2508382758728720E+00 
    2.2471718731331567E+00 
    2.2441347584766098E+00 
    2.2399472226037607E+00 
    2.2436051966639239E+00 
    2.2407372967496348E+00 
    2.2373771421348354E+00 
    2.2463778259873419E+00 
    2.2489103986693557E+00 
    2.2434262809094978E+00 
    2.2426653161444641E+00 
    2.2352977431993932E+00 
    2.2391324182044494E+00 
    2.2385510275962219E+00 
    2.2331736133068349E+00 
    2.2349147571744177E+00 
    2.2335586464439521E+00 
    2.2298260261048108E+00 
    2.2298599771064538E+00 
    2.2315488590625083E+00 
    2.2285421616252101E+00 
    2.2254480722587222E+00 
    2.2283523098585971E+00 
    2.2255235560148692E+00 
    2.2264485184326492E+00 
    2.2231508165576854E+00 
    2.2209494243360268E+00 
    2.2172447284017069E+00 
    2.2200082798360161E+00 
    2.2173102025005456E+00 
    2.2146618136694136E+00 
    2.2220912426487387E+00 
    2.2239575713595570E+00 
    2.2190355126376748E+00 
    2.2187288960544191E+00 
    2.2124627823651757E+00 
    2.2156277650685712E+00 
    2.2147098972798696E+00 
    2.2101049133023745E+00 
    2.2132140406234537E+00 
    2.2115798754468865E+00 
    2.2086174405875765E+00 
    2.2089983633025962E+00 
    2.2094850198743567E+00 
    2.2065133870626097E+00 
    2.2044602830285731E+00 
    2.2070745971150836E+00 
    2.2051068160127487E+00 
    2.2057785294899936E+00 
    2.2025833368512697E+00 
    2.2002301817254395E+00 
    2.1962665683287517E+00 
    2.1992486941779377E+00 
    2.1963795263462198E+00 
    2.1935057728819176E+00 
    2.2010876104691492E+00 
    2.2021709339725835E+00 
    2.1977670216544398E+00 
    2.1977810747329189E+00 
    2.1910960660692247E+00 
    2.1944865268707856E+00 
    2.1935638721880832E+00 
    2.1885168939535786E+00 
    2.1921277778494184E+00 
    2.1904275337508734E+00 
    2.1874334307396719E+00 
    2.1878789843215745E+00 
    2.1881202596308102E+00 
    2.1848340387642153E+00 
    2.1829263847320655E+00 
    2.1856338529213053E+00 
    2.1842061562090729E+00 
    2.1844855707572211E+00 
    2.1815035849539259E+00 
    2.1801461713278241E+00 
    2.1765882840769293E+00 
    2.1784364554355906E+00 
    2.1756764073367640E+00 
    2.1736708245983154E+00 
    2.1795589836253284E+00 
    2.1802122629225105E+00 
    2.1758424391324596E+00 
    2.1763150265181661E+00 
    2.1711064454276361E+00 
    2.1735890541712282E+00 
    2.1720599608095927E+00 
    2.1681232943897499E+00 
    2.1731851451699447E+00 
    2.1711924240523595E+00 
    2.1687140960921210E+00 
    2.1693980157697954E+00 
    2.1687648675654905E+00 
    2.1654823367413512E+00 
    2.1643945258686736E+00 
    2.1668480976038680E+00 
    2.1661456388571891E+00 
    2.1661695688221609E+00 
    2.1633938931217069E+00 
    2.1623805495292729E+00 
    2.1589898715893829E+00 
    2.1603905902541567E+00 
    2.1577139828544580E+00 