# vtk DataFile Version 2.0
Pressure Field Data 
ASCII 
DATASET UNSTRUCTURED_GRID 

POINTS 6273 double 

    0.0000000000000000E+00     0.0000000000000000E+00     0.0000000000000000E+00 
    1.0000000000000000E+00     0.0000000000000000E+00     0.0000000000000000E+00 
    1.0000000000000000E+00     1.0000000000000000E+00     0.0000000000000000E+00 
    0.0000000000000000E+00     1.0000000000000000E+00     0.0000000000000000E+00 
    1.5624999999970249E-02     0.0000000000000000E+00     0.0000000000000000E+00 
    3.1249999999940652E-02     0.0000000000000000E+00     0.0000000000000000E+00 
    4.6874999999905617E-02     0.0000000000000000E+00     0.0000000000000000E+00 
    6.2499999999870597E-02     0.0000000000000000E+00     0.0000000000000000E+00 
    7.8124999999846401E-02     0.0000000000000000E+00     0.0000000000000000E+00 
    9.3749999999822212E-02     0.0000000000000000E+00     0.0000000000000000E+00 
    1.0937499999979799E-01     0.0000000000000000E+00     0.0000000000000000E+00 
    1.2499999999977381E-01     0.0000000000000000E+00     0.0000000000000000E+00 
    1.4062499999972811E-01     0.0000000000000000E+00     0.0000000000000000E+00 
    1.5624999999968239E-01     0.0000000000000000E+00     0.0000000000000000E+00 
    1.7187499999963671E-01     0.0000000000000000E+00     0.0000000000000000E+00 
    1.8749999999959110E-01     0.0000000000000000E+00     0.0000000000000000E+00 
    2.0312499999954539E-01     0.0000000000000000E+00     0.0000000000000000E+00 
    2.1874999999949971E-01     0.0000000000000000E+00     0.0000000000000000E+00 
    2.3437499999945391E-01     0.0000000000000000E+00     0.0000000000000000E+00 
    2.4999999999940831E-01     0.0000000000000000E+00     0.0000000000000000E+00 
    2.6562499999936218E-01     0.0000000000000000E+00     0.0000000000000000E+00 
    2.8124999999931621E-01     0.0000000000000000E+00     0.0000000000000000E+00 
    2.9687499999927008E-01     0.0000000000000000E+00     0.0000000000000000E+00 
    3.1249999999922412E-01     0.0000000000000000E+00     0.0000000000000000E+00 
    3.2812499999917810E-01     0.0000000000000000E+00     0.0000000000000000E+00 
    3.4374999999913203E-01     0.0000000000000000E+00     0.0000000000000000E+00 
    3.5937499999908601E-01     0.0000000000000000E+00     0.0000000000000000E+00 
    3.7499999999903999E-01     0.0000000000000000E+00     0.0000000000000000E+00 
    3.9062499999899403E-01     0.0000000000000000E+00     0.0000000000000000E+00 
    4.0624999999894801E-01     0.0000000000000000E+00     0.0000000000000000E+00 
    4.2187499999890188E-01     0.0000000000000000E+00     0.0000000000000000E+00 
    4.3749999999885592E-01     0.0000000000000000E+00     0.0000000000000000E+00 
    4.5312499999880979E-01     0.0000000000000000E+00     0.0000000000000000E+00 
    4.6874999999876382E-01     0.0000000000000000E+00     0.0000000000000000E+00 
    4.8437499999871780E-01     0.0000000000000000E+00     0.0000000000000000E+00 
    4.9999999999867167E-01     0.0000000000000000E+00     0.0000000000000000E+00 
    5.1562499999871325E-01     0.0000000000000000E+00     0.0000000000000000E+00 
    5.3124999999875477E-01     0.0000000000000000E+00     0.0000000000000000E+00 
    5.4687499999879630E-01     0.0000000000000000E+00     0.0000000000000000E+00 
    5.6249999999883782E-01     0.0000000000000000E+00     0.0000000000000000E+00 
    5.7812499999887934E-01     0.0000000000000000E+00     0.0000000000000000E+00 
    5.9374999999892086E-01     0.0000000000000000E+00     0.0000000000000000E+00 
    6.0937499999896239E-01     0.0000000000000000E+00     0.0000000000000000E+00 
    6.2499999999900380E-01     0.0000000000000000E+00     0.0000000000000000E+00 
    6.4062499999904521E-01     0.0000000000000000E+00     0.0000000000000000E+00 
    6.5624999999908673E-01     0.0000000000000000E+00     0.0000000000000000E+00 
    6.7187499999912825E-01     0.0000000000000000E+00     0.0000000000000000E+00 
    6.8749999999916978E-01     0.0000000000000000E+00     0.0000000000000000E+00 
    7.0312499999921130E-01     0.0000000000000000E+00     0.0000000000000000E+00 
    7.1874999999925282E-01     0.0000000000000000E+00     0.0000000000000000E+00 
    7.3437499999929434E-01     0.0000000000000000E+00     0.0000000000000000E+00 
    7.4999999999933586E-01     0.0000000000000000E+00     0.0000000000000000E+00 
    7.6562499999937739E-01     0.0000000000000000E+00     0.0000000000000000E+00 
    7.8124999999941891E-01     0.0000000000000000E+00     0.0000000000000000E+00 
    7.9687499999946043E-01     0.0000000000000000E+00     0.0000000000000000E+00 
    8.1249999999950195E-01     0.0000000000000000E+00     0.0000000000000000E+00 
    8.2812499999954348E-01     0.0000000000000000E+00     0.0000000000000000E+00 
    8.4374999999958500E-01     0.0000000000000000E+00     0.0000000000000000E+00 
    8.5937499999962652E-01     0.0000000000000000E+00     0.0000000000000000E+00 
    8.7499999999966793E-01     0.0000000000000000E+00     0.0000000000000000E+00 
    8.9062499999970934E-01     0.0000000000000000E+00     0.0000000000000000E+00 
    9.0624999999975087E-01     0.0000000000000000E+00     0.0000000000000000E+00 
    9.2187499999979239E-01     0.0000000000000000E+00     0.0000000000000000E+00 
    9.3749999999983391E-01     0.0000000000000000E+00     0.0000000000000000E+00 
    9.5312499999987543E-01     0.0000000000000000E+00     0.0000000000000000E+00 
    9.6874999999991696E-01     0.0000000000000000E+00     0.0000000000000000E+00 
    9.8437499999995848E-01     0.0000000000000000E+00     0.0000000000000000E+00 
    1.0000000000000000E+00     1.5624999999970249E-02     0.0000000000000000E+00 
    1.0000000000000000E+00     3.1249999999940652E-02     0.0000000000000000E+00 
    1.0000000000000000E+00     4.6874999999905617E-02     0.0000000000000000E+00 
    1.0000000000000000E+00     6.2499999999870597E-02     0.0000000000000000E+00 
    1.0000000000000000E+00     7.8124999999846401E-02     0.0000000000000000E+00 
    1.0000000000000000E+00     9.3749999999822212E-02     0.0000000000000000E+00 
    1.0000000000000000E+00     1.0937499999979799E-01     0.0000000000000000E+00 
    1.0000000000000000E+00     1.2499999999977381E-01     0.0000000000000000E+00 
    1.0000000000000000E+00     1.4062499999972811E-01     0.0000000000000000E+00 
    1.0000000000000000E+00     1.5624999999968239E-01     0.0000000000000000E+00 
    1.0000000000000000E+00     1.7187499999963671E-01     0.0000000000000000E+00 
    1.0000000000000000E+00     1.8749999999959110E-01     0.0000000000000000E+00 
    1.0000000000000000E+00     2.0312499999954539E-01     0.0000000000000000E+00 
    1.0000000000000000E+00     2.1874999999949971E-01     0.0000000000000000E+00 
    1.0000000000000000E+00     2.3437499999945391E-01     0.0000000000000000E+00 
    1.0000000000000000E+00     2.4999999999940831E-01     0.0000000000000000E+00 
    1.0000000000000000E+00     2.6562499999936218E-01     0.0000000000000000E+00 
    1.0000000000000000E+00     2.8124999999931621E-01     0.0000000000000000E+00 
    1.0000000000000000E+00     2.9687499999927008E-01     0.0000000000000000E+00 
    1.0000000000000000E+00     3.1249999999922412E-01     0.0000000000000000E+00 
    1.0000000000000000E+00     3.2812499999917810E-01     0.0000000000000000E+00 
    1.0000000000000000E+00     3.4374999999913203E-01     0.0000000000000000E+00 
    1.0000000000000000E+00     3.5937499999908601E-01     0.0000000000000000E+00 
    1.0000000000000000E+00     3.7499999999903999E-01     0.0000000000000000E+00 
    1.0000000000000000E+00     3.9062499999899403E-01     0.0000000000000000E+00 
    1.0000000000000000E+00     4.0624999999894801E-01     0.0000000000000000E+00 
    1.0000000000000000E+00     4.2187499999890188E-01     0.0000000000000000E+00 
    1.0000000000000000E+00     4.3749999999885592E-01     0.0000000000000000E+00 
    1.0000000000000000E+00     4.5312499999880979E-01     0.0000000000000000E+00 
    1.0000000000000000E+00     4.6874999999876382E-01     0.0000000000000000E+00 
    1.0000000000000000E+00     4.8437499999871780E-01     0.0000000000000000E+00 
    1.0000000000000000E+00     4.9999999999867167E-01     0.0000000000000000E+00 
    1.0000000000000000E+00     5.1562499999871325E-01     0.0000000000000000E+00 
    1.0000000000000000E+00     5.3124999999875477E-01     0.0000000000000000E+00 
    1.0000000000000000E+00     5.4687499999879630E-01     0.0000000000000000E+00 
    1.0000000000000000E+00     5.6249999999883782E-01     0.0000000000000000E+00 
    1.0000000000000000E+00     5.7812499999887934E-01     0.0000000000000000E+00 
    1.0000000000000000E+00     5.9374999999892086E-01     0.0000000000000000E+00 
    1.0000000000000000E+00     6.0937499999896239E-01     0.0000000000000000E+00 
    1.0000000000000000E+00     6.2499999999900380E-01     0.0000000000000000E+00 
    1.0000000000000000E+00     6.4062499999904521E-01     0.0000000000000000E+00 
    1.0000000000000000E+00     6.5624999999908673E-01     0.0000000000000000E+00 
    1.0000000000000000E+00     6.7187499999912825E-01     0.0000000000000000E+00 
    1.0000000000000000E+00     6.8749999999916978E-01     0.0000000000000000E+00 
    1.0000000000000000E+00     7.0312499999921130E-01     0.0000000000000000E+00 
    1.0000000000000000E+00     7.1874999999925282E-01     0.0000000000000000E+00 
    1.0000000000000000E+00     7.3437499999929434E-01     0.0000000000000000E+00 
    1.0000000000000000E+00     7.4999999999933586E-01     0.0000000000000000E+00 
    1.0000000000000000E+00     7.6562499999937739E-01     0.0000000000000000E+00 
    1.0000000000000000E+00     7.8124999999941891E-01     0.0000000000000000E+00 
    1.0000000000000000E+00     7.9687499999946043E-01     0.0000000000000000E+00 
    1.0000000000000000E+00     8.1249999999950195E-01     0.0000000000000000E+00 
    1.0000000000000000E+00     8.2812499999954348E-01     0.0000000000000000E+00 
[...]
CELL_DATA 6144 
SCALARS Pressure double 1 
LOOKUP_TABLE default 

    2.5387437651801861E+00 
    2.4413763628648795E+00 
    2.4260697006682932E+00 
    2.4451431013152001E+00 
    2.3865399571106414E+00 
    2.3515882749505486E+00 
    2.3670827745209979E+00 
    2.3983932769796730E+00 
    2.3867022051636511E+00 
    2.3967045777054410E+00 
    2.3693117349068697E+00 
    2.3515075550160232E+00 
    2.3341368784267980E+00 
    2.3489672217969799E+00 
    2.3331567655100725E+00 
    2.3230682836018608E+00 
    2.3502339197843232E+00 
    2.3352419095291461E+00 
    2.3237613853393984E+00 
    2.3345533924255126E+00 
    2.3127295693013465E+00 
    2.3238034686057834E+00 
    2.3139254225323032E+00 
    2.3013195209976001E+00 
    2.3124967566149239E+00 
    2.3094291985091782E+00 
    2.2957379181393076E+00 
    2.2932460126521810E+00 
    2.3022418821357018E+00 
    2.2914659038021408E+00 
    2.2832082882445084E+00 
    2.2914268031516376E+00 
    2.2769954555996357E+00 
    2.2839881978010199E+00 
    2.2744279146252295E+00 
    2.2624409261834297E+00 
    2.2539146954692693E+00 
    2.2656737288250914E+00 
    2.2586297271666527E+00 
    2.2492581827043936E+00 
    2.2730442792230745E+00 
    2.2773720748392856E+00 
    2.2640785269012178E+00 
    2.2632664519836707E+00 
    2.2451904787389259E+00 
    2.2544307630168907E+00 
    2.2526230439293022E+00 
    2.2402512793803853E+00 
    2.2391669185267844E+00 
    2.2384001316261202E+00 
    2.2281196392059108E+00 
    2.2254439726682698E+00 
    2.2352113916665783E+00 
    2.2295270661893545E+00 
    2.2211018019913227E+00 
    2.2258304719496809E+00 
    2.2133847483753022E+00 
    2.2194277038749566E+00 
    2.2120506811395875E+00 
    2.2017104196122235E+00 
    2.1953054492944180E+00 
    2.2054834326386543E+00 
    2.2006229786246889E+00 
    2.1925302483648825E+00 
    2.2132354539385046E+00 
    2.2192406395281878E+00 
    2.2078706461477728E+00 
    2.2054489121558127E+00 
    2.1900197610860923E+00 
    2.1981274148210241E+00 
    2.1977524489736497E+00 
    2.1869048573326699E+00 
    2.1844922954594774E+00 
    2.1840049946160365E+00 
    2.1762443840151522E+00 
    2.1750102522762509E+00 
    2.1818264077104699E+00 
    2.1776210517619101E+00 
    2.1708884518989069E+00 
    2.1751994969744617E+00 
    2.1672329377075439E+00 
    2.1705287949756746E+00 
    2.1657587176360176E+00 
    2.1612200866678037E+00 
    2.1580687026779590E+00 
    2.1624010399408555E+00 
    2.1600418609864045E+00 
    2.1566456176306259E+00 
    2.1666043477106225E+00 
    2.1704400910599433E+00 
    2.1639163462101383E+00 
    2.1629763200393080E+00 
    2.1551276480120172E+00 
    2.1591988993709088E+00 
    2.1587969289439521E+00 
    2.1537483032760569E+00 
    2.1530025743950225E+00 
    2.1526936721753502E+00 
    2.1490407012372637E+00 
    2.1481686406749314E+00 
    2.1517063121233058E+00 
    2.1499763513796717E+00 
    2.1466812507373949E+00 
    2.1483600152170914E+00 
    2.1436356913781336E+00 
    2.1459797021013030E+00 
    2.1432809356475171E+00 
    2.1390373983814888E+00 
    2.1362590068982632E+00 
    2.1407228825316804E+00 
    2.1388408407509343E+00 
    2.1351267877529412E+00 
    2.1439352448692399E+00 
    2.1463432460268566E+00 
    2.1420955715242207E+00 
    2.1408839761553375E+00 
    2.1342132357884682E+00 
    2.1378244124263821E+00 
    2.1380093129070477E+00 
    2.1330812211436889E+00 
    2.1306428880751880E+00 
    2.1306757768697393E+00 
    2.1262089495843108E+00 
    2.1246688412581141E+00 
    2.1297941323379206E+00 
    2.1279690409975989E+00 
    2.1235425821457463E+00 
    2.1252665402317752E+00 
    2.1189925038682844E+00 
    2.1221528670507697E+00 
    2.1186772111873347E+00 
    2.1128938831577084E+00 
    2.1091883373367613E+00 
    2.1154090296910417E+00 
    2.1130892558381826E+00 
    2.1078140601461763E+00 
    2.1199647192546838E+00 
    2.1238091800390100E+00 
    2.1181145222978337E+00 
    2.1160358582236958E+00 
    2.1068080687699950E+00 
    2.1118851761998232E+00 
    2.1124836209123439E+00 
    2.1057052733317785E+00 
    2.1016056101428653E+00 
    2.1016717029623062E+00 
    2.0955800885073423E+00 
    2.0936261528016100E+00 
    2.1006732053754615E+00 
    2.0986029732057632E+00 
    2.0924552942515842E+00 
    2.0946135702021933E+00 
    2.0862025024661253E+00 
    2.0903580215184978E+00 
    2.0859501282504165E+00 
    2.0786085440775777E+00 
    2.0743385702907777E+00 
    2.0820516326640819E+00 
    2.0792739797744892E+00 
    2.0729886081229525E+00 
    2.0880949228689794E+00 
    2.0933605572070095E+00 
    2.0860935629602331E+00 
    2.0832545915985299E+00 
    2.0720214355549795E+00 
    2.0781732377107582E+00 
    2.0791392681068515E+00 
    2.0710912527193339E+00 
    2.0659809444185830E+00 
    2.0660502065516373E+00 
    2.0596112630820254E+00 
    2.0578776924596829E+00 
    2.0650603588410292E+00 
    2.0628167212204458E+00 
    2.0560153626922086E+00 
    2.0587937460866232E+00 
    2.0504174388457854E+00 
    2.0544001407623091E+00 
    2.0500634544908189E+00 
    2.0435701844270264E+00 
    2.0397764992274148E+00 
    2.0463872438159854E+00 
    2.0433803540152216E+00 
    2.0382158569360356E+00 
    2.0518553703515945E+00 
    2.0571703329947879E+00 
    2.0497625551626251E+00 
    2.0473081822824941E+00 
    2.0371592542501968E+00 
    2.0424630903814176E+00 
    2.0432700692976322E+00 
    2.0364694239139776E+00 
    2.0331695575695372E+00 
    2.0330108871773627E+00 
    2.0282812126105685E+00 
    2.0272557354158480E+00 
    2.0321252090626518E+00 
    2.0302819418864999E+00 
    2.0253204635406923E+00 
    2.0276995284987973E+00 
    2.0218496165871662E+00 
    2.0245454199102793E+00 
    2.0213582305433624E+00 
    2.0170455663698914E+00 
    2.0143863755270899E+00 
    2.0187574555551127E+00 
    2.0168136667847461E+00 
    2.0133047776782087E+00 
    2.0223890548617862E+00 
    2.0259437379335794E+00 
    2.0208348006870769E+00 
    2.0193111988515615E+00 
    2.0124539431259354E+00 
    2.0161051959003626E+00 
    2.0163969842948277E+00 
    2.0117058865541293E+00 
    2.0095832578972286E+00 
    2.0094386717335166E+00 
    2.0059306811082558E+00 
    2.0051245060577143E+00 
    2.0087592141106851E+00 
    2.0074152700610588E+00 
    2.0039391516207048E+00 
    2.0055023076076304E+00 
    2.0010800952721275E+00 
    2.0031767670318383E+00 
    2.0008146577962576E+00 
    1.9972986620581636E+00 
    1.9951609862861603E+00 
    1.9987638180270979E+00 
    1.9972999185997544E+00 
    1.9943506502674522E+00 
    2.0016267437508675E+00 
    2.0042339117746013E+00 
    2.0004362065791423E+00 
    1.9992282701005106E+00 
    1.9937337035015044E+00 
    1.9967300622565047E+00 
    1.9969978026978306E+00 
    1.9930976412749208E+00 
    1.9911250812639476E+00 
    1.9910488697592881E+00 
    1.9879825495635512E+00 
    1.9872592709765011E+00 
    1.9904944661772026E+00 
    1.9892987454852966E+00 
    1.9862492113008376E+00 
    1.9875901826667461E+00 
    1.9838071093619778E+00 
    1.9855865705232825E+00 
    1.9836072466073105E+00 
    1.9806696367912824E+00 
    1.9788441628709232E+00 
    1.9818331533666380E+00 
    1.9803153500942767E+00 
    1.9779087797705917E+00 
    1.9842220223713336E+00 
    1.9864715523860126E+00 
    1.9829522314737609E+00 
    1.9819806301590170E+00 
    1.9772337447123134E+00 
    1.9796870444869050E+00 
    1.9798440073943060E+00 
    1.9765622397200908E+00 
    1.9755833916703405E+00 
    1.9753918167764042E+00 
    1.9731156240947207E+00 
    1.9726387684772959E+00 
    1.9748128919909411E+00 
    1.9736919663941805E+00 
    1.9715569817999399E+00 
    1.9727286598644038E+00 
    1.9699948032375205E+00 
    1.9712801450421737E+00 
    1.9696377491424657E+00 
    1.9675090045037880E+00 
    1.9660829418029107E+00 
    1.9682148630219243E+00 
    1.9671467596430685E+00 
    1.9653732905768428E+00 
    1.9698950993832844E+00 
    1.9713217624550439E+00 
    1.9686563173667062E+00 
    1.9681737940853481E+00 
    1.9646466217929730E+00 
    1.9664925476980915E+00 
    1.9662964697043197E+00 
    1.9637015688721184E+00 
    1.9635462618846693E+00 
    1.9633770038299310E+00 
    1.9614809456650950E+00 
    1.9610070402157167E+00 
    1.9627324989280930E+00 
    1.9615640172753128E+00 
    1.9599820823394594E+00 
    1.9609430051032826E+00 
    1.9586891069753321E+00 
    1.9598007070495209E+00 
    1.9583590447911661E+00 
    1.9563763066807851E+00 
    1.9549746222026361E+00 
    1.9570121949632271E+00 
    1.9558636877096724E+00 
    1.9541533744138881E+00 
    1.9584039164156948E+00 
    1.9594026060985112E+00 
    1.9570428902509496E+00 
    1.9567303128074975E+00 
    1.9534406872948344E+00 
    1.9551040946949243E+00 
    1.9548590212741017E+00 
    1.9524504251804056E+00 
    1.9523606194184684E+00 
    1.9522454985355511E+00 
    1.9502946849180007E+00 
    1.9496994567136037E+00 
    1.9516202133869422E+00 
    1.9504214755082829E+00 
    1.9488030622799850E+00 
    1.9497508973374773E+00 
    1.9470808564921505E+00 
    1.9484493064017019E+00 
    1.9467794773168241E+00 
    1.9441721673674233E+00 
    1.9425226941590890E+00 
    1.9451979739694996E+00 
    1.9439644761577273E+00 
    1.9417464860205162E+00 
    1.9470609414194353E+00 
    1.9482368777617569E+00 
    1.9457613168758754E+00 
    1.9452201470668840E+00 
    1.9410427587959687E+00 
    1.9432445396258657E+00 
    1.9431806917514867E+00 
    1.9401158602012389E+00 
    1.9395895305993767E+00 
    1.9394473984256979E+00 
    1.9373733575821559E+00 
    1.9369101772565500E+00 
    1.9388357103694689E+00 
    1.9376580333429168E+00 
    1.9359337266816929E+00 
    1.9369151426716986E+00 
    1.9346747368963455E+00 
    1.9357380804379418E+00 
    1.9344005695082664E+00 
    1.9326981160327048E+00 
    1.9315818847989996E+00 
    1.9331693809923605E+00 
    1.9320578932620394E+00 
    1.9308124720620619E+00 
    1.9343873369210458E+00 
    1.9354047073262568E+00 
    1.9330213296160266E+00 
    1.9328100896914950E+00 
    1.9300906823319659E+00 
    1.9313920492373822E+00 
    1.9310384476155189E+00 
    1.9291381471361733E+00 
    1.9298777716993816E+00 
    1.9295837264824225E+00 
    1.9285848647190376E+00 
    1.9285575815043154E+00 
    1.9289816247284406E+00 
    1.9279682563008198E+00 
    1.9275119513733314E+00 
    1.9282437939784991E+00 
    1.9276400571693511E+00 
    1.9278864133577336E+00 
    1.9272570671893543E+00 
    1.9270767275682801E+00 
    1.9268822219708897E+00 
    1.9267267180599221E+00 
    1.9261610311345299E+00 
    1.9263832588849716E+00 
    1.9266526723779325E+00 
    1.9264729145361925E+00 
    1.9253915930212373E+00 
    1.9259594158608042E+00 
    1.9255918096796552E+00 
    1.9255902500824893E+00 
    1.9247716098841967E+00 
    1.9245006258445569E+00 
    2.3137598921946863E+00 
    2.2954470843278258E+00 
    2.2965565228508966E+00 
    2.3099232369265015E+00 
    2.2798761197946003E+00 
    2.2660977090811976E+00 
    2.2771162179457400E+00 
    2.2853829224095672E+00 
    2.3030936668590796E+00 
    2.2926731483499769E+00 
    2.2847576868963535E+00 
    2.2923359773038889E+00 
    2.2785018856678518E+00 
    2.2754767080955420E+00 
    2.2658572328817081E+00 
    2.2656360422056911E+00 
    2.2684424575300546E+00 
    2.2573368399011291E+00 
    2.2520454788999555E+00 
    2.2606926823877713E+00 
    2.2546342085306459E+00 
    2.2566430725465447E+00 
    2.2475331133854484E+00 
    2.2424686572736041E+00 
    2.2722312971833940E+00 
    2.2619333361084344E+00 
    2.2560198346868297E+00 
    2.2611248347076232E+00 
    2.2518872132709142E+00 
    2.2403471950804952E+00 
    2.2407817482360155E+00 
    2.2492225835275166E+00 
    2.2507424739886290E+00 
    2.2489092655694916E+00 
    2.2402779738829799E+00 
    2.2389221754514894E+00 
    2.2278560414494728E+00 
    2.2313110402271725E+00 
    2.2233153739148057E+00 
    2.2190570516579586E+00 
    2.2317561372387011E+00 
    2.2292633931072916E+00 
    2.2199693254676038E+00 
    2.2234647497264990E+00 
    2.2116529729616365E+00 
    2.2172072995083250E+00 
    2.2120649877479415E+00 
    2.2034671599638216E+00 
    2.2186684044817406E+00 
    2.2125408572695742E+00 
    2.2055315883291158E+00 
    2.2076675550184155E+00 
    2.2057813643394910E+00 
    2.1970726417918938E+00 
    2.1935490038872434E+00 
    2.2004393347381890E+00 
    2.1978346499066412E+00 
    2.1982387399826457E+00 
    2.1904236695967838E+00 
    2.1869702873838994E+00 
    2.1779450178698010E+00 
    2.1828819929245249E+00 
    2.1761382147253929E+00 
    2.1715245450954352E+00 
    2.1854658333719406E+00 
    2.1861391037171622E+00 
    2.1756213765368657E+00 
    2.1775695375855331E+00 
    2.1662226765116284E+00 
    2.1715542056751049E+00 
    2.1675248873489048E+00 
    2.1607497173819161E+00 
    2.1707073400339811E+00 
    2.1665051797550832E+00 
    2.1623906918884077E+00 
    2.1644837058952202E+00 
    2.1622027683279779E+00 
    2.1571514351775569E+00 
    2.1554122018960475E+00 
    2.1604440618243257E+00 
    2.1586702220671654E+00 
    2.1588927275037260E+00 
    2.1547000233643194E+00 
    2.1535928893834222E+00 
    2.1495301932432014E+00 
    2.1510161559731702E+00 
    2.1477955491649880E+00 
    2.1462897077473397E+00 
    2.1518772341142474E+00 
    2.1515584526819889E+00 
    2.1469960377623969E+00 
    2.1483903145538621E+00 
    2.1432727150868143E+00 
    2.1455769353797041E+00 
    2.1435199769784967E+00 
    2.1401847665244311E+00 
    2.1462208823323543E+00 
    2.1439766281141850E+00 
    2.1414565899094926E+00 
    2.1421409572702954E+00 
    2.1413776235928683E+00 
    2.1380659528990815E+00 
    2.1369579363057025E+00 
    2.1394322022333800E+00 
    2.1383942011212138E+00 
    2.1387194858055039E+00 
    2.1357333012982211E+00 
    2.1338873129312952E+00 
    2.1298221165717814E+00 
    2.1325132054519558E+00 
    2.1296125486903770E+00 
    2.1268015832661269E+00 
    2.1336638555052843E+00 
    2.1338783226481954E+00 
    2.1298305734746954E+00 
    2.1303050694502370E+00 
    2.1243525961826424E+00 
    2.1273458838502504E+00 
    2.1260034316877920E+00 
    2.1215092468354757E+00 
    2.1246770007461633E+00 
    2.1229841922044663E+00 
    2.1189266493417289E+00 
    2.1188577201085281E+00 
    2.1207069345259084E+00 
    2.1174826387261421E+00 
    2.1143236347714600E+00 
    2.1169571044952442E+00 
    2.1136263646051394E+00 
    2.1149668227424505E+00 
    2.1111123379572265E+00 
    2.1074269289553738E+00 
    2.1023342776023086E+00 
    2.1072142078463214E+00 
    2.1038687420688413E+00 
    2.0992732336506958E+00 
    2.1102792384260955E+00 
    2.1125433769197688E+00 
    2.1067732060717734E+00 
    2.1059975424986339E+00 
    2.0969817438493177E+00 
    2.1018027514892754E+00 
    2.1011940346308422E+00 
    2.0945613888387937E+00 
    2.0951370489656416E+00 
    2.0936071993529177E+00 
    2.0880000929258893E+00 
    2.0875510129373023E+00 
    2.0913638088386697E+00 
    2.0880221242947226E+00 
    2.0828508647587651E+00 
    2.0861372334810162E+00 
    2.0808736270101806E+00 
    2.0829710452880374E+00 
    2.0782462416458607E+00 
    2.0733850170221109E+00 
    2.0675345157276834E+00 
    2.0737334853883187E+00 
    2.0699617474131440E+00 
    2.0643239635220381E+00 
    2.0782342194405938E+00 
    2.0821650839953270E+00 
    2.0748405896457318E+00 
    2.0732083554252423E+00 
    2.0620295382591110E+00 
    2.0680349562707727E+00 
    2.0679064862925451E+00 
    2.0599023246003911E+00 
    2.0593528892649471E+00 
    2.0577760242784091E+00 
    2.0515997965400241E+00 
    2.0513267174362384E+00 
    2.0555440858127199E+00 
    2.0521719353954819E+00 
    2.0463414986758841E+00 
    2.0500713234715420E+00 
    2.0446791078029500E+00 
    2.0466590913315938E+00 
    2.0418937795386172E+00 
    2.0378982921792965E+00 
    2.0328294869986596E+00 
    2.0376378503414188E+00 
    2.0340471797485788E+00 
    2.0298735433181325E+00 
    2.0418580257870884E+00 
    2.0460144532971425E+00 
    2.0386307729958189E+00 
    2.0372064880390308E+00 
    2.0276820557477158E+00 
    2.0325598241601370E+00 
    2.0323868863398467E+00 
    2.0260757082296843E+00 
    2.0272201214538401E+00 
    2.0255460414684512E+00 
    2.0215131969451914E+00 
    2.0217481945252782E+00 
    2.0235485541531961E+00 
    2.0207695334349518E+00 
    2.0171049932445082E+00 
    2.0202962394084030E+00 
    2.0170768800013970E+00 
    2.0181305330975521E+00 
    2.0146961311662026E+00 
    2.0124326963144723E+00 
    2.0088616754375446E+00 
    2.0116340365214569E+00 
    2.0092093776530229E+00 
    2.0066681565874158E+00 
    2.0139682050206082E+00 
    2.0161941961484828E+00 
    2.0113988862934948E+00 
    2.0109081793991059E+00 
    2.0048800262411670E+00 
    2.0079887399431406E+00 
    2.0074327277794617E+00 
    2.0033051282108887E+00 
    2.0049909070313978E+00 
    2.0036922132475161E+00 
    2.0008843247650487E+00 
    2.0010363087882084E+00 
    2.0020924525053303E+00 
    1.9998785251605184E+00 
    1.9975600003597369E+00 
    1.9997854833633466E+00 
    1.9975948693823760E+00 
    1.9983838443897941E+00 
    1.9957641875697865E+00 
    1.9938233384038098E+00 
    1.9907370807419216E+00 
    1.9931478613272844E+00 
    1.9909855157639551E+00 
    1.9886706661793629E+00 
    1.9948679781804952E+00 
    1.9963385281294361E+00 
    1.9924924060936602E+00 
    1.9921586078595697E+00 
    1.9869353343501988E+00 
    1.9896179605856117E+00 
    1.9889818575486591E+00 
    1.9850438809871698E+00 
    1.9871219981003654E+00 
    1.9859446741934343E+00 
    1.9832222841245604E+00 
    1.9833740105185782E+00 
    1.9842452522072835E+00 
    1.9817637789196387E+00 
    1.9797428625088809E+00 
    1.9819428935826913E+00 
    1.9802015388869798E+00 
    1.9807078215877911E+00 
    1.9782325948475212E+00 
    1.9768486864495185E+00 
    1.9740916247791698E+00 
    1.9758459679514320E+00 
    1.9737483786017296E+00 
    1.9720125288545329E+00 
    1.9771194565217549E+00 
    1.9781836050426793E+00 
    1.9745370290985238E+00 
    1.9745903808761491E+00 
    1.9701740668575649E+00 
    1.9723470044398221E+00 
    1.9714069823675369E+00 
    1.9681392477759361E+00 
    1.9714145811605823E+00 
    1.9699846759602275E+00 
    1.9680477732146135E+00 
    1.9685943692728236E+00 
    1.9682374076501330E+00 
    1.9658259062223922E+00 
    1.9648184746228414E+00 
    1.9667680809219423E+00 
    1.9661798356194633E+00 
    1.9661854763300650E+00 
    1.9641003091955402E+00 
    1.9634652033351050E+00 
    1.9610048174468839E+00 
    1.9618762226901967E+00 
    1.9598695958486467E+00 
    1.9588334843808883E+00 
    1.9623657741753584E+00 
    1.9625462765124131E+00 
    1.9594821205260953E+00 
    1.9601013980666961E+00 
    1.9568200494485350E+00 
    1.9583072749245070E+00 
    1.9569734671409820E+00 
    1.9544408362282188E+00 
    1.9590637863349194E+00 
    1.9574770782919906E+00 
    1.9559857609521152E+00 
    1.9566873276644308E+00 
    1.9555607978772922E+00 
    1.9530093123736529E+00 
    1.9526866852376059E+00 
    1.9545254196682067E+00 
    1.9545778457968128E+00 
    1.9542889244531978E+00 
    1.9524194586034067E+00 
    1.9521280372920859E+00 
    1.9497602671577048E+00 
    1.9503728810901080E+00 
    1.9484373198137863E+00 
    1.9475448685928864E+00 
    1.9504365977100873E+00 
    1.9499724047810785E+00 
    1.9474241574478874E+00 
    1.9483507018851447E+00 
    1.9455116084988380E+00 
    1.9467609087145454E+00 
    1.9452501874660197E+00 
    1.9430245769481278E+00 
    1.9478586650907515E+00 
    1.9462481050338294E+00 
    1.9447940028493178E+00 
    1.9454624479763187E+00 
    1.9443456863688460E+00 
    1.9418437532926645E+00 
    1.9415966550961525E+00 
    1.9433331553292241E+00 
    1.9431553855594002E+00 
    1.9430736855881658E+00 
    1.9410252310309954E+00 
    1.9401206426336870E+00 
    1.9375069826531284E+00 
    1.9388154719852204E+00 
    1.9368410185206506E+00 