# vtk DataFile Version 2.0
Pressure Field Data 
ASCII 
DATASET UNSTRUCTURED_GRID 

POINTS 6273 double 

    0.0000000000000000E+00     0.0000000000000000E+00     0.0000000000000000E+00 
    1.0000000000000000E+00     0.0000000000000000E+00     0.0000000000000000E+00 
    1.0000000000000000E+00     1.0000000000000000E+00     0.0000000000000000E+00 
    0.0000000000000000E+00     1.0000000000000000E+00     0.0000000000000000E+00 
    1.5624999999970249E-02     0.0000000000000000E+00     0.0000000000000000E+00 
    3.1249999999940652E-02     0.0000000000000000E+00     0.0000000000000000E+00 
    4.6874999999905617E-02     0.0000000000000000E+00     0.0000000000000000E+00 
    6.2499999999870597E-02     0.0000000000000000E+00     0.0000000000000000E+00 
    7.8124999999846401E-02     0.0000000000000000E+00     0.0000000000000000E+00 
    9.3749999999822212E-02     0.0000000000000000E+00     0.0000000000000000E+00 
    1.0937499999979799E-01     0.0000000000000000E+00     0.0000000000000000E+00 
    1.2499999999977381E-01     0.0000000000000000E+00     0.0000000000000000E+00 
    1.4062499999972811E-01     0.0000000000000000E+00     0.0000000000000000E+00 
    1.5624999999968239E-01     0.0000000000000000E+00     0.0000000000000000E+00 
    1.7187499999963671E-01     0.0000000000000000E+00     0.0000000000000000E+00 
    1.8749999999959110E-01     0.0000000000000000E+00     0.0000000000000000E+00 
    2.0312499999954539E-01     0.0000000000000000E+00     0.0000000000000000E+00 
    2.1874999999949971E-01     0.0000000000000000E+00     0.0000000000000000E+00 
    2.3437499999945391E-01     0.0000000000000000E+00     0.0000000000000000E+00 
    2.4999999999940831E-01     0.0000000000000000E+00     0.0000000000000000E+00 
    2.6562499999936218E-01     0.0000000000000000E+00     0.0000000000000000E+00 
    2.8124999999931621E-01     0.0000000000000000E+00     0.0000000000000000E+00 
    2.9687499999927008E-01     0.0000000000000000E+00     0.0000000000000000E+00 
    3.1249999999922412E-01     0.0000000000000000E+00     0.0000000000000000E+00 
    3.2812499999917810E-01     0.0000000000000000E+00     0.0000000000000000E+00 
    3.4374999999913203E-01     0.0000000000000000E+00     0.0000000000000000E+00 
    3.5937499999908601E-01     0.0000000000000000E+00     0.0000000000000000E+00 
    3.7499999999903999E-01     0.0000000000000000E+00     0.0000000000000000E+00 
    3.9062499999899403E-01     0.0000000000000000E+00     0.0000000000000000E+00 
    4.0624999999894801E-01     0.0000000000000000E+00     0.0000000000000000E+00 
    4.2187499999890188E-01     0.0000000000000000E+00     0.0000000000000000E+00 
    4.3749999999885592E-01     0.0000000000000000E+00     0.0000000000000000E+00 
    4.5312499999880979E-01     0.0000000000000000E+00     0.0000000000000000E+00 
    4.6874999999876382E-01     0.0000000000000000E+00     0.0000000000000000E+00 
    4.8437499999871780E-01     0.0000000000000000E+00     0.0000000000000000E+00 
    4.9999999999867167E-01     0.0000000000000000E+00     0.0000000000000000E+00 
    5.1562499999871325E-01     0.0000000000000000E+00     0.0000000000000000E+00 
    5.3124999999875477E-01     0.0000000000000000E+00     0.0000000000000000E+00 
    5.4687499999879630E-01     0.0000000000000000E+00     0.0000000000000000E+00 
    5.6249999999883782E-01     0.0000000000000000E+00     0.0000000000000000E+00 
    5.7812499999887934E-01     0.0000000000000000E+00     0.0000000000000000E+00 
    5.9374999999892086E-01     0.0000000000000000E+00     0.0000000000000000E+00 
    6.0937499999896239E-01     0.0000000000000000E+00     0.0000000000000000E+00 
    6.2499999999900380E-01     0.0000000000000000E+00     0.0000000000000000E+00 
    6.4062499999904521E-01     0.0000000000000000E+00     0.0000000000000000E+00 
    6.5624999999908673E-01     0.0000000000000000E+00     0.0000000000000000E+00 
    6.7187499999912825E-01     0.0000000000000000E+00     0.0000000000000000E+00 
    6.8749999999916978E-01     0.0000000000000000E+00     0.0000000000000000E+00 
    7.0312499999921130E-01     0.0000000000000000E+00     0.0000000000000000E+00 
    7.1874999999925282E-01     0.0000000000000000E+00     0.0000000000000000E+00 
    7.3437499999929434E-01     0.0000000000000000E+00     0.0000000000000000E+00 
    7.4999999999933586E-01     0.0000000000000000E+00     0.0000000000000000E+00 
    7.6562499999937739E-01     0.0000000000000000E+00     0.0000000000000000E+00 
    7.8124999999941891E-01     0.0000000000000000E+00     0.0000000000000000E+00 
    7.9687499999946043E-01     0.0000000000000000E+00     0.0000000000000000E+00 
    8.1249999999950195E-01     0.0000000000000000E+00     0.0000000000000000E+00 
    8.2812499999954348E-01     0.0000000000000000E+00     0.0000000000000000E+00 
    8.4374999999958500E-01     0.0000000000000000E+00     0.0000000000000000E+00 
    8.5937499999962652E-01     0.0000000000000000E+00     0.0000000000000000E+00 
    8.7499999999966793E-01     0.0000000000000000E+00     0.0000000000000000E+00 
    8.9062499999970934E-01     0.0000000000000000E+00     0.0000000000000000E+00 
    9.0624999999975087E-01     0.0000000000000000E+00     0.0000000000000000E+00 
    9.2187499999979239E-01     0.0000000000000000E+00     0.0000000000000000E+00 
    9.3749999999983391E-01     0.0000000000000000E+00     0.0000000000000000E+00 
    9.5312499999987543E-01     0.0000000000000000E+00     0.0000000000000000E+00 
    9.6874999999991696E-01     0.0000000000000000E+00     0.0000000000000000E+00 
    9.8437499999995848E-01     0.0000000000000000E+00     0.0000000000000000E+00 
    1.0000000000000000E+00     1.5624999999970249E-02     0.0000000000000000E+00 
    1.0000000000000000E+00     3.1249999999940652E-02     0.0000000000000000E+00 
    1.0000000000000000E+00     4.6874999999905617E-02     0.0000000000000000E+00 
    1.0000000000000000E+00     6.2499999999870597E-02     0.0000000000000000E+00 
    1.0000000000000000E+00     7.8124999999846401E-02     0.0000000000000000E+00 
    1.0000000000000000E+00     9.3749999999822212E-02     0.0000000000000000E+00 
    1.0000000000000000E+00     1.0937499999979799E-01     0.0000000000000000E+00 
    1.0000000000000000E+00     1.2499999999977381E-01     0.0000000000000000E+00 
    1.0000000000000000E+00     1.4062499999972811E-01     0.0000000000000000E+00 
    1.0000000000000000E+00     1.5624999999968239E-01     0.0000000000000000E+00 
    1.0000000000000000E+00     1.7187499999963671E-01     0.0000000000000000E+00 
    1.0000000000000000E+00     1.8749999999959110E-01     0.0000000000000000E+00 
    1.0000000000000000E+00     2.0312499999954539E-01     0.0000000000000000E+00 
    1.0000000000000000E+00     2.1874999999949971E-01     0.0000000000000000E+00 
    1.0000000000000000E+00     2.3437499999945391E-01     0.0000000000000000E+00 
    1.0000000000000000E+00     2.4999999999940831E-01     0.0000000000000000E+00 
    1.0000000000000000E+00     2.6562499999936218E-01     0.0000000000000000E+00 
    1.0000000000000000E+00     2.8124999999931621E-01     0.0000000000000000E+00 
    1.0000000000000000E+00     2.9687499999927008E-01     0.0000000000000000E+00 
    1.0000000000000000E+00     3.1249999999922412E-01     0.0000000000000000E+00 
    1.0000000000000000E+00     3.2812499999917810E-01     0.0000000000000000E+00 
    1.0000000000000000E+00     3.4374999999913203E-01     0.0000000000000000E+00 
    1.0000000000000000E+00     3.5937499999908601E-01     0.0000000000000000E+00 
    1.0000000000000000E+00     3.7499999999903999E-01     0.0000000000000000E+00 
    1.0000000000000000E+00     3.9062499999899403E-01     0.0000000000000000E+00 
    1.0000000000000000E+00     4.0624999999894801E-01     0.0000000000000000E+00 
    1.0000000000000000E+00     4.2187499999890188E-01     0.0000000000000000E+00 
    1.0000000000000000E+00     4.3749999999885592E-01     0.0000000000000000E+00 
    1.0000000000000000E+00     4.5312499999880979E-01     0.0000000000000000E+00 
    1.0000000000000000E+00     4.6874999999876382E-01     0.0000000000000000E+00 
    1.0000000000000000E+00     4.8437499999871780E-01     0.0000000000000000E+00 
    1.0000000000000000E+00     4.9999999999867167E-01     0.0000000000000000E+00 
    1.0000000000000000E+00     5.1562499999871325E-01     0.0000000000000000E+00 
    1.0000000000000000E+00     5.3124999999875477E-01     0.0000000000000000E+00 
    1.0000000000000000E+00     5.4687499999879630E-01     0.0000000000000000E+00 
    1.0000000000000000E+00     5.6249999999883782E-01     0.0000000000000000E+00 
    1.0000000000000000E+00     5.7812499999887934E-01     0.0000000000000000E+00 
    1.0000000000000000E+00     5.9374999999892086E-01     0.0000000000000000E+00 
    1.0000000000000000E+00     6.0937499999896239E-01     0.0000000000000000E+00 
    1.0000000000000000E+00     6.2499999999900380E-01     0.0000000000000000E+00 
    1.0000000000000000E+00     6.4062499999904521E-01     0.0000000000000000E+00 
    1.0000000000000000E+00     6.5624999999908673E-01     0.0000000000000000E+00 
    1.0000000000000000E+00     6.7187499999912825E-01     0.0000000000000000E+00 
    1.0000000000000000E+00     6.8749999999916978E-01     0.0000000000000000E+00 
    1.0000000000000000E+00     7.0312499999921130E-01     0.0000000000000000E+00 
    1.0000000000000000E+00     7.1874999999925282E-01     0.0000000000000000E+00 
    1.0000000000000000E+00     7.3437499999929434E-01     0.0000000000000000E+00 
    1.0000000000000000E+00     7.4999999999933586E-01     0.0000000000000000E+00 
    1.0000000000000000E+00     7.6562499999937739E-01     0.0000000000000000E+00 
    1.0000000000000000E+00     7.8124999999941891E-01     0.0000000000000000E+00 
    1.0000000000000000E+00     7.9687499999946043E-01     0.0000000000000000E+00 
    1.0000000000000000E+00     8.1249999999950195E-01     0.0000000000000000E+00 
    1.0000000000000000E+00     8.2812499999954348E-01     0.0000000000000000E+00 
[...]
CELL_DATA 6144 
SCALARS Pressure double 1 
LOOKUP_TABLE default 

    2.9211699612567354E+00 
    2.8237065732846007E+00 
    2.8083686948338893E+00 
    2.8275962059679594E+00 
    2.7687783784606275E+00 
    2.7335874964645961E+00 
    2.7492077988498957E+00 
    2.7807999214364987E+00 
    2.7689121745189058E+00 
    2.7790354680182277E+00 
    2.7514695757824974E+00 
    2.7334527783038647E+00 
    2.7158433618044437E+00 
    2.7309683951108603E+00 
    2.7149692560405261E+00 
    2.7046914765918331E+00 
    2.7322690774778731E+00 
    2.7170517255602129E+00 
    2.7054577155881705E+00 
    2.7164335727353990E+00 
    2.6941342115647724E+00 
    2.7054938740536629E+00 
    2.6954139020598964E+00 
    2.6824240333794811E+00 
    2.6937704918559611E+00 
    2.6906520728488066E+00 
    2.6764030348328620E+00 
    2.6737915352443404E+00 
    2.6832709357433995E+00 
    2.6721197851629763E+00 
    2.6633465745422624E+00 
    2.6719752637259280E+00 
    2.6566010966977420E+00 
    2.6641043748793822E+00 
    2.6539674087816501E+00 
    2.6410264498639928E+00 
    2.6318803849544290E+00 
    2.6446855432594187E+00 
    2.6371705133944996E+00 
    2.6269869750553769E+00 
    2.6526521571132458E+00 
    2.6573419979348980E+00 
    2.6431994456046346E+00 
    2.6422423192719680E+00 
    2.6226183834807650E+00 
    2.6327255758925654E+00 
    2.6308572447022063E+00 
    2.6173312925603489E+00 
    2.6158384415791702E+00 
    2.6150175126213493E+00 
    2.6035588076453080E+00 
    2.6006315157956670E+00 
    2.6115654979507315E+00 
    2.6053634239509953E+00 
    2.5957868699525566E+00 
    2.6011094231281802E+00 
    2.5870674994627154E+00 
    2.5939051490186640E+00 
    2.5855846996198624E+00 
    2.5739101347243434E+00 
    2.5667040053205246E+00 
    2.5782095753413170E+00 
    2.5727028994120822E+00 
    2.5635737439517960E+00 
    2.5870160052311149E+00 
    2.5939103584378191E+00 
    2.5810354714518677E+00 
    2.5782442479872865E+00 
    2.5607450031862791E+00 
    2.5699777396286647E+00 
    2.5695596735246293E+00 
    2.5573491279575080E+00 
    2.5546169018697200E+00 
    2.5539827095614260E+00 
    2.5453158567333625E+00 
    2.5439396826542175E+00 
    2.5515758782532250E+00 
    2.5469977367987999E+00 
    2.5393136022366307E+00 
    2.5442986624544321E+00 
    2.5348551763645948E+00 
    2.5388291648227788E+00 
    2.5333473739947614E+00 
    2.5275898500985519E+00 
    2.5236686822506678E+00 
    2.5293820633601305E+00 
    2.5265734686697372E+00 
    2.5220170256913912E+00 
    2.5345781065080173E+00 
    2.5391096364350596E+00 
    2.5315592690458368E+00 
    2.5301824096385155E+00 
    2.5202175923324188E+00 
    2.5254224679370849E+00 
    2.5249544910477755E+00 
    2.5183684310865315E+00 
    2.5172081017897456E+00 
    2.5168498318707107E+00 
    2.5120204473448182E+00 
    2.5108457880302324E+00 
    2.5155914781135138E+00 
    2.5133480076212771E+00 
    2.5089243459665362E+00 
    2.5111822580899883E+00 
    2.5047724244792526E+00 
    2.5079229232387803E+00 
    2.5042853643765683E+00 
    2.4986395943782691E+00 
    2.4949600308504398E+00 
    2.5009225302757567E+00 
    2.4984757011590384E+00 
    2.4935125985721260E+00 
    2.5053282950255302E+00 
    2.5086304121619092E+00 
    2.5029637002627769E+00 
    2.5013047454654189E+00 
    2.4923696298614599E+00 
    2.4972411620470578E+00 
    2.4975420613726915E+00 
    2.4909983090719017E+00 
    2.4874757540758892E+00 
    2.4875329983624286E+00 
    2.4815500009790119E+00 
    2.4795663798565477E+00 
    2.4864799914739297E+00 
    2.4842011067897580E+00 
    2.4781566910684116E+00 
    2.4804777584797577E+00 
    2.4719869592939459E+00 
    2.4762398199989804E+00 
    2.4716375116600182E+00 
    2.4639419743967763E+00 
    2.4590547351270411E+00 
    2.4674138387104652E+00 
    2.4644311461117581E+00 
    2.4573420025516688E+00 
    2.4735880584870551E+00 
    2.4788068437461064E+00 
    2.4714018974591196E+00 
    2.4685042824055632E+00 
    2.4562178954279208E+00 
    2.4630425788883117E+00 
    2.4640219695457080E+00 
    2.4550707740088433E+00 
    2.4490112451428310E+00 
    2.4491138945199520E+00 
    2.4410290384152766E+00 
    2.4385710322697429E+00 
    2.4480059769143594E+00 
    2.4455411927991193E+00 
    2.4371136655665637E+00 
    2.4400369602267182E+00 
    2.4287715112494630E+00 
    2.4342603169612729E+00 
    2.4284744746657747E+00 
    2.4188724123976582E+00 
    2.4132592875745140E+00 
    2.4234596524814092E+00 
    2.4199184735758767E+00 
    2.4115562116169666E+00 
    2.4316254559469752E+00 
    2.4388073565861927E+00 
    2.4292593117368830E+00 
    2.4253556441588029E+00 
    2.4104451165103820E+00 
    2.4186714968712977E+00 
    2.4201363119569286E+00 
    2.4095086036917821E+00 
    2.4021648549157391E+00 
    2.4023209494670237E+00 
    2.3937435230855133E+00 
    2.3914341710911859E+00 
    2.4011759668655852E+00 
    2.3984550578687003E+00 
    2.3891937491784838E+00 
    2.3928246168874079E+00 
    2.3815016034297156E+00 
    2.3868699553697597E+00 
    2.3811419552311315E+00 
    2.3723072796832647E+00 
    2.3670646921237859E+00 
    2.3763007873295154E+00 
    2.3723555662715521E+00 
    2.3649421221071978E+00 
    2.3838534971889023E+00 
    2.3912178779668540E+00 
    2.3815217818011840E+00 
    2.3778902182513177E+00 
    2.3637533398292261E+00 
    2.3712756381622002E+00 
    2.3727827577862897E+00 
    2.3632364491440847E+00 
    2.3573166364708098E+00 
    2.3572637756711785E+00 
    2.3501576094598366E+00 
    2.3484222909923269E+00 
    2.3562311117055574E+00 
    2.3539138546986167E+00 
    2.3461176827820616E+00 
    2.3494536808574011E+00 
    2.3401663928285652E+00 
    2.3444576037733182E+00 
    2.3396282987877761E+00 
    2.3326661446447456E+00 
    2.3284667697105372E+00 
    2.3357239736641189E+00 
    2.3328721016719896E+00 
    2.3269783396135315E+00 
    2.3418264416533541E+00 
    2.3478294562415436E+00 
    2.3400440958777788E+00 
    2.3371363460895727E+00 
    2.3260000993830552E+00 
    2.3320763031052829E+00 
    2.3330515547613806E+00 
    2.3253495934553050E+00 
    2.3206061264568381E+00 
    2.3205134545875814E+00 
    2.3146205985368526E+00 
    2.3132211528744455E+00 
    2.3196795870774412E+00 
    2.3178290965455259E+00 
    2.3115934819696573E+00 
    2.3141221200165609E+00 
    2.3063844885233209E+00 
    2.3100182424306244E+00 
    2.3060652253703777E+00 
    2.3000019354786363E+00 
    2.2964016154196818E+00 
    2.3027154196249775E+00 
    2.3003854944068167E+00 
    2.2952343054691995E+00 
    2.3079016514524451E+00 
    2.3127986579074418E+00 
    2.3063207855478867E+00 
    2.3039280871837842E+00 
    2.2944623690712906E+00 
    2.2996905641676402E+00 
    2.3004586170174552E+00 
    2.2938501401912710E+00 
    2.2894564790464225E+00 
    2.2894495774140569E+00 
    2.2836014834055303E+00 
    2.2820725614804380E+00 
    2.2887182663690320E+00 
    2.2869446622306597E+00 
    2.2804389409134496E+00 
    2.2830978318109887E+00 
    2.2747393046010003E+00 
    2.2785540415750765E+00 
    2.2745322836099762E+00 
    2.2685166689010559E+00 
    2.2649933835673317E+00 
    2.2711313129184365E+00 
    2.2684012552897777E+00 
    2.2634477784640121E+00 
    2.2765764949881482E+00 
    2.2820291492768381E+00 
    2.2748865041619366E+00 
    2.2721800525583395E+00 
    2.2625036443389193E+00 
    2.2675331046710570E+00 
    2.2684687175931999E+00 
    2.2618382077003165E+00 
    2.2583970238713627E+00 
    2.2582538744052982E+00 
    2.2535332193264201E+00 
    2.2524087903340586E+00 
    2.2574174645722467E+00 
    2.2556247242472685E+00 
    2.2507746079286890E+00 
    2.2529160286528032E+00 
    2.2470314363332666E+00 
    2.2497950903163284E+00 
    2.2465072483686908E+00 
    2.2419598439879662E+00 
    2.2391667433533406E+00 
    2.2437604986967603E+00 
    2.2418473520371314E+00 
    2.2380481858479455E+00 
    2.2476026521935335E+00 
    2.2512030217921408E+00 
    2.2458342003560965E+00 
    2.2442973186314346E+00 
    2.2370269360883395E+00 
    2.2409118689430336E+00 
    2.2410716284383883E+00 
    2.2358353573175456E+00 
    2.2340496761057422E+00 
    2.2339234011991511E+00 
    2.2301195356119621E+00 
    2.2291250922694004E+00 
    2.2329849535463731E+00 
    2.2311571111893591E+00 
    2.2275665691853410E+00 
    2.2293153273208253E+00 
    2.2247163823480638E+00 
    2.2269174437626784E+00 
    2.2242216426241255E+00 
    2.2204447405688352E+00 
    2.2179412420705882E+00 
    2.2218144906497228E+00 
    2.2198531664545160E+00 
    2.2166264624070848E+00 
    2.2247716558947292E+00 
    2.2273068644851439E+00 
    2.2227913845095526E+00 
    2.2217687267345481E+00 
    2.2155606691220671E+00 
    2.2187380433510770E+00 
    2.2186803582478980E+00 
    2.2142118766110332E+00 
    2.2133153974597271E+00 
    2.2131798898135111E+00 
    2.2098193342788610E+00 
    2.2088369724036618E+00 
    2.2122219758148174E+00 
    2.2103433690614511E+00 
    2.2074081377514894E+00 
    2.2089659210736250E+00 
    2.2048367789133607E+00 
    2.2068592614193316E+00 
    2.2043906424284145E+00 
    2.2008392656661560E+00 
    2.1985440783251278E+00 
    2.2020984383740498E+00 
    2.2003210000032540E+00 
    2.1973736901978120E+00 
    2.2046594625319362E+00 
    2.2067135082524665E+00 
    2.2026082981236561E+00 
    2.2018454306924991E+00 
    2.1963062841911247E+00 
    2.1992090732739218E+00 
    2.1988947225861710E+00 
    2.1948046115310502E+00 
    2.1943497799702980E+00 
    2.1940990020503288E+00 
    2.1910882043330564E+00 
    2.1904103591878452E+00 
    2.1931479334406587E+00 
    2.1913430721804414E+00 
    2.1889265565254767E+00 
    2.1903645476828100E+00 
    2.1871399971862546E+00 
    2.1886809258240549E+00 
    2.1867140875033071E+00 
    2.1842309418803909E+00 
    2.1825785938336013E+00 
    2.1848878438575907E+00 
    2.1832300020713702E+00 
    2.1814139753453290E+00 
    2.1866264047393376E+00 
    2.1880472079395674E+00 
    2.1845462958591306E+00 
    2.1842891994421336E+00 
    2.1803138148054595E+00 
    2.1822067432695014E+00 
    2.1816321456332664E+00 
    2.1788432205332993E+00 
    2.1800590123775150E+00 
    2.1796133295356652E+00 
    2.1781440943902837E+00 
    2.1780992891289133E+00 
    2.1786952713811631E+00 
    2.1771561442286642E+00 
    2.1765286178261176E+00 
    2.1776120355379787E+00 
    2.1767431153573855E+00 
    2.1771037881089796E+00 
    2.1761690422022149E+00 
    2.1759006900925488E+00 
    2.1756023746766591E+00 
    2.1753686170034516E+00 
    2.1745102466910140E+00 
    2.1748418939944076E+00 
    2.1752304674835123E+00 
    2.1749180069808665E+00 
    2.1733132874750312E+00 
    2.1741854962102902E+00 
    2.1736428332902338E+00 
    2.1736344654541493E+00 
    2.1723879456739321E+00 
    2.1719824625291864E+00 
    2.6951688130497100E+00 
    2.6761657688876208E+00 
    2.6773767961749049E+00 
    2.6912788870044335E+00 
    2.6597522759351602E+00 
    2.6450682236291878E+00 
    2.6568865129742116E+00 
    2.6656889055261908E+00 
    2.6842458301434911E+00 
    2.6733979518115163E+00 
    2.6651234524090350E+00 
    2.6730954357908345E+00 
    2.6585980187708094E+00 
    2.6553329632368254E+00 
    2.6451025515375526E+00 
    2.6449428263474832E+00 
    2.6477221437973788E+00 
    2.6357391550677534E+00 
    2.6301724895066867E+00 
    2.6395267863508702E+00 
    2.6331116109982946E+00 
    2.6352201557563864E+00 
    2.6253538292443706E+00 
    2.6199004456842019E+00 
    2.6519777726948495E+00 
    2.6410176905065543E+00 
    2.6346686095178908E+00 
    2.6401119652561729E+00 
    2.6301962927893339E+00 
    2.6176255112919868E+00 
    2.6181259672349846E+00 
    2.6273154536783379E+00 
    2.6289068174152508E+00 
    2.6269680938028257E+00 
    2.6175473399938167E+00 
    2.6159858097163919E+00 
    2.6037548747772221E+00 
    2.6076640892229563E+00 
    2.5987658778732823E+00 
    2.5939371275351015E+00 
    2.6081767652879497E+00 
    2.6054013566420302E+00 
    2.5950258774051576E+00 
    2.5989331868029910E+00 
    2.5855604441404298E+00 
    2.5918777100280228E+00 
    2.5860573466549757E+00 
    2.5761609174102178E+00 
    2.5933904923274143E+00 
    2.5865174216565698E+00 
    2.5784749009036760E+00 
    2.5808612134545528E+00 
    2.5787948232512257E+00 
    2.5687249874249138E+00 
    2.5646927786279679E+00 
    2.5726462410407649E+00 
    2.5696573436269996E+00 
    2.5701138359097193E+00 
    2.5611476445206689E+00 
    2.5573656422599411E+00 
    2.5473210536988522E+00 
    2.5526276548334912E+00 
    2.5450774069119979E+00 
    2.5402609705530006E+00 
    2.5554473370476596E+00 
    2.5560927112385330E+00 
    2.5442917009153065E+00 
    2.5467035396822144E+00 
    2.5342774686179355E+00 
    2.5400921761286885E+00 
    2.5355303059554051E+00 
    2.5281173900512925E+00 
    2.5394746372636496E+00 
    2.5347732309967190E+00 
    2.5299345602543122E+00 
    2.5321094548330949E+00 
    2.5298853668607508E+00 
    2.5239154348189885E+00 
    2.5215942860840852E+00 
    2.5273427739793530E+00 
    2.5248955029152147E+00 
    2.5254104064537661E+00 
    2.5201940228102822E+00 
    2.5183797912110060E+00 
    2.5132678904481272E+00 
    2.5155557129322075E+00 
    2.5114750285813470E+00 
    2.5091999540211076E+00 
    2.5169132346551852E+00 
    2.5167870546393192E+00 
    2.5106671351690042E+00 
    2.5123197150506087E+00 
    2.5054007397864595E+00 
    2.5085870095960572E+00 
    2.5059822813442572E+00 
    2.5013687608974697E+00 
    2.5086796964443692E+00 
    2.5058844222677568E+00 
    2.5023239504125758E+00 
    2.5031604742566675E+00 
    2.5025684200915501E+00 
    2.4982549237161922E+00 
    2.4964445619141538E+00 
    2.4997838033727926E+00 
    2.4980936297972116E+00 
    2.4986180756787597E+00 
    2.4946147776606318E+00 
    2.4920818085215903E+00 
    2.4867769112406868E+00 
    2.4904234849615814E+00 
    2.4866912938641255E+00 
    2.4829923014740127E+00 
    2.4921541809473107E+00 
    2.4926862745473461E+00 
    2.4872759628855952E+00 
    2.4877926963755792E+00 
    2.4798726164437528E+00 
    2.4838780930535278E+00 
    2.4821979318743406E+00 
    2.4762619376373496E+00 
    2.4801072804563900E+00 
    2.4780047646832459E+00 
    2.4726990287770545E+00 
    2.4725422527321945E+00 
    2.4750914913899833E+00 
    2.4709124023941600E+00 
    2.4667531908045337E+00 
    2.4702204551186946E+00 
    2.4656944506689027E+00 
    2.4675481819104061E+00 
    2.4625362459694968E+00 
    2.4575992315314497E+00 
    2.4510085745950816E+00 
    2.4574730839375252E+00 
    2.4531580459770526E+00 
    2.4471178859298628E+00 
    2.4615383257739620E+00 
    2.4644811585057358E+00 
    2.4569893066678032E+00 
    2.4559825745986963E+00 
    2.4441880046652922E+00 
    2.4504993707011113E+00 
    2.4497259955661113E+00 
    2.4410660639945689E+00 
    2.4414310219821860E+00 
    2.4396203066579600E+00 
    2.4321716365340360E+00 
    2.4314173384606272E+00 
    2.4367941023816138E+00 
    2.4324912597714139E+00 
    2.4255953936350547E+00 
    2.4298180961461320E+00 
    2.4226391405903605E+00 
    2.4255701915075591E+00 
    2.4194027670217149E+00 
    2.4127901490507582E+00 
    2.4052050405323828E+00 
    2.4135264326221253E+00 
    2.4086170036380783E+00 
    2.4011485267356956E+00 
    2.4195428597210062E+00 
    2.4247962105717344E+00 
    2.4151528648881317E+00 
    2.4129557271242339E+00 
    2.3982598334880394E+00 
    2.4061677225470617E+00 
    2.4060250622206500E+00 
    2.3955634156656429E+00 
    2.3944048436726373E+00 
    2.3925372898531845E+00 
    2.3844766160849584E+00 
    2.3839199166849561E+00 
    2.3897754270738161E+00 
    2.3855221877671831E+00 
    2.3778606741632591E+00 
    2.3826548773233003E+00 
    2.3750850542689772E+00 
    2.3780192314494832E+00 
    2.3718192498801289E+00 
    2.3659127370643027E+00 
    2.3590693284330779E+00 
    2.3662008586754526E+00 
    2.3615137665598067E+00 
    2.3553213304814675E+00 
    2.3720845926847671E+00 
    2.3776314678081207E+00 
    2.3681233115390836E+00 
    2.3659456224739959E+00 
    2.3527215044582572E+00 
    2.3595917460657407E+00 
    2.3597684495636715E+00 
    2.3508734568325567E+00 
    2.3504045949683570E+00 
    2.3486643320090956E+00 
    2.3423745696162941E+00 
    2.3420435273172613E+00 
    2.3462886373350864E+00 
    2.3427195706525201E+00 
    2.3365690925373466E+00 
    2.3408317953756366E+00 
    2.3348221553613859E+00 
    2.3371188331833799E+00 
    2.3319803996842126E+00 
    2.3273927480082874E+00 
    2.3218966939706953E+00 
    2.3273921114397287E+00 
    2.3238221489044157E+00 
    2.3189236802960398E+00 
    2.3318683590585905E+00 
    2.3361876008297999E+00 
    2.3286356927926279E+00 
    2.3270400046040360E+00 
    2.3166418752515758E+00 
    2.3221850388576728E+00 
    2.3219908071733326E+00 
    2.3146697479216529E+00 
    2.3148061385380871E+00 
    2.3133326374134686E+00 
    2.3081530617780910E+00 
    2.3078540764055977E+00 
    2.3112117346729240E+00 
    2.3079907758281681E+00 
    2.3031624606726755E+00 
    2.3066582119068313E+00 
    2.3019148860554335E+00 
    2.3037682914034909E+00 
    2.2993872074908492E+00 
    2.2955461325133260E+00 
    2.2905495715936501E+00 
    2.2951872020719146E+00 
    2.2918493589831503E+00 
    2.2876630582935586E+00 
    2.2987703838726317E+00 
    2.3021738952409834E+00 
    2.2955091669267960E+00 
    2.2943749310748589E+00 
    2.2853206623380005E+00 
    2.2900883393001772E+00 
    2.2896004968101558E+00 
    2.2830184838566652E+00 
    2.2841450577830842E+00 
    2.2828055829363199E+00 
    2.2775379277664012E+00 
    2.2768413673712962E+00 
    2.2805382918431136E+00 
    2.2770107628626803E+00 
    2.2719787174243078E+00 
    2.2758220052143230E+00 
    2.2700472497869941E+00 
    2.2722212428732229E+00 
    2.2674514463073248E+00 
    2.2634229051486194E+00 
    2.2584247008267164E+00 
    2.2631104647888431E+00 
    2.2595338019194564E+00 
    2.2552892016316823E+00 
    2.2673301763782776E+00 
    2.2711282836627302E+00 
    2.2639300629095862E+00 
    2.2623685093837240E+00 
    2.2527516886874439E+00 
    2.2576297951834539E+00 
    2.2570838084787863E+00 
    2.2501489643360917E+00 
    2.2523908885273363E+00 
    2.2505922258005127E+00 
    2.2463100396009894E+00 
    2.2465434340895500E+00 
    2.2481559979335621E+00 
    2.2445637256257100E+00 
    2.2411870915011938E+00 
    2.2445151747078342E+00 
    2.2416521642705134E+00 
    2.2425675133891212E+00 
    2.2387037186845333E+00 
    2.2363536130767563E+00 
    2.2319857421890514E+00 
    2.2348213907301080E+00 
    2.2315457010287076E+00 
    2.2287630307898016E+00 
    2.2369625730626241E+00 
    2.2388559354079853E+00 
    2.2329548535724477E+00 
    2.2329076006597934E+00 
    2.2259392622202263E+00 
    2.2293531860955089E+00 
    2.2279643579816502E+00 
    2.2227567424543100E+00 
    2.2275843990525703E+00 
    2.2255182242136460E+00 
    2.2222529573073331E+00 
    2.2228557642429085E+00 
    2.2228050918696254E+00 
    2.2189942832789509E+00 
    2.2171013641672066E+00 
    2.2201624728503964E+00 
    2.2187720837908156E+00 
    2.2189883216027226E+00 
    2.2156583674340977E+00 
    2.2142582504248240E+00 
    2.2102767564767034E+00 
    2.2122211339026419E+00 
    2.2091172230836329E+00 
    2.2069710585967659E+00 
    2.2133365348586889E+00 
    2.2138924319561681E+00 
    2.2090721279408148E+00 
    2.2097273489284395E+00 
    2.2040511068657862E+00 
    2.2067336973862473E+00 
    2.2049264834674989E+00 
    2.2006338875785580E+00 
    2.2065440875007845E+00 
    2.2042788253942294E+00 
    2.2015613607030868E+00 
    2.2023537222470013E+00 
    2.2015294087646837E+00 
    2.1978284335203249E+00 
    2.1967267287647414E+00 
    2.1994566082128859E+00 
    2.1987525315756344E+00 
    2.1987472625760254E+00 
    2.1956695791928418E+00 
    2.1945769538686708E+00 
    2.1908112227660888E+00 
    2.1923341397625475E+00 
    2.1893571775004452E+00 