# vtk DataFile Version 2.0
Pressure Field Data 
ASCII 
DATASET UNSTRUCTURED_GRID 

POINTS 6273 double 

    0.0000000000000000E+00     0.0000000000000000E+00     0.0000000000000000E+00 
    1.0000000000000000E+00     0.0000000000000000E+00     0.0000000000000000E+00 
    1.0000000000000000E+00     1.0000000000000000E+00     0.0000000000000000E+00 
    0.0000000000000000E+00     1.0000000000000000E+00     0.0000000000000000E+00 
    1.5624999999970249E-02     0.0000000000000000E+00     0.0000000000000000E+00 
    3.1249999999940652E-02     0.0000000000000000E+00     0.0000000000000000E+00 
    4.6874999999905617E-02     0.0000000000000000E+00     0.0000000000000000E+00 
    6.2499999999870597E-02     0.0000000000000000E+00     0.0000000000000000E+00 
    7.8124999999846401E-02     0.0000000000000000E+00     0.0000000000000000E+00 
    9.3749999999822212E-02     0.0000000000000000E+00     0.0000000000000000E+00 
    1.0937499999979799E-01     0.0000000000000000E+00     0.0000000000000000E+00 
    1.2499999999977381E-01     0.0000000000000000E+00     0.0000000000000000E+00 
    1.4062499999972811E-01     0.0000000000000000E+00     0.0000000000000000E+00 
    1.5624999999968239E-01     0.0000000000000000E+00     0.0000000000000000E+00 
    1.7187499999963671E-01     0.0000000000000000E+00     0.0000000000000000E+00 
    1.8749999999959110E-01     0.0000000000000000E+00     0.0000000000000000E+00 
    2.0312499999954539E-01     0.0000000000000000E+00     0.0000000000000000E+00 
    2.1874999999949971E-01     0.0000000000000000E+00     0.0000000000000000E+00 
    2.3437499999945391E-01     0.0000000000000000E+00     0.0000000000000000E+00 
    2.4999999999940831E-01     0.0000000000000000E+00     0.0000000000000000E+00 
    2.6562499999936218E-01     0.0000000000000000E+00     0.0000000000000000E+00 
    2.8124999999931621E-01     0.0000000000000000E+00     0.0000000000000000E+00 
    2.9687499999927008E-01     0.0000000000000000E+00     0.0000000000000000E+00 
    3.1249999999922412E-01     0.0000000000000000E+00     0.0000000000000000E+00 
    3.2812499999917810E-01     0.0000000000000000E+00     0.0000000000000000E+00 
    3.4374999999913203E-01     0.0000000000000000E+00     0.0000000000000000E+00 
    3.5937499999908601E-01     0.0000000000000000E+00     0.0000000000000000E+00 
    3.7499999999903999E-01     0.0000000000000000E+00     0.0000000000000000E+00 
    3.9062499999899403E-01     0.0000000000000000E+00     0.0000000000000000E+00 
    4.0624999999894801E-01     0.0000000000000000E+00     0.0000000000000000E+00 
    4.2187499999890188E-01     0.0000000000000000E+00     0.0000000000000000E+00 
    4.3749999999885592E-01     0.0000000000000000E+00     0.0000000000000000E+00 
    4.5312499999880979E-01     0.0000000000000000E+00     0.0000000000000000E+00 
    4.6874999999876382E-01     0.0000000000000000E+00     0.0000000000000000E+00 
    4.8437499999871780E-01     0.0000000000000000E+00     0.0000000000000000E+00 
    4.9999999999867167E-01     0.0000000000000000E+00     0.0000000000000000E+00 
    5.1562499999871325E-01     0.0000000000000000E+00     0.0000000000000000E+00 
    5.3124999999875477E-01     0.0000000000000000E+00     0.0000000000000000E+00 
    5.4687499999879630E-01     0.0000000000000000E+00     0.0000000000000000E+00 
    5.6249999999883782E-01     0.0000000000000000E+00     0.0000000000000000E+00 
    5.7812499999887934E-01     0.0000000000000000E+00     0.0000000000000000E+00 
    5.9374999999892086E-01     0.0000000000000000E+00     0.0000000000000000E+00 
    6.0937499999896239E-01     0.0000000000000000E+00     0.0000000000000000E+00 
    6.2499999999900380E-01     0.0000000000000000E+00     0.0000000000000000E+00 
    6.4062499999904521E-01     0.0000000000000000E+00     0.0000000000000000E+00 
    6.5624999999908673E-01     0.0000000000000000E+00     0.0000000000000000E+00 
    6.7187499999912825E-01     0.0000000000000000E+00     0.0000000000000000E+00 
    6.8749999999916978E-01     0.0000000000000000E+00     0.0000000000000000E+00 
    7.0312499999921130E-01     0.0000000000000000E+00     0.0000000000000000E+00 
    7.1874999999925282E-01     0.0000000000000000E+00     0.0000000000000000E+00 
    7.3437499999929434E-01     0.0000000000000000E+00     0.0000000000000000E+00 
    7.4999999999933586E-01     0.0000000000000000E+00     0.0000000000000000E+00 
    7.6562499999937739E-01     0.0000000000000000E+00     0.0000000000000000E+00 
    7.8124999999941891E-01     0.0000000000000000E+00     0.0000000000000000E+00 
    7.9687499999946043E-01     0.0000000000000000E+00     0.0000000000000000E+00 
    8.1249999999950195E-01     0.0000000000000000E+00     0.0000000000000000E+00 
    8.2812499999954348E-01     0.0000000000000000E+00     0.0000000000000000E+00 
    8.4374999999958500E-01     0.0000000000000000E+00     0.0000000000000000E+00 
    8.5937499999962652E-01     0.0000000000000000E+00     0.0000000000000000E+00 
    8.7499999999966793E-01     0.0000000000000000E+00     0.0000000000000000E+00 
    8.9062499999970934E-01     0.0000000000000000E+00     0.0000000000000000E+00 
    9.0624999999975087E-01     0.0000000000000000E+00     0.0000000000000000E+00 
    9.2187499999979239E-01     0.0000000000000000E+00     0.0000000000000000E+00 
    9.3749999999983391E-01     0.0000000000000000E+00     0.0000000000000000E+00 
    9.5312499999987543E-01     0.0000000000000000E+00     0.0000000000000000E+00 
    9.6874999999991696E-01     0.0000000000000000E+00     0.0000000000000000E+00 
    9.8437499999995848E-01     0.0000000000000000E+00     0.0000000000000000E+00 
    1.0000000000000000E+00     1.5624999999970249E-02     0.0000000000000000E+00 
    1.0000000000000000E+00     3.1249999999940652E-02     0.0000000000000000E+00 
    1.0000000000000000E+00     4.6874999999905617E-02     0.0000000000000000E+00 
    1.0000000000000000E+00     6.2499999999870597E-02     0.0000000000000000E+00 
    1.0000000000000000E+00     7.8124999999846401E-02     0.0000000000000000E+00 
    1.0000000000000000E+00     9.3749999999822212E-02     0.0000000000000000E+00 
    1.0000000000000000E+00     1.0937499999979799E-01     0.0000000000000000E+00 
    1.0000000000000000E+00     1.2499999999977381E-01     0.0000000000000000E+00 
    1.0000000000000000E+00     1.4062499999972811E-01     0.0000000000000000E+00 
    1.0000000000000000E+00     1.5624999999968239E-01     0.0000000000000000E+00 
    1.0000000000000000E+00     1.7187499999963671E-01     0.0000000000000000E+00 
    1.0000000000000000E+00     1.8749999999959110E-01     0.0000000000000000E+00 
    1.0000000000000000E+00     2.0312499999954539E-01     0.0000000000000000E+00 
    1.0000000000000000E+00     2.1874999999949971E-01     0.0000000000000000E+00 
    1.0000000000000000E+00     2.3437499999945391E-01     0.0000000000000000E+00 
    1.0000000000000000E+00     2.4999999999940831E-01     0.0000000000000000E+00 
    1.0000000000000000E+00     2.6562499999936218E-01     0.0000000000000000E+00 
    1.0000000000000000E+00     2.8124999999931621E-01     0.0000000000000000E+00 
    1.0000000000000000E+00     2.9687499999927008E-01     0.0000000000000000E+00 
    1.0000000000000000E+00     3.1249999999922412E-01     0.0000000000000000E+00 
    1.0000000000000000E+00     3.2812499999917810E-01     0.0000000000000000E+00 
    1.0000000000000000E+00     3.4374999999913203E-01     0.0000000000000000E+00 
    1.0000000000000000E+00     3.5937499999908601E-01     0.0000000000000000E+00 
    1.0000000000000000E+00     3.7499999999903999E-01     0.0000000000000000E+00 
    1.0000000000000000E+00     3.9062499999899403E-01     0.0000000000000000E+00 
    1.0000000000000000E+00     4.0624999999894801E-01     0.0000000000000000E+00 
    1.0000000000000000E+00     4.2187499999890188E-01     0.0000000000000000E+00 
    1.0000000000000000E+00     4.3749999999885592E-01     0.0000000000000000E+00 
    1.0000000000000000E+00     4.5312499999880979E-01     0.0000000000000000E+00 
    1.0000000000000000E+00     4.6874999999876382E-01     0.0000000000000000E+00 
    1.0000000000000000E+00     4.8437499999871780E-01     0.0000000000000000E+00 
    1.0000000000000000E+00     4.9999999999867167E-01     0.0000000000000000E+00 
    1.0000000000000000E+00     5.1562499999871325E-01     0.0000000000000000E+00 
    1.0000000000000000E+00     5.3124999999875477E-01     0.0000000000000000E+00 
    1.0000000000000000E+00     5.4687499999879630E-01     0.0000000000000000E+00 
    1.0000000000000000E+00     5.6249999999883782E-01     0.0000000000000000E+00 
    1.0000000000000000E+00     5.7812499999887934E-01     0.0000000000000000E+00 
    1.0000000000000000E+00     5.9374999999892086E-01     0.0000000000000000E+00 
    1.0000000000000000E+00     6.0937499999896239E-01     0.0000000000000000E+00 
    1.0000000000000000E+00     6.2499999999900380E-01     0.0000000000000000E+00 
    1.0000000000000000E+00     6.4062499999904521E-01     0.0000000000000000E+00 
    1.0000000000000000E+00     6.5624999999908673E-01     0.0000000000000000E+00 
    1.0000000000000000E+00     6.7187499999912825E-01     0.0000000000000000E+00 
    1.0000000000000000E+00     6.8749999999916978E-01     0.0000000000000000E+00 
    1.0000000000000000E+00     7.0312499999921130E-01     0.0000000000000000E+00 
    1.0000000000000000E+00     7.1874999999925282E-01     0.0000000000000000E+00 
    1.0000000000000000E+00     7.3437499999929434E-01     0.0000000000000000E+00 
    1.0000000000000000E+00     7.4999999999933586E-01     0.0000000000000000E+00 
    1.0000000000000000E+00     7.6562499999937739E-01     0.0000000000000000E+00 
    1.0000000000000000E+00     7.8124999999941891E-01     0.0000000000000000E+00 
    1.0000000000000000E+00     7.9687499999946043E-01     0.0000000000000000E+00 
    1.0000000000000000E+00     8.1249999999950195E-01     0.0000000000000000E+00 
    1.0000000000000000E+00     8.2812499999954348E-01     0.0000000000000000E+00 
[...]
CELL_DATA 6144 
SCALARS Pressure double 1 
LOOKUP_TABLE default 

    2.8287645577035767E+00 
    2.7313583865407747E+00 
    2.7160331777223181E+00 
    2.7351752508458151E+00 
    2.6764827963608711E+00 
    2.6414142689567695E+00 
    2.6569665062413641E+00 
    2.6884129573332043E+00 
    2.6766083138173813E+00 
    2.6866786963617764E+00 
    2.6591965912765771E+00 
    2.6412703926766370E+00 
    2.6237717532723996E+00 
    2.6387696390809494E+00 
    2.6228633308409708E+00 
    2.6126637027113442E+00 
    2.6400700202058820E+00 
    2.6249686873395643E+00 
    2.6134217564030444E+00 
    2.6243017681911094E+00 
    2.6022167034818615E+00 
    2.6134475021655379E+00 
    2.6034696490616502E+00 
    2.5906509869210868E+00 
    2.6018967326039757E+00 
    2.5988094123813430E+00 
    2.5848225483119105E+00 
    2.5822594255587905E+00 
    2.5915227421951674E+00 
    2.5805467981707020E+00 
    2.5720130286532563E+00 
    2.5804455739376180E+00 
    2.5655088704889035E+00 
    2.5727760623406595E+00 
    2.5629065323787854E+00 
    2.5503974428127201E+00 
    2.5415269244199985E+00 
    2.5538618645851003E+00 
    2.5465589721012458E+00 
    2.5367390515800006E+00 
    2.5615570047884875E+00 
    2.5660827794498400E+00 
    2.5523246185550317E+00 
    2.5514315846940310E+00 
    2.5325062525148065E+00 
    2.5422212743783978E+00 
    2.5403803758577306E+00 
    2.5273725986535669E+00 
    2.5260640807540544E+00 
    2.5252708558063226E+00 
    2.5143399836526537E+00 
    2.5115181133255291E+00 
    2.5219355162908141E+00 
    2.5159627647514027E+00 
    2.5069051211208291E+00 
    2.5119562267009519E+00 
    2.4986226619283123E+00 
    2.5051103788157909E+00 
    2.4972099460450643E+00 
    2.4861119059268777E+00 
    2.4792503044944314E+00 
    2.4901876867816402E+00 
    2.4849621735093606E+00 
    2.4762728252104953E+00 
    2.4985305531142652E+00 
    2.5050301168582512E+00 
    2.4928221622338871E+00 
    2.4901884699729626E+00 
    2.4735761991385816E+00 
    2.4823272294433312E+00 
    2.4819310519674080E+00 
    2.4702877376598718E+00 
    2.4677042441500712E+00 
    2.4671288319432936E+00 
    2.4588395119968292E+00 
    2.4575400095313578E+00 
    2.4648067888103018E+00 
    2.4603707887912174E+00 
    2.4530984951162238E+00 
    2.4578025391084037E+00 
    2.4490331704533941E+00 
    2.4526897719021581E+00 
    2.4475199734286854E+00 
    2.4423308266276313E+00 
    2.4387501164040466E+00 
    2.4438249942323576E+00 
    2.4412252908628616E+00 
    2.4371978063639324E+00 
    2.4485640621643552E+00 
    2.4527790410537675E+00 
    2.4457066422270719E+00 
    2.4445348607978077E+00 
    2.4355194074867339E+00 
    2.4402188678031926E+00 
    2.4397757001170461E+00 
    2.4338674150345212E+00 
    2.4329321377728319E+00 
    2.4325903355838081E+00 
    2.4283138559620658E+00 
    2.4272839601019469E+00 
    2.4314480904458633E+00 
    2.4294215324144659E+00 
    2.4255368811430227E+00 
    2.4275406428539759E+00 
    2.4219281634941097E+00 
    2.4246995207071991E+00 
    2.4214934302563575E+00 
    2.4165103168175603E+00 
    2.4132499102370941E+00 
    2.4184950339911375E+00 
    2.4162984580751314E+00 
    2.4119325851086395E+00 
    2.4223250483696304E+00 
    2.4251872562092895E+00 
    2.4201742326789026E+00 
    2.4187452217398100E+00 
    2.4108700039013096E+00 
    2.4151467502862323E+00 
    2.4153728550248736E+00 
    2.4095746686953716E+00 
    2.4066280245468628E+00 
    2.4066655639583860E+00 
    2.4013804585311904E+00 
    2.3995993902862702E+00 
    2.4056721068104312E+00 
    2.4035735626681749E+00 
    2.3983012348888999E+00 
    2.4003471790016975E+00 
    2.3928940614220311E+00 
    2.3966428076770008E+00 
    2.3925537024964840E+00 
    2.3857347034799572E+00 
    2.3813774646747161E+00 
    2.3887572761843918E+00 
    2.3860568868676078E+00 
    2.3797918499420225E+00 
    2.3941633526394122E+00 
    2.3987145650444326E+00 
    2.3920854353086836E+00 
    2.3895904284527556E+00 
    2.3786882461109506E+00 
    2.3847179432215242E+00 
    2.3854934031154724E+00 
    2.3775133326574873E+00 
    2.3724196517184906E+00 
    2.3724933823779413E+00 
    2.3652905111758038E+00 
    2.3630659282583379E+00 
    2.3714100581861661E+00 
    2.3690863022059996E+00 
    2.3617003980046243E+00 
    2.3642915133106466E+00 
    2.3543299355593277E+00 
    2.3592101361859896E+00 
    2.3540318693952544E+00 
    2.3454651562610613E+00 
    2.3404432826756372E+00 
    2.3495070320434701E+00 
    2.3462831869302634E+00 
    2.3388564230260327E+00 
    2.3566954631768473E+00 
    2.3629853410955386E+00 
    2.3544434018254452E+00 
    2.3510478687076879E+00 
    2.3377652461556218E+00 
    2.3450628826818045E+00 
    2.3462677792360420E+00 
    2.3367724638532330E+00 
    2.3305402456522288E+00 
    2.3306421837919542E+00 
    2.3230034568810396E+00 
    2.3209485011673383E+00 
    2.3295313205547772E+00 
    2.3269745197833340E+00 
    2.3188492952903519E+00 
    2.3220987435517388E+00 
    2.3121119751863208E+00 
    2.3168523987728036E+00 
    2.3117369014786999E+00 
    2.3039884508439132E+00 
    2.2994051693281521E+00 
    2.3074220228633502E+00 
    2.3038860570358950E+00 
    2.2974981389196212E+00 
    2.3140048127839470E+00 
    2.3203992479386018E+00 
    2.3117250441293202E+00 
    2.3086679930584117E+00 
    2.2963345769677694E+00 
    2.3028493177638385E+00 
    2.3040048612753461E+00 
    2.2956968560035116E+00 
    2.2910407096725494E+00 
    2.2909150206226094E+00 
    2.2848526344233866E+00 
    2.2834360007094849E+00 
    2.2899250180814801E+00 
    2.2877916787968804E+00 
    2.2812803041601057E+00 
    2.2841973029643934E+00 
    2.2764417189565687E+00 
    2.2800255916728132E+00 
    2.2759275543989146E+00 
    2.2701542106726347E+00 
    2.2666620992375064E+00 
    2.2726111224859795E+00 
    2.2701682404213965E+00 
    2.2653652416655317E+00 
    2.2775898795771758E+00 
    2.2824605183719950E+00 
    2.2758733416010242E+00 
    2.2736206179325054E+00 
    2.2644436423889451E+00 
    2.2694076354370107E+00 
    2.2700492891188402E+00 
    2.2637353404150304E+00 
    2.2602044347194332E+00 
    2.2600914251494117E+00 
    2.2552975094505339E+00 
    2.2541780334037997E+00 
    2.2593324008581219E+00 
    2.2577125080643006E+00 
    2.2527488371393281E+00 
    2.2548392113657383E+00 
    2.2486464251985883E+00 
    2.2515594964361574E+00 
    2.2483466960858922E+00 
    2.2434941374875934E+00 
    2.2405989922896898E+00 
    2.2456028227300799E+00 
    2.2436643334068678E+00 
    2.2395681750368568E+00 
    2.2496966462879278E+00 
    2.2535292254075228E+00 
    2.2482795979199190E+00 
    2.2464437257805354E+00 
    2.2388109457273990E+00 
    2.2430002000156226E+00 
    2.2435090178061610E+00 
    2.2381049055324631E+00 
    2.2351401564723101E+00 
    2.2350465827378012E+00 
    2.2308946598305868E+00 
    2.2299474454943158E+00 
    2.2343470611762069E+00 
    2.2328190056890134E+00 
    2.2286050712685528E+00 
    2.2304418079717658E+00 
    2.2252774264370498E+00 
    2.2276943300041139E+00 
    2.2250347588283348E+00 
    2.2210464157528960E+00 
    2.2185503805167923E+00 
    2.2226643101717625E+00 
    2.2206579516020022E+00 
    2.2173238276642797E+00 
    2.2259496032573183E+00 
    2.2290884770601163E+00 
    2.2244176731036838E+00 
    2.2229963742317547E+00 
    2.2164749684576823E+00 
    2.2198750497976354E+00 
    2.2202435837081111E+00 
    2.2157281307025198E+00 
    2.2139448639992727E+00 
    2.2137481305021600E+00 
    2.2104098751915382E+00 
    2.2096038056826579E+00 
    2.2130094586990725E+00 
    2.2115589737837040E+00 
    2.2082521158325008E+00 
    2.2098734627138317E+00 
    2.2054556369648348E+00 
    2.2076170229484244E+00 
    2.2050077275985971E+00 
    2.2010110140747132E+00 
    2.1984488693328679E+00 
    2.2027328370497292E+00 
    2.2011502603677737E+00 
    2.1975457599714674E+00 
    2.2058172658762731E+00 
    2.2083002608150695E+00 
    2.2044022119808315E+00 
    2.2032476639432104E+00 
    2.1967580328586047E+00 
    2.2004415093083001E+00 
    2.2006707416947280E+00 
    2.1958643461346385E+00 
    2.1937375834877448E+00 
    2.1937155113725866E+00 
    2.1903566160739634E+00 
    2.1894548250257984E+00 
    2.1929737370806497E+00 
    2.1914138600865929E+00 
    2.1881670309602779E+00 
    2.1896881146264793E+00 
    2.1855910904320783E+00 
    2.1875446908002649E+00 
    2.1851772947708059E+00 
    2.1818312730524276E+00 
    2.1796261469984164E+00 
    2.1830639994005940E+00 
    2.1813464000943465E+00 
    2.1784802440309030E+00 
    2.1857100137312613E+00 
    2.1879913574824847E+00 
    2.1840101318049641E+00 
    2.1830666094206674E+00 
    2.1775573566949533E+00 
    2.1803822497880838E+00 
    2.1803689267142148E+00 
    2.1764002821605337E+00 
    2.1755377067452213E+00 
    2.1754253259261893E+00 
    2.1724491908329182E+00 
    2.1715775022778345E+00 
    2.1745896916763732E+00 
    2.1729439971677884E+00 
    2.1703241709431063E+00 
    2.1717003368124095E+00 
    2.1680375261890141E+00 
    2.1698301358006709E+00 
    2.1676451608277754E+00 
    2.1644996260286851E+00 
    2.1624686672625422E+00 
    2.1656165626157371E+00 
    2.1640433078380843E+00 
    2.1614322556820005E+00 
    2.1678931573942970E+00 
    2.1697357395475190E+00 
    2.1660890261659418E+00 
    2.1654004606110857E+00 
    2.1604846518973555E+00 
    2.1630601776452316E+00 
    2.1627880661369017E+00 
    2.1591537691788698E+00 
    2.1587597533622698E+00 
    2.1585351812049720E+00 
    2.1558746278726204E+00 
    2.1552778104698849E+00 
    2.1576879941385427E+00 
    2.1560824232081921E+00 
    2.1539527205552211E+00 
    2.1552285464220935E+00 
    2.1523909648015627E+00 
    2.1537472810344607E+00 
    2.1520075343966441E+00 
    2.1498234780427232E+00 
    2.1483636225749012E+00 
    2.1503883568648461E+00 
    2.1489149479603298E+00 
    2.1473228119243259E+00 
    2.1519100759076837E+00 
    2.1531530409844120E+00 
    2.1500478775147442E+00 
    2.1498369092507983E+00 
    2.1463317094529506E+00 
    2.1479946724504622E+00 
    2.1474657488693389E+00 
    2.1450008655367330E+00 
    2.1461467131193723E+00 
    2.1457446755181855E+00 
    2.1444584056869549E+00 
    2.1444211133946181E+00 
    2.1449164295744918E+00 
    2.1435319936633626E+00 
    2.1430118268782850E+00 
    2.1439713510214808E+00 
    2.1432305009151373E+00 
    2.1435399511594349E+00 
    2.1427148180868647E+00 
    2.1424811886305539E+00 
    2.1422097974707497E+00 
    2.1419981892357161E+00 
    2.1412261941204469E+00 
    2.1415223435949318E+00 
    2.1418496611334543E+00 
    2.1415352629866007E+00 
    2.1401175484350312E+00 
    2.1409160160339975E+00 
    2.1404422012703708E+00 
    2.1404278570624884E+00 
    2.1392986598077455E+00 
    2.1389376324254994E+00 
    2.6032828818425706E+00 
    2.5846232301172112E+00 
    2.5857795275401663E+00 
    2.5994116214757259E+00 
    2.5686165340120826E+00 
    2.5543565827544898E+00 
    2.5657956182889636E+00 
    2.5743342994259009E+00 
    2.5924716039611981E+00 
    2.5818373157200543E+00 
    2.5737299928705548E+00 
    2.5814958796995744E+00 
    2.5673043876320016E+00 
    2.5641748980078272E+00 
    2.5542253161850299E+00 
    2.5540173913640558E+00 
    2.5568501079728141E+00 
    2.5452809543435411E+00 
    2.5398283554205947E+00 
    2.5488483852018242E+00 
    2.5425724609518423E+00 
    2.5446499014260708E+00 
    2.5351361210402543E+00 
    2.5298418250015540E+00 
    2.5608283844175350E+00 
    2.5501783494924979E+00 
    2.5440178040551751E+00 
    2.5493007590905608E+00 
    2.5397155363689459E+00 
    2.5276155760647474E+00 
    2.5280699856225106E+00 
    2.5369195420808683E+00 
    2.5384639920372338E+00 
    2.5365791508777358E+00 
    2.5275128621278049E+00 
    2.5260358427175742E+00 
    2.5143282963147091E+00 
    2.5180415699853169E+00 
    2.5095505395377860E+00 
    2.5049713719443671E+00 
    2.5185355338423632E+00 
    2.5159032931357310E+00 
    2.5060069027817864E+00 
    2.5097187318420247E+00 
    2.4970353413292008E+00 
    2.5030174126372837E+00 
    2.4975099723325895E+00 
    2.4881843006744253E+00 
    2.5044880393482778E+00 
    2.4979513807313602E+00 
    2.4903651978974666E+00 
    2.4926352783761438E+00 
    2.4906617793088284E+00 
    2.4811943009429451E+00 
    2.4773731814145528E+00 
    2.4848558554205651E+00 
    2.4820251142440486E+00 
    2.4824664808873567E+00 
    2.4739940907505646E+00 
    2.4703270423743349E+00 
    2.4606924889802628E+00 
    2.4658744030017608E+00 
    2.4586439738908532E+00 
    2.4538873012412932E+00 
    2.4686096326888074E+00 
    2.4692839076522879E+00 
    2.4579834345743490E+00 
    2.4601890243940137E+00 
    2.4481950774059102E+00 
    2.4538141921079659E+00 
    2.4494678917590753E+00 
    2.4423318215587417E+00 
    2.4531017231981189E+00 
    2.4486071710651793E+00 
    2.4441090457090264E+00 
    2.4462698666337022E+00 
    2.4439758030094310E+00 
    2.4384219467193060E+00 
    2.4363641155638938E+00 
    2.4418110235098238E+00 
    2.4396691485755655E+00 
    2.4400479584420998E+00 
    2.4352753474386635E+00 
    2.4337790369874810E+00 
    2.4291254760687098E+00 
    2.4310471594764853E+00 
    2.4273426819863806E+00 
    2.4254184689983056E+00 
    2.4321878993566779E+00 
    2.4319814525287908E+00 
    2.4265343134926538E+00 
    2.4280768168913278E+00 
    2.4219576526251636E+00 
    2.4247512597410070E+00 
    2.4223774653737524E+00 
    2.4183324512490456E+00 
    2.4251337191121998E+00 
    2.4225667764855383E+00 
    2.4194864816759285E+00 
    2.4202789109407519E+00 
    2.4195570724565583E+00 
    2.4156737312266463E+00 
    2.4141962320587269E+00 
    2.4171611437711142E+00 
    2.4158171008606115E+00 
    2.4162211739171400E+00 
    2.4126661777621741E+00 
    2.4104838420385213E+00 
    2.4057137468882028E+00 
    2.4088948101781789E+00 
    2.4055185580462051E+00 
    2.4022379217365910E+00 
    2.4103384403993964E+00 
    2.4107040691344990E+00 
    2.4058964207555937E+00 
    2.4064179336564817E+00 
    2.3993911164941975E+00 
    2.4029321833038129E+00 
    2.4013782311919307E+00 
    2.3960891264943482E+00 
    2.3997631264951376E+00 
    2.3978030710362637E+00 
    2.3930793485235640E+00 
    2.3930003062017668E+00 
    2.3951397343808218E+00 
    2.3913459903838912E+00 
    2.3876706504890937E+00 
    2.3907942770785238E+00 
    2.3868840092821761E+00 
    2.3884626345078406E+00 
    2.3839516901321853E+00 
    2.3796285726255149E+00 
    2.3736742574012073E+00 
    2.3793798413715010E+00 
    2.3754645558964733E+00 
    2.3700935163297583E+00 
    2.3829550668917037E+00 
    2.3855501925732354E+00 
    2.3788102512253833E+00 
    2.3779464787032900E+00 
    2.3673919110740616E+00 
    2.3730281835625013E+00 
    2.3722849560448869E+00 
    2.3645183267170164E+00 
    2.3651751820303066E+00 
    2.3634327269175799E+00 
    2.3568164023058467E+00 
    2.3562386210777091E+00 
    2.3608080118280848E+00 
    2.3568673447496069E+00 
    2.3507881480655350E+00 
    2.3546286227944795E+00 
    2.3483843196016165E+00 
    2.3508981720735900E+00 
    2.3453411244779456E+00 
    2.3395533914458775E+00 
    2.3326827384437272E+00 
    2.3400250647869481E+00 
    2.3355669023113039E+00 
    2.3289206269966050E+00 
    2.3453237865614360E+00 
    2.3499327890633204E+00 
    2.3412811355046887E+00 
    2.3393843217104422E+00 
    2.3262164664758340E+00 
    2.3332858042924371E+00 
    2.3330886050240185E+00 
    2.3236774096313204E+00 
    2.3230617888470633E+00 
    2.3212384848001202E+00 
    2.3140388444572180E+00 
    2.3136885330753563E+00 
    2.3186271257525060E+00 
    2.3146677639202027E+00 
    2.3079047212192316E+00 
    2.3122949824603021E+00 
    2.3058446472263507E+00 
    2.3082691521472749E+00 
    2.3026875878609254E+00 
    2.2977483454521432E+00 
    2.2916605271294079E+00 
    2.2976402765651649E+00 
    2.2933965924529742E+00 
    2.2881749228312223E+00 
    2.3026704628173644E+00 
    2.3074751837927074E+00 
    2.2989082052475496E+00 
    2.2971808720493341E+00 
    2.2856673424342322E+00 
    2.2915968965683788E+00 
    2.2915185272040972E+00 
    2.2838121569346641E+00 
    2.2843899700925694E+00 
    2.2826016384387127E+00 
    2.2773553957017536E+00 
    2.2773360066463830E+00 
    2.2803176594510424E+00 
    2.2770133458737329E+00 
    2.2720941473753498E+00 
    2.2759097896172764E+00 
    2.2712821545616420E+00 
    2.2729569520249933E+00 
    2.2685841112568670E+00 
    2.2651336358856549E+00 
    2.2605095463007290E+00 
    2.2646753426056354E+00 
    2.2616020036793292E+00 
    2.2578523250816058E+00 
    2.2680758173044135E+00 
    2.2713094768780859E+00 
    2.2650382100245112E+00 
    2.2640549772165959E+00 
    2.2557433395739763E+00 
    2.2601140574207887E+00 
    2.2596741382171155E+00 
    2.2538798040499834E+00 
    2.2549376698611252E+00 
    2.2535083910974829E+00 
    2.2494358269296568E+00 
    2.2493650907815783E+00 
    2.2515846532355859E+00 
    2.2487736554034203E+00 
    2.2451512065123427E+00 
    2.2480843398316921E+00 
    2.2445479925654150E+00 
    2.2458990400032679E+00 
    2.2422912203768730E+00 
    2.2393063505378743E+00 
    2.2351769700516839E+00 
    2.2387766180014239E+00 
    2.2359478378294368E+00 
    2.2326374053927007E+00 
    2.2414940419359337E+00 
    2.2439674336308801E+00 
    2.2385748294844419E+00 
    2.2378359419853870E+00 
    2.2305808513685852E+00 
    2.2343566255402965E+00 
    2.2337739514492978E+00 
    2.2284727501233985E+00 
    2.2302060901184455E+00 
    2.2288680235632774E+00 
    2.2251794510222513E+00 
    2.2252103916931105E+00 
    2.2268807548496299E+00 
    2.2239068395799446E+00 
    2.2208557534707438E+00 
    2.2237219894684941E+00 
    2.2209295845686929E+00 
    2.2218434224502968E+00 
    2.2185878050900998E+00 
    2.2164164950072163E+00 
    2.2127664027992640E+00 
    2.2154858786929577E+00 
    2.2128201015968765E+00 
    2.2102156888317821E+00 
    2.2175382337611760E+00 
    2.2193762888956412E+00 
    2.2145156957615590E+00 
    2.2142174468492222E+00 
    2.2080426256494170E+00 
    2.2111576258861030E+00 
    2.2102480316495940E+00 
    2.2057149868327146E+00 
    2.2088165333625556E+00 
    2.2072009478159211E+00 
    2.2043360248980153E+00 
    2.2047346045305360E+00 
    2.2051304590400314E+00 
    2.2021962934577859E+00 
    2.2002463043858009E+00 
    2.2028066062342426E+00 
    2.2011112519083160E+00 
    2.2016420919474617E+00 
    2.1986419540861966E+00 
    2.1966016041917618E+00 
    2.1926741690168923E+00 
    2.1954952327625712E+00 
    2.1927397656913894E+00 
    2.1898801225562168E+00 
    2.1969767104219202E+00 
    2.1979230683455140E+00 
    2.1936430537969183E+00 
    2.1938256708621537E+00 
    2.1874895344293068E+00 
    2.1909159894207302E+00 
    2.1898091551241370E+00 
    2.1849046570094171E+00 
    2.1883716744995159E+00 
    2.1866342300036066E+00 
    2.1836955101981492E+00 
    2.1841493629851763E+00 
    2.1843490982261202E+00 
    2.1810841057110788E+00 
    2.1792383126236072E+00 
    2.1819130821636206E+00 
    2.1805146397296755E+00 
    2.1807870283706543E+00 
    2.1778432898985236E+00 
    2.1765045001726944E+00 
    2.1729923294004623E+00 
    2.1748181823875861E+00 
    2.1720976469611863E+00 
    2.1701157973997556E+00 
    2.1759259846260250E+00 
    2.1765770474061359E+00 
    2.1722739074638588E+00 
    2.1727314872507826E+00 
    2.1675901242279569E+00 
    2.1700436272896781E+00 
    2.1685455782713792E+00 
    2.1646575727078217E+00 
    2.1696306467045092E+00 
    2.1676661954631067E+00 
    2.1652171647840026E+00 
    2.1658903738025534E+00 
    2.1652737179699542E+00 
    2.1620392422597390E+00 
    2.1609558704269078E+00 
    2.1633774936547496E+00 
    2.1626778268448001E+00 
    2.1627039643444541E+00 
    2.1599628476419519E+00 
    2.1589589501343536E+00 
    2.1556101468586970E+00 
    2.1569972968592364E+00 
    2.1543549908415769E+00 