# vtk DataFile Version 2.0
Pressure Field Data 
ASCII 
DATASET UNSTRUCTURED_GRID 

POINTS 6273 double 

    0.0000000000000000E+00     0.0000000000000000E+00     0.0000000000000000E+00 
    1.0000000000000000E+00     0.0000000000000000E+00     0.0000000000000000E+00 
    1.0000000000000000E+00     1.0000000000000000E+00     0.0000000000000000E+00 
    0.0000000000000000E+00     1.0000000000000000E+00     0.0000000000000000E+00 
    1.5624999999970249E-02     0.0000000000000000E+00     0.0000000000000000E+00 
    3.1249999999940652E-02     0.0000000000000000E+00     0.0000000000000000E+00 
    4.6874999999905617E-02     0.0000000000000000E+00     0.0000000000000000E+00 
    6.2499999999870597E-02     0.0000000000000000E+00     0.0000000000000000E+00 
    7.8124999999846401E-02     0.0000000000000000E+00     0.0000000000000000E+00 
    9.3749999999822212E-02     0.0000000000000000E+00     0.0000000000000000E+00 
    1.0937499999979799E-01     0.0000000000000000E+00     0.0000000000000000E+00 
    1.2499999999977381E-01     0.0000000000000000E+00     0.0000000000000000E+00 
    1.4062499999972811E-01     0.0000000000000000E+00     0.0000000000000000E+00 
    1.5624999999968239E-01     0.0000000000000000E+00     0.0000000000000000E+00 
    1.7187499999963671E-01     0.0000000000000000E+00     0.0000000000000000E+00 
    1.8749999999959110E-01     0.0000000000000000E+00     0.0000000000000000E+00 
    2.0312499999954539E-01     0.0000000000000000E+00     0.0000000000000000E+00 
    2.1874999999949971E-01     0.0000000000000000E+00     0.0000000000000000E+00 
    2.3437499999945391E-01     0.0000000000000000E+00     0.0000000000000000E+00 
    2.4999999999940831E-01     0.0000000000000000E+00     0.0000000000000000E+00 
    2.6562499999936218E-01     0.0000000000000000E+00     0.0000000000000000E+00 
    2.8124999999931621E-01     0.0000000000000000E+00     0.0000000000000000E+00 
    2.9687499999927008E-01     0.0000000000000000E+00     0.0000000000000000E+00 
    3.1249999999922412E-01     0.0000000000000000E+00     0.0000000000000000E+00 
    3.2812499999917810E-01     0.0000000000000000E+00     0.0000000000000000E+00 
    3.4374999999913203E-01     0.0000000000000000E+00     0.0000000000000000E+00 
    3.5937499999908601E-01     0.0000000000000000E+00     0.0000000000000000E+00 
    3.7499999999903999E-01     0.0000000000000000E+00     0.0000000000000000E+00 
    3.9062499999899403E-01     0.0000000000000000E+00     0.0000000000000000E+00 
    4.0624999999894801E-01     0.0000000000000000E+00     0.0000000000000000E+00 
    4.2187499999890188E-01     0.0000000000000000E+00     0.0000000000000000E+00 
    4.3749999999885592E-01     0.0000000000000000E+00     0.0000000000000000E+00 
    4.5312499999880979E-01     0.0000000000000000E+00     0.0000000000000000E+00 
    4.6874999999876382E-01     0.0000000000000000E+00     0.0000000000000000E+00 
    4.8437499999871780E-01     0.0000000000000000E+00     0.0000000000000000E+00 
    4.9999999999867167E-01     0.0000000000000000E+00     0.0000000000000000E+00 
    5.1562499999871325E-01     0.0000000000000000E+00     0.0000000000000000E+00 
    5.3124999999875477E-01     0.0000000000000000E+00     0.0000000000000000E+00 
    5.4687499999879630E-01     0.0000000000000000E+00     0.0000000000000000E+00 
    5.6249999999883782E-01     0.0000000000000000E+00     0.0000000000000000E+00 
    5.7812499999887934E-01     0.0000000000000000E+00     0.0000000000000000E+00 
    5.9374999999892086E-01     0.0000000000000000E+00     0.0000000000000000E+00 
    6.0937499999896239E-01     0.0000000000000000E+00     0.0000000000000000E+00 
    6.2499999999900380E-01     0.0000000000000000E+00     0.0000000000000000E+00 
    6.4062499999904521E-01     0.0000000000000000E+00     0.0000000000000000E+00 
    6.5624999999908673E-01     0.0000000000000000E+00     0.0000000000000000E+00 
    6.7187499999912825E-01     0.0000000000000000E+00     0.0000000000000000E+00 
    6.8749999999916978E-01     0.0000000000000000E+00     0.0000000000000000E+00 
    7.0312499999921130E-01     0.0000000000000000E+00     0.0000000000000000E+00 
    7.1874999999925282E-01     0.0000000000000000E+00     0.0000000000000000E+00 
    7.3437499999929434E-01     0.0000000000000000E+00     0.0000000000000000E+00 
    7.4999999999933586E-01     0.0000000000000000E+00     0.0000000000000000E+00 
    7.6562499999937739E-01     0.0000000000000000E+00     0.0000000000000000E+00 
    7.8124999999941891E-01     0.0000000000000000E+00     0.0000000000000000E+00 
    7.9687499999946043E-01     0.0000000000000000E+00     0.0000000000000000E+00 
    8.1249999999950195E-01     0.0000000000000000E+00     0.0000000000000000E+00 
    8.2812499999954348E-01     0.0000000000000000E+00     0.0000000000000000E+00 
    8.4374999999958500E-01     0.0000000000000000E+00     0.0000000000000000E+00 
    8.5937499999962652E-01     0.0000000000000000E+00     0.0000000000000000E+00 
    8.7499999999966793E-01     0.0000000000000000E+00     0.0000000000000000E+00 
    8.9062499999970934E-01     0.0000000000000000E+00     0.0000000000000000E+00 
    9.0624999999975087E-01     0.0000000000000000E+00     0.0000000000000000E+00 
    9.2187499999979239E-01     0.0000000000000000E+00     0.0000000000000000E+00 
    9.3749999999983391E-01     0.0000000000000000E+00     0.0000000000000000E+00 
    9.5312499999987543E-01     0.0000000000000000E+00     0.0000000000000000E+00 
    9.6874999999991696E-01     0.0000000000000000E+00     0.0000000000000000E+00 
    9.8437499999995848E-01     0.0000000000000000E+00     0.0000000000000000E+00 
    1.0000000000000000E+00     1.5624999999970249E-02     0.0000000000000000E+00 
    1.0000000000000000E+00     3.1249999999940652E-02     0.0000000000000000E+00 
    1.0000000000000000E+00     4.6874999999905617E-02     0.0000000000000000E+00 
    1.0000000000000000E+00     6.2499999999870597E-02     0.0000000000000000E+00 
    1.0000000000000000E+00     7.8124999999846401E-02     0.0000000000000000E+00 
    1.0000000000000000E+00     9.3749999999822212E-02     0.0000000000000000E+00 
    1.0000000000000000E+00     1.0937499999979799E-01     0.0000000000000000E+00 
    1.0000000000000000E+00     1.2499999999977381E-01     0.0000000000000000E+00 
    1.0000000000000000E+00     1.4062499999972811E-01     0.0000000000000000E+00 
    1.0000000000000000E+00     1.5624999999968239E-01     0.0000000000000000E+00 
    1.0000000000000000E+00     1.7187499999963671E-01     0.0000000000000000E+00 
    1.0000000000000000E+00     1.8749999999959110E-01     0.0000000000000000E+00 
    1.0000000000000000E+00     2.0312499999954539E-01     0.0000000000000000E+00 
    1.0000000000000000E+00     2.1874999999949971E-01     0.0000000000000000E+00 
    1.0000000000000000E+00     2.3437499999945391E-01     0.0000000000000000E+00 
    1.0000000000000000E+00     2.4999999999940831E-01     0.0000000000000000E+00 
    1.0000000000000000E+00     2.6562499999936218E-01     0.0000000000000000E+00 
    1.0000000000000000E+00     2.8124999999931621E-01     0.0000000000000000E+00 
    1.0000000000000000E+00     2.9687499999927008E-01     0.0000000000000000E+00 
    1.0000000000000000E+00     3.1249999999922412E-01     0.0000000000000000E+00 
    1.0000000000000000E+00     3.2812499999917810E-01     0.0000000000000000E+00 
    1.0000000000000000E+00     3.4374999999913203E-01     0.0000000000000000E+00 
    1.0000000000000000E+00     3.5937499999908601E-01     0.0000000000000000E+00 
    1.0000000000000000E+00     3.7499999999903999E-01     0.0000000000000000E+00 
    1.0000000000000000E+00     3.9062499999899403E-01     0.0000000000000000E+00 
    1.0000000000000000E+00     4.0624999999894801E-01     0.0000000000000000E+00 
    1.0000000000000000E+00     4.2187499999890188E-01     0.0000000000000000E+00 
    1.0000000000000000E+00     4.3749999999885592E-01     0.0000000000000000E+00 
    1.0000000000000000E+00     4.5312499999880979E-01     0.0000000000000000E+00 
    1.0000000000000000E+00     4.6874999999876382E-01     0.0000000000000000E+00 
    1.0000000000000000E+00     4.8437499999871780E-01     0.0000000000000000E+00 
    1.0000000000000000E+00     4.9999999999867167E-01     0.0000000000000000E+00 
    1.0000000000000000E+00     5.1562499999871325E-01     0.0000000000000000E+00 
    1.0000000000000000E+00     5.3124999999875477E-01     0.0000000000000000E+00 
    1.0000000000000000E+00     5.4687499999879630E-01     0.0000000000000000E+00 
    1.0000000000000000E+00     5.6249999999883782E-01     0.0000000000000000E+00 
    1.0000000000000000E+00     5.7812499999887934E-01     0.0000000000000000E+00 
    1.0000000000000000E+00     5.9374999999892086E-01     0.0000000000000000E+00 
    1.0000000000000000E+00     6.0937499999896239E-01     0.0000000000000000E+00 
    1.0000000000000000E+00     6.2499999999900380E-01     0.0000000000000000E+00 
    1.0000000000000000E+00     6.4062499999904521E-01     0.0000000000000000E+00 
    1.0000000000000000E+00     6.5624999999908673E-01     0.0000000000000000E+00 
    1.0000000000000000E+00     6.7187499999912825E-01     0.0000000000000000E+00 
    1.0000000000000000E+00     6.8749999999916978E-01     0.0000000000000000E+00 
    1.0000000000000000E+00     7.0312499999921130E-01     0.0000000000000000E+00 
    1.0000000000000000E+00     7.1874999999925282E-01     0.0000000000000000E+00 
    1.0000000000000000E+00     7.3437499999929434E-01     0.0000000000000000E+00 
    1.0000000000000000E+00     7.4999999999933586E-01     0.0000000000000000E+00 
    1.0000000000000000E+00     7.6562499999937739E-01     0.0000000000000000E+00 
    1.0000000000000000E+00     7.8124999999941891E-01     0.0000000000000000E+00 
    1.0000000000000000E+00     7.9687499999946043E-01     0.0000000000000000E+00 
    1.0000000000000000E+00     8.1249999999950195E-01     0.0000000000000000E+00 
    1.0000000000000000E+00     8.2812499999954348E-01     0.0000000000000000E+00 
[...]
CELL_DATA 6144 
SCALARS Pressure double 1 
LOOKUP_TABLE default 

    3.2082829890314590E+00 
    3.1093672639014569E+00 
    3.0936771392649716E+00 
    3.1137256236003990E+00 
    3.0519428877459798E+00 
    3.0128343400677062E+00 
    3.0308959293681084E+00 
    3.0651849809215901E+00 
    3.0520487142127006E+00 
    3.0631405351042260E+00 
    3.0331011125844616E+00 
    3.0126878260500081E+00 
    2.9921789806043866E+00 
    3.0100043683953448E+00 
    2.9913798639053839E+00 
    2.9790119706160394E+00 
    3.0114235485021918E+00 
    2.9936268285140462E+00 
    2.9801248471087605E+00 
    2.9930929856203785E+00 
    2.9660686679083019E+00 
    2.9800279989539091E+00 
    2.9677209309539929E+00 
    2.9513408055110362E+00 
    2.9651845705132187E+00 
    2.9612475139510113E+00 
    2.9425478906039260E+00 
    2.9391107293589358E+00 
    2.9520121387104856E+00 
    2.9377234555440777E+00 
    2.9253992797236137E+00 
    2.9371152615385916E+00 
    2.9154451267051331E+00 
    2.9261282941264444E+00 
    2.9120529717841070E+00 
    2.8936154999972770E+00 
    2.8807159804732514E+00 
    2.8993753687965835E+00 
    2.8889112032442017E+00 
    2.8739589636084624E+00 
    2.9111019626661414E+00 
    2.9180546368148139E+00 
    2.8983937415121019E+00 
    2.8966414562304892E+00 
    2.8678398097936486E+00 
    2.8830176999692760E+00 
    2.8807317378213129E+00 
    2.8606758577031215E+00 
    2.8572346599492602E+00 
    2.8558958936886003E+00 
    2.8385267855592251E+00 
    2.8345825342693640E+00 
    2.8510524191829201E+00 
    2.8421380275578816E+00 
    2.8269213132007147E+00 
    2.8354685233203445E+00 
    2.8139400240259969E+00 
    2.8242633912485715E+00 
    2.8115186470468188E+00 
    2.7944068199574223E+00 
    2.7838088887106580E+00 
    2.8006619298611759E+00 
    2.7926468894183887E+00 
    2.7794549728697171E+00 
    2.8141514555085538E+00 
    2.8249518361072465E+00 
    2.8054483195354116E+00 
    2.8013396223057905E+00 
    2.7755597529054326E+00 
    2.7892616322486754E+00 
    2.7887738985912462E+00 
    2.7712372657255400E+00 
    2.7659511016099709E+00 
    2.7653352231013435E+00 
    2.7520729831968422E+00 
    2.7490612547348010E+00 
    2.7622346852195254E+00 
    2.7558116548693965E+00 
    2.7431139646805409E+00 
    2.7504783710264764E+00 
    2.7334457976885420E+00 
    2.7411517167053363E+00 
    2.7317711385082548E+00 
    2.7194475179570974E+00 
    2.7115605192718619E+00 
    2.7243003984269727E+00 
    2.7186947086082398E+00 
    2.7083636009229202E+00 
    2.7346834630232819E+00 
    2.7432985325546411E+00 
    2.7291110114751964E+00 
    2.7255848631316657E+00 
    2.7051878420383306E+00 
    2.7160415391253983E+00 
    2.7156229321538574E+00 
    2.7016750311021380E+00 
    2.6969542173743570E+00 
    2.6965675746101714E+00 
    2.6850426700676380E+00 
    2.6818919315962950E+00 
    2.6941347385915861E+00 
    2.6895949107785695E+00 
    2.6784735859312270E+00 
    2.6833461589433951E+00 
    2.6673074714999938E+00 
    2.6751218690641583E+00 
    2.6664228318139140E+00 
    2.6522972083072176E+00 
    2.6427982403557269E+00 
    2.6585799091320181E+00 
    2.6529778698301030E+00 
    2.6396372116425080E+00 
    2.6701176830142908E+00 
    2.6791377624179415E+00 
    2.6654517972235463E+00 
    2.6606339818525155E+00 
    2.6375882551524001E+00 
    2.6508401150033416E+00 
    2.6523145408113491E+00 
    2.6355057379809925E+00 
    2.6221895187880975E+00 
    2.6223012358818223E+00 
    2.6050684650135043E+00 
    2.6002486667861504E+00 
    2.6202764437902255E+00 
    2.6152393607326578E+00 
    2.5970154870654838E+00 
    2.6034461296072404E+00 
    2.5814161261766819E+00 
    2.5919579211055597E+00 
    2.5807318654104412E+00 
    2.5629062355154324E+00 
    2.5523920553543848E+00 
    2.5712718198688949E+00 
    2.5649615130703149E+00 
    2.5493285232277825E+00 
    2.5866144426653790E+00 
    2.6015773041845587E+00 
    2.5829282970927254E+00 
    2.5751586377870619E+00 
    2.5475083638862102E+00 
    2.5627779866442344E+00 
    2.5658274187656720E+00 
    2.5461512817513028E+00 
    2.5313727741486649E+00 
    2.5319091821216357E+00 
    2.5156048022983524E+00 
    2.5108329119090409E+00 
    2.5301876686820370E+00 
    2.5258507112404271E+00 
    2.5082895719007929E+00 
    2.5141810099219049E+00 
    2.4919194172703270E+00 
    2.5024755569637045E+00 
    2.4914321990000978E+00 
    2.4736107137716079E+00 
    2.4634586713884890E+00 
    2.4822366902329884E+00 
    2.4760066909377003E+00 
    2.4607560142668188E+00 
    2.4981352467183071E+00 
    2.5128068506046284E+00 
    2.4944258909975745E+00 
    2.4865586673051614E+00 
    2.4592764658895825E+00 
    2.4742957858931693E+00 
    2.4775679647410036E+00 
    2.4584885536613346E+00 
    2.4437426713163930E+00 
    2.4442904593169583E+00 
    2.4292960743611700E+00 
    2.4251721092595924E+00 
    2.4427893017160454E+00 
    2.4387845467157563E+00 
    2.4220956798591988E+00 
    2.4281280852464007E+00 
    2.4081727604761762E+00 
    2.4175764226099403E+00 
    2.4079502579022511E+00 
    2.3927843652472194E+00 
    2.3842778495024390E+00 
    2.4000647615679491E+00 
    2.3938023638818398E+00 
    2.3811325708438886E+00 
    2.4134438466909205E+00 
    2.4268810711026396E+00 
    2.4105432942660920E+00 
    2.4035940612290312E+00 
    2.3797584964312226E+00 
    2.3925194273359334E+00 
    2.3958581352831545E+00 
    2.3798432285145190E+00 
    2.3680968726929028E+00 
    2.3682717690140773E+00 
    2.3566091423145310E+00 
    2.3536835939206986E+00 
    2.3670289021416067E+00 
    2.3639332748366213E+00 
    2.3506886348856830E+00 
    2.3557979590153808E+00 
    2.3405449500624580E+00 
    2.3475235793270479E+00 
    2.3399669554439244E+00 
    2.3288408715971629E+00 
    2.3224485201872289E+00 
    2.3340267765993765E+00 
    2.3298469669992956E+00 
    2.3204786708139986E+00 
    2.3441647161786245E+00 
    2.3545850632009278E+00 
    2.3421779257854807E+00 
    2.3369324881259348E+00 
    2.3193946095735454E+00 
    2.3290053652689742E+00 
    2.3311262353377349E+00 
    2.3190235301669708E+00 
    2.3104031971006558E+00 
    2.3104507430983663E+00 
    2.3015406148699542E+00 
    2.2994411687975536E+00 
    2.3095082014600350E+00 
    2.3071216584431102E+00 
    2.2973729548511721E+00 
    2.3010276487470338E+00 
    2.2895262184609413E+00 
    2.2948294627018027E+00 
    2.2891541122195380E+00 
    2.2805517562318434E+00 
    2.2756611195145697E+00 
    2.2844799527876991E+00 
    2.2813163263936427E+00 
    2.2741529736517530E+00 
    2.2921705644801262E+00 
    2.2998343846280673E+00 
    2.2902964564082411E+00 
    2.2865531504198731E+00 
    2.2731908689194325E+00 
    2.2805323059448659E+00 
    2.2818694242348760E+00 
    2.2725709044495943E+00 
    2.2664946898886198E+00 
    2.2664765747743174E+00 
    2.2596055103750450E+00 
    2.2580237972731969E+00 
    2.2655950362832411E+00 
    2.2634914654156715E+00 
    2.2562104837887977E+00 
    2.2590869131517439E+00 
    2.2505116555330811E+00 
    2.2544687418400278E+00 
    2.2502786659499381E+00 
    2.2438640257839202E+00 
    2.2400686967928074E+00 
    2.2466503408385470E+00 
    2.2436869751749851E+00 
    2.2383935849219156E+00 
    2.2521637933779166E+00 
    2.2577022170060115E+00 
    2.2502605190197502E+00 
    2.2476151813835479E+00 
    2.2373441775922616E+00 
    2.2427151150443088E+00 
    2.2436567494863531E+00 
    2.2365934563967791E+00 
    2.2330332653996217E+00 
    2.2328600290739220E+00 
    2.2278486035930478E+00 
    2.2266820664988130E+00 
    2.2319507225443984E+00 
    2.2300242877384542E+00 
    2.2249077124531409E+00 
    2.2272041667903539E+00 
    2.2209968245489939E+00 
    2.2239052724780426E+00 
    2.2204336862305603E+00 
    2.2156805123342322E+00 
    2.2127712647813391E+00 
    2.2175535893137042E+00 
    2.2155449833972085E+00 
    2.2116021513137056E+00 
    2.2215701856977099E+00 
    2.2253252891483024E+00 
    2.2196833657000568E+00 
    2.2181054155621691E+00 
    2.2105303297627485E+00 
    2.2145703231838749E+00 
    2.2147157481867530E+00 
    2.2092863732730659E+00 
    2.2074615076939614E+00 
    2.2073242114178155E+00 
    2.2033781349420170E+00 
    2.2023570155776504E+00 
    2.2063488138707741E+00 
    2.2044514783609319E+00 
    2.2007308260396354E+00 
    2.2025522900573002E+00 
    2.1977930464935160E+00 
    2.2000668831956771E+00 
    2.1972775563365436E+00 
    2.1933870592571210E+00 
    2.1908088991227586E+00 
    2.1947946994643894E+00 
    2.1927725597577417E+00 
    2.1894521542745737E+00 
    2.1978486000791206E+00 
    2.2004652764403843E+00 
    2.1958032544225050E+00 
    2.1947519396504895E+00 
    2.1883532664471113E+00 
    2.1916284858636890E+00 
    2.1915666895437069E+00 
    2.1869673986011260E+00 
    2.1860552218575009E+00 
    2.1859097027892460E+00 
    2.1824610160178399E+00 
    2.1814588057518836E+00 
    2.1849225645260919E+00 
    2.1829894062794559E+00 
    2.1799773840652943E+00 
    2.1815849861891112E+00 
    2.1773539444392491E+00 
    2.1794234956375296E+00 
    2.1768890200927595E+00 
    2.1732558265798638E+00 
    2.1708991849346160E+00 
    2.1745341918965670E+00 
    2.1727084900727625E+00 
    2.1696892359868287E+00 
    2.1771566609088895E+00 
    2.1792600771411070E+00 
    2.1750471901571014E+00 
    2.1742697872057000E+00 
    2.1685887062973488E+00 
    2.1715650813331839E+00 
    2.1712393440574296E+00 
    2.1670450230543654E+00 
    2.1665888599305281E+00 
    2.1663289396012164E+00 
    2.1632349611886599E+00 
    2.1625314991766538E+00 
    2.1653490381947660E+00 
    2.1634929260744871E+00 
    2.1610074961515804E+00 
    2.1624835448707946E+00 
    2.1591564003546528E+00 
    2.1607487095562576E+00 
    2.1587188279775038E+00 
    2.1561403979358018E+00 
    2.1544194614430037E+00 
    2.1568279769988483E+00 
    2.1551138015153626E+00 
    2.1532119021852023E+00 
    2.1586332191389164E+00 
    2.1601051818228214E+00 
    2.1564978728492288E+00 
    2.1562177792293031E+00 
    2.1520835816020480E+00 
    2.1540584504902167E+00 
    2.1534816449441729E+00 
    2.1505791163944323E+00 
    2.1517719113990070E+00 
    2.1513174706907456E+00 
    2.1497635895534071E+00 
    2.1497061872581438E+00 
    2.1503752770100508E+00 
    2.1487909822277307E+00 
    2.1480941442747832E+00 
    2.1492198730249599E+00 
    2.1482738441959341E+00 
    2.1486679899345642E+00 
    2.1476859792369298E+00 
    2.1473961790963085E+00 
    2.1470904499188967E+00 
    2.1468541841943960E+00 
    2.1459656807859870E+00 
    2.1463073849931944E+00 
    2.1467442244613468E+00 
    2.1464682992557762E+00 
    2.1447768573810282E+00 
    2.1456543317054488E+00 
    2.1450717397500658E+00 
    2.1450740825594399E+00 
    2.1437988083736133E+00 
    2.1433729329329867E+00 
    2.9669575994379755E+00 
    2.9419594275748553E+00 
    2.9440159442306810E+00 
    2.9623510734534402E+00 
    2.9194986639140117E+00 
    2.8990052538557003E+00 
    2.9157736076038336E+00 
    2.9285128160942997E+00 
    2.9534283944286974E+00 
    2.9390798224904078E+00 
    2.9280504590344054E+00 
    2.9391453228559681E+00 
    2.9198450719461233E+00 
    2.9146833094931508E+00 
    2.9005569851389974E+00 
    2.9009530375185761E+00 
    2.9034979531280456E+00 
    2.8862392633542893E+00 
    2.8787315458372964E+00 
    2.8924822738612845E+00 
    2.8840166738232704E+00 
    2.8866238515877773E+00 
    2.8721983360902441E+00 
    2.8647661657129726E+00 
    2.9110275812513611E+00 
    2.8957987689227820E+00 
    2.8869087337804027E+00 
    2.8944469989138732E+00 
    2.8803344743213186E+00 
    2.8619273593940107E+00 
    2.8629292280816032E+00 
    2.8762840240670471E+00 
    2.8783745927354483E+00 
    2.8758112025151199E+00 
    2.8619955591868429E+00 
    2.8592706726038668E+00 
    2.8408495081366874E+00 
    2.8471810872675336E+00 
    2.8335658670366644E+00 
    2.8259051318470392E+00 
    2.8479803833054338E+00 
    2.8435555686471976E+00 
    2.8276000705097375E+00 
    2.8337523623521230E+00 
    2.8129803457422327E+00 
    2.8228508690711491E+00 
    2.8135636613317594E+00 
    2.7983728057880608E+00 
    2.8246795542316963E+00 
    2.8142800465426716E+00 
    2.8018667385501854E+00 
    2.8056680666475828E+00 
    2.8024822228760446E+00 
    2.7873592369782849E+00 
    2.7812870465178641E+00 
    2.7937000235787011E+00 
    2.7890969036475513E+00 
    2.7896620326965818E+00 
    2.7765245217527097E+00 
    2.7716023491643784E+00 
    2.7571550892039878E+00 
    2.7645117262089105E+00 
    2.7539350340612967E+00 
    2.7467772005005808E+00 
    2.7684764564652444E+00 
    2.7692347631651790E+00 
    2.7531329699544225E+00 
    2.7565794236830903E+00 
    2.7374269734559027E+00 
    2.7466493040337814E+00 
    2.7403171085415208E+00 
    2.7275268855438299E+00 
    2.7442510729427978E+00 
    2.7371410339506039E+00 
    2.7276122053574010E+00 
    2.7300578231882606E+00 
    2.7290536187043650E+00 
    2.7184409925255322E+00 
    2.7130239648501875E+00 
    2.7222579000490064E+00 
    2.7166157970582216E+00 
    2.7184871415632310E+00 
    2.7087062681779286E+00 
    2.7032943601279720E+00 
    2.6927319918510872E+00 
    2.6995676548122924E+00 
    2.6913346360565571E+00 
    2.6846694722181019E+00 
    2.7034008065882942E+00 
    2.7046679291438371E+00 
    2.6919727592483160E+00 
    2.6938558081049853E+00 
    2.6775240561691356E+00 
    2.6854968441220346E+00 
    2.6812313574065483E+00 
    2.6697528719791586E+00 
    2.6806984982749764E+00 
    2.6756737483300914E+00 
    2.6663327891593149E+00 
    2.6671120709891749E+00 
    2.6692756827506079E+00 
    2.6605249304271412E+00 
    2.6541096901945216E+00 
    2.6615218282704625E+00 
    2.6548101566436335E+00 
    2.6573577083068911E+00 
    2.6480229870092549E+00 
    2.6400157565191060E+00 
    2.6269774115796642E+00 
    2.6385413900411190E+00 
    2.6302415493107354E+00 
    2.6187843679857967E+00 
    2.6445641119129220E+00 
    2.6481496304273220E+00 
    2.6350521851910780E+00 
    2.6346126872557196E+00 
    2.6121235749542424E+00 
    2.6249375473590688E+00 
    2.6224005007439608E+00 
    2.6046380746298938E+00 
    2.6075830915983080E+00 
    2.6035220934497034E+00 
    2.5886348140924151E+00 
    2.5873710650621597E+00 
    2.5973284753289811E+00 
    2.5880852693412217E+00 
    2.5759125789199455E+00 
    2.5841204014111909E+00 
    2.5707880293703669E+00 
    2.5763324721014418E+00 
    2.5649247524436620E+00 
    2.5527463295879111E+00 
    2.5392205449674434E+00 
    2.5540875994716279E+00 
    2.5452250617692451E+00 
    2.5320418769875821E+00 
    2.5644408102646286E+00 
    2.5728421397382344E+00 
    2.5555643269641894E+00 
    2.5523768776117799E+00 
    2.5267401858573679E+00 
    2.5403811346326490E+00 
    2.5395901059292023E+00 
    2.5213897489371346E+00 
    2.5191037381010881E+00 
    2.5163599034244504E+00 
    2.5014498191731644E+00 
    2.4994419915545092E+00 
    2.5115480096782168E+00 
    2.5039591685854652E+00 
    2.4899820699360351E+00 
    2.4976943632989772E+00 
    2.4829100364895065E+00 
    2.4890747490140215E+00 
    2.4779672170669680E+00 
    2.4652835201280827E+00 
    2.4525206445713938E+00 
    2.4677938768682868E+00 
    2.4595653157650745E+00 
    2.4463465217924796E+00 
    2.4792578341431395E+00 
    2.4896655673221821E+00 
    2.4721639017212538E+00 
    2.4677190558934599E+00 
    2.4420441269628346E+00 
    2.4557983431636017E+00 
    2.4560970172622838E+00 
    2.4381586322582036E+00 
    2.4334183227230488E+00 
    2.4312945736737235E+00 
    2.4173907262651797E+00 
    2.4154963225487354E+00 
    2.4274459702123052E+00 
    2.4210959039183568E+00 
    2.4076058684626829E+00 
    2.4148584136790818E+00 
    2.4006925508219408E+00 
    2.4065458112736606E+00 
    2.3966244820656044E+00 
    2.3855502422801904E+00 
    2.3748308032173959E+00 
    2.3877358475663559E+00 
    2.3804719203085845E+00 
    2.3695873865407973E+00 
    2.3983165098880574E+00 
    2.4083938178006714E+00 
    2.3927375225130536E+00 
    2.3882411064693545E+00 
    2.3661956149909895E+00 
    2.3776969445392959E+00 
    2.3787858817765248E+00 
    2.3638693637736372E+00 
    2.3598333298353418E+00 
    2.3581094443497430E+00 
    2.3475816104671670E+00 
    2.3461876675495938E+00 
    2.3550875372853692E+00 
    2.3500399218313754E+00 
    2.3393915200353228E+00 
    2.3455838665813777E+00 
    2.3346977313848942E+00 
    2.3391205573034566E+00 
    2.3312295920639330E+00 
    2.3230571629228081E+00 
    2.3149107698165952E+00 
    2.3243242693953188E+00 
    2.3190882499996754E+00 
    2.3109685596688863E+00 
    2.3321301427121433E+00 
    2.3398611361099753E+00 
    2.3277653266097134E+00 
    2.3245663891650095E+00 
    2.3080723451202170E+00 
    2.3169141041048005E+00 
    2.3171799992984390E+00 
    2.3056468875342295E+00 
    2.3035585727928112E+00 
    2.3020009708434799E+00 
    2.2939676695117921E+00 
    2.2930579290201463E+00 
    2.2993706594004344E+00 
    2.2951005184684203E+00 
    2.2872713482465419E+00 
    2.2921943218870853E+00 
    2.2843455887373043E+00 
    2.2875058721262929E+00 
    2.2812828750580900E+00 
    2.2753148696285566E+00 
    2.2687515918940115E+00 
    2.2755699569227814E+00 
    2.2712213427899028E+00 
    2.2652729109659422E+00 
    2.2812058515435645E+00 
    2.2868368570291797E+00 
    2.2772560279532801E+00 
    2.2751552193294620E+00 
    2.2625713021700249E+00 
    2.2691906638378927E+00 
    2.2689826995938556E+00 
    2.2600128966874209E+00 
    2.2602190577839338E+00 
    2.2587435447601973E+00 
    2.2525625348264828E+00 
    2.2520802539940474E+00 
    2.2561887139063099E+00 
    2.2520635097137807E+00 
    2.2464204479766714E+00 
    2.2506857045841731E+00 
    2.2452269262387063E+00 
    2.2472240900269274E+00 
    2.2422305258581785E+00 
    2.2381914540568082E+00 
    2.2328220383761650E+00 
    2.2376166008258043E+00 
    2.2337689489051300E+00 
    2.2293992495664741E+00 
    2.2414477804352795E+00 
    2.2451447787558774E+00 
    2.2374371737668648E+00 
    2.2363743421983422E+00 
    2.2265855774906420E+00 
    2.2315931352071225E+00 
    2.2307223968897789E+00 
    2.2236733208324919E+00 
    2.2265141403523780E+00 
    2.2245296870509317E+00 
    2.2200797047055598E+00 
    2.2203920411811757E+00 
    2.2218810536818374E+00 
    2.2180240260042847E+00 
    2.2146412288586563E+00 
    2.2181677583021622E+00 
    2.2152855774272457E+00 
    2.2161904233464691E+00 
    2.2121587676100023E+00 
    2.2097896477276628E+00 
    2.2052526148400693E+00 
    2.2081177904287070E+00 
    2.2047023880175995E+00 
    2.2018848365433037E+00 
    2.2102471309984759E+00 
    2.2120666010485732E+00 
    2.2060016133118050E+00 
    2.2060494272630167E+00 
    2.1989232809188568E+00 
    2.2024002310433302E+00 
    2.2008942125697422E+00 
    2.1955775957992065E+00 
    2.2007308698918435E+00 
    2.1985680191717316E+00 
    2.1952220940460681E+00 
    2.1958636554082620E+00 
    2.1957375396805459E+00 
    2.1917756725713717E+00 
    2.1898898067072423E+00 
    2.1930511453653359E+00 
    2.1916559994028466E+00 
    2.1918677328462670E+00 
    2.1884390384438728E+00 
    2.1870095993507990E+00 
    2.1829128262776782E+00 
    2.1848967779377513E+00 
    2.1816990529601852E+00 
    2.1795079034491636E+00 
    2.1860123465144095E+00 
    2.1865165034769038E+00 
    2.1815858250638058E+00 
    2.1823022351005683E+00 
    2.1764961425921272E+00 
    2.1792357880078272E+00 
    2.1773497797770256E+00 
    2.1729621392565908E+00 
    2.1790838041504976E+00 
    2.1767516909727527E+00 
    2.1739649131986969E+00 
    2.1747840148830702E+00 
    2.1739204198313868E+00 
    2.1701100956531194E+00 
    2.1689996024548477E+00 
    2.1718037241246546E+00 
    2.1710898120774615E+00 
    2.1710803290840777E+00 
    2.1679233899741175E+00 
    2.1668088741715064E+00 
    2.1629464008256698E+00 
    2.1645032186985866E+00 
    2.1614500915065866E+00 