# vtk DataFile Version 2.0
Pressure Field Data 
ASCII 
DATASET UNSTRUCTURED_GRID 

POINTS 6273 double 

    0.0000000000000000E+00     0.0000000000000000E+00     0.0000000000000000E+00 
    1.0000000000000000E+00     0.0000000000000000E+00     0.0000000000000000E+00 
    1.0000000000000000E+00     1.0000000000000000E+00     0.0000000000000000E+00 
    0.0000000000000000E+00     1.0000000000000000E+00     0.0000000000000000E+00 
    1.5624999999970249E-02     0.0000000000000000E+00     0.0000000000000000E+00 
    3.1249999999940652E-02     0.0000000000000000E+00     0.0000000000000000E+00 
    4.6874999999905617E-02     0.0000000000000000E+00     0.0000000000000000E+00 
    6.2499999999870597E-02     0.0000000000000000E+00     0.0000000000000000E+00 
    7.8124999999846401E-02     0.0000000000000000E+00     0.0000000000000000E+00 
    9.3749999999822212E-02     0.0000000000000000E+00     0.0000000000000000E+00 
    1.0937499999979799E-01     0.0000000000000000E+00     0.0000000000000000E+00 
    1.2499999999977381E-01     0.0000000000000000E+00     0.0000000000000000E+00 
    1.4062499999972811E-01     0.0000000000000000E+00     0.0000000000000000E+00 
    1.5624999999968239E-01     0.0000000000000000E+00     0.0000000000000000E+00 
    1.7187499999963671E-01     0.0000000000000000E+00     0.0000000000000000E+00 
    1.8749999999959110E-01     0.0000000000000000E+00     0.0000000000000000E+00 
    2.0312499999954539E-01     0.0000000000000000E+00     0.0000000000000000E+00 
    2.1874999999949971E-01     0.0000000000000000E+00     0.0000000000000000E+00 
    2.3437499999945391E-01     0.0000000000000000E+00     0.0000000000000000E+00 
    2.4999999999940831E-01     0.0000000000000000E+00     0.0000000000000000E+00 
    2.6562499999936218E-01     0.0000000000000000E+00     0.0000000000000000E+00 
    2.8124999999931621E-01     0.0000000000000000E+00     0.0000000000000000E+00 
    2.9687499999927008E-01     0.0000000000000000E+00     0.0000000000000000E+00 
    3.1249999999922412E-01     0.0000000000000000E+00     0.0000000000000000E+00 
    3.2812499999917810E-01     0.0000000000000000E+00     0.0000000000000000E+00 
    3.4374999999913203E-01     0.0000000000000000E+00     0.0000000000000000E+00 
    3.5937499999908601E-01     0.0000000000000000E+00     0.0000000000000000E+00 
    3.7499999999903999E-01     0.0000000000000000E+00     0.0000000000000000E+00 
    3.9062499999899403E-01     0.0000000000000000E+00     0.0000000000000000E+00 
    4.0624999999894801E-01     0.0000000000000000E+00     0.0000000000000000E+00 
    4.2187499999890188E-01     0.0000000000000000E+00     0.0000000000000000E+00 
    4.3749999999885592E-01     0.0000000000000000E+00     0.0000000000000000E+00 
    4.5312499999880979E-01     0.0000000000000000E+00     0.0000000000000000E+00 
    4.6874999999876382E-01     0.0000000000000000E+00     0.0000000000000000E+00 
    4.8437499999871780E-01     0.0000000000000000E+00     0.0000000000000000E+00 
    4.9999999999867167E-01     0.0000000000000000E+00     0.0000000000000000E+00 
    5.1562499999871325E-01     0.0000000000000000E+00     0.0000000000000000E+00 
    5.3124999999875477E-01     0.0000000000000000E+00     0.0000000000000000E+00 
    5.4687499999879630E-01     0.0000000000000000E+00     0.0000000000000000E+00 
    5.6249999999883782E-01     0.0000000000000000E+00     0.0000000000000000E+00 
    5.7812499999887934E-01     0.0000000000000000E+00     0.0000000000000000E+00 
    5.9374999999892086E-01     0.0000000000000000E+00     0.0000000000000000E+00 
    6.0937499999896239E-01     0.0000000000000000E+00     0.0000000000000000E+00 
    6.2499999999900380E-01     0.0000000000000000E+00     0.0000000000000000E+00 
    6.4062499999904521E-01     0.0000000000000000E+00     0.0000000000000000E+00 
    6.5624999999908673E-01     0.0000000000000000E+00     0.0000000000000000E+00 
    6.7187499999912825E-01     0.0000000000000000E+00     0.0000000000000000E+00 
    6.8749999999916978E-01     0.0000000000000000E+00     0.0000000000000000E+00 
    7.0312499999921130E-01     0.0000000000000000E+00     0.0000000000000000E+00 
    7.1874999999925282E-01     0.0000000000000000E+00     0.0000000000000000E+00 
    7.3437499999929434E-01     0.0000000000000000E+00     0.0000000000000000E+00 
    7.4999999999933586E-01     0.0000000000000000E+00     0.0000000000000000E+00 
    7.6562499999937739E-01     0.0000000000000000E+00     0.0000000000000000E+00 
    7.8124999999941891E-01     0.0000000000000000E+00     0.0000000000000000E+00 
    7.9687499999946043E-01     0.0000000000000000E+00     0.0000000000000000E+00 
    8.1249999999950195E-01     0.0000000000000000E+00     0.0000000000000000E+00 
    8.2812499999954348E-01     0.0000000000000000E+00     0.0000000000000000E+00 
    8.4374999999958500E-01     0.0000000000000000E+00     0.0000000000000000E+00 
    8.5937499999962652E-01     0.0000000000000000E+00     0.0000000000000000E+00 
    8.7499999999966793E-01     0.0000000000000000E+00     0.0000000000000000E+00 
    8.9062499999970934E-01     0.0000000000000000E+00     0.0000000000000000E+00 
    9.0624999999975087E-01     0.0000000000000000E+00     0.0000000000000000E+00 
    9.2187499999979239E-01     0.0000000000000000E+00     0.0000000000000000E+00 
    9.3749999999983391E-01     0.0000000000000000E+00     0.0000000000000000E+00 
    9.5312499999987543E-01     0.0000000000000000E+00     0.0000000000000000E+00 
    9.6874999999991696E-01     0.0000000000000000E+00     0.0000000000000000E+00 
    9.8437499999995848E-01     0.0000000000000000E+00     0.0000000000000000E+00 
    1.0000000000000000E+00     1.5624999999970249E-02     0.0000000000000000E+00 
    1.0000000000000000E+00     3.1249999999940652E-02     0.0000000000000000E+00 
    1.0000000000000000E+00     4.6874999999905617E-02     0.0000000000000000E+00 
    1.0000000000000000E+00     6.2499999999870597E-02     0.0000000000000000E+00 
    1.0000000000000000E+00     7.8124999999846401E-02     0.0000000000000000E+00 
    1.0000000000000000E+00     9.3749999999822212E-02     0.0000000000000000E+00 
    1.0000000000000000E+00     1.0937499999979799E-01     0.0000000000000000E+00 
    1.0000000000000000E+00     1.2499999999977381E-01     0.0000000000000000E+00 
    1.0000000000000000E+00     1.4062499999972811E-01     0.0000000000000000E+00 
    1.0000000000000000E+00     1.5624999999968239E-01     0.0000000000000000E+00 
    1.0000000000000000E+00     1.7187499999963671E-01     0.0000000000000000E+00 
    1.0000000000000000E+00     1.8749999999959110E-01     0.0000000000000000E+00 
    1.0000000000000000E+00     2.0312499999954539E-01     0.0000000000000000E+00 
    1.0000000000000000E+00     2.1874999999949971E-01     0.0000000000000000E+00 
    1.0000000000000000E+00     2.3437499999945391E-01     0.0000000000000000E+00 
    1.0000000000000000E+00     2.4999999999940831E-01     0.0000000000000000E+00 
    1.0000000000000000E+00     2.6562499999936218E-01     0.0000000000000000E+00 
    1.0000000000000000E+00     2.8124999999931621E-01     0.0000000000000000E+00 
    1.0000000000000000E+00     2.9687499999927008E-01     0.0000000000000000E+00 
    1.0000000000000000E+00     3.1249999999922412E-01     0.0000000000000000E+00 
    1.0000000000000000E+00     3.2812499999917810E-01     0.0000000000000000E+00 
    1.0000000000000000E+00     3.4374999999913203E-01     0.0000000000000000E+00 
    1.0000000000000000E+00     3.5937499999908601E-01     0.0000000000000000E+00 
    1.0000000000000000E+00     3.7499999999903999E-01     0.0000000000000000E+00 
    1.0000000000000000E+00     3.9062499999899403E-01     0.0000000000000000E+00 
    1.0000000000000000E+00     4.0624999999894801E-01     0.0000000000000000E+00 
    1.0000000000000000E+00     4.2187499999890188E-01     0.0000000000000000E+00 
    1.0000000000000000E+00     4.3749999999885592E-01     0.0000000000000000E+00 
    1.0000000000000000E+00     4.5312499999880979E-01     0.0000000000000000E+00 
    1.0000000000000000E+00     4.6874999999876382E-01     0.0000000000000000E+00 
    1.0000000000000000E+00     4.8437499999871780E-01     0.0000000000000000E+00 
    1.0000000000000000E+00     4.9999999999867167E-01     0.0000000000000000E+00 
    1.0000000000000000E+00     5.1562499999871325E-01     0.0000000000000000E+00 
    1.0000000000000000E+00     5.3124999999875477E-01     0.0000000000000000E+00 
    1.0000000000000000E+00     5.4687499999879630E-01     0.0000000000000000E+00 
    1.0000000000000000E+00     5.6249999999883782E-01     0.0000000000000000E+00 
    1.0000000000000000E+00     5.7812499999887934E-01     0.0000000000000000E+00 
    1.0000000000000000E+00     5.9374999999892086E-01     0.0000000000000000E+00 
    1.0000000000000000E+00     6.0937499999896239E-01     0.0000000000000000E+00 
    1.0000000000000000E+00     6.2499999999900380E-01     0.0000000000000000E+00 
    1.0000000000000000E+00     6.4062499999904521E-01     0.0000000000000000E+00 
    1.0000000000000000E+00     6.5624999999908673E-01     0.0000000000000000E+00 
    1.0000000000000000E+00     6.7187499999912825E-01     0.0000000000000000E+00 
    1.0000000000000000E+00     6.8749999999916978E-01     0.0000000000000000E+00 
    1.0000000000000000E+00     7.0312499999921130E-01     0.0000000000000000E+00 
    1.0000000000000000E+00     7.1874999999925282E-01     0.0000000000000000E+00 
    1.0000000000000000E+00     7.3437499999929434E-01     0.0000000000000000E+00 
    1.0000000000000000E+00     7.4999999999933586E-01     0.0000000000000000E+00 
    1.0000000000000000E+00     7.6562499999937739E-01     0.0000000000000000E+00 
    1.0000000000000000E+00     7.8124999999941891E-01     0.0000000000000000E+00 
    1.0000000000000000E+00     7.9687499999946043E-01     0.0000000000000000E+00 
    1.0000000000000000E+00     8.1249999999950195E-01     0.0000000000000000E+00 
    1.0000000000000000E+00     8.2812499999954348E-01     0.0000000000000000E+00 
[...]
CELL_DATA 6144 
SCALARS Pressure double 1 
LOOKUP_TABLE default 

    2.5877948939402562E+00 
    2.4904287701832217E+00 
    2.4751226255686727E+00 
    2.4941989162548701E+00 
    2.4355919595957527E+00 
    2.4006338558127633E+00 
    2.4161347693025923E+00 
    2.4474503122159121E+00 
    2.4357532062391791E+00 
    2.4457598533314169E+00 
    2.4183634890612846E+00 
    2.4005506371719294E+00 
    2.3831718284783170E+00 
    2.3980146861425635E+00 
    2.3821988823675202E+00 
    2.3721021574777676E+00 
    2.3992830123292070E+00 
    2.3842804229810013E+00 
    2.3727989710524642E+00 
    2.3835970862324682E+00 
    2.3617575449136163E+00 
    2.3728411068352604E+00 
    2.3629566651678693E+00 
    2.3503370304721520E+00 
    2.3615163533958001E+00 
    2.3584489205041921E+00 
    2.3447381032730048E+00 
    2.3422400879055463E+00 
    2.3512556292966127E+00 
    2.3404663478927001E+00 
    2.3321904479826494E+00 
    2.3404221853811449E+00 
    2.3259565855464124E+00 
    2.3329680921332105E+00 
    2.3233871812486515E+00 
    2.3113636160215489E+00 
    2.3028127894984367E+00 
    2.3146126904389508E+00 
    2.3075505579495807E+00 
    2.2981469382736535E+00 
    2.3220058474206624E+00 
    2.3263473634236846E+00 
    2.3130214061001348E+00 
    2.3122034564789931E+00 
    2.2940676501848931E+00 
    2.3033413254227249E+00 
    2.3015312257896796E+00 
    2.2891141536258282E+00 
    2.2880140005338072E+00 
    2.2872457103624204E+00 
    2.2769188393565387E+00 
    2.2742319434386529E+00 
    2.2840463641421631E+00 
    2.2783410036451435E+00 
    2.2698709679213565E+00 
    2.2746221785841878E+00 
    2.2621125761547005E+00 
    2.2681877190526216E+00 
    2.2607730391126233E+00 
    2.2503769973447127E+00 
    2.2439381366968423E+00 
    2.2541724040784565E+00 
    2.2492850964932343E+00 
    2.2411477170623151E+00 
    2.2619673116644998E+00 
    2.2680080066173520E+00 
    2.2565773560750122E+00 
    2.2541399433645708E+00 
    2.2386229549625707E+00 
    2.2467783604625122E+00 
    2.2464019418684704E+00 
    2.2354938136765665E+00 
    2.2330701035869693E+00 
    2.2325757824538401E+00 
    2.2247750189678022E+00 
    2.2235379224313467E+00 
    2.2303852890597851E+00 
    2.2261609451877971E+00 
    2.2193886993606986E+00 
    2.2237298021126453E+00 
    2.2157090276216245E+00 
    2.2190280150731727E+00 
    2.2142288717952692E+00 
    2.2096482156710255E+00 
    2.2064641327788048E+00 
    2.2108466902391699E+00 
    2.2084713809575462E+00 
    2.2050310475041819E+00 
    2.2150865198530436E+00 
    2.2189486249493711E+00 
    2.2123888785225554E+00 
    2.2114330346859181E+00 
    2.2035011953437684E+00 
    2.2076183115777592E+00 
    2.2072147356581477E+00 
    2.2021021551734310E+00 
    2.2013433314400710E+00 
    2.2010317275938274E+00 
    2.1973355538545833E+00 
    2.1964526800257627E+00 
    2.2000333649750514E+00 
    2.1982825050813224E+00 
    2.1949458376578628E+00 
    2.1966481315687956E+00 
    2.1918625469856190E+00 
    2.1942365306612235E+00 
    2.1915025309952152E+00 
    2.1872073241936021E+00 
    2.1843960171134533E+00 
    2.1889137288471368E+00 
    2.1870095832244392E+00 
    2.1832520459609017E+00 
    2.1921676448572014E+00 
    2.1946064382931629E+00 
    2.1903052473254343E+00 
    2.1890796831266819E+00 
    2.1823273453221765E+00 
    2.1859830863894620E+00 
    2.1861703361079643E+00 
    2.1811828215116105E+00 
    2.1787107458135742E+00 
    2.1787450209161734E+00 
    2.1742204791443291E+00 
    2.1726621040306959E+00 
    2.1778554051821506E+00 
    2.1760109299863979E+00 
    2.1715264006631281E+00 
    2.1732711687283306E+00 
    2.1669131481305000E+00 
    2.1701165138763447E+00 
    2.1665979724017848E+00 
    2.1607390423968225E+00 
    2.1569879940117516E+00 
    2.1632933585427359E+00 
    2.1609469851580849E+00 
    2.1556014446550193E+00 
    2.1679085478476332E+00 
    2.1718011743057004E+00 
    2.1660414801354806E+00 
    2.1639341605534304E+00 
    2.1545887014298497E+00 
    2.1597326344202514E+00 
    2.1603432065594732E+00 
    2.1534800579474416E+00 
    2.1493060256992713E+00 
    2.1493745989885600E+00 
    2.1432003242023474E+00 
    2.1412254888310938E+00 
    2.1483712252726250E+00 
    2.1462834524080683E+00 
    2.1400441930839409E+00 
    2.1422319493840316E+00 
    2.1337066045005049E+00 
    2.1379166860273586E+00 
    2.1334528738019172E+00 
    2.1260210543321700E+00 
    2.1216984833734731E+00 
    2.1295107170152288E+00 
    2.1267023967661833E+00 
    2.1203341542871610E+00 
    2.1356364432390293E+00 
    2.1409781366192342E+00 
    2.1336180737988411E+00 
    2.1307384271501095E+00 
    2.1193579459313598E+00 
    2.1255934165002706E+00 
    2.1265764412447221E+00 
    2.1184215920471350E+00 
    2.1132274428797611E+00 
    2.1133008891714891E+00 
    2.1067715290934901E+00 
    2.1050106307397112E+00 
    2.1123012927799358E+00 
    2.1100324488788678E+00 
    2.1031354460156173E+00 
    2.1059457332661795E+00 
    2.0974490220317694E+00 
    2.1014895910978098E+00 
    2.0970960759721993E+00 
    2.0905110902432993E+00 
    2.0866654468614985E+00 
    2.0933774727101095E+00 
    2.0903348724614079E+00 
    2.0850869255976399E+00 
    2.0989245783450317E+00 
    2.1043157096646183E+00 
    2.0968168830498852E+00 
    2.0943224790717112E+00 
    2.0840247159365894E+00 
    2.0894120168161452E+00 
    2.0902419309666289E+00 
    2.0833415184523076E+00 
    2.0799464078164815E+00 
    2.0797896521808776E+00 
    2.0749773261582911E+00 
    2.0739320286932554E+00 
    2.0789022219745270E+00 
    2.0770448033659599E+00 
    2.0719815303399303E+00 
    2.0743958946699910E+00 
    2.0684302398501213E+00 
    2.0711796680448269E+00 
    2.0679379174306893E+00 
    2.0635411755077748E+00 
    2.0608368133480259E+00 
    2.0652965511174752E+00 
    2.0633249659451436E+00 
    2.0597449348005399E+00 
    2.0690074206004527E+00 
    2.0726441648763645E+00 
    2.0674445970600774E+00 
    2.0658780105771233E+00 
    2.0588902823179187E+00 
    2.0626150986913960E+00 
    2.0629267117929269E+00 
    2.0581438651897637E+00 
    2.0559445011578079E+00 
    2.0558017727310776E+00 
    2.0522242199893910E+00 
    2.0514019998709605E+00 
    2.0551178119749047E+00 
    2.0537576414735335E+00 
    2.0502009589794858E+00 
    2.0517940683844107E+00 
    2.0472774672351242E+00 
    2.0494175140234869E+00 
    2.0470092845536230E+00 
    2.0434221829248016E+00 
    2.0412427122284469E+00 
    2.0449200750814884E+00 
    2.0434291060348997E+00 
    2.0404178215347728E+00 
    2.0478476527879819E+00 
    2.0505192322629475E+00 
    2.0466414865019122E+00 
    2.0454015647412489E+00 
    2.0397896589763387E+00 
    2.0428508868141688E+00 
    2.0431286641281741E+00 
    2.0391426783366851E+00 
    2.0371272925936554E+00 
    2.0370489397560063E+00 
    2.0339228347142284E+00 
    2.0331871670328052E+00 
    2.0364828606284435E+00 
    2.0352619324312542E+00 
    2.0321535900692895E+00 
    2.0335227987887774E+00 
    2.0296703815516222E+00 
    2.0314818756103952E+00 
    2.0294650168311414E+00 
    2.0264744236426662E+00 
    2.0246115833945759E+00 
    2.0276564816425067E+00 
    2.0261094430889433E+00 
    2.0236561533862885E+00 
    2.0300874510419438E+00 
    2.0323770970121400E+00 
    2.0287925631666863E+00 
    2.0278050762990336E+00 
    2.0229663284359427E+00 
    2.0254673705701478E+00 
    2.0256276558655331E+00 
    2.0222805742327714E+00 
    2.0212754138140001E+00 
    2.0210821975231319E+00 
    2.0187473189436584E+00 
    2.0182505650267251E+00 
    2.0204907058735397E+00 
    2.0193441699588019E+00 
    2.0171511540982685E+00 
    2.0183458787598410E+00 
    2.0155292475779811E+00 
    2.0168572926911152E+00 
    2.0151671043458412E+00 
    2.0129564382934140E+00 
    2.0114761074508758E+00 
    2.0136975340415781E+00 
    2.0125973153999870E+00 
    2.0107461435726677E+00 
    2.0154392176604392E+00 
    2.0169157765142764E+00 
    2.0141747584095193E+00 
    2.0136641145034009E+00 
    2.0100040675550304E+00 
    2.0119243275081047E+00 
    2.0117356828101829E+00 
    2.0090395041700519E+00 
    2.0088263998830844E+00 
    2.0086587226032577E+00 
    2.0066713139543104E+00 
    2.0061678547200659E+00 
    2.0079976769284542E+00 
    2.0067945021409264E+00 
    2.0051191209816039E+00 
    2.0061155891276683E+00 
    2.0037394014163383E+00 
    2.0049102291817968E+00 
    2.0034006651242540E+00 
    2.0013122846118012E+00 
    1.9998396917182710E+00 
    2.0019923745285739E+00 
    2.0007951904407331E+00 
    1.9989855243435568E+00 
    2.0034734253980480E+00 
    2.0045510387008125E+00 
    2.0020785992857815E+00 
    2.0017243915288301E+00 
    1.9982577644763004E+00 
    2.0000170405166839E+00 
    1.9997876479154191E+00 
    1.9972631190815202E+00 
    1.9970920913559920E+00 
    1.9969647628960154E+00 
    1.9948581680973654E+00 
    1.9942189231263212E+00 
    1.9963205841195666E+00 
    1.9950955192152626E+00 
    1.9932391836227561E+00 
    1.9942997056741916E+00 
    1.9912545796237615E+00 
    1.9927873890988137E+00 
    1.9909359957535051E+00 
    1.9882615964526387E+00 
    1.9866432964924330E+00 
    1.9892777676747722E+00 
    1.9880265078521200E+00 
    1.9858865057436252E+00 
    1.9913448907097606E+00 
    1.9927812712631394E+00 
    1.9899763075407038E+00 
    1.9892924594257568E+00 
    1.9851958971270700E+00 
    1.9873075881430327E+00 
    1.9871786880175770E+00 
    1.9842247458708999E+00 
    1.9837201009902288E+00 
    1.9835674867907978E+00 
    1.9814517439729058E+00 
    1.9809787295516854E+00 
    1.9829453556336929E+00 
    1.9817358053029772E+00 
    1.9799810817884318E+00 
    1.9809821320388428E+00 
    1.9786930504995279E+00 
    1.9797800799246517E+00 
    1.9784130798651207E+00 
    1.9766711602032383E+00 
    1.9755297396493197E+00 
    1.9771547164744274E+00 
    1.9760180806177303E+00 
    1.9747434962072823E+00 
    1.9784017287321523E+00 
    1.9794501911732851E+00 
    1.9770066408263920E+00 
    1.9767880229254817E+00 
    1.9740057009316871E+00 
    1.9753371332132381E+00 
    1.9749758846329699E+00 
    1.9730311983157065E+00 
    1.9737871876031003E+00 
    1.9734865837597020E+00 
    1.9724651726867868E+00 
    1.9724377927980237E+00 
    1.9728711245576291E+00 
    1.9718349192645195E+00 
    1.9713684648917646E+00 
    1.9721170886841868E+00 
    1.9714998882509269E+00 
    1.9717514530900733E+00 
    1.9711081662842096E+00 
    1.9709241275528562E+00 
    1.9707256331995182E+00 
    1.9705664876246203E+00 
    1.9699885112230100E+00 
    1.9702158429398793E+00 
    1.9704905122296181E+00 
    1.9703058223709236E+00 
    1.9692009849566001E+00 
    1.9697820946922131E+00 
    1.9694068047614628E+00 
    1.9694049726030995E+00 
    1.9685677768970300E+00 
    1.9682908602905449E+00 
    2.3627866935131054E+00 
    2.3444532836740644E+00 
    2.3455669443141351E+00 
    2.3589495791524957E+00 
    2.3288544806896989E+00 
    2.3150434716864949E+00 
    2.3260926784111540E+00 
    2.3343749135061409E+00 
    2.3521145354815385E+00 
    2.3416800519757048E+00 
    2.3337529068226082E+00 
    2.3413427104446547E+00 
    2.3274848814352476E+00 
    2.3244539058287934E+00 
    2.3148120157682732E+00 
    2.3145905150903938E+00 
    2.3173996248052484E+00 
    2.3062597122580000E+00 
    2.3009590987763460E+00 
    2.3096321726241440E+00 
    2.3035585973638320E+00 
    2.3055724134186839E+00 
    2.2964345832762700E+00 
    2.2913534275291796E+00 
    2.3211991464367783E+00 
    2.3108774413632776E+00 
    2.3049460703410101E+00 
    2.3100628179618279E+00 
    2.3008026222621085E+00 
    2.2892233837981553E+00 
    2.2896584419513153E+00 
    2.2981276453538277E+00 
    2.2996482925034623E+00 
    2.2978118806477723E+00 
    2.2891497362886510E+00 
    2.2877845826867538E+00 
    2.2766726594790092E+00 
    2.2801468742443900E+00 
    2.2721159852358657E+00 
    2.2678340195140083E+00 
    2.2805964430501553E+00 
    2.2780949635492491E+00 
    2.2687573985230305E+00 
    2.2722673541408063E+00 
    2.2603922775062748E+00 
    2.2659778193272486E+00 
    2.2608101112752030E+00 
    2.2521591198032960E+00 
    2.2674378978554031E+00 
    2.2612812224866943E+00 
    2.2542300743931007E+00 
    2.2563753175849186E+00 
    2.2544838832693097E+00 
    2.2457201782544098E+00 
    2.2421739114869013E+00 
    2.2491070374175930E+00 
    2.2464851715484877E+00 
    2.2468925265742419E+00 
    2.2390286124714573E+00 
    2.2355572685209655E+00 
    2.2264840754699833E+00 
    2.2314421972074019E+00 
    2.2246597037931646E+00 
    2.2200331086023337E+00 
    2.2340386063529096E+00 
    2.2347132714027076E+00 
    2.2241327372444686E+00 
    2.2260994832880945E+00 
    2.2147027931129069E+00 
    2.2200556324113667E+00 
    2.2160016559531068E+00 
    2.2092019595553616E+00 
    2.2192198601531987E+00 
    2.2149959867482343E+00 
    2.2108568144784764E+00 
    2.2129572799090531E+00 
    2.2106704220495730E+00 
    2.2055853860283015E+00 
    2.2038254437710476E+00 
    2.2088870642320289E+00 
    2.2070884184420403E+00 
    2.2073206807744477E+00 
    2.2030860706304081E+00 
    2.2019499816335064E+00 
    2.1978435203573539E+00 
    2.1993611835212934E+00 
    2.1961050038277330E+00 
    2.1945693306117882E+00 
    2.2002437400316825E+00 
    2.1999349857286954E+00 
    2.1953065887336196E+00 
    2.1967108150653907E+00 
    2.1915203651761836E+00 
    2.1938602331980892E+00 
    2.1917799809814089E+00 
    2.1883939266530641E+00 
    2.1944880349283311E+00 
    2.1922201967041715E+00 
    2.1896617153849447E+00 
    2.1903543409238369E+00 
    2.1895919704384692E+00 
    2.1862395986893728E+00 
    2.1851064246630645E+00 
    2.1876154339540195E+00 
    2.1865580468145915E+00 
    2.1868878411867314E+00 
    2.1838613505165601E+00 
    2.1819940529701616E+00 
    2.1778781695399423E+00 
    2.1806016300960231E+00 
    2.1776668321768340E+00 
    2.1748235566917260E+00 
    2.1817719633977384E+00 
    2.1819960202382229E+00 
    2.1778946894364082E+00 
    2.1783732919667513E+00 
    2.1723456907760261E+00 
    2.1753773578775459E+00 
    2.1740191733516183E+00 
    2.1694693841353341E+00 
    2.1726782431484102E+00 
    2.1709645244634297E+00 
    2.1668622329469041E+00 
    2.1667943814630752E+00 
    2.1686592188192377E+00 
    2.1653934956620930E+00 
    2.1621992033435538E+00 
    2.1648686013424792E+00 
    2.1615017171157316E+00 
    2.1628566942987213E+00 
    2.1589555664835247E+00 
    2.1552278079558640E+00 
    2.1500729700963701E+00 
    2.1550085305564601E+00 
    2.1516212942540696E+00 
    2.1469723897783122E+00 
    2.1581066911386664E+00 
    2.1603926386558205E+00 
    2.1545532102927258E+00 
    2.1537730801535502E+00 
    2.1446492463204927E+00 
    2.1495269669821879E+00 
    2.1489066033169113E+00 
    2.1421936840499813E+00 
    2.1427833791557767E+00 
    2.1412366466304773E+00 
    2.1355577074381351E+00 
    2.1350989653094925E+00 
    2.1389637969290378E+00 
    2.1355768126434600E+00 
    2.1303431473902075E+00 
    2.1336695832559056E+00 
    2.1283378971120612E+00 
    2.1304642352408778E+00 
    2.1256790650141117E+00 
    2.1207511782912669E+00 
    2.1148235940913005E+00 
    2.1211063946029771E+00 
    2.1172829871820591E+00 
    2.1115701980338866E+00 
    2.1256635475501282E+00 
    2.1296407523567278E+00 
    2.1222198942836115E+00 
    2.1205699247239820E+00 
    2.1092441477358235E+00 
    2.1153280860608810E+00 
    2.1151933171865824E+00 
    2.1070841399216551E+00 
    2.1065325351142228E+00 
    2.1049368460342182E+00 
    2.0986844256238055E+00 
    2.0984077560097476E+00 
    2.1026757138247847E+00 
    2.0992579219652168E+00 
    2.0933605359428769E+00 
    2.0971400932376354E+00 
    2.0916785287731572E+00 
    2.0936857159951487E+00 
    2.0888629048623963E+00 
    2.0848101464278721E+00 
    2.0796729756397925E+00 
    2.0845522951054756E+00 
    2.0809156051357833E+00 
    2.0766789472961458E+00 
    2.0888232731978884E+00 
    2.0930221034966539E+00 
    2.0855531569376593E+00 
    2.0841144979507003E+00 
    2.0744623458958702E+00 
    2.0794060888264267E+00 
    2.0792335638000066E+00 
    2.0728358450294873E+00 
    2.0739620170057060E+00 
    2.0722774499137282E+00 
    2.0681691579290402E+00 
    2.0683910357970068E+00 
    2.0702592290449626E+00 
    2.0674441364895997E+00 
    2.0637051599593041E+00 
    2.0669367561192264E+00 
    2.0636376222885806E+00 
    2.0647259669835343E+00 
    2.0612346688756151E+00 
    2.0589057914944298E+00 
    2.0552724535093900E+00 
    2.0581206242340775E+00 
    2.0556546035004901E+00 
    2.0530472288384116E+00 
    2.0605130527278548E+00 
    2.0627953009342854E+00 
    2.0579090762594827E+00 
    2.0573943154021124E+00 
    2.0512342368327690E+00 
    2.0544142480535825E+00 
    2.0538590838274384E+00 
    2.0496335212397216E+00 
    2.0513084022249255E+00 
    2.0499967008617741E+00 
    2.0471196162204088E+00 
    2.0472638941644550E+00 
    2.0483720332554269E+00 
    2.0461146092200075E+00 
    2.0437305261829741E+00 
    2.0460000331492636E+00 
    2.0437452971954877E+00 
    2.0445599759043334E+00 
    2.0418809338200594E+00 
    2.0398870969334664E+00 
    2.0367326842153206E+00 
    2.0392052389608479E+00 
    2.0369941762522750E+00 
    2.0346242026989043E+00 
    2.0409739542556431E+00 
    2.0424904586785031E+00 
    2.0385465129984639E+00 
    2.0381999112755782E+00 
    2.0328567695107980E+00 
    2.0356014138370737E+00 
    2.0349545138332954E+00 
    2.0309353590142054E+00 
    2.0330418300927771E+00 
    2.0318415653702311E+00 
    2.0290679480330307E+00 
    2.0292244325581974E+00 
    2.0301129266406206E+00 
    2.0275905480982113E+00 
    2.0255253053434470E+00 
    2.0277714175967327E+00 
    2.0259920291002125E+00 
    2.0265090216997699E+00 
    2.0239877903125705E+00 
    2.0225760002353583E+00 
    2.0197627717198148E+00 
    2.0215563334855382E+00 
    2.0194204716220758E+00 
    2.0176437026228120E+00 
    2.0228593332396470E+00 
    2.0239504412927602E+00 
    2.0202380350483740E+00 
    2.0202841023124658E+00 
    2.0157727545212798E+00 
    2.0179945343255099E+00 
    2.0170452928831302E+00 
    2.0137048854581434E+00 
    2.0170184728867926E+00 
    2.0155642067871611E+00 
    2.0135739901504666E+00 
    2.0141211126771434E+00 
    2.0137845688171203E+00 
    2.0113270676654742E+00 
    2.0102757938809459E+00 
    2.0122653937969757E+00 
    2.0116341288413695E+00 
    2.0116565525709946E+00 
    2.0095137844350228E+00 
    2.0088268315780251E+00 
    2.0062874171755438E+00 
    2.0072268191420202E+00 
    2.0051694306153838E+00 
    2.0040666680045014E+00 
    2.0077595982815639E+00 
    2.0079747282772091E+00 
    2.0048249945036902E+00 
    2.0054311171335968E+00 
    2.0020160384715227E+00 
    2.0035741685705704E+00 
    2.0022313995888967E+00 
    1.9995964804811193E+00 
    2.0042377815606405E+00 
    2.0026289313514671E+00 
    2.0010517232087093E+00 
    2.0017434066964643E+00 
    2.0006752294329768E+00 
    1.9980663181969203E+00 
    1.9976651060302526E+00 
    1.9995581290632460E+00 
    1.9995298001486053E+00 
    1.9992715694074610E+00 
    1.9973256224628078E+00 
    1.9969642525557538E+00 
    1.9944950267658217E+00 
    1.9952044824531738E+00 
    1.9932081153255214E+00 
    1.9922255872882468E+00 
    1.9953372981683239E+00 
    1.9949354036793707E+00 
    1.9922729126599612E+00 
    1.9931717552058035E+00 
    1.9901630475345160E+00 
    1.9915046503193037E+00 
    1.9899936463185603E+00 
    1.9876520908946973E+00 
    1.9924580694757323E+00 
    1.9908161422319226E+00 
    1.9892144721563731E+00 
    1.9898280016971699E+00 
    1.9888911869251584E+00 
    1.9863533811904042E+00 
    1.9859564091938706E+00 
    1.9877678832931860E+00 
    1.9872304246361665E+00 
    1.9873279069132543E+00 
    1.9851556246075968E+00 
    1.9841676795768435E+00 
    1.9815033187044067E+00 
    1.9828196106679385E+00 
    1.9807233806190543E+00 