# vtk DataFile Version 2.0
Pressure Field Data 
ASCII 
DATASET UNSTRUCTURED_GRID 

POINTS 6273 double 

    0.0000000000000000E+00     0.0000000000000000E+00     0.0000000000000000E+00 
    1.0000000000000000E+00     0.0000000000000000E+00     0.0000000000000000E+00 
    1.0000000000000000E+00     1.0000000000000000E+00     0.0000000000000000E+00 
    0.0000000000000000E+00     1.0000000000000000E+00     0.0000000000000000E+00 
    1.5624999999970249E-02     0.0000000000000000E+00     0.0000000000000000E+00 
    3.1249999999940652E-02     0.0000000000000000E+00     0.0000000000000000E+00 
    4.6874999999905617E-02     0.0000000000000000E+00     0.0000000000000000E+00 
    6.2499999999870597E-02     0.0000000000000000E+00     0.0000000000000000E+00 
    7.8124999999846401E-02     0.0000000000000000E+00     0.0000000000000000E+00 
    9.3749999999822212E-02     0.0000000000000000E+00     0.0000000000000000E+00 
    1.0937499999979799E-01     0.0000000000000000E+00     0.0000000000000000E+00 
    1.2499999999977381E-01     0.0000000000000000E+00     0.0000000000000000E+00 
    1.4062499999972811E-01     0.0000000000000000E+00     0.0000000000000000E+00 
    1.5624999999968239E-01     0.0000000000000000E+00     0.0000000000000000E+00 
    1.7187499999963671E-01     0.0000000000000000E+00     0.0000000000000000E+00 
    1.8749999999959110E-01     0.0000000000000000E+00     0.0000000000000000E+00 
    2.0312499999954539E-01     0.0000000000000000E+00     0.0000000000000000E+00 
    2.1874999999949971E-01     0.0000000000000000E+00     0.0000000000000000E+00 
    2.3437499999945391E-01     0.0000000000000000E+00     0.0000000000000000E+00 
    2.4999999999940831E-01     0.0000000000000000E+00     0.0000000000000000E+00 
    2.6562499999936218E-01     0.0000000000000000E+00     0.0000000000000000E+00 
    2.8124999999931621E-01     0.0000000000000000E+00     0.0000000000000000E+00 
    2.9687499999927008E-01     0.0000000000000000E+00     0.0000000000000000E+00 
    3.1249999999922412E-01     0.0000000000000000E+00     0.0000000000000000E+00 
    3.2812499999917810E-01     0.0000000000000000E+00     0.0000000000000000E+00 
    3.4374999999913203E-01     0.0000000000000000E+00     0.0000000000000000E+00 
    3.5937499999908601E-01     0.0000000000000000E+00     0.0000000000000000E+00 
    3.7499999999903999E-01     0.0000000000000000E+00     0.0000000000000000E+00 
    3.9062499999899403E-01     0.0000000000000000E+00     0.0000000000000000E+00 
    4.0624999999894801E-01     0.0000000000000000E+00     0.0000000000000000E+00 
    4.2187499999890188E-01     0.0000000000000000E+00     0.0000000000000000E+00 
    4.3749999999885592E-01     0.0000000000000000E+00     0.0000000000000000E+00 
    4.5312499999880979E-01     0.0000000000000000E+00     0.0000000000000000E+00 
    4.6874999999876382E-01     0.0000000000000000E+00     0.0000000000000000E+00 
    4.8437499999871780E-01     0.0000000000000000E+00     0.0000000000000000E+00 
    4.9999999999867167E-01     0.0000000000000000E+00     0.0000000000000000E+00 
    5.1562499999871325E-01     0.0000000000000000E+00     0.0000000000000000E+00 
    5.3124999999875477E-01     0.0000000000000000E+00     0.0000000000000000E+00 
    5.4687499999879630E-01     0.0000000000000000E+00     0.0000000000000000E+00 
    5.6249999999883782E-01     0.0000000000000000E+00     0.0000000000000000E+00 
    5.7812499999887934E-01     0.0000000000000000E+00     0.0000000000000000E+00 
    5.9374999999892086E-01     0.0000000000000000E+00     0.0000000000000000E+00 
    6.0937499999896239E-01     0.0000000000000000E+00     0.0000000000000000E+00 
    6.2499999999900380E-01     0.0000000000000000E+00     0.0000000000000000E+00 
    6.4062499999904521E-01     0.0000000000000000E+00     0.0000000000000000E+00 
    6.5624999999908673E-01     0.0000000000000000E+00     0.0000000000000000E+00 
    6.7187499999912825E-01     0.0000000000000000E+00     0.0000000000000000E+00 
    6.8749999999916978E-01     0.0000000000000000E+00     0.0000000000000000E+00 
    7.0312499999921130E-01     0.0000000000000000E+00     0.0000000000000000E+00 
    7.1874999999925282E-01     0.0000000000000000E+00     0.0000000000000000E+00 
    7.3437499999929434E-01     0.0000000000000000E+00     0.0000000000000000E+00 
    7.4999999999933586E-01     0.0000000000000000E+00     0.0000000000000000E+00 
    7.6562499999937739E-01     0.0000000000000000E+00     0.0000000000000000E+00 
    7.8124999999941891E-01     0.0000000000000000E+00     0.0000000000000000E+00 
    7.9687499999946043E-01     0.0000000000000000E+00     0.0000000000000000E+00 
    8.1249999999950195E-01     0.0000000000000000E+00     0.0000000000000000E+00 
    8.2812499999954348E-01     0.0000000000000000E+00     0.0000000000000000E+00 
    8.4374999999958500E-01     0.0000000000000000E+00     0.0000000000000000E+00 
    8.5937499999962652E-01     0.0000000000000000E+00     0.0000000000000000E+00 
    8.7499999999966793E-01     0.0000000000000000E+00     0.0000000000000000E+00 
    8.9062499999970934E-01     0.0000000000000000E+00     0.0000000000000000E+00 
    9.0624999999975087E-01     0.0000000000000000E+00     0.0000000000000000E+00 
    9.2187499999979239E-01     0.0000000000000000E+00     0.0000000000000000E+00 
    9.3749999999983391E-01     0.0000000000000000E+00     0.0000000000000000E+00 
    9.5312499999987543E-01     0.0000000000000000E+00     0.0000000000000000E+00 
    9.6874999999991696E-01     0.0000000000000000E+00     0.0000000000000000E+00 
    9.8437499999995848E-01     0.0000000000000000E+00     0.0000000000000000E+00 
    1.0000000000000000E+00     1.5624999999970249E-02     0.0000000000000000E+00 
    1.0000000000000000E+00     3.1249999999940652E-02     0.0000000000000000E+00 
    1.0000000000000000E+00     4.6874999999905617E-02     0.0000000000000000E+00 
    1.0000000000000000E+00     6.2499999999870597E-02     0.0000000000000000E+00 
    1.0000000000000000E+00     7.8124999999846401E-02     0.0000000000000000E+00 
    1.0000000000000000E+00     9.3749999999822212E-02     0.0000000000000000E+00 
    1.0000000000000000E+00     1.0937499999979799E-01     0.0000000000000000E+00 
    1.0000000000000000E+00     1.2499999999977381E-01     0.0000000000000000E+00 
    1.0000000000000000E+00     1.4062499999972811E-01     0.0000000000000000E+00 
    1.0000000000000000E+00     1.5624999999968239E-01     0.0000000000000000E+00 
    1.0000000000000000E+00     1.7187499999963671E-01     0.0000000000000000E+00 
    1.0000000000000000E+00     1.8749999999959110E-01     0.0000000000000000E+00 
    1.0000000000000000E+00     2.0312499999954539E-01     0.0000000000000000E+00 
    1.0000000000000000E+00     2.1874999999949971E-01     0.0000000000000000E+00 
    1.0000000000000000E+00     2.3437499999945391E-01     0.0000000000000000E+00 
    1.0000000000000000E+00     2.4999999999940831E-01     0.0000000000000000E+00 
    1.0000000000000000E+00     2.6562499999936218E-01     0.0000000000000000E+00 
    1.0000000000000000E+00     2.8124999999931621E-01     0.0000000000000000E+00 
    1.0000000000000000E+00     2.9687499999927008E-01     0.0000000000000000E+00 
    1.0000000000000000E+00     3.1249999999922412E-01     0.0000000000000000E+00 
    1.0000000000000000E+00     3.2812499999917810E-01     0.0000000000000000E+00 
    1.0000000000000000E+00     3.4374999999913203E-01     0.0000000000000000E+00 
    1.0000000000000000E+00     3.5937499999908601E-01     0.0000000000000000E+00 
    1.0000000000000000E+00     3.7499999999903999E-01     0.0000000000000000E+00 
    1.0000000000000000E+00     3.9062499999899403E-01     0.0000000000000000E+00 
    1.0000000000000000E+00     4.0624999999894801E-01     0.0000000000000000E+00 
    1.0000000000000000E+00     4.2187499999890188E-01     0.0000000000000000E+00 
    1.0000000000000000E+00     4.3749999999885592E-01     0.0000000000000000E+00 
    1.0000000000000000E+00     4.5312499999880979E-01     0.0000000000000000E+00 
    1.0000000000000000E+00     4.6874999999876382E-01     0.0000000000000000E+00 
    1.0000000000000000E+00     4.8437499999871780E-01     0.0000000000000000E+00 
    1.0000000000000000E+00     4.9999999999867167E-01     0.0000000000000000E+00 
    1.0000000000000000E+00     5.1562499999871325E-01     0.0000000000000000E+00 
    1.0000000000000000E+00     5.3124999999875477E-01     0.0000000000000000E+00 
    1.0000000000000000E+00     5.4687499999879630E-01     0.0000000000000000E+00 
    1.0000000000000000E+00     5.6249999999883782E-01     0.0000000000000000E+00 
    1.0000000000000000E+00     5.7812499999887934E-01     0.0000000000000000E+00 
    1.0000000000000000E+00     5.9374999999892086E-01     0.0000000000000000E+00 
    1.0000000000000000E+00     6.0937499999896239E-01     0.0000000000000000E+00 
    1.0000000000000000E+00     6.2499999999900380E-01     0.0000000000000000E+00 
    1.0000000000000000E+00     6.4062499999904521E-01     0.0000000000000000E+00 
    1.0000000000000000E+00     6.5624999999908673E-01     0.0000000000000000E+00 
    1.0000000000000000E+00     6.7187499999912825E-01     0.0000000000000000E+00 
    1.0000000000000000E+00     6.8749999999916978E-01     0.0000000000000000E+00 
    1.0000000000000000E+00     7.0312499999921130E-01     0.0000000000000000E+00 
    1.0000000000000000E+00     7.1874999999925282E-01     0.0000000000000000E+00 
    1.0000000000000000E+00     7.3437499999929434E-01     0.0000000000000000E+00 
    1.0000000000000000E+00     7.4999999999933586E-01     0.0000000000000000E+00 
    1.0000000000000000E+00     7.6562499999937739E-01     0.0000000000000000E+00 
    1.0000000000000000E+00     7.8124999999941891E-01     0.0000000000000000E+00 
    1.0000000000000000E+00     7.9687499999946043E-01     0.0000000000000000E+00 
    1.0000000000000000E+00     8.1249999999950195E-01     0.0000000000000000E+00 
    1.0000000000000000E+00     8.2812499999954348E-01     0.0000000000000000E+00 
[...]
CELL_DATA 6144 
SCALARS Pressure double 1 
LOOKUP_TABLE default 

    2.5246176388913444E+00 
    2.4272493368916761E+00 
    2.4119422124006702E+00 
    2.4310157844571441E+00 
    2.3724144719947597E+00 
    2.3374667927632684E+00 
    2.3529563350895053E+00 
    2.3842664257293564E+00 
    2.3725763299556704E+00 
    2.3825773008603766E+00 
    2.3551857223086325E+00 
    2.3373856583317250E+00 
    2.3200187763584688E+00 
    2.3348437252007805E+00 
    2.3190361332311418E+00 
    2.3089514105977589E+00 
    2.3361105606442916E+00 
    2.3211245491811390E+00 
    2.3096444038852462E+00 
    2.3204332049535639E+00 
    2.2986154408498036E+00 
    2.3096858880608298E+00 
    2.2998112513386793E+00 
    2.2872107136634345E+00 
    2.2983855132010405E+00 
    2.2953179169915376E+00 
    2.2816340957705372E+00 
    2.2791447262788149E+00 
    2.2881333411894929E+00 
    2.2773630548342623E+00 
    2.2691114624200615E+00 
    2.2773252345469785E+00 
    2.2629059843452177E+00 
    2.2698921600731290E+00 
    2.2603393121617459E+00 
    2.2483650283976719E+00 
    2.2398473511944359E+00 
    2.2515924241812657E+00 
    2.2445548549910757E+00 
    2.2351941726075442E+00 
    2.2589552624169915E+00 
    2.2632787773706915E+00 
    2.2499966783233165E+00 
    2.2491861992675446E+00 
    2.2311305076261001E+00 
    2.2403595940693308E+00 
    2.2385530785311718E+00 
    2.2261963851669440E+00 
    2.2251165759335017E+00 
    2.2243503760498955E+00 
    2.2140849881800562E+00 
    2.2114128468472134E+00 
    2.2211652428400974E+00 
    2.2154879929765348E+00 
    2.2070770486001039E+00 
    2.2117982156764002E+00 
    2.1993729635289014E+00 
    2.2054056765710865E+00 
    2.1980407595626823E+00 
    2.1877180320457819E+00 
    2.1813237049820233E+00 
    2.1914841263173956E+00 
    2.1866321895118213E+00 
    2.1785533356856961E+00 
    2.1992226478568075E+00 
    2.2052167462006058E+00 
    2.1938660166762736E+00 
    2.1914490165680731E+00 
    2.1760474664901217E+00 
    2.1841401598668573E+00 
    2.1837658239764055E+00 
    2.1729372030815486E+00 
    2.1705275000924398E+00 
    2.1700425417088574E+00 
    2.1622942835806587E+00 
    2.1610608070699873E+00 
    2.1678678085724119E+00 
    2.1636685595690315E+00 
    2.1569480333504578E+00 
    2.1612495518942603E+00 
    2.1532992810635512E+00 
    2.1565882961823553E+00 
    2.1518272053313967E+00 
    2.1473012617401523E+00 
    2.1441606236429012E+00 
    2.1484773174268930E+00 
    2.1461231612358596E+00 
    2.1427409083787854E+00 
    2.1526694946705307E+00 
    2.1564973930563252E+00 
    2.1499843464485942E+00 
    2.1490491858022103E+00 
    2.1412268595598869E+00 
    2.1452834436023775E+00 
    2.1448818250414901E+00 
    2.1398540176478216E+00 
    2.1391125361718792E+00 
    2.1388044569758580E+00 
    2.1351656105806982E+00 
    2.1342972602165324E+00 
    2.1378206670324449E+00 
    2.1360974332398155E+00 
    2.1328159448157842E+00 
    2.1344872771691232E+00 
    2.1297830650836760E+00 
    2.1321171219549444E+00 
    2.1294298522677071E+00 
    2.1252036615948131E+00 
    2.1224361292552905E+00 
    2.1268819011839146E+00 
    2.1250071236264882E+00 
    2.1213074774540566E+00 
    2.1300805536779341E+00 
    2.1324783745074618E+00 
    2.1282483221001551E+00 
    2.1270414174315748E+00 
    2.1203974785363662E+00 
    2.1239940472290395E+00 
    2.1241780894304156E+00 
    2.1192695478640822E+00 
    2.1168428089212554E+00 
    2.1168749738457313E+00 
    2.1124273358296213E+00 
    2.1108934640407000E+00 
    2.1159958394517995E+00 
    2.1141769972799369E+00 
    2.1097697669377764E+00 
    2.1114871047871349E+00 
    2.1052411707834140E+00 
    2.1083870537922613E+00 
    2.1049254652821263E+00 
    2.0991675377000929E+00 
    2.0954767710446056E+00 
    2.1016690404008211E+00 
    2.0993576908987093E+00 
    2.0941057938467491E+00 
    2.1062049935705542E+00 
    2.1100335104787944E+00 
    2.1043601627166590E+00 
    2.1022909755647632E+00 
    2.0931016510199258E+00 
    2.0981568552873586E+00 
    2.0987512603216616E+00 
    2.0920005561711124E+00 
    2.0879264539718498E+00 
    2.0879914554544401E+00 
    2.0819271689496248E+00 
    2.0799801001848368E+00 
    2.0869946997748992E+00 
    2.0849293137041109E+00 
    2.0788116727249344E+00 
    2.0809612847495464E+00 
    2.0725870777083184E+00 
    2.0767248284314737E+00 
    2.0723343309722444E+00 
    2.0650227601583575E+00 
    2.0607695217457840E+00 
    2.0684495800900811E+00 
    2.0656819786593736E+00 
    2.0594231696919261E+00 
    2.0744660730892930E+00 
    2.0797067574059720E+00 
    2.0724699975041947E+00 
    2.0696445014153793E+00 
    2.0584585081139029E+00 
    2.0645836518849401E+00 
    2.0655439779204956E+00 
    2.0575297534297698E+00 
    2.0524485602819209E+00 
    2.0525157160518122E+00 
    2.0461067976331231E+00 
    2.0443825877211044E+00 
    2.0515284036135504E+00 
    2.0492924370970793E+00 
    2.0425236336067716E+00 
    2.0452918414808954E+00 
    2.0369558242129484E+00 
    2.0409191059345866E+00 
    2.0366010305619455E+00 
    2.0301382286861576E+00 
    2.0263609187378111E+00 
    2.0329382030404086E+00 
    2.0299423663342284E+00 
    2.0248043304925711E+00 
    2.0383801725906170E+00 
    2.0436690122730474E+00 
    2.0362913125940878E+00 
    2.0338505725986105E+00 
    2.0237485623961282E+00 
    2.0290260987550872E+00 
    2.0298252493703504E+00 
    2.0230556744230932E+00 
    2.0197890288778488E+00 
    2.0196289846081648E+00 
    2.0149260679576986E+00 
    2.0139066872216320E+00 
    2.0187427019464552E+00 
    2.0169028277233352E+00 
    2.0119751401193282E+00 
    2.0143433799771171E+00 
    2.0085304684286216E+00 
    2.0112090592852372E+00 
    2.0080387420821766E+00 
    2.0037530529055361E+00 
    2.0011079500512565E+00 
    2.0054505421032038E+00 
    2.0035153781963597E+00 
    2.0000290134261456E+00 
    2.0090563996726334E+00 
    2.0125839156203083E+00 
    2.0075038346438592E+00 
    2.0059946766839474E+00 
    1.9991787319746095E+00 
    2.0028068354841646E+00 
    2.0030915733689185E+00 
    1.9984292630492737E+00 
    1.9963323941922024E+00 
    1.9961868810360577E+00 
    1.9927005326771263E+00 
    1.9918993876246478E+00 
    1.9955082494613352E+00 
    1.9941687704683642E+00 
    1.9907184001946610E+00 
    1.9922723219336893E+00 
    1.9878798826530484E+00 
    1.9899629020700165E+00 
    1.9876151396479780E+00 
    1.9841214424138049E+00 
    1.9819967395642486E+00 
    1.9855761458100452E+00 
    1.9841205459004634E+00 
    1.9811907408597180E+00 
    1.9884186087884497E+00 
    1.9910050545517859E+00 
    1.9872325453606572E+00 
    1.9860349479994128E+00 
    1.9805771406440187E+00 
    1.9835531299175715E+00 
    1.9838174855588717E+00 
    1.9799443396953214E+00 
    1.9779856575833057E+00 
    1.9779100509271024E+00 
    1.9748625993992206E+00 
    1.9741432037088884E+00 
    1.9773592318298063E+00 
    1.9761714126549661E+00 
    1.9731405409622431E+00 
    1.9744726052217672E+00 
    1.9707113871784323E+00 
    1.9724808132961356E+00 
    1.9705133031942756E+00 
    1.9675919069387160E+00 
    1.9657776765887256E+00 
    1.9687499221933276E+00 
    1.9672411687248694E+00 
    1.9648484114477320E+00 
    1.9711256771266192E+00 
    1.9733625588685781E+00 
    1.9698640091915141E+00 
    1.9688971562861697E+00 
    1.9641779856274557E+00 
    1.9666170833170236E+00 
    1.9667733141567989E+00 
    1.9635109647054898E+00 
    1.9625392257668721E+00 
    1.9623482470002236E+00 
    1.9600895894912331E+00 
    1.9596187388318163E+00 
    1.9617732034823609E+00 
    1.9606600551777620E+00 
    1.9585424425864553E+00 
    1.9597070829155976E+00 
    1.9569984303907615E+00 
    1.9582707384528668E+00 
    1.9566428816305439E+00 
    1.9545392746237173E+00 
    1.9531299179264849E+00 
    1.9552342375734693E+00 
    1.9541758613434284E+00 
    1.9524263615925470E+00 
    1.9568957578705108E+00 
    1.9583074191771219E+00 
    1.9556648083627679E+00 
    1.9551908587349229E+00 
    1.9517043766537798E+00 
    1.9535274511982936E+00 
    1.9533291302360056E+00 
    1.9507654463333615E+00 
    1.9506282870032634E+00 
    1.9504583819618679E+00 
    1.9485908231157512E+00 
    1.9481264746550286E+00 
    1.9498189381596487E+00 
    1.9486612355926918E+00 
    1.9471085212293864E+00 
    1.9480585810156179E+00 
    1.9458440948948530E+00 
    1.9469363218637137E+00 
    1.9455161782050057E+00 
    1.9435682943191048E+00 
    1.9421892101420457E+00 
    1.9441887943244942E+00 
    1.9430554281036416E+00 
    1.9413770772933634E+00 
    1.9455517737024814E+00 
    1.9465254950875750E+00 
    1.9442014304397313E+00 
    1.9439022150133836E+00 
    1.9406686732400698E+00 
    1.9423019525210923E+00 
    1.9420521267354294E+00 
    1.9396817649836235E+00 
    1.9396194852495328E+00 
    1.9395046661856183E+00 
    1.9375963593386034E+00 
    1.9370112035182860E+00 
    1.9388822354259079E+00 
    1.9376919639736419E+00 
    1.9361202896705079E+00 
    1.9370505749190607E+00 
    1.9345047621160834E+00 
    1.9358113147236671E+00 
    1.9341986339894885E+00 
    1.9316444276339986E+00 
    1.9299834141844205E+00 
    1.9326558074284785E+00 
    1.9314557023620682E+00 
    1.9292301427456853E+00 
    1.9344086864351262E+00 
    1.9355383196317142E+00 
    1.9331218748951930E+00 
    1.9326240582507814E+00 
    1.9285501078945544E+00 
    1.9307574566663337E+00 
    1.9306741878636433E+00 
    1.9276416986333746E+00 
    1.9270087928987194E+00 
    1.9268865510835649E+00 
    1.9248231848020574E+00 
    1.9243587908612088E+00 
    1.9262965199629569E+00 
    1.9251360641206967E+00 
    1.9234029512409041E+00 
    1.9243759033319583E+00 
    1.9221427530516946E+00 
    1.9232005808182242E+00 
    1.9218733503499066E+00 
    1.9201810810364426E+00 
    1.9190728267968444E+00 
    1.9206508217390732E+00 
    1.9195470208283081E+00 
    1.9183089739054873E+00 
    1.9218645372951908E+00 
    1.9228779751936707E+00 
    1.9205070563065447E+00 
    1.9202962473158922E+00 
    1.9175922643039280E+00 
    1.9188860563547043E+00 
    1.9185353461597920E+00 
    1.9166463443693751E+00 
    1.9173798563586286E+00 
    1.9170879795340332E+00 
    1.9160954194728774E+00 
    1.9160679643563079E+00 
    1.9164899461991400E+00 
    1.9154832412424772E+00 
    1.9150293625368173E+00 
    1.9157563320606188E+00 
    1.9151562086415197E+00 
    1.9154012054050298E+00 
    1.9147757663708085E+00 
    1.9145963323617206E+00 
    1.9144029221903098E+00 
    1.9142485301127068E+00 
    1.9136862888306425E+00 
    1.9139070466511172E+00 
    1.9141752124196787E+00 
    1.9139972480072576E+00 
    1.9129223529380683E+00 
    1.9134861992794308E+00 
    1.9131206316979394E+00 
    1.9131192061475049E+00 
    1.9123059797953392E+00 
    1.9120367121242985E+00 
    2.2996486654166635E+00 
    2.2813446157262818E+00 
    2.2824519500744742E+00 
    2.2958120062953409E+00 
    2.2657847607074197E+00 
    2.2520188455954711E+00 
    2.2630251413460121E+00 
    2.2712859987265581E+00 
    2.2889844307069191E+00 
    2.2785700887483875E+00 
    2.2706590901016339E+00 
    2.2782322021773154E+00 
    2.2644071795185927E+00 
    2.2613849450344823E+00 
    2.2517737442959183E+00 
    2.2515521261136984E+00 
    2.2543587082017291E+00 
    2.2432663998120166E+00 
    2.2379777673822150E+00 
    2.2466151966729702E+00 
    2.2405612791242757E+00 
    2.2425688910551860E+00 
    2.2334691242765157E+00 
    2.2284097743076710E+00 
    2.2581414990412534E+00 
    2.2478525577666781E+00 
    2.2419448574162399E+00 
    2.2470452470823243E+00 
    2.2378168160696439E+00 
    2.2262904866623607E+00 
    2.2267241723618261E+00 
    2.2351550524487029E+00 
    2.2366738412942779E+00 
    2.2348422233026208E+00 
    2.2262213813982945E+00 
    2.2248680002790189E+00 
    2.2138170515181468E+00 
    2.2172664004391494E+00 
    2.2092823457300383E+00 
    2.2050311634307338E+00 
    2.2177105901303111E+00 
    2.2152214819166476E+00 
    2.2059412659710409E+00 
    2.2094313861108574E+00 
    2.1976394809418163E+00 
    2.2031840926166439E+00 
    2.1980503532116096E+00 
    2.1894690642462069E+00 
    2.2046441773475407E+00 
    2.1985263304000333E+00 
    2.1915301382024084E+00 
    2.1936627678272491E+00 
    2.1917791482551401E+00 
    2.1830881722658209E+00 
    2.1795712798887479E+00 
    2.1864477649034728E+00 
    2.1838479675628073E+00 
    2.1842513112336515E+00 
    2.1764517727418400E+00 
    2.1730036528572261E+00 
    2.1639936402012592E+00 
    2.1689243839233661E+00 
    2.1621930826092304E+00 
    2.1575830052216438E+00 
    2.1715046969363065E+00 
    2.1721780991899320E+00 
    2.1616803034643488E+00 
    2.1636221141436058E+00 
    2.1522901811318897E+00 
    2.1576156379269023E+00 
    2.1535944143667409E+00 
    2.1468260543245581E+00 
    2.1567637221929687E+00 
    2.1525684926616790E+00 
    2.1484611838512695E+00 
    2.1505515276841440E+00 
    2.1482734088544846E+00 
    2.1432325923637090E+00 
    2.1414991832765953E+00 
    2.1465219085980509E+00 
    2.1447551846634139E+00 
    2.1449749980780290E+00 
    2.1407955730096861E+00 
    2.1396977515644386E+00 
    2.1356494058639228E+00 
    2.1371251589787756E+00 
    2.1339162329380765E+00 
    2.1324200572606076E+00 
    2.1379794273967212E+00 
    2.1376574802291377E+00 
    2.1331164690823115E+00 
    2.1345075371380005E+00 
    2.1294135632594555E+00 
    2.1317062345230138E+00 
    2.1296569540094556E+00 
    2.1263382936948938E+00 
    2.1323548509053807E+00 
    2.1301183562317694E+00 
    2.1276106979194322E+00 
    2.1282925135974060E+00 
    2.1275289442252134E+00 
    2.1242306017569188E+00 
    2.1231305516676673E+00 
    2.1255936287307224E+00 
    2.1245619751351725E+00 
    2.1248856854296765E+00 
    2.1219126775622263E+00 
    2.1200737900556437E+00 
    2.1160252699395485E+00 
    2.1187056309109229E+00 
    2.1158162120103960E+00 
    2.1130160087803302E+00 
    2.1198498022859193E+00 
    2.1200612402639916E+00 
    2.1160309879084567E+00 
    2.1165041687928867E+00 
    2.1105764530230804E+00 
    2.1135570623490358E+00 
    2.1122197196370602E+00 
    2.1077438157238513E+00 
    2.1108983202284284E+00 
    2.1092123863006234E+00 
    2.1051694435097708E+00 
    2.1051001633030375E+00 
    2.1069442207569873E+00 
    2.1037333849709428E+00 
    2.1005861157250689E+00 
    2.1032077826068494E+00 
    2.0998887893848122E+00 
    2.1012245128350133E+00 
    2.0973852161897590E+00 
    2.0937135226446020E+00 
    2.0886410263838564E+00 
    2.0935029987590754E+00 
    2.0901711051977960E+00 
    2.0855927887424675E+00 
    2.0965573500523695E+00 
    2.0988141947130785E+00 
    2.0930666690652235E+00 
    2.0922924749906398E+00 
    2.0833115678681251E+00 
    2.0881142995553947E+00 
    2.0875094064319200E+00 
    2.0809026057137432E+00 
    2.0814738283799867E+00 
    2.0799492778966862E+00 
    2.0743652959032199E+00 
    2.0739194041379911E+00 
    2.0777153314707295E+00 
    2.0743881929021151E+00 
    2.0692369633746681E+00 
    2.0725104983648550E+00 
    2.0672694115409085E+00 
    2.0693571328266289E+00 
    2.0646515689078058E+00 
    2.0598117598782486E+00 
    2.0539857168253604E+00 
    2.0601578168000363E+00 
    2.0564025013429483E+00 
    2.0507888251372566E+00 
    2.0646404266424256E+00 
    2.0685564934696146E+00 
    2.0612627584074423E+00 
    2.0596361886549270E+00 
    2.0485044089580668E+00 
    2.0544846620815420E+00 
    2.0543581488531957E+00 
    2.0463875721647562E+00 
    2.0458396653562350E+00 
    2.0442685644735223E+00 
    2.0381173893207336E+00 
    2.0378462027166080E+00 
    2.0420457574686646E+00 
    2.0386880130047382E+00 
    2.0328795111128382E+00 
    2.0365937452035339E+00 
    2.0312248943789966E+00 
    2.0331955608355652E+00 
    2.0284484285373696E+00 
    2.0244714200286698E+00 
    2.0194235305270647E+00 
    2.0242094211239050E+00 
    2.0206329245343606E+00 
    2.0164789549337181E+00 
    2.0284131197618867E+00 
    2.0325555521318677E+00 
    2.0251990904157622E+00 
    2.0237795134539649E+00 
    2.0142950706638434E+00 
    2.0191521560221570E+00 
    2.0189789570976653E+00 
    2.0126946055970798E+00 
    2.0138460673027474E+00 
    2.0121746505447193E+00 
    2.0081661750818371E+00 
    2.0084060027301138E+00 
    2.0101832228115111E+00 
    2.0074150232863870E+00 
    2.0037748212695123E+00 
    2.0069537543609415E+00 
    2.0037608300027543E+00 
    2.0048028048488544E+00 
    2.0013861747731267E+00 
    1.9991442105051505E+00 
    1.9955924146876869E+00 
    1.9983402151869596E+00 
    1.9959283625593323E+00 
    1.9934084396102199E+00 
    2.0006553276768804E+00 
    2.0028626408940076E+00 
    1.9980963590479082E+00 
    1.9976138247324884E+00 
    1.9916277624866825E+00 
    1.9947136786222193E+00 
    1.9941570007215961E+00 
    1.9900606236093881E+00 
    1.9917513442259656E+00 
    1.9904563262109300E+00 
    1.9876704802204253E+00 
    1.9878252606185234E+00 
    1.9888641020504361E+00 
    1.9866636693570459E+00 
    1.9843662713826236E+00 
    1.9865780542192946E+00 
    1.9844081181827908E+00 
    1.9851887300879194E+00 
    1.9825877587713883E+00 
    1.9806639273562541E+00 
    1.9775993256136692E+00 
    1.9799902939135527E+00 
    1.9778435912443708E+00 
    1.9755465434463011E+00 
    1.9816948275796598E+00 
    1.9831504494103509E+00 
    1.9793360077550100E+00 
    1.9790063739542865E+00 
    1.9738216667920974E+00 
    1.9764843826630720E+00 
    1.9758519666948753E+00 
    1.9719401420358242E+00 
    1.9740085571708343E+00 
    1.9728387483768299E+00 
    1.9701327216576665E+00 
    1.9702827250422030E+00 
    1.9711488730923445E+00 
    1.9686805542303112E+00 
    1.9666734892398039E+00 
    1.9688586916978785E+00 
    1.9671290391474880E+00 
    1.9676322176254508E+00 
    1.9651713085230103E+00 
    1.9637952352136649E+00 
    1.9610550128535393E+00 
    1.9627982588860440E+00 
    1.9607120976246142E+00 
    1.9589879786575655E+00 
    1.9640630223688420E+00 
    1.9651190454479022E+00 
    1.9614922079702983E+00 
    1.9615475421030717E+00 
    1.9571594714343412E+00 
    1.9593179620873877E+00 
    1.9583806973582021E+00 
    1.9551346664073042E+00 
    1.9583976156808600E+00 
    1.9569752902521769E+00 
    1.9550543634182898E+00 
    1.9556006379262740E+00 
    1.9552379701956923E+00 
    1.9528406052568061E+00 
    1.9518461411233388E+00 
    1.9537837683338231E+00 
    1.9532080517950905E+00 
    1.9532088325937760E+00 
    1.9511411996259580E+00 
    1.9505218276036953E+00 
    1.9480857931567130E+00 
    1.9489364348228166E+00 
    1.9469454645195161E+00 
    1.9459298305404900E+00 
    1.9494130837110037E+00 
    1.9495833542618266E+00 
    1.9465454581618660E+00 
    1.9471683819653642E+00 
    1.9439279958811355E+00 
    1.9453934626419191E+00 
    1.9440626652907420E+00 
    1.9415614557391006E+00 
    1.9461786083432124E+00 
    1.9445987510533937E+00 
    1.9431345138635732E+00 
    1.9438394480070995E+00 
    1.9426941264711408E+00 
    1.9401605332949683E+00 
    1.9398628700541687E+00 
    1.9416847544423710E+00 
    1.9417632486303000E+00 
    1.9414642834802316E+00 
    1.9396191955833979E+00 
    1.9393512273993780E+00 
    1.9370146496034477E+00 
    1.9375963019240194E+00 
    1.9356801677568869E+00 
    1.9348170703478551E+00 
    1.9376375002324504E+00 
    1.9371530499351299E+00 
    1.9346410339921281E+00 
    1.9355771698974196E+00 
    1.9327937887475390E+00 
    1.9340126563422768E+00 
    1.9325012540187123E+00 
    1.9303142518093055E+00 
    1.9351531916178331E+00 
    1.9335556977896313E+00 
    1.9321440343733733E+00 
    1.9328103638394540E+00 
    1.9316628816888828E+00 
    1.9291725510625961E+00 
    1.9289722113288834E+00 
    1.9306863356306776E+00 
    1.9306072968840018E+00 
    1.9304771839607877E+00 
    1.9284829262005925E+00 
    1.9276591200084880E+00 
    1.9250243973428540E+00 
    1.9263003621453940E+00 
    1.9243427815632033E+00 