# vtk DataFile Version 2.0
Pressure Field Data 
ASCII 
DATASET UNSTRUCTURED_GRID 

POINTS 6273 double 

    0.0000000000000000E+00     0.0000000000000000E+00     0.0000000000000000E+00 
    1.0000000000000000E+00     0.0000000000000000E+00     0.0000000000000000E+00 
    1.0000000000000000E+00     1.0000000000000000E+00     0.0000000000000000E+00 
    0.0000000000000000E+00     1.0000000000000000E+00     0.0000000000000000E+00 
    1.5624999999970249E-02     0.0000000000000000E+00     0.0000000000000000E+00 
    3.1249999999940652E-02     0.0000000000000000E+00     0.0000000000000000E+00 
    4.6874999999905617E-02     0.0000000000000000E+00     0.0000000000000000E+00 
    6.2499999999870597E-02     0.0000000000000000E+00     0.0000000000000000E+00 
    7.8124999999846401E-02     0.0000000000000000E+00     0.0000000000000000E+00 
    9.3749999999822212E-02     0.0000000000000000E+00     0.0000000000000000E+00 
    1.0937499999979799E-01     0.0000000000000000E+00     0.0000000000000000E+00 
    1.2499999999977381E-01     0.0000000000000000E+00     0.0000000000000000E+00 
    1.4062499999972811E-01     0.0000000000000000E+00     0.0000000000000000E+00 
    1.5624999999968239E-01     0.0000000000000000E+00     0.0000000000000000E+00 
    1.7187499999963671E-01     0.0000000000000000E+00     0.0000000000000000E+00 
    1.8749999999959110E-01     0.0000000000000000E+00     0.0000000000000000E+00 
    2.0312499999954539E-01     0.0000000000000000E+00     0.0000000000000000E+00 
    2.1874999999949971E-01     0.0000000000000000E+00     0.0000000000000000E+00 
    2.3437499999945391E-01     0.0000000000000000E+00     0.0000000000000000E+00 
    2.4999999999940831E-01     0.0000000000000000E+00     0.0000000000000000E+00 
    2.6562499999936218E-01     0.0000000000000000E+00     0.0000000000000000E+00 
    2.8124999999931621E-01     0.0000000000000000E+00     0.0000000000000000E+00 
    2.9687499999927008E-01     0.0000000000000000E+00     0.0000000000000000E+00 
    3.1249999999922412E-01     0.0000000000000000E+00     0.0000000000000000E+00 
    3.2812499999917810E-01     0.0000000000000000E+00     0.0000000000000000E+00 
    3.4374999999913203E-01     0.0000000000000000E+00     0.0000000000000000E+00 
    3.5937499999908601E-01     0.0000000000000000E+00     0.0000000000000000E+00 
    3.7499999999903999E-01     0.0000000000000000E+00     0.0000000000000000E+00 
    3.9062499999899403E-01     0.0000000000000000E+00     0.0000000000000000E+00 
    4.0624999999894801E-01     0.0000000000000000E+00     0.0000000000000000E+00 
    4.2187499999890188E-01     0.0000000000000000E+00     0.0000000000000000E+00 
    4.3749999999885592E-01     0.0000000000000000E+00     0.0000000000000000E+00 
    4.5312499999880979E-01     0.0000000000000000E+00     0.0000000000000000E+00 
    4.6874999999876382E-01     0.0000000000000000E+00     0.0000000000000000E+00 
    4.8437499999871780E-01     0.0000000000000000E+00     0.0000000000000000E+00 
    4.9999999999867167E-01     0.0000000000000000E+00     0.0000000000000000E+00 
    5.1562499999871325E-01     0.0000000000000000E+00     0.0000000000000000E+00 
    5.3124999999875477E-01     0.0000000000000000E+00     0.0000000000000000E+00 
    5.4687499999879630E-01     0.0000000000000000E+00     0.0000000000000000E+00 
    5.6249999999883782E-01     0.0000000000000000E+00     0.0000000000000000E+00 
    5.7812499999887934E-01     0.0000000000000000E+00     0.0000000000000000E+00 
    5.9374999999892086E-01     0.0000000000000000E+00     0.0000000000000000E+00 
    6.0937499999896239E-01     0.0000000000000000E+00     0.0000000000000000E+00 
    6.2499999999900380E-01     0.0000000000000000E+00     0.0000000000000000E+00 
    6.4062499999904521E-01     0.0000000000000000E+00     0.0000000000000000E+00 
    6.5624999999908673E-01     0.0000000000000000E+00     0.0000000000000000E+00 
    6.7187499999912825E-01     0.0000000000000000E+00     0.0000000000000000E+00 
    6.8749999999916978E-01     0.0000000000000000E+00     0.0000000000000000E+00 
    7.0312499999921130E-01     0.0000000000000000E+00     0.0000000000000000E+00 
    7.1874999999925282E-01     0.0000000000000000E+00     0.0000000000000000E+00 
    7.3437499999929434E-01     0.0000000000000000E+00     0.0000000000000000E+00 
    7.4999999999933586E-01     0.0000000000000000E+00     0.0000000000000000E+00 
    7.6562499999937739E-01     0.0000000000000000E+00     0.0000000000000000E+00 
    7.8124999999941891E-01     0.0000000000000000E+00     0.0000000000000000E+00 
    7.9687499999946043E-01     0.0000000000000000E+00     0.0000000000000000E+00 
    8.1249999999950195E-01     0.0000000000000000E+00     0.0000000000000000E+00 
    8.2812499999954348E-01     0.0000000000000000E+00     0.0000000000000000E+00 
    8.4374999999958500E-01     0.0000000000000000E+00     0.0000000000000000E+00 
    8.5937499999962652E-01     0.0000000000000000E+00     0.0000000000000000E+00 
    8.7499999999966793E-01     0.0000000000000000E+00     0.0000000000000000E+00 
    8.9062499999970934E-01     0.0000000000000000E+00     0.0000000000000000E+00 
    9.0624999999975087E-01     0.0000000000000000E+00     0.0000000000000000E+00 
    9.2187499999979239E-01     0.0000000000000000E+00     0.0000000000000000E+00 
    9.3749999999983391E-01     0.0000000000000000E+00     0.0000000000000000E+00 
    9.5312499999987543E-01     0.0000000000000000E+00     0.0000000000000000E+00 
    9.6874999999991696E-01     0.0000000000000000E+00     0.0000000000000000E+00 
    9.8437499999995848E-01     0.0000000000000000E+00     0.0000000000000000E+00 
    1.0000000000000000E+00     1.5624999999970249E-02     0.0000000000000000E+00 
    1.0000000000000000E+00     3.1249999999940652E-02     0.0000000000000000E+00 
    1.0000000000000000E+00     4.6874999999905617E-02     0.0000000000000000E+00 
    1.0000000000000000E+00     6.2499999999870597E-02     0.0000000000000000E+00 
    1.0000000000000000E+00     7.8124999999846401E-02     0.0000000000000000E+00 
    1.0000000000000000E+00     9.3749999999822212E-02     0.0000000000000000E+00 
    1.0000000000000000E+00     1.0937499999979799E-01     0.0000000000000000E+00 
    1.0000000000000000E+00     1.2499999999977381E-01     0.0000000000000000E+00 
    1.0000000000000000E+00     1.4062499999972811E-01     0.0000000000000000E+00 
    1.0000000000000000E+00     1.5624999999968239E-01     0.0000000000000000E+00 
    1.0000000000000000E+00     1.7187499999963671E-01     0.0000000000000000E+00 
    1.0000000000000000E+00     1.8749999999959110E-01     0.0000000000000000E+00 
    1.0000000000000000E+00     2.0312499999954539E-01     0.0000000000000000E+00 
    1.0000000000000000E+00     2.1874999999949971E-01     0.0000000000000000E+00 
    1.0000000000000000E+00     2.3437499999945391E-01     0.0000000000000000E+00 
    1.0000000000000000E+00     2.4999999999940831E-01     0.0000000000000000E+00 
    1.0000000000000000E+00     2.6562499999936218E-01     0.0000000000000000E+00 
    1.0000000000000000E+00     2.8124999999931621E-01     0.0000000000000000E+00 
    1.0000000000000000E+00     2.9687499999927008E-01     0.0000000000000000E+00 
    1.0000000000000000E+00     3.1249999999922412E-01     0.0000000000000000E+00 
    1.0000000000000000E+00     3.2812499999917810E-01     0.0000000000000000E+00 
    1.0000000000000000E+00     3.4374999999913203E-01     0.0000000000000000E+00 
    1.0000000000000000E+00     3.5937499999908601E-01     0.0000000000000000E+00 
    1.0000000000000000E+00     3.7499999999903999E-01     0.0000000000000000E+00 
    1.0000000000000000E+00     3.9062499999899403E-01     0.0000000000000000E+00 
    1.0000000000000000E+00     4.0624999999894801E-01     0.0000000000000000E+00 
    1.0000000000000000E+00     4.2187499999890188E-01     0.0000000000000000E+00 
    1.0000000000000000E+00     4.3749999999885592E-01     0.0000000000000000E+00 
    1.0000000000000000E+00     4.5312499999880979E-01     0.0000000000000000E+00 
    1.0000000000000000E+00     4.6874999999876382E-01     0.0000000000000000E+00 
    1.0000000000000000E+00     4.8437499999871780E-01     0.0000000000000000E+00 
    1.0000000000000000E+00     4.9999999999867167E-01     0.0000000000000000E+00 
    1.0000000000000000E+00     5.1562499999871325E-01     0.0000000000000000E+00 
    1.0000000000000000E+00     5.3124999999875477E-01     0.0000000000000000E+00 
    1.0000000000000000E+00     5.4687499999879630E-01     0.0000000000000000E+00 
    1.0000000000000000E+00     5.6249999999883782E-01     0.0000000000000000E+00 
    1.0000000000000000E+00     5.7812499999887934E-01     0.0000000000000000E+00 
    1.0000000000000000E+00     5.9374999999892086E-01     0.0000000000000000E+00 
    1.0000000000000000E+00     6.0937499999896239E-01     0.0000000000000000E+00 
    1.0000000000000000E+00     6.2499999999900380E-01     0.0000000000000000E+00 
    1.0000000000000000E+00     6.4062499999904521E-01     0.0000000000000000E+00 
    1.0000000000000000E+00     6.5624999999908673E-01     0.0000000000000000E+00 
    1.0000000000000000E+00     6.7187499999912825E-01     0.0000000000000000E+00 
    1.0000000000000000E+00     6.8749999999916978E-01     0.0000000000000000E+00 
    1.0000000000000000E+00     7.0312499999921130E-01     0.0000000000000000E+00 
    1.0000000000000000E+00     7.1874999999925282E-01     0.0000000000000000E+00 
    1.0000000000000000E+00     7.3437499999929434E-01     0.0000000000000000E+00 
    1.0000000000000000E+00     7.4999999999933586E-01     0.0000000000000000E+00 
    1.0000000000000000E+00     7.6562499999937739E-01     0.0000000000000000E+00 
    1.0000000000000000E+00     7.8124999999941891E-01     0.0000000000000000E+00 
    1.0000000000000000E+00     7.9687499999946043E-01     0.0000000000000000E+00 
    1.0000000000000000E+00     8.1249999999950195E-01     0.0000000000000000E+00 
    1.0000000000000000E+00     8.2812499999954348E-01     0.0000000000000000E+00 
[...]
CELL_DATA 6144 
SCALARS Pressure double 1 
LOOKUP_TABLE default 

    2.7985481287610305E+00 
    2.7011496694896180E+00 
    2.6858242813594937E+00 
    2.7049415091666060E+00 
    2.6462762629054710E+00 
    2.6112244512228378E+00 
    2.6267651187415262E+00 
    2.6581816487107082E+00 
    2.6463898627510827E+00 
    2.6564513229261708E+00 
    2.6289786836174369E+00 
    2.6110636321903851E+00 
    2.5935793365476276E+00 
    2.6085574046703237E+00 
    2.5926620966597076E+00 
    2.5824696290623277E+00 
    2.6098651930189702E+00 
    2.5947893400982873E+00 
    2.5832371650708827E+00 
    2.5940979517005234E+00 
    2.5720400557481904E+00 
    2.5832525175054264E+00 
    2.5732925601555854E+00 
    2.5604988765939991E+00 
    2.5717283429200579E+00 
    2.5686439936591414E+00 
    2.5547040327020900E+00 
    2.5521496324918811E+00 
    2.5613728965337836E+00 
    2.5504285835762652E+00 
    2.5419398692775985E+00 
    2.5503352045565064E+00 
    2.5354846605120573E+00 
    2.5427035034295891E+00 
    2.5328866521235609E+00 
    2.5204692854538520E+00 
    2.5116572521440399E+00 
    2.5238904109094631E+00 
    2.5166318859911692E+00 
    2.5068892589636382E+00 
    2.5315309185177126E+00 
    2.5360253569513973E+00 
    2.5223445018862969E+00 
    2.5214637979383405E+00 
    2.5026860156705761E+00 
    2.5123177794150497E+00 
    2.5104837951143439E+00 
    2.4975877253508023E+00 
    2.4963181045274627E+00 
    2.4955297149202011E+00 
    2.4847165518025358E+00 
    2.4819193562130910E+00 
    2.4922206976311561E+00 
    2.4863002240026986E+00 
    2.4773576943228952E+00 
    2.4823488617358471E+00 
    2.4691755801848094E+00 
    2.4755827853516803E+00 
    2.4677780480571063E+00 
    2.4568155236772076E+00 
    2.4500351867436443E+00 
    2.4608382459086990E+00 
    2.4556800459940886E+00 
    2.4470951236542939E+00 
    2.4690754251805673E+00 
    2.4754862403331090E+00 
    2.4634322272341094E+00 
    2.4608344338778805E+00 
    2.4444325714210575E+00 
    2.4530693552122189E+00 
    2.4526802653045259E+00 
    2.4411740347306701E+00 
    2.4386152386134783E+00 
    2.4380573677367225E+00 
    2.4298562588907919E+00 
    2.4285688736416935E+00 
    2.4357592508100852E+00 
    2.4313595670425450E+00 
    2.4241805299546710E+00 
    2.4288142967215465E+00 
    2.4201958944295594E+00 
    2.4237830220406220E+00 
    2.4186848802202761E+00 
    2.4136257650546367E+00 
    2.4101301447086954E+00 
    2.4150535259327452E+00 
    2.4124999751580054E+00 
    2.4086013264124713E+00 
    2.4196878466398255E+00 
    2.4238334745485877E+00 
    2.4168610855540771E+00 
    2.4157375950945630E+00 
    2.4069524437396774E+00 
    2.4115274558746371E+00 
    2.4110906634225251E+00 
    2.4053536966888878E+00 
    2.4044651847260154E+00 
    2.4041284773778169E+00 
    2.3999815188971585E+00 
    2.3989845665235570E+00 
    2.4030157416014593E+00 
    2.4010456369798807E+00 
    2.3972860344739990E+00 
    2.3992250717636825E+00 
    2.3937979725462708E+00 
    2.3964808202643231E+00 
    2.3933779088145535E+00 
    2.3885474744178152E+00 
    2.3853846474297860E+00 
    2.3904668967516107E+00 
    2.3883313492654343E+00 
    2.3841005539161086E+00 
    2.3941662550922129E+00 
    2.3969300858865386E+00 
    2.3920727200371834E+00 
    2.3906919921404994E+00 
    2.3830625205863014E+00 
    2.3872025913786605E+00 
    2.3874159591720669E+00 
    2.3817924557914938E+00 
    2.3789651957905780E+00 
    2.3789995363184309E+00 
    2.3738790776945540E+00 
    2.3721453515632427E+00 
    2.3780233880715764E+00 
    2.3759724204563071E+00 
    2.3708760857430522E+00 
    2.3728579968312360E+00 
    2.3656453848790266E+00 
    2.3692755080371026E+00 
    2.3653073637310555E+00 
    2.3586952236655629E+00 
    2.3544646426683955E+00 
    2.3616125242524162E+00 
    2.3589827898172677E+00 
    2.3529131200158315E+00 
    2.3668432813882161E+00 
    2.3712455504120777E+00 
    2.3647987274359625E+00 
    2.3623935987590454E+00 
    2.3518203410419178E+00 
    2.3576619990645376E+00 
    2.3583943570520369E+00 
    2.3506480715767180E+00 
    2.3457709972400593E+00 
    2.3458378072681998E+00 
    2.3388529067100494E+00 
    2.3366825944796554E+00 
    2.3447632417680091E+00 
    2.3424822189421763E+00 
    2.3353488160527398E+00 
    2.3378521539649522E+00 
    2.3282072628182888E+00 
    2.3329427584887501E+00 
    2.3279153782690707E+00 
    2.3195879830841672E+00 
    2.3147086277390172E+00 
    2.3235047180819852E+00 
    2.3203587007566049E+00 
    2.3131574670173229E+00 
    2.3304587548855951E+00 
    2.3365381690552924E+00 
    2.3282367002784352E+00 
    2.3249592131145671E+00 
    2.3120778655904548E+00 
    2.3191528453911663E+00 
    2.3202996153102822E+00 
    2.3110784325852465E+00 
    2.3050918126829569E+00 
    2.3051841117901106E+00 
    2.2977636311146346E+00 
    2.2957652915764366E+00 
    2.3040826985825258E+00 
    2.3015680402803214E+00 
    2.2937027566888810E+00 
    2.2968616590203577E+00 
    2.2871862564040280E+00 
    2.2917803959501741E+00 
    2.2868111226719834E+00 
    2.2793115863402993E+00 
    2.2748878469076956E+00 
    2.2826207226643662E+00 
    2.2791825397809715E+00 
    2.2730403903355718E+00 
    2.2889810242978830E+00 
    2.2951577085795560E+00 
    2.2867218534070330E+00 
    2.2837918109576232E+00 
    2.2718857785749931E+00 
    2.2781603407422750E+00 
    2.2792357162053629E+00 
    2.2712235167081087E+00 
    2.2668740809976944E+00 
    2.2667330044283918E+00 
    2.2609425546972894E+00 
    2.2596114922787698E+00 
    2.2657563245240873E+00 
    2.2636728315188908E+00 
    2.2574862853843962E+00 
    2.2602993744092266E+00 
    2.2529428155478151E+00 
    2.2563420453016323E+00 
    2.2524276521929103E+00 
    2.2469492323603051E+00 
    2.2436232936583629E+00 
    2.2492520417609887E+00 
    2.2469054987172346E+00 
    2.2423683704439132E+00 
    2.2539479224476162E+00 
    2.2585350609596206E+00 
    2.2522510107881719E+00 
    2.2501583843286492E+00 
    2.2414578088217518E+00 
    2.2461501721597759E+00 
    2.2467114811841364E+00 
    2.2407335948620393E+00 
    2.2375021486204494E+00 
    2.2373867267209753E+00 
    2.2328704096869640E+00 
    2.2318175591958704E+00 
    2.2366453468412253E+00 
    2.2350808931210127E+00 
    2.2304373145191416E+00 
    2.2324163672136619E+00 
    2.2266024024915829E+00 
    2.2293419333459075E+00 
    2.2263073593154004E+00 
    2.2217318774272901E+00 
    2.2189894515453679E+00 
    2.2237062399524308E+00 
    2.2218664755453688E+00 
    2.2180036523180799E+00 
    2.2275391125952382E+00 
    2.2311062531140706E+00 
    2.2261649569372346E+00 
    2.2244639987615860E+00 
    2.2172755870555751E+00 
    2.2212175127575859E+00 
    2.2216738799179279E+00 
    2.2165777762135868E+00 
    2.2138047742557174E+00 
    2.2137198014678772E+00 
    2.2097702836342163E+00 
    2.2088574662680629E+00 
    2.2130505823422753E+00 
    2.2115852121794553E+00 
    2.2075896058710009E+00 
    2.2093249221482649E+00 
    2.2044133616690629E+00 
    2.2067150771287438E+00 
    2.2041811034048475E+00 
    2.2003791315128094E+00 
    2.1980108334429138E+00 
    2.2019210322095417E+00 
    2.2000056505946812E+00 
    2.1968414835440364E+00 
    2.2050468652842126E+00 
    2.2080237083277900E+00 
    2.2035612621941025E+00 
    2.2022211319859015E+00 
    2.1960260425943874E+00 
    2.1992505393220805E+00 
    2.1995774799962553E+00 
    2.1952846502968790E+00 
    2.1936717051870289E+00 
    2.1934721073079633E+00 
    2.1903668357318935E+00 
    2.1896551769918768E+00 
    2.1927637055091642E+00 
    2.1913644417373548E+00 
    2.1883379665798470E+00 
    2.1898566051214909E+00 
    2.1859838882131939E+00 
    2.1878285727470406E+00 
    2.1855504884137207E+00 
    2.1824284944188928E+00 
    2.1803109620161742E+00 
    2.1835709071699827E+00 
    2.1821422065818443E+00 
    2.1794155143776601E+00 
    2.1860845192865876E+00 
    2.1882598827290298E+00 
    2.1846261728560408E+00 
    2.1837435279950488E+00 
    2.1786206498353660E+00 
    2.1813870763139152E+00 
    2.1813555674535352E+00 
    2.1776330974227660E+00 
    2.1760763794375211E+00 
    2.1759699631124447E+00 
    2.1724536088895632E+00 
    2.1715720268387337E+00 
    2.1752492292223393E+00 
    2.1737815327370513E+00 
    2.1703503536625703E+00 
    2.1718418715481898E+00 
    2.1678392112930092E+00 
    2.1697347559900053E+00 
    2.1674444424004311E+00 
    2.1642196068850872E+00 
    2.1621014201945923E+00 
    2.1654107970708529E+00 
    2.1637614642896503E+00 
    2.1610058404948362E+00 
    2.1679833250455296E+00 
    2.1705027249649107E+00 
    2.1664154460875484E+00 
    2.1654263733427381E+00 
    2.1601252483118314E+00 
    2.1628445327711447E+00 
    2.1628578954568862E+00 
    2.1590352252229841E+00 
    2.1581782158109091E+00 
    2.1580710895702233E+00 
    2.1552150207405596E+00 
    2.1543807716656773E+00 
    2.1572739159580356E+00 
    2.1557036138881287E+00 
    2.1531796212032677E+00 
    2.1545015300204557E+00 
    2.1509853324600874E+00 
    2.1527046547335207E+00 
    2.1506093145727019E+00 
    2.1475948519971162E+00 
    2.1456484245816512E+00 
    2.1486650473339908E+00 
    2.1471579810048489E+00 
    2.1446548491995236E+00 
    2.1508517932267743E+00 
    2.1526289412464048E+00 
    2.1491288784857612E+00 
    2.1484631773010321E+00 
    2.1437467330646931E+00 
    2.1462179579219973E+00 
    2.1459611615911767E+00 
    2.1424736295630074E+00 
    2.1420940909299739E+00 
    2.1418781124234552E+00 
    2.1393286470770070E+00 
    2.1387567057574066E+00 
    2.1410653178533066E+00 
    2.1395255992438513E+00 
    2.1374838834355505E+00 
    2.1387075851561730E+00 
    2.1359896391705768E+00 
    2.1372887479669118E+00 
    2.1356201641051857E+00 
    2.1335273408587487E+00 
    2.1321258037321158E+00 
    2.1340654401115349E+00 
    2.1326501208080262E+00 
    2.1311232306255001E+00 
    2.1355231672718507E+00 
    2.1367149942805606E+00 
    2.1337344242093548E+00 
    2.1335329155979861E+00 
    2.1301686521106196E+00 
    2.1317642266543677E+00 
    2.1312547178995325E+00 
    2.1288870330418161E+00 
    2.1299978646487965E+00 
    2.1296096712783190E+00 
    2.1283765111807118E+00 
    2.1283412536435011E+00 
    2.1288109625610092E+00 
    2.1274772574794119E+00 
    2.1269825826311912E+00 
    2.1279051824432473E+00 
    2.1271989838380359E+00 
    2.1274937603155943E+00 
    2.1267008833825871E+00 
    2.1264784573456494E+00 
    2.1262157160096513E+00 
    2.1260101467881793E+00 
    2.1252659064617436E+00 
    2.1255514437100400E+00 
    2.1258631891496793E+00 
    2.1255563290308377E+00 
    2.1241932402989163E+00 
    2.1249644608733131E+00 
    2.1245097608105254E+00 
    2.1244949799587713E+00 
    2.1234058540692935E+00 
    2.1230588470358631E+00 
    2.5731314191889250E+00 
    2.5545365859906131E+00 
    2.5556790278931691E+00 
    2.5692563483397519E+00 
    2.5386136904304304E+00 
    2.5244454847089148E+00 
    2.5357973476331472E+00 
    2.5442816881794803E+00 
    2.5623279649377211E+00 
    2.5517380963993577E+00 
    2.5436610842502883E+00 
    2.5513802214268142E+00 
    2.5372476652000304E+00 
    2.5341524530422794E+00 
    2.5242618638542336E+00 
    2.5240385085825410E+00 
    2.5268965714635958E+00 
    2.5154243562597189E+00 
    2.5099891089922708E+00 
    2.5189329194784187E+00 
    2.5126786326864803E+00 
    2.5147544133149324E+00 
    2.5053201693048996E+00 
    2.5000567961272746E+00 
    2.5307961642790242E+00 
    2.5202132672188640E+00 
    2.5140900372877613E+00 
    2.5193366618748096E+00 
    2.5098300541898309E+00 
    2.4978362147518314E+00 
    2.4982745341512103E+00 
    2.5070491092846932E+00 
    2.5085770371981226E+00 
    2.5067068821149885E+00 
    2.4977181699158399E+00 
    2.4962559585841340E+00 
    2.4846661508351842E+00 
    2.4883394338872442E+00 
    2.4799417972728075E+00 
    2.4754167826962190E+00 
    2.4888336239396329E+00 
    2.4862392058006897E+00 
    2.4764504139398693E+00 
    2.4801137913316240E+00 
    2.4675855622565752E+00 
    2.4734927526657668E+00 
    2.4680608505108448E+00 
    2.4588678175901970E+00 
    2.4749422875363196E+00 
    2.4684861330019543E+00 
    2.4610046209175382E+00 
    2.4632459012463981E+00 
    2.4613010762431871E+00 
    2.4519817518503251E+00 
    2.4482062301299576E+00 
    2.4555758175346702E+00 
    2.4527765781626321E+00 
    2.4532167148763531E+00 
    2.4448649341648507E+00 
    2.4412242477171460E+00 
    2.4316912614631256E+00 
    2.4368464166067616E+00 
    2.4296987069043765E+00 
    2.4249492394580168E+00 
    2.4395654907932114E+00 
    2.4402524090679654E+00 
    2.4290801288713624E+00 
    2.4312287790031992E+00 
    2.4193267799631695E+00 
    2.4249078438649661E+00 
    2.4206198293333832E+00 
    2.4135330222783757E+00 
    2.4241485458731842E+00 
    2.4197048371014196E+00 
    2.4152760400563995E+00 
    2.4174294399775387E+00 
    2.4151327721937288E+00 
    2.4096742210724718E+00 
    2.4076740338156575E+00 
    2.4130501671824018E+00 
    2.4109780038209192E+00 
    2.4113255184603184E+00 
    2.4066631500568243E+00 
    2.4052468393678712E+00 
    2.4007071559819049E+00 
    2.4025395176238700E+00 
    2.3989285745765763E+00 
    2.3970895093316709E+00 
    2.4036254324366886E+00 
    2.4033982879048876E+00 
    2.3981234764985615E+00 
    2.3996364435461079E+00 
    2.3937135126430844E+00 
    2.3964107830675871E+00 
    2.3940984119630428E+00 
    2.3901923254062987E+00 
    2.3968562166766150E+00 
    2.3943482640840870E+00 
    2.3913836017892249E+00 
    2.3921597461215653E+00 
    2.3914161267734291E+00 
    2.3876415936974333E+00 
    2.3862430430952122E+00 
    2.3891135022992316E+00 
    2.3878425556784868E+00 
    2.3882245212984547E+00 
    2.3847807085119044E+00 
    2.3826724987853258E+00 
    2.3780359475388981E+00 
    2.3811139082948509E+00 
    2.3778263372488255E+00 
    2.3746410306744394E+00 
    2.3824926096439567E+00 
    2.3828218042575977E+00 
    2.3781614177323114E+00 
    2.3786795743908580E+00 
    2.3718654208043266E+00 
    2.3752964827712315E+00 
    2.3737778590170278E+00 
    2.3686436716906321E+00 
    2.3722471934355620E+00 
    2.3703306443839627E+00 
    2.3657393329563741E+00 
    2.3656699534892827E+00 
    2.3677348354641854E+00 
    2.3640427641116046E+00 
    2.3604742956753908E+00 
    2.3635083633327518E+00 
    2.3597262322695891E+00 
    2.3612494606053844E+00 
    2.3568617458482448E+00 
    2.3526732576570017E+00 
    2.3468773545697434E+00 
    2.3524141512752861E+00 
    2.3486019614399121E+00 
    2.3433848123236167E+00 
    2.3558830364045193E+00 
    2.3584059243981166E+00 
    2.3518493850012674E+00 
    2.3510099915719702E+00 
    2.3407513412479011E+00 
    2.3462291356720630E+00 
    2.3455037396057565E+00 
    2.3379531642198845E+00 
    2.3386339828188869E+00 
    2.3369199777773786E+00 
    2.3305007876067378E+00 
    2.3299556741121541E+00 
    2.3343569637458557E+00 
    2.3305190064161199E+00 
    2.3246242770040944E+00 
    2.3283657466331262E+00 
    2.3223300571258298E+00 
    2.3247518015075959E+00 
    2.3193488672488969E+00 
    2.3137517536182632E+00 
    2.3070623925485330E+00 
    2.3141775319355355E+00 
    2.3098404575594009E+00 
    2.3033883205558503E+00 
    2.3193139879872522E+00 
    2.3237816946182326E+00 
    2.3153784268516362E+00 
    2.3135414818663618E+00 
    2.3007469181176021E+00 
    2.3076147571043570E+00 
    2.3074204317541147E+00 
    2.2982691325618041E+00 
    2.2977131992377613E+00 
    2.2959210222221316E+00 
    2.2889150377061362E+00 
    2.2885943207856339E+00 
    2.2933655437896991E+00 
    2.2894991523700625E+00 
    2.2829223990421244E+00 
    2.2872000810753361E+00 
    2.2809770783884589E+00 
    2.2833006336281345E+00 
    2.2778674914530281E+00 
    2.2731322387748611E+00 
    2.2672341359223220E+00 
    2.2729642505551615E+00 
    2.2688366023446944E+00 
    2.2638342143753158E+00 
    2.2778218719925523E+00 
    2.2824868260564104E+00 
    2.2741375718742574E+00 
    2.2724881714946923E+00 
    2.2613690139728964E+00 
    2.2670856753738229E+00 
    2.2669692536323534E+00 
    2.2595410331019310E+00 
    2.2603097261250062E+00 
    2.2585228351087712E+00 
    2.2535337411966236E+00 
    2.2535856351950661E+00 
    2.2562769462587107E+00 
    2.2530569175877893E+00 
    2.2484190529554828E+00 
    2.2521217209675308E+00 
    2.2478171126744231E+00 
    2.2493470376425209E+00 
    2.2451615238378952E+00 
    2.2419779609825832E+00 
    2.2375677725243732E+00 
    2.2414194464759092E+00 
    2.2384703164315312E+00 
    2.2349923022932323E+00 
    2.2445724483934555E+00 
    2.2475672222915675E+00 
    2.2416015360314101E+00 
    2.2407478631683047E+00 
    2.2329329009903667E+00 
    2.2370247424380749E+00 
    2.2365380246918343E+00 
    2.2311066440665281E+00 
    2.2323653461311745E+00 
    2.2309502416833804E+00 
    2.2271531184224980E+00 
    2.2271386154053530E+00 
    2.2290803477684809E+00 
    2.2263771313573413E+00 
    2.2230533930635135E+00 
    2.2258413116324847E+00 
    2.2226135980383970E+00 
    2.2238350008901859E+00 
    2.2204320226134491E+00 
    2.2176755790476514E+00 
    2.2137495683995736E+00 
    2.2170934463820959E+00 
    2.2143886358564755E+00 
    2.2112862707048975E+00 
    2.2195847500487491E+00 
    2.2218225620118845E+00 
    2.2167452252036695E+00 
    2.2161098281632996E+00 
    2.2092762660390459E+00 
    2.2128222258084764E+00 
    2.2122051294372520E+00 
    2.2071810830508158E+00 
    2.2090447484479485E+00 
    2.2077273076437804E+00 
    2.2042237088898902E+00 
    2.2042802963612105E+00 
    2.2057810122369736E+00 
    2.2028836637472331E+00 
    2.2000430848525729E+00 
    2.2027879370257630E+00 
    2.2001999870580304E+00 
    2.2010350024243914E+00 
    2.1979175543053637E+00 
    2.1958896204523550E+00 
    2.1923865834460665E+00 
    2.1949350456922843E+00 
    2.1923565318567331E+00 
    2.1898986267447285E+00 
    2.1968401559909387E+00 
    2.1985193334978290E+00 
    2.1938727462657521E+00 
    2.1936479717931787E+00 
    2.1877660906706713E+00 
    2.1907223317881299E+00 
    2.1897943275569500E+00 
    2.1854724350502424E+00 
    2.1886603540148064E+00 
    2.1870511952748499E+00 
    2.1843523688206989E+00 
    2.1848136857050542E+00 
    2.1850208115585033E+00 
    2.1821736577450150E+00 
    2.1804289252747249E+00 
    2.1828589053939327E+00 
    2.1815230565680923E+00 
    2.1818374368276414E+00 
    2.1791074564807027E+00 
    2.1778133348662139E+00 
    2.1744555704848643E+00 
    2.1762419878302817E+00 
    2.1737464483301450E+00 
    2.1718803186352620E+00 
    2.1773490947310750E+00 
    2.1780908873357867E+00 
    2.1740677793590706E+00 
    2.1744343996225570E+00 
    2.1696183847017925E+00 
    2.1719609257290711E+00 
    2.1706474541690044E+00 
    2.1670317967382928E+00 
    2.1709854531183144E+00 
    2.1693606140852602E+00 
    2.1663642563435248E+00 
    2.1666571455829544E+00 
    2.1671523805300996E+00 
    2.1640583710865844E+00 
    2.1620120745693017E+00 
    2.1646436523332029E+00 
    2.1630210113205677E+00 
    2.1633536548963259E+00 
    2.1604907202227515E+00 
    2.1591590288903770E+00 
    2.1557903263721157E+00 
    2.1575798605829046E+00 
    2.1549714420485415E+00 
    2.1530438976064423E+00 
    2.1587683182110569E+00 
    2.1597372454955330E+00 
    2.1552561439524003E+00 
    2.1556196657074307E+00 
    2.1506315890806365E+00 
    2.1530111907830807E+00 
    2.1515927431263737E+00 
    2.1478319758592646E+00 
    2.1525462462674123E+00 
    2.1506746617379520E+00 
    2.1483127803515023E+00 
    2.1489496764865574E+00 
    2.1483896089576753E+00 
    2.1452943286135633E+00 
    2.1442325000151334E+00 
    2.1465560734423339E+00 
    2.1458625796389734E+00 
    2.1458978865446348E+00 
    2.1432662379712402E+00 
    2.1422922780861762E+00 
    2.1390798560450350E+00 
    2.1404212576204928E+00 
    2.1378873823670506E+00 