# vtk DataFile Version 2.0
Pressure Field Data 
ASCII 
DATASET UNSTRUCTURED_GRID 

POINTS 6273 double 

    0.0000000000000000E+00     0.0000000000000000E+00     0.0000000000000000E+00 
    1.0000000000000000E+00     0.0000000000000000E+00     0.0000000000000000E+00 
    1.0000000000000000E+00     1.0000000000000000E+00     0.0000000000000000E+00 
    0.0000000000000000E+00     1.0000000000000000E+00     0.0000000000000000E+00 
    1.5624999999970249E-02     0.0000000000000000E+00     0.0000000000000000E+00 
    3.1249999999940652E-02     0.0000000000000000E+00     0.0000000000000000E+00 
    4.6874999999905617E-02     0.0000000000000000E+00     0.0000000000000000E+00 
    6.2499999999870597E-02     0.0000000000000000E+00     0.0000000000000000E+00 
    7.8124999999846401E-02     0.0000000000000000E+00     0.0000000000000000E+00 
    9.3749999999822212E-02     0.0000000000000000E+00     0.0000000000000000E+00 
    1.0937499999979799E-01     0.0000000000000000E+00     0.0000000000000000E+00 
    1.2499999999977381E-01     0.0000000000000000E+00     0.0000000000000000E+00 
    1.4062499999972811E-01     0.0000000000000000E+00     0.0000000000000000E+00 
    1.5624999999968239E-01     0.0000000000000000E+00     0.0000000000000000E+00 
    1.7187499999963671E-01     0.0000000000000000E+00     0.0000000000000000E+00 
    1.8749999999959110E-01     0.0000000000000000E+00     0.0000000000000000E+00 
    2.0312499999954539E-01     0.0000000000000000E+00     0.0000000000000000E+00 
    2.1874999999949971E-01     0.0000000000000000E+00     0.0000000000000000E+00 
    2.3437499999945391E-01     0.0000000000000000E+00     0.0000000000000000E+00 
    2.4999999999940831E-01     0.0000000000000000E+00     0.0000000000000000E+00 
    2.6562499999936218E-01     0.0000000000000000E+00     0.0000000000000000E+00 
    2.8124999999931621E-01     0.0000000000000000E+00     0.0000000000000000E+00 
    2.9687499999927008E-01     0.0000000000000000E+00     0.0000000000000000E+00 
    3.1249999999922412E-01     0.0000000000000000E+00     0.0000000000000000E+00 
    3.2812499999917810E-01     0.0000000000000000E+00     0.0000000000000000E+00 
    3.4374999999913203E-01     0.0000000000000000E+00     0.0000000000000000E+00 
    3.5937499999908601E-01     0.0000000000000000E+00     0.0000000000000000E+00 
    3.7499999999903999E-01     0.0000000000000000E+00     0.0000000000000000E+00 
    3.9062499999899403E-01     0.0000000000000000E+00     0.0000000000000000E+00 
    4.0624999999894801E-01     0.0000000000000000E+00     0.0000000000000000E+00 
    4.2187499999890188E-01     0.0000000000000000E+00     0.0000000000000000E+00 
    4.3749999999885592E-01     0.0000000000000000E+00     0.0000000000000000E+00 
    4.5312499999880979E-01     0.0000000000000000E+00     0.0000000000000000E+00 
    4.6874999999876382E-01     0.0000000000000000E+00     0.0000000000000000E+00 
    4.8437499999871780E-01     0.0000000000000000E+00     0.0000000000000000E+00 
    4.9999999999867167E-01     0.0000000000000000E+00     0.0000000000000000E+00 
    5.1562499999871325E-01     0.0000000000000000E+00     0.0000000000000000E+00 
    5.3124999999875477E-01     0.0000000000000000E+00     0.0000000000000000E+00 
    5.4687499999879630E-01     0.0000000000000000E+00     0.0000000000000000E+00 
    5.6249999999883782E-01     0.0000000000000000E+00     0.0000000000000000E+00 
    5.7812499999887934E-01     0.0000000000000000E+00     0.0000000000000000E+00 
    5.9374999999892086E-01     0.0000000000000000E+00     0.0000000000000000E+00 
    6.0937499999896239E-01     0.0000000000000000E+00     0.0000000000000000E+00 
    6.2499999999900380E-01     0.0000000000000000E+00     0.0000000000000000E+00 
    6.4062499999904521E-01     0.0000000000000000E+00     0.0000000000000000E+00 
    6.5624999999908673E-01     0.0000000000000000E+00     0.0000000000000000E+00 
    6.7187499999912825E-01     0.0000000000000000E+00     0.0000000000000000E+00 
    6.8749999999916978E-01     0.0000000000000000E+00     0.0000000000000000E+00 
    7.0312499999921130E-01     0.0000000000000000E+00     0.0000000000000000E+00 
    7.1874999999925282E-01     0.0000000000000000E+00     0.0000000000000000E+00 
    7.3437499999929434E-01     0.0000000000000000E+00     0.0000000000000000E+00 
    7.4999999999933586E-01     0.0000000000000000E+00     0.0000000000000000E+00 
    7.6562499999937739E-01     0.0000000000000000E+00     0.0000000000000000E+00 
    7.8124999999941891E-01     0.0000000000000000E+00     0.0000000000000000E+00 
    7.9687499999946043E-01     0.0000000000000000E+00     0.0000000000000000E+00 
    8.1249999999950195E-01     0.0000000000000000E+00     0.0000000000000000E+00 
    8.2812499999954348E-01     0.0000000000000000E+00     0.0000000000000000E+00 
    8.4374999999958500E-01     0.0000000000000000E+00     0.0000000000000000E+00 
    8.5937499999962652E-01     0.0000000000000000E+00     0.0000000000000000E+00 
    8.7499999999966793E-01     0.0000000000000000E+00     0.0000000000000000E+00 
    8.9062499999970934E-01     0.0000000000000000E+00     0.0000000000000000E+00 
    9.0624999999975087E-01     0.0000000000000000E+00     0.0000000000000000E+00 
    9.2187499999979239E-01     0.0000000000000000E+00     0.0000000000000000E+00 
    9.3749999999983391E-01     0.0000000000000000E+00     0.0000000000000000E+00 
    9.5312499999987543E-01     0.0000000000000000E+00     0.0000000000000000E+00 
    9.6874999999991696E-01     0.0000000000000000E+00     0.0000000000000000E+00 
    9.8437499999995848E-01     0.0000000000000000E+00     0.0000000000000000E+00 
    1.0000000000000000E+00     1.5624999999970249E-02     0.0000000000000000E+00 
    1.0000000000000000E+00     3.1249999999940652E-02     0.0000000000000000E+00 
    1.0000000000000000E+00     4.6874999999905617E-02     0.0000000000000000E+00 
    1.0000000000000000E+00     6.2499999999870597E-02     0.0000000000000000E+00 
    1.0000000000000000E+00     7.8124999999846401E-02     0.0000000000000000E+00 
    1.0000000000000000E+00     9.3749999999822212E-02     0.0000000000000000E+00 
    1.0000000000000000E+00     1.0937499999979799E-01     0.0000000000000000E+00 
    1.0000000000000000E+00     1.2499999999977381E-01     0.0000000000000000E+00 
    1.0000000000000000E+00     1.4062499999972811E-01     0.0000000000000000E+00 
    1.0000000000000000E+00     1.5624999999968239E-01     0.0000000000000000E+00 
    1.0000000000000000E+00     1.7187499999963671E-01     0.0000000000000000E+00 
    1.0000000000000000E+00     1.8749999999959110E-01     0.0000000000000000E+00 
    1.0000000000000000E+00     2.0312499999954539E-01     0.0000000000000000E+00 
    1.0000000000000000E+00     2.1874999999949971E-01     0.0000000000000000E+00 
    1.0000000000000000E+00     2.3437499999945391E-01     0.0000000000000000E+00 
    1.0000000000000000E+00     2.4999999999940831E-01     0.0000000000000000E+00 
    1.0000000000000000E+00     2.6562499999936218E-01     0.0000000000000000E+00 
    1.0000000000000000E+00     2.8124999999931621E-01     0.0000000000000000E+00 
    1.0000000000000000E+00     2.9687499999927008E-01     0.0000000000000000E+00 
    1.0000000000000000E+00     3.1249999999922412E-01     0.0000000000000000E+00 
    1.0000000000000000E+00     3.2812499999917810E-01     0.0000000000000000E+00 
    1.0000000000000000E+00     3.4374999999913203E-01     0.0000000000000000E+00 
    1.0000000000000000E+00     3.5937499999908601E-01     0.0000000000000000E+00 
    1.0000000000000000E+00     3.7499999999903999E-01     0.0000000000000000E+00 
    1.0000000000000000E+00     3.9062499999899403E-01     0.0000000000000000E+00 
    1.0000000000000000E+00     4.0624999999894801E-01     0.0000000000000000E+00 
    1.0000000000000000E+00     4.2187499999890188E-01     0.0000000000000000E+00 
    1.0000000000000000E+00     4.3749999999885592E-01     0.0000000000000000E+00 
    1.0000000000000000E+00     4.5312499999880979E-01     0.0000000000000000E+00 
    1.0000000000000000E+00     4.6874999999876382E-01     0.0000000000000000E+00 
    1.0000000000000000E+00     4.8437499999871780E-01     0.0000000000000000E+00 
    1.0000000000000000E+00     4.9999999999867167E-01     0.0000000000000000E+00 
    1.0000000000000000E+00     5.1562499999871325E-01     0.0000000000000000E+00 
    1.0000000000000000E+00     5.3124999999875477E-01     0.0000000000000000E+00 
    1.0000000000000000E+00     5.4687499999879630E-01     0.0000000000000000E+00 
    1.0000000000000000E+00     5.6249999999883782E-01     0.0000000000000000E+00 
    1.0000000000000000E+00     5.7812499999887934E-01     0.0000000000000000E+00 
    1.0000000000000000E+00     5.9374999999892086E-01     0.0000000000000000E+00 
    1.0000000000000000E+00     6.0937499999896239E-01     0.0000000000000000E+00 
    1.0000000000000000E+00     6.2499999999900380E-01     0.0000000000000000E+00 
    1.0000000000000000E+00     6.4062499999904521E-01     0.0000000000000000E+00 
    1.0000000000000000E+00     6.5624999999908673E-01     0.0000000000000000E+00 
    1.0000000000000000E+00     6.7187499999912825E-01     0.0000000000000000E+00 
    1.0000000000000000E+00     6.8749999999916978E-01     0.0000000000000000E+00 
    1.0000000000000000E+00     7.0312499999921130E-01     0.0000000000000000E+00 
    1.0000000000000000E+00     7.1874999999925282E-01     0.0000000000000000E+00 
    1.0000000000000000E+00     7.3437499999929434E-01     0.0000000000000000E+00 
    1.0000000000000000E+00     7.4999999999933586E-01     0.0000000000000000E+00 
    1.0000000000000000E+00     7.6562499999937739E-01     0.0000000000000000E+00 
    1.0000000000000000E+00     7.8124999999941891E-01     0.0000000000000000E+00 
    1.0000000000000000E+00     7.9687499999946043E-01     0.0000000000000000E+00 
    1.0000000000000000E+00     8.1249999999950195E-01     0.0000000000000000E+00 
    1.0000000000000000E+00     8.2812499999954348E-01     0.0000000000000000E+00 
[...]
CELL_DATA 6144 
SCALARS Pressure double 1 
LOOKUP_TABLE default 

    2.7583615763915104E+00 
    2.6609831279137621E+00 
    2.6456606876171200E+00 
    2.6647420636865609E+00 
    2.6061068575837951E+00 
    2.5710572980371897E+00 
    2.5866121551762666E+00 
    2.6179858878045148E+00 
    2.6062048292045215E+00 
    2.6162638974424373E+00 
    2.5887992102950257E+00 
    2.5708719184856221E+00 
    2.5533850900700799E+00 
    2.5683729723287638E+00 
    2.5524774321195172E+00 
    2.5422700017870170E+00 
    2.5696904463426486E+00 
    2.5546138033400605E+00 
    2.5430574026161006E+00 
    2.5539079068932535E+00 
    2.5318514934159433E+00 
    2.5430598445654300E+00 
    2.5331076521375602E+00 
    2.5203163066214405E+00 
    2.5315255255700042E+00 
    2.5284480742117852E+00 
    2.5145249910962071E+00 
    2.5119658446575412E+00 
    2.5211851387942166E+00 
    2.5102545165593728E+00 
    2.5017859043361304E+00 
    2.5101568990499432E+00 
    2.4953462889333151E+00 
    2.5025406483771668E+00 
    2.4927522417938932E+00 
    2.4803836516654800E+00 
    2.4716041001861231E+00 
    2.4837820999721738E+00 
    2.4765497646840648E+00 
    2.4668482008164521E+00 
    2.4913981040335607E+00 
    2.4958813836542331E+00 
    2.4822394670287768E+00 
    2.4813610133557962E+00 
    2.4626669833965722E+00 
    2.4722506545480210E+00 
    2.4704243113499222E+00 
    2.4575945035754385E+00 
    2.4563384339588437E+00 
    2.4555553871506763E+00 
    2.4448190627059416E+00 
    2.4420361815132434E+00 
    2.4522660995375860E+00 
    2.4463824285726639E+00 
    2.4375137348481930E+00 
    2.4424634248512169E+00 
    2.4293958313211248E+00 
    2.4357485677657484E+00 
    2.4280097253503441E+00 
    2.4171405408553972E+00 
    2.4104170199361521E+00 
    2.4211277630076351E+00 
    2.4160185745223970E+00 
    2.4075050426360525E+00 
    2.4292955533315994E+00 
    2.4356497419934495E+00 
    2.4237014807654784E+00 
    2.4211252354085389E+00 
    2.4048689610856813E+00 
    2.4134266245969385E+00 
    2.4130461482642840E+00 
    2.4016338347005766E+00 
    2.3990844428553153E+00 
    2.3985410322382710E+00 
    2.3904010435951708E+00 
    2.3891226084630373E+00 
    2.3962610518555780E+00 
    2.3918864431792715E+00 
    2.3847716131773864E+00 
    2.3893541697633509E+00 
    2.3808513049867268E+00 
    2.3843831763435865E+00 
    2.3793369699970341E+00 
    2.3743835816227863E+00 
    2.3709465304161901E+00 
    2.3757515712305461E+00 
    2.3732332893845189E+00 
    2.3694331266108155E+00 
    2.3803070838580687E+00 
    2.3844040953922860E+00 
    2.3775073500007649E+00 
    2.3764184646878461E+00 
    2.3678058654781662E+00 
    2.3722898211071182E+00 
    2.3718652019540558E+00 
    2.3662510245381032E+00 
    2.3653872235556168E+00 
    2.3650551423438184E+00 
    2.3610013727265629E+00 
    2.3600267946037596E+00 
    2.3639656572098269E+00 
    2.3620421544190648E+00 
    2.3583685950817297E+00 
    2.3602568940962052E+00 
    2.3549634486324993E+00 
    2.3575835277638721E+00 
    2.3545574719298981E+00 
    2.3498334217776131E+00 
    2.3467417679833908E+00 
    2.3517113148182607E+00 
    2.3496217962213000E+00 
    2.3454882713507423E+00 
    2.3553174341525835E+00 
    2.3580147512588652E+00 
    2.3532698259946132E+00 
    2.3519206129604355E+00 
    2.3444716933183103E+00 
    2.3485106600874386E+00 
    2.3487182773063036E+00 
    2.3432231633566047E+00 
    2.3404719023211875E+00 
    2.3405091322712228E+00 
    2.3355081903761148E+00 
    2.3338052595889147E+00 
    2.3395484901996184E+00 
    2.3375361536172932E+00 
    2.3325673064993238E+00 
    2.3344976177981143E+00 
    2.3274560307273515E+00 
    2.3310031628147527E+00 
    2.3271254960047858E+00 
    2.3206582438126335E+00 
    2.3165237728207169E+00 
    2.3235078623759136E+00 
    2.3209338634193104E+00 
    2.3150105826856020E+00 
    2.3286129983288211E+00 
    2.3329090635540748E+00 
    2.3265974675011818E+00 
    2.3242555689165263E+00 
    2.3139309005592734E+00 
    2.3196291738498478E+00 
    2.3203327348363771E+00 
    2.3127634026792241E+00 
    2.3080311046545576E+00 
    2.3081035731435833E+00 
    2.3012745372376382E+00 
    2.2991368616603505E+00 
    2.3070416600637298E+00 
    2.3047945564536918E+00 
    2.2978380266013261E+00 
    2.3002747093244373E+00 
    2.2908493079088310E+00 
    2.2954860030595379E+00 
    2.2905701456627052E+00 
    2.2824106398279334E+00 
    2.2776418130183935E+00 
    2.2862550009179947E+00 
    2.2831773475900397E+00 
    2.2761347559333669E+00 
    2.2930370644426659E+00 
    2.2989710346048731E+00 
    2.2908515139640322E+00 
    2.2876570157399185E+00 
    2.2750715990695944E+00 
    2.2819827701247055E+00 
    2.2830900870635165E+00 
    2.2740769490893507E+00 
    2.2682384491787935E+00 
    2.2683350513321079E+00 
    2.2610762039310770E+00 
    2.2591114978161748E+00 
    2.2672530616783977E+00 
    2.2647821549098452E+00 
    2.2570966927848310E+00 
    2.2601854718042955E+00 
    2.2507160258817240E+00 
    2.2552169893711844E+00 
    2.2503466560089795E+00 
    2.2430063250413275E+00 
    2.2386971005862097E+00 
    2.2462429851321808E+00 
    2.2428833177334915E+00 
    2.2369222842731986E+00 
    2.2524571648657377E+00 
    2.2584928368106456E+00 
    2.2502232592718472E+00 
    2.2473746088703597E+00 
    2.2357951778560605E+00 
    2.2418884371922827E+00 
    2.2429133382300854E+00 
    2.2351309300300906E+00 
    2.2309695099406435E+00 
    2.2308317669196196E+00 
    2.2252640649912219E+00 
    2.2240040833543553E+00 
    2.2298886573045120E+00 
    2.2278616044717166E+00 
    2.2219199024552116E+00 
    2.2246437318089973E+00 
    2.2176090476901766E+00 
    2.2208582721083738E+00 
    2.2171028323509661E+00 
    2.2118791872322334E+00 
    2.2087020466722449E+00 
    2.2140549493581787E+00 
    2.2117970066206221E+00 
    2.2074882912160403E+00 
    2.2185167257433873E+00 
    2.2228854802741065E+00 
    2.2168501303572130E+00 
    2.2148833621772734E+00 
    2.2065891858260644E+00 
    2.2110516041112454E+00 
    2.2115510938771252E+00 
    2.2058555531312960E+00 
    2.2028722218344003E+00 
    2.2027514576826239E+00 
    2.1984544833395518E+00 
    2.1974543051290412E+00 
    2.2020229833826273E+00 
    2.2005055180687791E+00 
    2.1961226471659980E+00 
    2.1980060578098235E+00 
    2.1925080434056432E+00 
    2.1951010692975972E+00 
    2.1922222796991981E+00 
    2.1878888221863031E+00 
    2.1852784757728272E+00 
    2.1897439587816963E+00 
    2.1879849706443011E+00 
    2.1843246119698501E+00 
    2.1933539435512741E+00 
    2.1967025007801286E+00 
    2.1920136570971911E+00 
    2.1904267769727723E+00 
    2.1836120928785019E+00 
    2.1873437200806936E+00 
    2.1877509812153968E+00 
    2.1829088194913324E+00 
    2.1803384723596739E+00 
    2.1802532014098190E+00 
    2.1764891770860522E+00 
    2.1756111963786804E+00 
    2.1796000457733200E+00 
    2.1781759213829073E+00 
    2.1743916502276424E+00 
    2.1760423939620583E+00 
    2.1713703412221270E+00 
    2.1735644691860951E+00 
    2.1711410228469599E+00 
    2.1675101246580022E+00 
    2.1652437294807467E+00 
    2.1689712230022518E+00 
    2.1671264011937614E+00 
    2.1641105168901640E+00 
    2.1719402671311760E+00 
    2.1747505034667869E+00 
    2.1704724100349155E+00 
    2.1692209169305046E+00 
    2.1633110445497663E+00 
    2.1663812216542411E+00 
    2.1666572764841110E+00 
    2.1625568001099875E+00 
    2.1611027446199045E+00 
    2.1609031707012836E+00 
    2.1579523698421927E+00 
    2.1572807413536017E+00 
    2.1602107486021143E+00 
    2.1588463389039463E+00 
    2.1560022116675808E+00 
    2.1574529440571206E+00 
    2.1538052232374247E+00 
    2.1555398781955408E+00 
    2.1533845041169037E+00 
    2.1504618893673659E+00 
    2.1485398050533626E+00 
    2.1515133271807572E+00 
    2.1501439638113489E+00 
    2.1476561884270793E+00 
    2.1538463664291876E+00 
    2.1558605992759405E+00 
    2.1523929952824048E+00 
    2.1516067252847155E+00 
    2.1468219005774332E+00 
    2.1493674779469036E+00 
    2.1492709585846193E+00 
    2.1457886317655177E+00 
    2.1450185158986055E+00 
    2.1448419883279302E+00 
    2.1420010960480380E+00 
    2.1411836090755676E+00 
    2.1440842437790364E+00 
    2.1426898224083364E+00 
    2.1399662342237709E+00 
    2.1413693693263047E+00 
    2.1372970044080342E+00 
    2.1392573406448996E+00 
    2.1369385096465359E+00 
    2.1336950795219005E+00 
    2.1316317771118882E+00 
    2.1349222699849246E+00 
    2.1333054028969314E+00 
    2.1305960467738370E+00 
    2.1376836454639756E+00 
    2.1397997953859109E+00 
    2.1361385683204830E+00 
    2.1350949674935884E+00 
    2.1297660308441300E+00 
    2.1324571006135637E+00 
    2.1325226413871650E+00 
    2.1287369735604136E+00 
    2.1278248102394834E+00 
    2.1277321050514884E+00 
    2.1249524236611559E+00 
    2.1241408220151494E+00 
    2.1269771027285365E+00 
    2.1254725542942485E+00 
    2.1229934564357698E+00 
    2.1242758071522676E+00 
    2.1208424999280115E+00 
    2.1225189933227191E+00 
    2.1204868932947085E+00 
    2.1175551693065522E+00 
    2.1156719498054568E+00 
    2.1186090242314615E+00 
    2.1171578836855303E+00 
    2.1147258486674865E+00 
    2.1207454083975250E+00 
    2.1224875043583746E+00 
    2.1190962246066318E+00 
    2.1184368884629188E+00 
    2.1138620636746093E+00 
    2.1162619046796474E+00 
    2.1160289037364768E+00 
    2.1126515235981751E+00 
    2.1122287012288252E+00 
    2.1120292187414931E+00 
    2.1095525563696795E+00 
    2.1089959513972114E+00 
    2.1112575480706144E+00 
    2.1097869004744583E+00 
    2.1077870127279117E+00 
    2.1089660348481951E+00 
    2.1063116641658688E+00 
    2.1075797282752604E+00 
    2.1059669939573049E+00 
    2.1039273270563394E+00 
    2.1025764595629677E+00 
    2.1044718544876622E+00 
    2.1031135019204390E+00 
    2.1016270660457805E+00 
    2.1059022151724545E+00 
    2.1070804194193089E+00 
    2.1041998693086215E+00 
    2.1039845815603533E+00 
    2.1007246592442046E+00 
    2.1022753614314413E+00 
    2.1018040531254338E+00 
    2.0995152935800849E+00 
    2.1005221304315964E+00 
    2.1001569966940301E+00 
    2.0989599385119448E+00 
    2.0989265092647824E+00 
    2.0994037701094519E+00 
    2.0981401995153197E+00 
    2.0976372409881465E+00 
    2.0985235972829530E+00 
    2.0978228998606148E+00 
    2.0981134362872571E+00 
    2.0973518131571041E+00 
    2.0971333606829972E+00 
    2.0968893774475963E+00 
    2.0966982406669041E+00 
    2.0959952145819272E+00 
    2.0962669744363502E+00 
    2.0965753667801938E+00 
    2.0963043438528626E+00 
    2.0949966307218619E+00 
    2.0957207704188172E+00 
    2.0952824207757446E+00 
    2.0952718933021530E+00 
    2.0942436683898591E+00 
    2.0939114720240637E+00 
    2.5329636946883762E+00 
    2.5144088779499372E+00 
    2.5155460463317056E+00 
    2.5290857618824116E+00 
    2.4985378232279900E+00 
    2.4844262414619283E+00 
    2.4957296111452094E+00 
    2.5041706423349215E+00 
    2.5221633705750968E+00 
    2.5115997888141557E+00 
    2.5035407437192267E+00 
    2.5112234710117942E+00 
    2.4971218711501377E+00 
    2.4940583576733446E+00 
    2.4842036070607767E+00 
    2.4839608594974623E+00 
    2.4868499959012760E+00 
    2.4754353106174749E+00 
    2.4700141438225716E+00 
    2.4789061933462317E+00 
    2.4726587251347114E+00 
    2.4747382648778475E+00 
    2.4653588704212530E+00 
    2.4601106681948832E+00 
    2.4906725461276569E+00 
    2.4801351310132471E+00 
    2.4740282458964629E+00 
    2.4792461808272539E+00 
    2.4698058937670226E+00 
    2.4578846460221251E+00 
    2.4583020588457414E+00 
    2.4670259864346944E+00 
    2.4685292704051705E+00 
    2.4666753770904331E+00 
    2.4577354890485026E+00 
    2.4562729444010452E+00 
    2.4447621433304412E+00 
    2.4484185821843445E+00 
    2.4400864583926718E+00 
    2.4355915700528215E+00 
    2.4489233550200695E+00 
    2.4463658911562671E+00 
    2.4366472537823882E+00 
    2.4402687924622559E+00 
    2.4278396748612510E+00 
    2.4337005523747868E+00 
    2.4283288253040332E+00 
    2.4192246897661702E+00 
    2.4351109810687155E+00 
    2.4287167273196224E+00 
    2.4213046535142184E+00 
    2.4235210251568331E+00 
    2.4216115891802081E+00 
    2.4124046177602230E+00 
    2.4086516298585909E+00 
    2.4159376924792961E+00 
    2.4131492453168208E+00 
    2.4135944386670589E+00 
    2.4053293638019584E+00 
    2.4016981218012350E+00 
    2.3922352550303265E+00 
    2.3973827457655212E+00 
    2.3902935697833625E+00 
    2.3855391870448908E+00 
    2.4000995325116348E+00 
    2.4008068273763135E+00 
    2.3897195889406930E+00 
    2.3918183328065163E+00 
    2.3799730582637442E+00 
    2.3855303739215139E+00 
    2.3812902264046323E+00 
    2.3742372117154376E+00 
    2.3847175561056515E+00 
    2.3803163463572043E+00 
    2.3759381230480145E+00 
    2.3780860376189623E+00 
    2.3757929718916388E+00 
    2.3704135448055799E+00 
    2.3684560439088891E+00 
    2.3737746119614065E+00 
    2.3717521974717721E+00 
    2.3720753135083799E+00 
    2.3674978792789956E+00 
    2.3661343026678456E+00 
    2.3616767989316338E+00 
    2.3634502548518737E+00 
    2.3599085290818502E+00 
    2.3581275697522694E+00 
    2.3645033501214505E+00 
    2.3642722905163698E+00 
    2.3591227790922300E+00 
    2.3606042481277081E+00 
    2.3548183657540886E+00 
    2.3574496158472873E+00 
    2.3551898246517098E+00 
    2.3513818860961337E+00 
    2.3579298030480516E+00 
    2.3554694120590436E+00 
    2.3525900301333595E+00 
    2.3533481066269988E+00 
    2.3525993154957079E+00 
    2.3489115600177861E+00 
    2.3475674461056681E+00 
    2.3503632751740255E+00 
    2.3491366669178695E+00 
    2.3495087118855023E+00 
    2.3461489302269101E+00 
    2.3440887473358414E+00 
    2.3395531741917424E+00 
    2.3425608609277528E+00 
    2.3393408649213328E+00 
    2.3362201306200254E+00 
    2.3438979782744234E+00 
    2.3442071527313524E+00 
    2.3396560126908850E+00 
    2.3401645555359227E+00 
    2.3335013798527156E+00 
    2.3368558420578935E+00 
    2.3353699360986613E+00 
    2.3303466696887138E+00 
    2.3338786062342627E+00 
    2.3319967297793172E+00 
    2.3275032691835431E+00 
    2.3274384033824225E+00 
    2.3294562017724987E+00 
    2.3258459226033059E+00 
    2.3223488118349924E+00 
    2.3253141999470324E+00 
    2.3216237007384644E+00 
    2.3231081858919298E+00 
    2.3188141718007507E+00 
    2.3147237686609445E+00 
    2.3090502272706455E+00 
    2.3144614689826737E+00 
    2.3107283078466407E+00 
    2.3056266567571497E+00 
    2.3178521210256458E+00 
    2.3203305473326723E+00 
    2.3139088317651879E+00 
    2.3130824124169620E+00 
    2.3030470018112901E+00 
    2.3084052999496394E+00 
    2.3076960844178664E+00 
    2.3003089795050351E+00 
    2.3010002970071777E+00 
    2.2993097309780359E+00 
    2.2930394128514542E+00 
    2.2925158974176671E+00 
    2.2967958273102220E+00 
    2.2930388032206581E+00 
    2.2872827504022832E+00 
    2.2909464849183285E+00 
    2.2850590452795103E+00 
    2.2874172797792744E+00 
    2.2821342463449836E+00 
    2.2766765038316570E+00 
    2.2701296487696303E+00 
    2.2770758099420267E+00 
    2.2728343579709831E+00 
    2.2665274186079092E+00 
    2.2820918833946466E+00 
    2.2864543671947004E+00 
    2.2782426792052068E+00 
    2.2764486141681832E+00 
    2.2639384697616149E+00 
    2.2706534015915576E+00 
    2.2704651696288254E+00 
    2.2615121314542876E+00 
    2.2609795400926087E+00 
    2.2592186385468151E+00 
    2.2523508832621610E+00 
    2.2520389516221426E+00 
    2.2567108811636265E+00 
    2.2529200467621329E+00 
    2.2464742903652315E+00 
    2.2506601526739329E+00 
    2.2445913047351311E+00 
    2.2468488819505983E+00 
    2.2415291073783217E+00 
    2.2369399166446016E+00 
    2.2311976853287656E+00 
    2.2367402447458646E+00 
    2.2327062503589059E+00 
    2.2278764780608848E+00 
    2.2414747614217432E+00 
    2.2460456373330393E+00 
    2.2378576687753351E+00 
    2.2362614102702860E+00 
    2.2254521384147723E+00 
    2.2310019000741330E+00 
    2.2308593141463864E+00 
    2.2236546161226549E+00 
    2.2245533033651559E+00 
    2.2227784101660619E+00 
    2.2179890029739378E+00 
    2.2180888540240136E+00 
    2.2205726189136556E+00 
    2.2174298432084285E+00 
    2.2130062383661895E+00 
    2.2166108774951812E+00 
    2.2125568430618379E+00 
    2.2139740546451656E+00 
    2.2099458559085678E+00 
    2.2069769296299020E+00 
    2.2027439577823817E+00 
    2.2063430764851120E+00 
    2.2034968442062781E+00 
    2.2002353636363106E+00 
    2.2093024819503237E+00 
    2.2121155840514133E+00 
    2.2063926674208978E+00 
    2.2056363886935393E+00 
    2.1982154728631111E+00 
    2.2020858508686074E+00 
    2.2015639459798604E+00 
    2.1964179504845482E+00 
    2.1978402880008190E+00 
    2.1964356507844736E+00 
    2.1928599364915962E+00 
    2.1928927406714873E+00 
    2.1946068310622828E+00 
    2.1919862819579508E+00 
    2.1889032827241990E+00 
    2.1915765339830813E+00 
    2.1886037900818258E+00 
    2.1897165223683657E+00 
    2.1864750313482570E+00 
    2.1839081399234628E+00 
    2.1801393239214368E+00 
    2.1832706914678748E+00 
    2.1806549199140877E+00 
    2.1777203411778459E+00 
    2.1855782197165547E+00 
    2.1876260629605642E+00 
    2.1827888125901729E+00 
    2.1822389300303775E+00 
    2.1757306225705051E+00 
    2.1790952966787551E+00 
    2.1784412314567767E+00 
    2.1736255878036572E+00 
    2.1756631618759461E+00 
    2.1743395489518553E+00 
    2.1710012957370157E+00 
    2.1711030753196781E+00 
    2.1724062132746891E+00 
    2.1695513102253545E+00 
    2.1669140804348386E+00 
    2.1695687513648005E+00 
    2.1672027162988572E+00 
    2.1679435222681676E+00 
    2.1649408959040248E+00 
    2.1630703370315532E+00 
    2.1596896427864798E+00 
    2.1620553154367137E+00 
    2.1595483781952178E+00 
    2.1572450021356198E+00 
    2.1638035974516825E+00 
    2.1653163471064363E+00 
    2.1608654175325115E+00 
    2.1607296601745856E+00 
    2.1551339185049052E+00 
    2.1579316605905197E+00 
    2.1569723817664981E+00 
    2.1528436826637654E+00 
    2.1561696658535054E+00 
    2.1545619887659999E+00 
    2.1520012198247453E+00 
    2.1524989991409340E+00 
    2.1525489800885835E+00 
    2.1497366732163519E+00 
    2.1481502582065946E+00 
    2.1505102277477341E+00 
    2.1493436623730529E+00 
    2.1495819048781222E+00 
    2.1469457082124728E+00 
    2.1457918909190039E+00 
    2.1426537671754495E+00 
    2.1441777846825949E+00 
    2.1417514850557695E+00 
    2.1401191991053898E+00 
    2.1451394423837873E+00 
    2.1457550265457046E+00 
    2.1418685975605292E+00 
    2.1423141629487068E+00 
    2.1378464580671963E+00 
    2.1399684354360593E+00 
    2.1386009256062648E+00 
    2.1352014251289897E+00 
    2.1397834268003422E+00 
    2.1380497491092383E+00 
    2.1357501795845435E+00 
    2.1362701993413218E+00 
    2.1358865169449590E+00 
    2.1329292841878154E+00 
    2.1317591891949172E+00 
    2.1341191770518377E+00 
    2.1328123935361458E+00 
    2.1331765806166518E+00 
    2.1303989047490051E+00 
    2.1289056601342011E+00 
    2.1255781608727626E+00 
    2.1275106032347790E+00 
    2.1249119928943681E+00 
    2.1229267188830447E+00 
    2.1287633147418514E+00 
    2.1291238428561958E+00 
    2.1254289836083640E+00 
    2.1257378551448083E+00 
    2.1206299235904034E+00 
    2.1230221858844724E+00 
    2.1217141290908548E+00 
    2.1179200676001280E+00 
    2.1224213748325220E+00 
    2.1206232214138354E+00 
    2.1183308854827541E+00 
    2.1189380694196154E+00 
    2.1184321315825860E+00 
    2.1154473711981852E+00 
    2.1143953364517194E+00 
    2.1166427111992463E+00 
    2.1159488869592087E+00 
    2.1159951588401911E+00 
    2.1134521197651983E+00 
    2.1124970847745268E+00 
    2.1094000360145566E+00 
    2.1107059622115352E+00 
    2.1082619399299891E+00 