# vtk DataFile Version 2.0
Pressure Field Data 
ASCII 
DATASET UNSTRUCTURED_GRID 

POINTS 6273 double 

    0.0000000000000000E+00     0.0000000000000000E+00     0.0000000000000000E+00 
    1.0000000000000000E+00     0.0000000000000000E+00     0.0000000000000000E+00 
    1.0000000000000000E+00     1.0000000000000000E+00     0.0000000000000000E+00 
    0.0000000000000000E+00     1.0000000000000000E+00     0.0000000000000000E+00 
    1.5624999999970249E-02     0.0000000000000000E+00     0.0000000000000000E+00 
    3.1249999999940652E-02     0.0000000000000000E+00     0.0000000000000000E+00 
    4.6874999999905617E-02     0.0000000000000000E+00     0.0000000000000000E+00 
    6.2499999999870597E-02     0.0000000000000000E+00     0.0000000000000000E+00 
    7.8124999999846401E-02     0.0000000000000000E+00     0.0000000000000000E+00 
    9.3749999999822212E-02     0.0000000000000000E+00     0.0000000000000000E+00 
    1.0937499999979799E-01     0.0000000000000000E+00     0.0000000000000000E+00 
    1.2499999999977381E-01     0.0000000000000000E+00     0.0000000000000000E+00 
    1.4062499999972811E-01     0.0000000000000000E+00     0.0000000000000000E+00 
    1.5624999999968239E-01     0.0000000000000000E+00     0.0000000000000000E+00 
    1.7187499999963671E-01     0.0000000000000000E+00     0.0000000000000000E+00 
    1.8749999999959110E-01     0.0000000000000000E+00     0.0000000000000000E+00 
    2.0312499999954539E-01     0.0000000000000000E+00     0.0000000000000000E+00 
    2.1874999999949971E-01     0.0000000000000000E+00     0.0000000000000000E+00 
    2.3437499999945391E-01     0.0000000000000000E+00     0.0000000000000000E+00 
    2.4999999999940831E-01     0.0000000000000000E+00     0.0000000000000000E+00 
    2.6562499999936218E-01     0.0000000000000000E+00     0.0000000000000000E+00 
    2.8124999999931621E-01     0.0000000000000000E+00     0.0000000000000000E+00 
    2.9687499999927008E-01     0.0000000000000000E+00     0.0000000000000000E+00 
    3.1249999999922412E-01     0.0000000000000000E+00     0.0000000000000000E+00 
    3.2812499999917810E-01     0.0000000000000000E+00     0.0000000000000000E+00 
    3.4374999999913203E-01     0.0000000000000000E+00     0.0000000000000000E+00 
    3.5937499999908601E-01     0.0000000000000000E+00     0.0000000000000000E+00 
    3.7499999999903999E-01     0.0000000000000000E+00     0.0000000000000000E+00 
    3.9062499999899403E-01     0.0000000000000000E+00     0.0000000000000000E+00 
    4.0624999999894801E-01     0.0000000000000000E+00     0.0000000000000000E+00 
    4.2187499999890188E-01     0.0000000000000000E+00     0.0000000000000000E+00 
    4.3749999999885592E-01     0.0000000000000000E+00     0.0000000000000000E+00 
    4.5312499999880979E-01     0.0000000000000000E+00     0.0000000000000000E+00 
    4.6874999999876382E-01     0.0000000000000000E+00     0.0000000000000000E+00 
    4.8437499999871780E-01     0.0000000000000000E+00     0.0000000000000000E+00 
    4.9999999999867167E-01     0.0000000000000000E+00     0.0000000000000000E+00 
    5.1562499999871325E-01     0.0000000000000000E+00     0.0000000000000000E+00 
    5.3124999999875477E-01     0.0000000000000000E+00     0.0000000000000000E+00 
    5.4687499999879630E-01     0.0000000000000000E+00     0.0000000000000000E+00 
    5.6249999999883782E-01     0.0000000000000000E+00     0.0000000000000000E+00 
    5.7812499999887934E-01     0.0000000000000000E+00     0.0000000000000000E+00 
    5.9374999999892086E-01     0.0000000000000000E+00     0.0000000000000000E+00 
    6.0937499999896239E-01     0.0000000000000000E+00     0.0000000000000000E+00 
    6.2499999999900380E-01     0.0000000000000000E+00     0.0000000000000000E+00 
    6.4062499999904521E-01     0.0000000000000000E+00     0.0000000000000000E+00 
    6.5624999999908673E-01     0.0000000000000000E+00     0.0000000000000000E+00 
    6.7187499999912825E-01     0.0000000000000000E+00     0.0000000000000000E+00 
    6.8749999999916978E-01     0.0000000000000000E+00     0.0000000000000000E+00 
    7.0312499999921130E-01     0.0000000000000000E+00     0.0000000000000000E+00 
    7.1874999999925282E-01     0.0000000000000000E+00     0.0000000000000000E+00 
    7.3437499999929434E-01     0.0000000000000000E+00     0.0000000000000000E+00 
    7.4999999999933586E-01     0.0000000000000000E+00     0.0000000000000000E+00 
    7.6562499999937739E-01     0.0000000000000000E+00     0.0000000000000000E+00 
    7.8124999999941891E-01     0.0000000000000000E+00     0.0000000000000000E+00 
    7.9687499999946043E-01     0.0000000000000000E+00     0.0000000000000000E+00 
    8.1249999999950195E-01     0.0000000000000000E+00     0.0000000000000000E+00 
    8.2812499999954348E-01     0.0000000000000000E+00     0.0000000000000000E+00 
    8.4374999999958500E-01     0.0000000000000000E+00     0.0000000000000000E+00 
    8.5937499999962652E-01     0.0000000000000000E+00     0.0000000000000000E+00 
    8.7499999999966793E-01     0.0000000000000000E+00     0.0000000000000000E+00 
    8.9062499999970934E-01     0.0000000000000000E+00     0.0000000000000000E+00 
    9.0624999999975087E-01     0.0000000000000000E+00     0.0000000000000000E+00 
    9.2187499999979239E-01     0.0000000000000000E+00     0.0000000000000000E+00 
    9.3749999999983391E-01     0.0000000000000000E+00     0.0000000000000000E+00 
    9.5312499999987543E-01     0.0000000000000000E+00     0.0000000000000000E+00 
    9.6874999999991696E-01     0.0000000000000000E+00     0.0000000000000000E+00 
    9.8437499999995848E-01     0.0000000000000000E+00     0.0000000000000000E+00 
    1.0000000000000000E+00     1.5624999999970249E-02     0.0000000000000000E+00 
    1.0000000000000000E+00     3.1249999999940652E-02     0.0000000000000000E+00 
    1.0000000000000000E+00     4.6874999999905617E-02     0.0000000000000000E+00 
    1.0000000000000000E+00     6.2499999999870597E-02     0.0000000000000000E+00 
    1.0000000000000000E+00     7.8124999999846401E-02     0.0000000000000000E+00 
    1.0000000000000000E+00     9.3749999999822212E-02     0.0000000000000000E+00 
    1.0000000000000000E+00     1.0937499999979799E-01     0.0000000000000000E+00 
    1.0000000000000000E+00     1.2499999999977381E-01     0.0000000000000000E+00 
    1.0000000000000000E+00     1.4062499999972811E-01     0.0000000000000000E+00 
    1.0000000000000000E+00     1.5624999999968239E-01     0.0000000000000000E+00 
    1.0000000000000000E+00     1.7187499999963671E-01     0.0000000000000000E+00 
    1.0000000000000000E+00     1.8749999999959110E-01     0.0000000000000000E+00 
    1.0000000000000000E+00     2.0312499999954539E-01     0.0000000000000000E+00 
    1.0000000000000000E+00     2.1874999999949971E-01     0.0000000000000000E+00 
    1.0000000000000000E+00     2.3437499999945391E-01     0.0000000000000000E+00 
    1.0000000000000000E+00     2.4999999999940831E-01     0.0000000000000000E+00 
    1.0000000000000000E+00     2.6562499999936218E-01     0.0000000000000000E+00 
    1.0000000000000000E+00     2.8124999999931621E-01     0.0000000000000000E+00 
    1.0000000000000000E+00     2.9687499999927008E-01     0.0000000000000000E+00 
    1.0000000000000000E+00     3.1249999999922412E-01     0.0000000000000000E+00 
    1.0000000000000000E+00     3.2812499999917810E-01     0.0000000000000000E+00 
    1.0000000000000000E+00     3.4374999999913203E-01     0.0000000000000000E+00 
    1.0000000000000000E+00     3.5937499999908601E-01     0.0000000000000000E+00 
    1.0000000000000000E+00     3.7499999999903999E-01     0.0000000000000000E+00 
    1.0000000000000000E+00     3.9062499999899403E-01     0.0000000000000000E+00 
    1.0000000000000000E+00     4.0624999999894801E-01     0.0000000000000000E+00 
    1.0000000000000000E+00     4.2187499999890188E-01     0.0000000000000000E+00 
    1.0000000000000000E+00     4.3749999999885592E-01     0.0000000000000000E+00 
    1.0000000000000000E+00     4.5312499999880979E-01     0.0000000000000000E+00 
    1.0000000000000000E+00     4.6874999999876382E-01     0.0000000000000000E+00 
    1.0000000000000000E+00     4.8437499999871780E-01     0.0000000000000000E+00 
    1.0000000000000000E+00     4.9999999999867167E-01     0.0000000000000000E+00 
    1.0000000000000000E+00     5.1562499999871325E-01     0.0000000000000000E+00 
    1.0000000000000000E+00     5.3124999999875477E-01     0.0000000000000000E+00 
    1.0000000000000000E+00     5.4687499999879630E-01     0.0000000000000000E+00 
    1.0000000000000000E+00     5.6249999999883782E-01     0.0000000000000000E+00 
    1.0000000000000000E+00     5.7812499999887934E-01     0.0000000000000000E+00 
    1.0000000000000000E+00     5.9374999999892086E-01     0.0000000000000000E+00 
    1.0000000000000000E+00     6.0937499999896239E-01     0.0000000000000000E+00 
    1.0000000000000000E+00     6.2499999999900380E-01     0.0000000000000000E+00 
    1.0000000000000000E+00     6.4062499999904521E-01     0.0000000000000000E+00 
    1.0000000000000000E+00     6.5624999999908673E-01     0.0000000000000000E+00 
    1.0000000000000000E+00     6.7187499999912825E-01     0.0000000000000000E+00 
    1.0000000000000000E+00     6.8749999999916978E-01     0.0000000000000000E+00 
    1.0000000000000000E+00     7.0312499999921130E-01     0.0000000000000000E+00 
    1.0000000000000000E+00     7.1874999999925282E-01     0.0000000000000000E+00 
    1.0000000000000000E+00     7.3437499999929434E-01     0.0000000000000000E+00 
    1.0000000000000000E+00     7.4999999999933586E-01     0.0000000000000000E+00 
    1.0000000000000000E+00     7.6562499999937739E-01     0.0000000000000000E+00 
    1.0000000000000000E+00     7.8124999999941891E-01     0.0000000000000000E+00 
    1.0000000000000000E+00     7.9687499999946043E-01     0.0000000000000000E+00 
    1.0000000000000000E+00     8.1249999999950195E-01     0.0000000000000000E+00 
    1.0000000000000000E+00     8.2812499999954348E-01     0.0000000000000000E+00 
[...]
CELL_DATA 6144 
SCALARS Pressure double 1 
LOOKUP_TABLE default 

    2.9016285536480981E+00 
    2.8041806455841307E+00 
    2.7888479906539621E+00 
    2.8080538100894272E+00 
    2.7492631550357718E+00 
    2.7140987890691837E+00 
    2.7297096230268614E+00 
    2.7612642358374617E+00 
    2.7494019718441862E+00 
    2.7595107824075673E+00 
    2.7319672797755277E+00 
    2.7139736783873394E+00 
    2.6963914747896429E+00 
    2.7114840188939282E+00 
    2.6955070631905476E+00 
    2.6852501878843813E+00 
    2.7127794631078683E+00 
    2.6975825583642554E+00 
    2.6860035450734157E+00 
    2.6969606765797489E+00 
    2.6747181532470110E+00 
    2.6860432987035909E+00 
    2.6759841299138509E+00 
    2.6630381429487038E+00 
    2.6743690203236214E+00 
    2.6712585381006777E+00 
    2.6570751296679456E+00 
    2.6544749221802659E+00 
    2.6638985515010929E+00 
    2.6527866438337586E+00 
    2.6440766760636021E+00 
    2.6526574541757233E+00 
    2.6373923230958241E+00 
    2.6448376122640322E+00 
    2.6347653689325110E+00 
    2.6219283069757435E+00 
    2.6128473473082123E+00 
    2.6255392913634799E+00 
    2.6180738500501319E+00 
    2.6079785608098889E+00 
    2.6334375570110002E+00 
    2.6380826444822283E+00 
    2.6240332672353861E+00 
    2.6230951798881041E+00 
    2.6036406063842477E+00 
    2.6136521591627835E+00 
    2.6117870412853734E+00 
    2.5983862961639734E+00 
    2.5969446796624078E+00 
    2.5961302869087599E+00 
    2.5847978443603772E+00 
    2.5818952046730379E+00 
    2.5927044607040668E+00 
    2.5865544805950766E+00 
    2.5771044682219841E+00 
    2.5823623940515055E+00 
    2.5684898765347604E+00 
    2.5752445527156276E+00 
    2.5670235128186576E+00 
    2.5554841678950972E+00 
    2.5483584133288950E+00 
    2.5597306907189101E+00 
    2.5542887362329529E+00 
    2.5452625699203790E+00 
    2.5684257377829485E+00 
    2.5752234577417630E+00 
    2.5625064684132752E+00 
    2.5597541909334267E+00 
    2.5424622754447230E+00 
    2.5515821038031574E+00 
    2.5511669877254608E+00 
    2.5390873847091719E+00 
    2.5363984453876847E+00 
    2.5357758719069166E+00 
    2.5271978239872022E+00 
    2.5258428220417821E+00 
    2.5333859482454355E+00 
    2.5288381216891760E+00 
    2.5212538977185108E+00 
    2.5261752299088029E+00 
    2.5168957302933732E+00 
    2.5207917364234267E+00 
    2.5153842417415642E+00 
    2.5097639538929264E+00 
    2.5059209078577465E+00 
    2.5114824102120448E+00 
    2.5087239686579759E+00 
    2.5042917359842223E+00 
    2.5165676039075597E+00 
    2.5210200947043959E+00 
    2.5135882278418960E+00 
    2.5122615978154132E+00 
    2.5025190347345609E+00 
    2.5076060282349144E+00 
    2.5071419574906733E+00 
    2.5007110261555576E+00 
    2.4996115856106420E+00 
    2.4992563144594850E+00 
    2.4945581803988395E+00 
    2.4934181148121795E+00 
    2.4980233332011954E+00 
    2.4958270040298300E+00 
    2.4915335747190110E+00 
    2.4937333327431213E+00 
    2.4875144576988446E+00 
    2.4905745992339474E+00 
    2.4870382535839526E+00 
    2.4815506956512210E+00 
    2.4779701511048500E+00 
    2.4837602862038985E+00 
    2.4813708280774591E+00 
    2.4765512678708137E+00 
    2.4880263797337925E+00 
    2.4912201624262162E+00 
    2.4857069169560568E+00 
    2.4841064114034861E+00 
    2.4754236066920261E+00 
    2.4801527844281011E+00 
    2.4804320669323618E+00 
    2.4740644913995955E+00 
    2.4706889145899167E+00 
    2.4707404845757019E+00 
    2.4649217178015004E+00 
    2.4629861529258212E+00 
    2.4696990958422682E+00 
    2.4674588181792330E+00 
    2.4616003220974836E+00 
    2.4638564740582041E+00 
    2.4556129336365666E+00 
    2.4597466163308490E+00 
    2.4552649802264352E+00 
    2.4477760378163946E+00 
    2.4430120678185858E+00 
    2.4511408206760827E+00 
    2.4482216989923971E+00 
    2.4413259060654386E+00 
    2.4571305297851507E+00 
    2.4621866178064304E+00 
    2.4549641646736005E+00 
    2.4521648942799916E+00 
    2.4402033964432484E+00 
    2.4468407028782138E+00 
    2.4477684824223198E+00 
    2.4390443169160774E+00 
    2.4332200317678221E+00 
    2.4333132318265025E+00 
    2.4254329282576599E+00 
    2.4230321733188980E+00 
    2.4322092509014572E+00 
    2.4297747673732948E+00 
    2.4215922836154982E+00 
    2.4244387229288198E+00 
    2.4134826627445274E+00 
    2.4188274640023577E+00 
    2.4131842142908733E+00 
    2.4038279002114922E+00 
    2.3983542521150221E+00 
    2.4082840641723777E+00 
    2.4048157621092408E+00 
    2.3966765234799539E+00 
    2.4162157012575269E+00 
    2.4231846576254066E+00 
    2.4138697186474212E+00 
    2.4100902001581246E+00 
    2.3955669932449082E+00 
    2.4035712996163046E+00 
    2.4049686833360728E+00 
    2.3946105143566969E+00 
    2.3875387936157986E+00 
    2.3876815914400704E+00 
    2.3793227696213650E+00 
    2.3770748016257688E+00 
    2.3865434820967191E+00 
    2.3838587156644535E+00 
    2.3748653611288915E+00 
    2.3784075312797728E+00 
    2.3674055785510157E+00 
    2.3726208894091112E+00 
    2.3670380514681790E+00 
    2.3584683748457587E+00 
    2.3533817791041005E+00 
    2.3623205978942381E+00 
    2.3584723330592059E+00 
    2.3513091556231238E+00 
    2.3696397520177466E+00 
    2.3767740703895366E+00 
    2.3673162950821083E+00 
    2.3638231919572701E+00 
    2.3501238885064777E+00 
    2.3574005535833940E+00 
    2.3588186968254732E+00 
    2.3495705466698458E+00 
    2.3439621094853971E+00 
    2.3438940374174102E+00 
    2.3370410197551927E+00 
    2.3353825658549563E+00 
    2.3428703041015448E+00 
    2.3405930291955954E+00 
    2.3331154900599156E+00 
    2.3363491353952375E+00 
    2.3274393208251904E+00 
    2.3315559575536091E+00 
    2.3269075088477207E+00 
    2.3202390355686675E+00 
    2.3162113237785156E+00 
    2.3231481681605377E+00 
    2.3203952781781427E+00 
    2.3147669368231485E+00 
    2.3289732169883957E+00 
    2.3346881612931654E+00 
    2.3272004143608931E+00 
    2.3244607288524661E+00 
    2.3137981802133023E+00 
    2.3196070090264458E+00 
    2.3204958051721367E+00 
    2.3131263776133122E+00 
    2.3086973243607427E+00 
    2.3085947072478756E+00 
    2.3029782451590357E+00 
    2.3016568450593491E+00 
    2.3077730477892926E+00 
    2.3059668902130310E+00 
    2.3000538087956173E+00 
    2.3024847445552767E+00 
    2.2951589950037334E+00 
    2.2985977916888545E+00 
    2.2948304467238847E+00 
    2.2891008005548401E+00 
    2.2857025697964772E+00 
    2.2916323478578606E+00 
    2.2893914204291170E+00 
    2.2845463405895670E+00 
    2.2965131394257714E+00 
    2.3011309947788723E+00 
    2.2949464658122833E+00 
    2.2927135075884215E+00 
    2.2837321202232603E+00 
    2.2886786772867511E+00 
    2.2893494737676110E+00 
    2.2830314022775240E+00 
    2.2792563310501968E+00 
    2.2792020063262020E+00 
    2.2742557692893830E+00 
    2.2730406641348582E+00 
    2.2784643530085469E+00 
    2.2767995392388554E+00 
    2.2716531190668352E+00 
    2.2738193182391084E+00 
    2.2669914787906174E+00 
    2.2702933429314478E+00 
    2.2667516076728202E+00 
    2.2607321581586315E+00 
    2.2571091669970809E+00 
    2.2634428632054391E+00 
    2.2606916336003788E+00 
    2.2555774147924526E+00 
    2.2683914403349998E+00 
    2.2725161896406867E+00 
    2.2668282424066506E+00 
    2.2645111222485474E+00 
    2.2546770355768952E+00 
    2.2598137072137567E+00 
    2.2609393881872375E+00 
    2.2540623376014541E+00 
    2.2505439186691967E+00 
    2.2504704473317703E+00 
    2.2458541492806097E+00 
    2.2447366520016625E+00 
    2.2496862043271748E+00 
    2.2479612791562213E+00 
    2.2431915360134349E+00 
    2.2452675690439623E+00 
    2.2395023108843093E+00 
    2.2422081210229234E+00 
    2.2390033297742997E+00 
    2.2345507925965795E+00 
    2.2318217585590632E+00 
    2.2363243881781854E+00 
    2.2344602290947275E+00 
    2.2307347778253357E+00 
    2.2400931022041637E+00 
    2.2436164047189484E+00 
    2.2383768873319094E+00 
    2.2368630637472995E+00 
    2.2297447881325749E+00 
    2.2335513640236639E+00 
    2.2337188278665612E+00 
    2.2285898813481659E+00 
    2.2268116148074895E+00 
    2.2266924312608802E+00 
    2.2229644128394059E+00 
    2.2219873988067289E+00 
    2.2257794274124314E+00 
    2.2239965120739491E+00 
    2.2204689701376750E+00 
    2.2221795237884794E+00 
    2.2176660112541593E+00 
    2.2198259383258652E+00 
    2.2171837994574757E+00 
    2.2134770039644427E+00 
    2.2110216479470486E+00 
    2.2148247727086954E+00 
    2.2129034154972320E+00 
    2.2097345114493261E+00 
    2.2177314174781704E+00 
    2.2202285589542465E+00 
    2.2157988150079433E+00 
    2.2147874648737242E+00 
    2.2086924467223672E+00 
    2.2118131523069957E+00 
    2.2117635175899752E+00 
    2.2073753220389043E+00 
    2.2064820664638964E+00 
    2.2063506072697208E+00 
    2.2030514505511207E+00 
    2.2020865910695737E+00 
    2.2054128833982292E+00 
    2.2035722366272466E+00 
    2.2006866567720804E+00 
    2.2022151504389655E+00 
    2.1981597804528024E+00 
    2.2001458778489829E+00 
    2.1977225701438856E+00 
    2.1942354801913981E+00 
    2.1919824355565880E+00 
    2.1954726368077764E+00 
    2.1937280489264661E+00 
    2.1908338570197290E+00 
    2.1979890468669208E+00 
    2.2000102451368111E+00 
    2.1959780060233696E+00 
    2.1952263314125395E+00 
    2.1897861280568858E+00 
    2.1926371110671439E+00 
    2.1923300254630860E+00 
    2.1883123191634777E+00 
    2.1878652180242599E+00 
    2.1876188911028285E+00 
    2.1846635243974148E+00 
    2.1839986137870571E+00 
    2.1866849673360123E+00 
    2.1849125555637547E+00 
    2.1825408615281123E+00 
    2.1839529280158132E+00 
    2.1807891607302032E+00 
    2.1823009823885391E+00 
    2.1803704544578499E+00 
    2.1779347839020615E+00 
    2.1763135943084069E+00 
    2.1785777784405842E+00 
    2.1769499276640158E+00 
    2.1751695527294883E+00 
    2.1802824310739193E+00 
    2.1816755741198555E+00 
    2.1782380887934525E+00 
    2.1779878077654637E+00 
    2.1740877823276330E+00 
    2.1759440403841492E+00 
    2.1753774175011515E+00 
    2.1726407950564819E+00 
    2.1738429592861461E+00 
    2.1734045392847006E+00 
    2.1719648080981862E+00 
    2.1719214880897413E+00 
    2.1725018199979549E+00 
    2.1709887108529631E+00 
    2.1703776322148278E+00 
    2.1714410692587554E+00 
    2.1705921099124144E+00 
    2.1709446014030718E+00 
    2.1700278518840497E+00 
    2.1697653678148203E+00 
    2.1694717350607906E+00 
    2.1692416516195610E+00 
    2.1683979404121168E+00 
    2.1687236300156489E+00 
    2.1691025638874906E+00 
    2.1687904883379949E+00 
    2.1672165218520982E+00 
    2.1680761417407100E+00 
    2.1675445975871130E+00 
    2.1675354812584500E+00 
    2.1663087312740803E+00 
    2.1659103475205610E+00 
    2.6757434225307217E+00 
    2.6568191465247550E+00 
    2.6580196475360092E+00 
    2.6718606619916034E+00 
    2.6404979761616887E+00 
    2.6259093691279562E+00 
    2.6376447663097529E+00 
    2.6463865895786243E+00 
    2.6648520509209610E+00 
    2.6540505557623280E+00 
    2.6458156812709901E+00 
    2.6537448340002263E+00 
    2.6393191822873914E+00 
    2.6360799817595790E+00 
    2.6259142031302924E+00 
    2.6257475248667905E+00 
    2.6285306024648616E+00 
    2.6166378322725894E+00 
    2.6111004628985581E+00 
    2.6203809551064419E+00 
    2.6140037720494358E+00 
    2.6161014145420558E+00 
    2.6063140861600500E+00 
    2.6009016925640016E+00 
    2.6327384315115472E+00 
    2.6218471788591153E+00 
    2.6155463191251491E+00 
    2.6209559395847535E+00 
    2.6111068021407990E+00 
    2.5986436209702775E+00 
    2.5991397949679720E+00 
    2.6082510168386737E+00 
    2.6098399770467684E+00 
    2.6079092563587123E+00 
    2.5985723054717522E+00 
    2.5970372926171064E+00 
    2.5849293118783385E+00 
    2.5887857336137023E+00 
    2.5799823893345257E+00 
    2.5752172376337201E+00 
    2.5892881104736718E+00 
    2.5865395673273728E+00 
    2.5762795041966062E+00 
    2.5801458166346407E+00 
    2.5669409015386755E+00 
    2.5731756105964445E+00 
    2.5674250188487635E+00 
    2.5576656985976416E+00 
    2.5746936483457667E+00 
    2.5678959894007178E+00 
    2.5599636206096212E+00 
    2.5623255134847369E+00 
    2.5602716567648054E+00 
    2.5503380403610221E+00 
    2.5463604442095797E+00 
    2.5542056263599218E+00 
    2.5512605001590374E+00 
    2.5517104287843657E+00 
    2.5428573245151287E+00 
    2.5391044340043556E+00 
    2.5291515788310486E+00 
    2.5344263033983605E+00 
    2.5269453190165305E+00 
    2.5221467287388322E+00 
    2.5372221785836064E+00 
    2.5378683479121400E+00 
    2.5261783511635825E+00 
    2.5285483239388085E+00 
    2.5162283765295932E+00 
    2.5219927000908693E+00 
    2.5174748690001487E+00 
    2.5101346465433991E+00 
    2.5213715716258962E+00 
    2.5167150785771319E+00 
    2.5119627962166882E+00 
    2.5141385189660790E+00 
    2.5118854552192071E+00 
    2.5060118538498721E+00 
    2.5037579403441184E+00 
    2.5094371091900824E+00 
    2.5070671116872516E+00 
    2.5075471665329347E+00 
    2.5024318297492161E+00 
    2.5006933908375597E+00 
    2.4956854679279745E+00 
    2.4978851493258900E+00 
    2.4938890612518962E+00 
    2.4916976630184817E+00 
    2.4991904312651432E+00 
    2.4990424991136715E+00 
    2.4930740567133998E+00 
    2.4947054339926380E+00 
    2.4879726748701247E+00 
    2.4910667907232424E+00 
    2.4885100237659028E+00 
    2.4840287357633519E+00 
    2.4912402038099688E+00 
    2.4884932057157880E+00 
    2.4850466624070506E+00 
    2.4858776041679449E+00 
    2.4852437918080805E+00 
    2.4810247526416545E+00 
    2.4792970634680329E+00 
    2.4825524006188582E+00 
    2.4809524816125821E+00 
    2.4814434527447964E+00 
    2.4775424587994603E+00 
    2.4750988129922873E+00 
    2.4699151359614366E+00 
    2.4734459683228112E+00 
    2.4697935161936897E+00 
    2.4661963956486619E+00 
    2.4751044128153783E+00 
    2.4755911611310815E+00 
    2.4703206034591174E+00 
    2.4708439333379308E+00 
    2.4631342355235892E+00 
    2.4670293841343263E+00 
    2.4653733553416122E+00 
    2.4595888130973682E+00 
    2.4634194295976082E+00 
    2.4613430101047484E+00 
    2.4561772273791571E+00 
    2.4560447607644478E+00 
    2.4584813472646765E+00 
    2.4543846648653336E+00 
    2.4503459793163849E+00 
    2.4537377637848401E+00 
    2.4493688332476173E+00 
    2.4511511399283945E+00 
    2.4462535582297225E+00 
    2.4414685779193213E+00 
    2.4350215549336851E+00 
    2.4413003759955401E+00 
    2.4370732258143502E+00 
    2.4311936029415793E+00 
    2.4452435673848987E+00 
    2.4480967472059865E+00 
    2.4407779203456856E+00 
    2.4398118628213616E+00 
    2.4283075342346976E+00 
    2.4344590505327077E+00 
    2.4336848524797490E+00 
    2.4252321572812381E+00 
    2.4256989390202039E+00 
    2.4238950658358100E+00 
    2.4166426921835780E+00 
    2.4159359488289653E+00 
    2.4211063136394984E+00 
    2.4168768258958697E+00 
    2.4101808821158683E+00 
    2.4143196480890179E+00 
    2.4073730529021797E+00 
    2.4101987978898900E+00 
    2.4041702800870417E+00 
    2.3977619789004185E+00 
    2.3903393178374053E+00 
    2.3984194233302403E+00 
    2.3936076130489337E+00 
    2.3863386299419007E+00 
    2.4042580951791068E+00 
    2.4093495586507734E+00 
    2.3999322683630111E+00 
    2.3978159460023920E+00 
    2.3834785093169701E+00 
    2.3911869055808861E+00 
    2.3910188312508254E+00 
    2.3808012036044324E+00 
    2.3798264083132845E+00 
    2.3779537320504600E+00 
    2.3701023354100181E+00 
    2.3696057049595467E+00 
    2.3752112103100522E+00 
    2.3710102267881075E+00 
    2.3635790835209884E+00 
    2.3682881735067172E+00 
    2.3610033911564940E+00 
    2.3638071086092229E+00 
    2.3577501135400798E+00 
    2.3520867800604015E+00 
    2.3454185222070958E+00 
    2.3522610320627351E+00 
    2.3476711045305487E+00 
    2.3417195957875023E+00 
    2.3579247691457916E+00 
    2.3632730624740166E+00 
    2.3539875447371257E+00 
    2.3519356059446546E+00 
    2.3391271429490148E+00 
    2.3457649838336789E+00 
    2.3458629277478362E+00 
    2.3372540666366328E+00 
    2.3370942106019834E+00 
    2.3353298538571461E+00 
    2.3292999350815524E+00 
    2.3290571605656982E+00 
    2.3329630826573879E+00 
    2.3294387505460166E+00 
    2.3236076987948877E+00 
    2.3277708145352065E+00 
    2.3221258590522194E+00 
    2.3242569493069616E+00 
    2.3192997186441948E+00 
    2.3150032926349695E+00 
    2.3097058950854032E+00 
    2.3148658931722697E+00 
    2.3114016695084167E+00 
    2.3067878459936280E+00 
    2.3190616233855130E+00 
    2.3230911933369613E+00 
    2.3158469605885488E+00 
    2.3144211161292794E+00 
    2.3045247435766361E+00 
    2.3097842563443161E+00 
    2.3095104842899272E+00 
    2.3025528483370539E+00 
    2.3029812010392545E+00 
    2.3014986626956766E+00 
    2.2965830083924641E+00 
    2.2963531121742373E+00 
    2.2994032355476413E+00 
    2.2962586910816967E+00 
    2.2917335386577844E+00 
    2.2951050885187652E+00 
    2.2906763097939264E+00 
    2.2923935622961298E+00 
    2.2881874610353643E+00 
    2.2845619240644601E+00 
    2.2798479586788072E+00 
    2.2841602110347865E+00 
    2.2809678981720434E+00 
    2.2770709270337406E+00 
    2.2875141333002471E+00 
    2.2906753069210795E+00 
    2.2843339476268154E+00 
    2.2833132133363883E+00 
    2.2748197916296147E+00 
    2.2792631841619322E+00 
    2.2787398586239762E+00 
    2.2725528436294611E+00 
    2.2740362688718485E+00 
    2.2726525486950009E+00 
    2.2682749796584161E+00 
    2.2681076571824352E+00 
    2.2704669568155933E+00 
    2.2670955699628759E+00 
    2.2632715531833472E+00 
    2.2666572660955566E+00 
    2.2625090513827768E+00 
    2.2641379887541206E+00 
    2.2598817927713202E+00 
    2.2558172390426670E+00 
    2.2507842596345795E+00 
    2.2557544908341316E+00 
    2.2522960869664179E+00 
    2.2477764197096848E+00 
    2.2591958331374542E+00 
    2.2617859696285585E+00 
    2.2558401721470545E+00 
    2.2549304697407062E+00 
    2.2453740830439983E+00 
    2.2504476643592346E+00 
    2.2500859319211708E+00 
    2.2430410333000075E+00 
    2.2447767434500618E+00 
    2.2431026899209687E+00 
    2.2388904530335765E+00 
    2.2390803800905421E+00 
    2.2407778245446308E+00 
    2.2373020231957281E+00 
    2.2339233151398070E+00 
    2.2371610311002219E+00 
    2.2343035039238788E+00 
    2.2352252915970192E+00 
    2.2314501189035636E+00 
    2.2291182804176062E+00 
    2.2248483964470154E+00 
    2.2276562691955899E+00 
    2.2244579838036964E+00 
    2.2217087205965749E+00 
    2.2297825799572313E+00 
    2.2316497846544472E+00 
    2.2258817297899349E+00 
    2.2258120738988016E+00 
    2.2189608611591951E+00 
    2.2223232163875748E+00 
    2.2209864405744622E+00 
    2.2158651727949308E+00 
    2.2205182052062429E+00 
    2.2185111322210629E+00 
    2.2152976645223244E+00 
    2.2158745158261750E+00 
    2.2158669148197800E+00 
    2.2121451455497581E+00 
    2.2102601734952523E+00 
    2.2132569742400943E+00 
    2.2118645668107981E+00 
    2.2120905203550416E+00 
    2.2088234053518119E+00 
    2.2074319975388415E+00 
    2.2035261481868331E+00 
    2.2054526195558797E+00 
    2.2024098722204855E+00 
    2.2002891277845595E+00 
    2.2065681619989976E+00 
    2.2071442127579108E+00 
    2.2024021363396065E+00 
    2.2030241439422826E+00 
    2.1974316965565941E+00 
    2.2000782199182254E+00 
    2.1983198991123518E+00 
    2.1940899905503835E+00 
    2.1998519863505210E+00 
    2.1976351768683893E+00 
    2.1949600349451814E+00 
    2.1957328661112538E+00 
    2.1949422655262207E+00 
    2.1913144900015138E+00 
    2.1902165420094515E+00 
    2.1928971569037192E+00 
    2.1921934760814032E+00 
    2.1921934864410688E+00 
    2.1891692717492632E+00 
    2.1880904473657554E+00 
    2.1843912000209040E+00 
    2.1858925044431978E+00 
    2.1829683942363824E+00 