# vtk DataFile Version 2.0
Pressure Field Data 
ASCII 
DATASET UNSTRUCTURED_GRID 

POINTS 6273 double 

    0.0000000000000000E+00     0.0000000000000000E+00     0.0000000000000000E+00 
    1.0000000000000000E+00     0.0000000000000000E+00     0.0000000000000000E+00 
    1.0000000000000000E+00     1.0000000000000000E+00     0.0000000000000000E+00 
    0.0000000000000000E+00     1.0000000000000000E+00     0.0000000000000000E+00 
    1.5624999999970249E-02     0.0000000000000000E+00     0.0000000000000000E+00 
    3.1249999999940652E-02     0.0000000000000000E+00     0.0000000000000000E+00 
    4.6874999999905617E-02     0.0000000000000000E+00     0.0000000000000000E+00 
    6.2499999999870597E-02     0.0000000000000000E+00     0.0000000000000000E+00 
    7.8124999999846401E-02     0.0000000000000000E+00     0.0000000000000000E+00 
    9.3749999999822212E-02     0.0000000000000000E+00     0.0000000000000000E+00 
    1.0937499999979799E-01     0.0000000000000000E+00     0.0000000000000000E+00 
    1.2499999999977381E-01     0.0000000000000000E+00     0.0000000000000000E+00 
    1.4062499999972811E-01     0.0000000000000000E+00     0.0000000000000000E+00 
    1.5624999999968239E-01     0.0000000000000000E+00     0.0000000000000000E+00 
    1.7187499999963671E-01     0.0000000000000000E+00     0.0000000000000000E+00 
    1.8749999999959110E-01     0.0000000000000000E+00     0.0000000000000000E+00 
    2.0312499999954539E-01     0.0000000000000000E+00     0.0000000000000000E+00 
    2.1874999999949971E-01     0.0000000000000000E+00     0.0000000000000000E+00 
    2.3437499999945391E-01     0.0000000000000000E+00     0.0000000000000000E+00 
    2.4999999999940831E-01     0.0000000000000000E+00     0.0000000000000000E+00 
    2.6562499999936218E-01     0.0000000000000000E+00     0.0000000000000000E+00 
    2.8124999999931621E-01     0.0000000000000000E+00     0.0000000000000000E+00 
    2.9687499999927008E-01     0.0000000000000000E+00     0.0000000000000000E+00 
    3.1249999999922412E-01     0.0000000000000000E+00     0.0000000000000000E+00 
    3.2812499999917810E-01     0.0000000000000000E+00     0.0000000000000000E+00 
    3.4374999999913203E-01     0.0000000000000000E+00     0.0000000000000000E+00 
    3.5937499999908601E-01     0.0000000000000000E+00     0.0000000000000000E+00 
    3.7499999999903999E-01     0.0000000000000000E+00     0.0000000000000000E+00 
    3.9062499999899403E-01     0.0000000000000000E+00     0.0000000000000000E+00 
    4.0624999999894801E-01     0.0000000000000000E+00     0.0000000000000000E+00 
    4.2187499999890188E-01     0.0000000000000000E+00     0.0000000000000000E+00 
    4.3749999999885592E-01     0.0000000000000000E+00     0.0000000000000000E+00 
    4.5312499999880979E-01     0.0000000000000000E+00     0.0000000000000000E+00 
    4.6874999999876382E-01     0.0000000000000000E+00     0.0000000000000000E+00 
    4.8437499999871780E-01     0.0000000000000000E+00     0.0000000000000000E+00 
    4.9999999999867167E-01     0.0000000000000000E+00     0.0000000000000000E+00 
    5.1562499999871325E-01     0.0000000000000000E+00     0.0000000000000000E+00 
    5.3124999999875477E-01     0.0000000000000000E+00     0.0000000000000000E+00 
    5.4687499999879630E-01     0.0000000000000000E+00     0.0000000000000000E+00 
    5.6249999999883782E-01     0.0000000000000000E+00     0.0000000000000000E+00 
    5.7812499999887934E-01     0.0000000000000000E+00     0.0000000000000000E+00 
    5.9374999999892086E-01     0.0000000000000000E+00     0.0000000000000000E+00 
    6.0937499999896239E-01     0.0000000000000000E+00     0.0000000000000000E+00 
    6.2499999999900380E-01     0.0000000000000000E+00     0.0000000000000000E+00 
    6.4062499999904521E-01     0.0000000000000000E+00     0.0000000000000000E+00 
    6.5624999999908673E-01     0.0000000000000000E+00     0.0000000000000000E+00 
    6.7187499999912825E-01     0.0000000000000000E+00     0.0000000000000000E+00 
    6.8749999999916978E-01     0.0000000000000000E+00     0.0000000000000000E+00 
    7.0312499999921130E-01     0.0000000000000000E+00     0.0000000000000000E+00 
    7.1874999999925282E-01     0.0000000000000000E+00     0.0000000000000000E+00 
    7.3437499999929434E-01     0.0000000000000000E+00     0.0000000000000000E+00 
    7.4999999999933586E-01     0.0000000000000000E+00     0.0000000000000000E+00 
    7.6562499999937739E-01     0.0000000000000000E+00     0.0000000000000000E+00 
    7.8124999999941891E-01     0.0000000000000000E+00     0.0000000000000000E+00 
    7.9687499999946043E-01     0.0000000000000000E+00     0.0000000000000000E+00 
    8.1249999999950195E-01     0.0000000000000000E+00     0.0000000000000000E+00 
    8.2812499999954348E-01     0.0000000000000000E+00     0.0000000000000000E+00 
    8.4374999999958500E-01     0.0000000000000000E+00     0.0000000000000000E+00 
    8.5937499999962652E-01     0.0000000000000000E+00     0.0000000000000000E+00 
    8.7499999999966793E-01     0.0000000000000000E+00     0.0000000000000000E+00 
    8.9062499999970934E-01     0.0000000000000000E+00     0.0000000000000000E+00 
    9.0624999999975087E-01     0.0000000000000000E+00     0.0000000000000000E+00 
    9.2187499999979239E-01     0.0000000000000000E+00     0.0000000000000000E+00 
    9.3749999999983391E-01     0.0000000000000000E+00     0.0000000000000000E+00 
    9.5312499999987543E-01     0.0000000000000000E+00     0.0000000000000000E+00 
    9.6874999999991696E-01     0.0000000000000000E+00     0.0000000000000000E+00 
    9.8437499999995848E-01     0.0000000000000000E+00     0.0000000000000000E+00 
    1.0000000000000000E+00     1.5624999999970249E-02     0.0000000000000000E+00 
    1.0000000000000000E+00     3.1249999999940652E-02     0.0000000000000000E+00 
    1.0000000000000000E+00     4.6874999999905617E-02     0.0000000000000000E+00 
    1.0000000000000000E+00     6.2499999999870597E-02     0.0000000000000000E+00 
    1.0000000000000000E+00     7.8124999999846401E-02     0.0000000000000000E+00 
    1.0000000000000000E+00     9.3749999999822212E-02     0.0000000000000000E+00 
    1.0000000000000000E+00     1.0937499999979799E-01     0.0000000000000000E+00 
    1.0000000000000000E+00     1.2499999999977381E-01     0.0000000000000000E+00 
    1.0000000000000000E+00     1.4062499999972811E-01     0.0000000000000000E+00 
    1.0000000000000000E+00     1.5624999999968239E-01     0.0000000000000000E+00 
    1.0000000000000000E+00     1.7187499999963671E-01     0.0000000000000000E+00 
    1.0000000000000000E+00     1.8749999999959110E-01     0.0000000000000000E+00 
    1.0000000000000000E+00     2.0312499999954539E-01     0.0000000000000000E+00 
    1.0000000000000000E+00     2.1874999999949971E-01     0.0000000000000000E+00 
    1.0000000000000000E+00     2.3437499999945391E-01     0.0000000000000000E+00 
    1.0000000000000000E+00     2.4999999999940831E-01     0.0000000000000000E+00 
    1.0000000000000000E+00     2.6562499999936218E-01     0.0000000000000000E+00 
    1.0000000000000000E+00     2.8124999999931621E-01     0.0000000000000000E+00 
    1.0000000000000000E+00     2.9687499999927008E-01     0.0000000000000000E+00 
    1.0000000000000000E+00     3.1249999999922412E-01     0.0000000000000000E+00 
    1.0000000000000000E+00     3.2812499999917810E-01     0.0000000000000000E+00 
    1.0000000000000000E+00     3.4374999999913203E-01     0.0000000000000000E+00 
    1.0000000000000000E+00     3.5937499999908601E-01     0.0000000000000000E+00 
    1.0000000000000000E+00     3.7499999999903999E-01     0.0000000000000000E+00 
    1.0000000000000000E+00     3.9062499999899403E-01     0.0000000000000000E+00 
    1.0000000000000000E+00     4.0624999999894801E-01     0.0000000000000000E+00 
    1.0000000000000000E+00     4.2187499999890188E-01     0.0000000000000000E+00 
    1.0000000000000000E+00     4.3749999999885592E-01     0.0000000000000000E+00 
    1.0000000000000000E+00     4.5312499999880979E-01     0.0000000000000000E+00 
    1.0000000000000000E+00     4.6874999999876382E-01     0.0000000000000000E+00 
    1.0000000000000000E+00     4.8437499999871780E-01     0.0000000000000000E+00 
    1.0000000000000000E+00     4.9999999999867167E-01     0.0000000000000000E+00 
    1.0000000000000000E+00     5.1562499999871325E-01     0.0000000000000000E+00 
    1.0000000000000000E+00     5.3124999999875477E-01     0.0000000000000000E+00 
    1.0000000000000000E+00     5.4687499999879630E-01     0.0000000000000000E+00 
    1.0000000000000000E+00     5.6249999999883782E-01     0.0000000000000000E+00 
    1.0000000000000000E+00     5.7812499999887934E-01     0.0000000000000000E+00 
    1.0000000000000000E+00     5.9374999999892086E-01     0.0000000000000000E+00 
    1.0000000000000000E+00     6.0937499999896239E-01     0.0000000000000000E+00 
    1.0000000000000000E+00     6.2499999999900380E-01     0.0000000000000000E+00 
    1.0000000000000000E+00     6.4062499999904521E-01     0.0000000000000000E+00 
    1.0000000000000000E+00     6.5624999999908673E-01     0.0000000000000000E+00 
    1.0000000000000000E+00     6.7187499999912825E-01     0.0000000000000000E+00 
    1.0000000000000000E+00     6.8749999999916978E-01     0.0000000000000000E+00 
    1.0000000000000000E+00     7.0312499999921130E-01     0.0000000000000000E+00 
    1.0000000000000000E+00     7.1874999999925282E-01     0.0000000000000000E+00 
    1.0000000000000000E+00     7.3437499999929434E-01     0.0000000000000000E+00 
    1.0000000000000000E+00     7.4999999999933586E-01     0.0000000000000000E+00 
    1.0000000000000000E+00     7.6562499999937739E-01     0.0000000000000000E+00 
    1.0000000000000000E+00     7.8124999999941891E-01     0.0000000000000000E+00 
    1.0000000000000000E+00     7.9687499999946043E-01     0.0000000000000000E+00 
    1.0000000000000000E+00     8.1249999999950195E-01     0.0000000000000000E+00 
    1.0000000000000000E+00     8.2812499999954348E-01     0.0000000000000000E+00 
[...]
CELL_DATA 6144 
SCALARS Pressure double 1 
LOOKUP_TABLE default 

    2.5534074726101488E+00 
    2.4560410889804669E+00 
    2.4407347768201975E+00 
    2.4598083456104072E+00 
    2.4012041038941199E+00 
    2.3662495194797382E+00 
    2.3817475244172508E+00 
    2.4130588265565773E+00 
    2.4013660375725032E+00 
    2.4113699362453671E+00 
    2.3839759472158741E+00 
    2.3661680297209133E+00 
    2.3487940027471308E+00 
    2.3636294791222903E+00 
    2.3478167412475077E+00 
    2.3377247258517291E+00 
    2.3648966545567038E+00 
    2.3498998610008406E+00 
    2.3384189696099300E+00 
    2.3492135088366521E+00 
    2.3273837585647459E+00 
    2.3384611632559782E+00 
    2.3285804187051720E+00 
    2.3159692977189028E+00 
    2.3271476410391783E+00 
    2.3240802732661723E+00 
    2.3103817774408237E+00 
    2.3078873545043366E+00 
    2.3168906350515188E+00 
    2.3061095270037648E+00 
    2.2978455814094993E+00 
    2.3060686625140607E+00 
    2.2916250967559164E+00 
    2.2986244989331466E+00 
    2.2890568747564228E+00 
    2.2770569155162943E+00 
    2.2685219528619491E+00 
    2.2802954024196720E+00 
    2.2732449568722242E+00 
    2.2638621062072142E+00 
    2.2876739517093703E+00 
    2.2920064725739668E+00 
    2.2787013455462222E+00 
    2.2778872884210442E+00 
    2.2597903780789315E+00 
    2.2690422725294734E+00 
    2.2672336121494649E+00 
    2.2548460954540812E+00 
    2.2537563957877698E+00 
    2.2529891396579194E+00 
    2.2426927541299797E+00 
    2.2400131645012480E+00 
    2.2497967342841885E+00 
    2.2441051100655094E+00 
    2.2356646394192818E+00 
    2.2404009761963186E+00 
    2.2279334828471855E+00 
    2.2339873823688632E+00 
    2.2265975604423316E+00 
    2.2162383553943239E+00 
    2.2098218777902101E+00 
    2.2200189596696318E+00 
    2.2151494130050313E+00 
    2.2070415297746009E+00 
    2.2277855397559256E+00 
    2.2338027274821277E+00 
    2.2224121373560708E+00 
    2.2199851175956269E+00 
    2.2045261828881766E+00 
    2.2126499974534455E+00 
    2.2122745214421782E+00 
    2.2014063096051943E+00 
    2.1989900925045878E+00 
    2.1985004496204708E+00 
    2.1907262005893968E+00 
    2.1894911345362713E+00 
    2.1963177569197665E+00 
    2.1921057648967857E+00 
    2.1853598588933121E+00 
    2.1896810516255472E+00 
    2.1816967228593538E+00 
    2.1850000532966063E+00 
    2.1802202098377528E+00 
    2.1756680931975207E+00 
    2.1725056217533902E+00 
    2.1768542796133472E+00 
    2.1744897306413984E+00 
    2.1710790347504685E+00 
    2.1810695294182287E+00 
    2.1849139509178244E+00 
    2.1783783267651362E+00 
    2.1774331728625813E+00 
    2.1695569557696541E+00 
    2.1736434737484456E+00 
    2.1732411033880514E+00 
    2.1681710070657401E+00 
    2.1674210582100346E+00 
    2.1671112219379074E+00 
    2.1634438684949471E+00 
    2.1625681522087414E+00 
    2.1661201427729391E+00 
    2.1643832452969649E+00 
    2.1610743407115898E+00 
    2.1627608459561931E+00 
    2.1580161589804514E+00 
    2.1603701874955279E+00 
    2.1576597246387728E+00 
    2.1533988314604975E+00 
    2.1506094682886281E+00 
    2.1550914154039025E+00 
    2.1532019900559525E+00 
    2.1494735001822245E+00 
    2.1583175585704790E+00 
    2.1607357713308746E+00 
    2.1564702524405117E+00 
    2.1552540146139227E+00 
    2.1485562293460978E+00 
    2.1521821203681313E+00 
    2.1523677799016840E+00 
    2.1474199475196154E+00 
    2.1449704208712022E+00 
    2.1450039295440129E+00 
    2.1405178793540340E+00 
    2.1389715525081230E+00 
    2.1441196292494764E+00 
    2.1422880690483534E+00 
    2.1378424144758128E+00 
    2.1395731264679991E+00 
    2.1332710834319975E+00 
    2.1364458740178360E+00 
    2.1329560130878757E+00 
    2.1271472988521465E+00 
    2.1234267498169932E+00 
    2.1296757782922677E+00 
    2.1273471650030773E+00 
    2.1220492656102201E+00 
    2.1342511789555894E+00 
    2.1381115607467422E+00 
    2.1323953021885527E+00 
    2.1303071403629974E+00 
    2.1210409470355822E+00 
    2.1261395302635537E+00 
    2.1267420104305472E+00 
    2.1199360740054201E+00 
    2.1158107070459709E+00 
    2.1158780046163743E+00 
    2.1097581734183275E+00 
    2.1077973315491394E+00 
    2.1148781019234897E+00 
    2.1128024259804534E+00 
    2.1066233433934385E+00 
    2.1087908722599447E+00 
    2.1003423056191992E+00 
    2.1045160905726377E+00 
    2.1000899105539013E+00 
    2.0927178058909619E+00 
    2.0884305207568952E+00 
    2.0961769510065977E+00 
    2.0933891188002045E+00 
    2.0870764498442917E+00 
    2.1022476263043535E+00 
    2.1075392216691289E+00 
    2.1002410532013185E+00 
    2.0973881745360519E+00 
    2.0861065479615006E+00 
    2.0922856985850182E+00 
    2.0932576061454369E+00 
    2.0851745367028212E+00 
    2.0800352521996937E+00 
    2.0801064348682554E+00 
    2.0736368710925968E+00 
    2.0718938014944936E+00 
    2.0791136419485099E+00 
    2.0768618610203373E+00 
    2.0700278274123303E+00 
    2.0728165726336214E+00 
    2.0643993604177204E+00 
    2.0684018442364676E+00 
    2.0640461341463809E+00 
    2.0575214724256190E+00 
    2.0537105563401394E+00 
    2.0603558955106069E+00 
    2.0573372819533198E+00 
    2.0521450975477862E+00 
    2.0658507325615139E+00 
    2.0711918708315746E+00 
    2.0637533351820667E+00 
    2.0612851914733783E+00 
    2.0510872716060633E+00 
    2.0564185615043273E+00 
    2.0572333430211458E+00 
    2.0504000597777452E+00 
    2.0470669524708365E+00 
    2.0469094835449471E+00 
    2.0421523405150519E+00 
    2.0411204562691219E+00 
    2.0460240093429833E+00 
    2.0441767247437306E+00 
    2.0391809083443970E+00 
    2.0415712895758897E+00 
    2.0356831861824665E+00 
    2.0383968053940937E+00 
    2.0351919141394714E+00 
    2.0308513082280468E+00 
    2.0281774532110046E+00 
    2.0325779333381013E+00 
    2.0306251150756789E+00 
    2.0270929446586314E+00 
    2.0362358710106694E+00 
    2.0398181652190508E+00 
    2.0346793100044760E+00 
    2.0331411526438266E+00 
    2.0262412066235966E+00 
    2.0299164148219337E+00 
    2.0302150690567808E+00 
    2.0254940296923882E+00 
    2.0233455020220403E+00 
    2.0232017828436430E+00 
    2.0196710749735929E+00 
    2.0188596213855274E+00 
    2.0225211476841793E+00 
    2.0211721722258136E+00 
    2.0176694863174429E+00 
    2.0192422818533036E+00 
    2.0147891380094283E+00 
    2.0169000470759264E+00 
    2.0145229469432597E+00 
    2.0109836268338337E+00 
    2.0088323615260819E+00 
    2.0124596770368068E+00 
    2.0109870185463583E+00 
    2.0080174370462798E+00 
    2.0153437826963287E+00 
    2.0179722222816574E+00 
    2.0141483171606160E+00 
    2.0129297993425639E+00 
    2.0073969162359360E+00 
    2.0104144794043211E+00 
    2.0106855910734120E+00 
    2.0067573129854015E+00 
    2.0047704844765590E+00 
    2.0046936459812450E+00 
    2.0016076345301892E+00 
    2.0008802699197963E+00 
    2.0041354725184251E+00 
    2.0029314906729985E+00 
    1.9998625448105749E+00 
    2.0012127662898167E+00 
    1.9974068759231092E+00 
    1.9991968552198542E+00 
    1.9972052099409534E+00 
    1.9942504376591201E+00 
    1.9924129926377285E+00 
    1.9954198801727652E+00 
    1.9938925425463514E+00 
    1.9914711331584780E+00 
    1.9978224931027664E+00 
    2.0000852247377190E+00 
    1.9965442723347040E+00 
    1.9955676078590467E+00 
    1.9907912648343837E+00 
    1.9932597648311727E+00 
    1.9934175801994154E+00 
    1.9901150642182228E+00 
    1.9891283121811554E+00 
    1.9889361269455792E+00 
    1.9866412644053448E+00 
    1.9861580709641100E+00 
    1.9883531271791688E+00 
    1.9872240233621350E+00 
    1.9850705644291435E+00 
    1.9862496698516714E+00 
    1.9834892137718565E+00 
    1.9847882802425323E+00 
    1.9831305791261238E+00 
    1.9809754154789567E+00 
    1.9795317942244808E+00 
    1.9816927210084354E+00 
    1.9806143953237298E+00 
    1.9788157262585864E+00 
    1.9833927323717040E+00 
    1.9848353369353808E+00 
    1.9821458689512790E+00 
    1.9816542177609251E+00 
    1.9780841670794478E+00 
    1.9799541679516042E+00 
    1.9797605591031491E+00 
    1.9771328316256911E+00 
    1.9769585000562737E+00 
    1.9767898115784079E+00 
    1.9748640661389416E+00 
    1.9743805251428663E+00 
    1.9761400150318815E+00 
    1.9749603459536078E+00 
    1.9733479195018786E+00 
    1.9743203399952010E+00 
    1.9720263426380618E+00 
    1.9731574144883337E+00 
    1.9716936284148416E+00 
    1.9696763971718547E+00 
    1.9682520693752474E+00 
    1.9703268564296923E+00 
    1.9691625192247302E+00 
    1.9674201672420806E+00 
    1.9717477470446210E+00 
    1.9727723049289274E+00 
    1.9703757491614922E+00 
    1.9700494901239021E+00 
    1.9667022613650755E+00 
    1.9683966683996439E+00 
    1.9681565826165393E+00 
    1.9657094032110938E+00 
    1.9655962291489690E+00 
    1.9654769201913034E+00 
    1.9634821959670914E+00 
    1.9628815752696287E+00 
    1.9648459916942724E+00 
    1.9636380492264280E+00 
    1.9619612852459676E+00 
    1.9629349542943482E+00 
    1.9601387658945157E+00 
    1.9615700588256948E+00 
    1.9598410881637001E+00 
    1.9571940143627156E+00 
    1.9555584534479449E+00 
    1.9582224310451415E+00 
    1.9569686007624958E+00 
    1.9547739753334565E+00 
    1.9601743075860798E+00 
    1.9614170548502416E+00 
    1.9588563344060821E+00 
    1.9582583993566052E+00 
    1.9540840468405603E+00 
    1.9562557662630948E+00 
    1.9561827514564605E+00 
    1.9531381250912865E+00 
    1.9526503484397655E+00 
    1.9524948465834195E+00 
    1.9504108963403071E+00 
    1.9499471399926498E+00 
    1.9518765348626923E+00 
    1.9506867256540708E+00 
    1.9489589372682563E+00 
    1.9499468972045757E+00 
    1.9476944717455478E+00 
    1.9487642871656492E+00 
    1.9474174019130788E+00 
    1.9457034354449301E+00 
    1.9445793603077548E+00 
    1.9461778710831776E+00 
    1.9450587657862461E+00 
    1.9438047961568550E+00 
    1.9474033229589804E+00 
    1.9484286207905193E+00 
    1.9460288445732754E+00 
    1.9458157107171516E+00 
    1.9430782115731979E+00 
    1.9443883535745443E+00 
    1.9440324448801429E+00 
    1.9421192124806306E+00 
    1.9428636046075283E+00 
    1.9425675806628033E+00 
    1.9415619027469990E+00 
    1.9415346597017036E+00 
    1.9419615422409051E+00 
    1.9409414594156382E+00 
    1.9404820259157314E+00 
    1.9412189082821671E+00 
    1.9406109950039938E+00 
    1.9408589552161075E+00 
    1.9402254696487307E+00 
    1.9400440119306772E+00 
    1.9398484069642783E+00 
    1.9396918661724656E+00 
    1.9391225988946603E+00 
    1.9393463202492907E+00 
    1.9396173392793838E+00 
    1.9394361676400831E+00 
    1.9383478562887659E+00 
    1.9389195964147203E+00 
    1.9385496921070169E+00 
    1.9385480695746444E+00 
    1.9377239178071075E+00 
    1.9374510829743428E+00 
    2.3284128760992218E+00 
    2.3100923736907992E+00 
    2.3112035662185777E+00 
    2.3245761025420948E+00 
    2.2945112194372093E+00 
    2.2807209925144027E+00 
    2.2917508795628816E+00 
    2.3000229415133004E+00 
    2.3177445867093547E+00 
    2.3073187250564300E+00 
    2.2993990284303694E+00 
    2.3069815943568206E+00 
    2.2931388127354846E+00 
    2.2901114876995479E+00 
    2.2804839567695896E+00 
    2.2802626339985546E+00 
    2.2830699827831404E+00 
    2.2719517960752871E+00 
    2.2666573196242790E+00 
    2.2753138147154996E+00 
    2.2692501195255308E+00 
    2.2712606536757733E+00 
    2.2621407898630501E+00 
    2.2570705886556115E+00 
    2.2868628036889356E+00 
    2.2765562896473055E+00 
    2.2706365465492149E+00 
    2.2757457539305719E+00 
    2.2664999922002145E+00 
    2.2549462310089123E+00 
    2.2553810688178837E+00 
    2.2638318119618264E+00 
    2.2653520944474823E+00 
    2.2635176777686570E+00 
    2.2548756431760451E+00 
    2.2535167063185564E+00 
    2.2424347901750967E+00 
    2.2458962964858160E+00 
    2.2378885425940331E+00 
    2.2336222115613684E+00 
    2.2463428803780636E+00 
    2.2438470425810135E+00 
    2.2345381277263554E+00 
    2.2380385785430947E+00 
    2.2262053009147280E+00 
    2.2317702084500692E+00 
    2.2266192296458955E+00 
    2.2180034265478836E+00 
    2.2332311280693813E+00 
    2.2270936191463053E+00 
    2.2200701972352732E+00 
    2.2222093614440612E+00 
    2.2203212811259729E+00 
    2.2115939188266842E+00 
    2.2080626557891856E+00 
    2.2149674729413289E+00 
    2.2123570430106989E+00 
    2.2127622175168176E+00 
    2.2049305758713720E+00 
    2.2014710241706736E+00 
    2.1924292376233172E+00 
    2.1973735627109603E+00 
    2.1906163967937116E+00 
    2.1859981394873915E+00 
    2.1999616806843765E+00 
    2.2006354096425103E+00 
    2.1900960242494136E+00 
    2.1920504843729600E+00 
    2.1806866008869803E+00 
    2.1860252682974304E+00 
    2.1819874810089352E+00 
    2.1752041469475878E+00 
    2.1851824049708486E+00 
    2.1809728639497123E+00 
    2.1768502958967875E+00 
    2.1789460934179257E+00 
    2.1766625974523635E+00 
    2.1716000414501906E+00 
    2.1698543274296767E+00 
    2.1748961074045385E+00 
    2.1731144373725302E+00 
    2.1733398742890198E+00 
    2.1691332254484177E+00 
    2.1680164961728012E+00 
    2.1639389593024854E+00 
    2.1654354494045278E+00 
    2.1622027701013899E+00 
    2.1606870114161958E+00 
    2.1663036548436172E+00 
    2.1659882254822618E+00 
    2.1614036403954895E+00 
    2.1628012285611851E+00 
    2.1576591801292615E+00 
    2.1599753357285789E+00 
    2.1579105058479850E+00 
    2.1545582595783879E+00 
    2.1606145258308649E+00 
    2.1583622230280968E+00 
    2.1558295979375237E+00 
    2.1565167663117659E+00 
    2.1557533370152675E+00 
    2.1524279939445909E+00 
    2.1513119495700366E+00 
    2.1537977718276644E+00 
    2.1527535488375245E+00 
    2.1530802828317221E+00 
    2.1500806998548616E+00 
    2.1482277100950364E+00 
    2.1441455896275992E+00 
    2.1468473467727169E+00 
    2.1439352320819061E+00 
    2.1411135322306518E+00 
    2.1480043516051173E+00 
    2.1482216931282099E+00 
    2.1441561821081567E+00 
    2.1446322254831407E+00 
    2.1386548250448065E+00 
    2.1416608094316780E+00 
    2.1403129938702175E+00 
    2.1358003442824729E+00 
    2.1389822289269049E+00 
    2.1372822885968827E+00 
    2.1332100154028604E+00 
    2.1331415694444740E+00 
    2.1349956384747690E+00 
    2.1317574745188819E+00 
    2.1285867948677222E+00 
    2.1312323050583415E+00 
    2.1278899119104957E+00 
    2.1292350583060435E+00 
    2.1253651134159974E+00 
    2.1216659751434959E+00 
    2.1165527241722759E+00 
    2.1214507062583645E+00 
    2.1180912764105995E+00 
    2.1134783356224749E+00 
    2.1245263800555705E+00 
    2.1267976859973112E+00 
    2.1210044269442192E+00 
    2.1202274485602097E+00 
    2.1111761086535483E+00 
    2.1160156936272272E+00 
    2.1154028622206464E+00 
    2.1087437768131423E+00 
    2.1093251977498024E+00 
    2.1077894601568437E+00 
    2.1021586619514130E+00 
    2.1017064269131982E+00 
    2.1055360646000358E+00 
    2.1021791562600729E+00 
    2.0969875689286268E+00 
    2.1002872482190846E+00 
    2.0950010886817170E+00 
    2.0971081391767976E+00 
    2.0923633765800425E+00 
    2.0874801992629131E+00 
    2.0816042733019251E+00 
    2.0878308241016672E+00 
    2.0840419400765726E+00 
    2.0783793657340248E+00 
    2.0923500251765161E+00 
    2.0962958727577465E+00 
    2.0889395753454374E+00 
    2.0873017029541030E+00 
    2.0760743499164982E+00 
    2.0821056850845125E+00 
    2.0819749598744317E+00 
    2.0739360702507836E+00 
    2.0733861616263622E+00 
    2.0718030410132453E+00 
    2.0656012430386124E+00 
    2.0653265917581125E+00 
    2.0695613579239613E+00 
    2.0661739490410902E+00 
    2.0603212127995087E+00 
    2.0640674033301516E+00 
    2.0586517354458413E+00 
    2.0606409835947255E+00 
    2.0558566069494755E+00 
    2.0518421400409572E+00 
    2.0467510877347883E+00 
    2.0515827136771958E+00 
    2.0479768960478015E+00 
    2.0437827709745484E+00 
    2.0558197465366970E+00 
    2.0599903166577769E+00 
    2.0525782045570842E+00 
    2.0511492523045067E+00 
    2.0415829677692772E+00 
    2.0464823143193263E+00 
    2.0463093202127558E+00 
    2.0399699458305642E+00 
    2.0411086438339852E+00 
    2.0394312549219964E+00 
    2.0353733932878133E+00 
    2.0356038353921773E+00 
    2.0374270017078535E+00 
    2.0346361692336004E+00 
    2.0309469736183781E+00 
    2.0341513836867500E+00 
    2.0309054617374742E+00 
    2.0319707228488051E+00 
    2.0285176858214569E+00 
    2.0262325834793038E+00 
    2.0226412615261395E+00 
    2.0254385684048049E+00 
    2.0230003508337719E+00 
    2.0204373730297829E+00 
    2.0277919823492465E+00 
    2.0300366152422020E+00 
    2.0252112739681158E+00 
    2.0247126296701157E+00 
    2.0186410925081435E+00 
    2.0217732317070127E+00 
    2.0212174817817044E+00 
    2.0170577050708407E+00 
    2.0187398801380971E+00 
    2.0174369651072914E+00 
    2.0146063961548766E+00 
    2.0147557775057390E+00 
    2.0158290337339095E+00 
    2.0136007907599396E+00 
    2.0112608295730885E+00 
    2.0135006926161085E+00 
    2.0112891223601332E+00 
    2.0120865134058783E+00 
    2.0094474124332011E+00 
    2.0074891878541488E+00 
    2.0043804376914687E+00 
    2.0068114933691410E+00 
    2.0046329365666509E+00 
    2.0022998563052812E+00 
    2.0085474624347586E+00 
    2.0100330109510787E+00 
    2.0061544307900152E+00 
    2.0058165612540471E+00 
    2.0005536105368060E+00 
    2.0032567133766181E+00 
    2.0026167280447740E+00 
    1.9986517594399100E+00 
    2.0007402392887568E+00 
    1.9995550937394673E+00 
    1.9968157240789364E+00 
    1.9969691940278589E+00 
    1.9978456909185596E+00 
    1.9953504033169649E+00 
    1.9933151856569544E+00 
    1.9955305580207032E+00 
    1.9937770773821313E+00 
    1.9942866181739045E+00 
    1.9917963535600380E+00 
    1.9904039945909953E+00 
    1.9876290958060139E+00 
    1.9893953537321358E+00 
    1.9872856590509098E+00 
    1.9855373378657049E+00 
    1.9906780153423933E+00 
    1.9917505714320427E+00 
    1.9880832064623832E+00 
    1.9881345268168298E+00 
    1.9836885173865388E+00 
    1.9858766674074273E+00 
    1.9849337421937892E+00 
    1.9816433003351510E+00 
    1.9849311460863643E+00 
    1.9834934393574439E+00 
    1.9815396727266266E+00 
    1.9820864609443487E+00 
    1.9817358709863784E+00 
    1.9793097355112759E+00 
    1.9782884490873822E+00 
    1.9802506061241445E+00 
    1.9796487630078552E+00 
    1.9796597269124463E+00 
    1.9775561356387397E+00 
    1.9769042400015340E+00 
    1.9744184097294100E+00 
    1.9753118522859474E+00 
    1.9732889485157699E+00 
    1.9722312481034572E+00 
    1.9758152760850605E+00 
    1.9760068480558763E+00 
    1.9729151951437558E+00 
    1.9735303335195573E+00 
    1.9702059613662313E+00 
    1.9717160702286125E+00 
    1.9703793993662337E+00 
    1.9678139171033804E+00 
    1.9724420267721703E+00 
    1.9708483687744907E+00 
    1.9693289615008203E+00 
    1.9700270353497853E+00 
    1.9689201981121642E+00 
    1.9663504175808884E+00 
    1.9660017893215622E+00 
    1.9678579765779007E+00 
    1.9678833987317201E+00 
    1.9676048643665820E+00 
    1.9657104799831027E+00 
    1.9653954527272546E+00 
    1.9629958343691218E+00 
    1.9636398566476247E+00 
    1.9616846303966977E+00 
    1.9607628089404880E+00 
    1.9637265685401375E+00 
    1.9632833195693942E+00 
    1.9606979344969482E+00 
    1.9616147581667218E+00 
    1.9587195976421585E+00 
    1.9599994220847921E+00 
    1.9584892195984434E+00 
    1.9562246905005736E+00 
    1.9610523187281776E+00 
    1.9594303850762056E+00 
    1.9579319912149513E+00 
    1.9585922295960074E+00 
    1.9575192861457371E+00 
    1.9550047408073770E+00 
    1.9547136168679264E+00 
    1.9564729686372013E+00 
    1.9561908317453718E+00 
    1.9561600118748572E+00 
    1.9540646797945762E+00 
    1.9531158580045884E+00 
    1.9504953361337563E+00 
    1.9518159708647680E+00 
    1.9498139038353153E+00 