# vtk DataFile Version 2.0
Pressure Field Data 
ASCII 
DATASET UNSTRUCTURED_GRID 

POINTS 6273 double 

    0.0000000000000000E+00     0.0000000000000000E+00     0.0000000000000000E+00 
    1.0000000000000000E+00     0.0000000000000000E+00     0.0000000000000000E+00 
    1.0000000000000000E+00     1.0000000000000000E+00     0.0000000000000000E+00 
    0.0000000000000000E+00     1.0000000000000000E+00     0.0000000000000000E+00 
    1.5624999999970249E-02     0.0000000000000000E+00     0.0000000000000000E+00 
    3.1249999999940652E-02     0.0000000000000000E+00     0.0000000000000000E+00 
    4.6874999999905617E-02     0.0000000000000000E+00     0.0000000000000000E+00 
    6.2499999999870597E-02     0.0000000000000000E+00     0.0000000000000000E+00 
    7.8124999999846401E-02     0.0000000000000000E+00     0.0000000000000000E+00 
    9.3749999999822212E-02     0.0000000000000000E+00     0.0000000000000000E+00 
    1.0937499999979799E-01     0.0000000000000000E+00     0.0000000000000000E+00 
    1.2499999999977381E-01     0.0000000000000000E+00     0.0000000000000000E+00 
    1.4062499999972811E-01     0.0000000000000000E+00     0.0000000000000000E+00 
    1.5624999999968239E-01     0.0000000000000000E+00     0.0000000000000000E+00 
    1.7187499999963671E-01     0.0000000000000000E+00     0.0000000000000000E+00 
    1.8749999999959110E-01     0.0000000000000000E+00     0.0000000000000000E+00 
    2.0312499999954539E-01     0.0000000000000000E+00     0.0000000000000000E+00 
    2.1874999999949971E-01     0.0000000000000000E+00     0.0000000000000000E+00 
    2.3437499999945391E-01     0.0000000000000000E+00     0.0000000000000000E+00 
    2.4999999999940831E-01     0.0000000000000000E+00     0.0000000000000000E+00 
    2.6562499999936218E-01     0.0000000000000000E+00     0.0000000000000000E+00 
    2.8124999999931621E-01     0.0000000000000000E+00     0.0000000000000000E+00 
    2.9687499999927008E-01     0.0000000000000000E+00     0.0000000000000000E+00 
    3.1249999999922412E-01     0.0000000000000000E+00     0.0000000000000000E+00 
    3.2812499999917810E-01     0.0000000000000000E+00     0.0000000000000000E+00 
    3.4374999999913203E-01     0.0000000000000000E+00     0.0000000000000000E+00 
    3.5937499999908601E-01     0.0000000000000000E+00     0.0000000000000000E+00 
    3.7499999999903999E-01     0.0000000000000000E+00     0.0000000000000000E+00 
    3.9062499999899403E-01     0.0000000000000000E+00     0.0000000000000000E+00 
    4.0624999999894801E-01     0.0000000000000000E+00     0.0000000000000000E+00 
    4.2187499999890188E-01     0.0000000000000000E+00     0.0000000000000000E+00 
    4.3749999999885592E-01     0.0000000000000000E+00     0.0000000000000000E+00 
    4.5312499999880979E-01     0.0000000000000000E+00     0.0000000000000000E+00 
    4.6874999999876382E-01     0.0000000000000000E+00     0.0000000000000000E+00 
    4.8437499999871780E-01     0.0000000000000000E+00     0.0000000000000000E+00 
    4.9999999999867167E-01     0.0000000000000000E+00     0.0000000000000000E+00 
    5.1562499999871325E-01     0.0000000000000000E+00     0.0000000000000000E+00 
    5.3124999999875477E-01     0.0000000000000000E+00     0.0000000000000000E+00 
    5.4687499999879630E-01     0.0000000000000000E+00     0.0000000000000000E+00 
    5.6249999999883782E-01     0.0000000000000000E+00     0.0000000000000000E+00 
    5.7812499999887934E-01     0.0000000000000000E+00     0.0000000000000000E+00 
    5.9374999999892086E-01     0.0000000000000000E+00     0.0000000000000000E+00 
    6.0937499999896239E-01     0.0000000000000000E+00     0.0000000000000000E+00 
    6.2499999999900380E-01     0.0000000000000000E+00     0.0000000000000000E+00 
    6.4062499999904521E-01     0.0000000000000000E+00     0.0000000000000000E+00 
    6.5624999999908673E-01     0.0000000000000000E+00     0.0000000000000000E+00 
    6.7187499999912825E-01     0.0000000000000000E+00     0.0000000000000000E+00 
    6.8749999999916978E-01     0.0000000000000000E+00     0.0000000000000000E+00 
    7.0312499999921130E-01     0.0000000000000000E+00     0.0000000000000000E+00 
    7.1874999999925282E-01     0.0000000000000000E+00     0.0000000000000000E+00 
    7.3437499999929434E-01     0.0000000000000000E+00     0.0000000000000000E+00 
    7.4999999999933586E-01     0.0000000000000000E+00     0.0000000000000000E+00 
    7.6562499999937739E-01     0.0000000000000000E+00     0.0000000000000000E+00 
    7.8124999999941891E-01     0.0000000000000000E+00     0.0000000000000000E+00 
    7.9687499999946043E-01     0.0000000000000000E+00     0.0000000000000000E+00 
    8.1249999999950195E-01     0.0000000000000000E+00     0.0000000000000000E+00 
    8.2812499999954348E-01     0.0000000000000000E+00     0.0000000000000000E+00 
    8.4374999999958500E-01     0.0000000000000000E+00     0.0000000000000000E+00 
    8.5937499999962652E-01     0.0000000000000000E+00     0.0000000000000000E+00 
    8.7499999999966793E-01     0.0000000000000000E+00     0.0000000000000000E+00 
    8.9062499999970934E-01     0.0000000000000000E+00     0.0000000000000000E+00 
    9.0624999999975087E-01     0.0000000000000000E+00     0.0000000000000000E+00 
    9.2187499999979239E-01     0.0000000000000000E+00     0.0000000000000000E+00 
    9.3749999999983391E-01     0.0000000000000000E+00     0.0000000000000000E+00 
    9.5312499999987543E-01     0.0000000000000000E+00     0.0000000000000000E+00 
    9.6874999999991696E-01     0.0000000000000000E+00     0.0000000000000000E+00 
    9.8437499999995848E-01     0.0000000000000000E+00     0.0000000000000000E+00 
    1.0000000000000000E+00     1.5624999999970249E-02     0.0000000000000000E+00 
    1.0000000000000000E+00     3.1249999999940652E-02     0.0000000000000000E+00 
    1.0000000000000000E+00     4.6874999999905617E-02     0.0000000000000000E+00 
    1.0000000000000000E+00     6.2499999999870597E-02     0.0000000000000000E+00 
    1.0000000000000000E+00     7.8124999999846401E-02     0.0000000000000000E+00 
    1.0000000000000000E+00     9.3749999999822212E-02     0.0000000000000000E+00 
    1.0000000000000000E+00     1.0937499999979799E-01     0.0000000000000000E+00 
    1.0000000000000000E+00     1.2499999999977381E-01     0.0000000000000000E+00 
    1.0000000000000000E+00     1.4062499999972811E-01     0.0000000000000000E+00 
    1.0000000000000000E+00     1.5624999999968239E-01     0.0000000000000000E+00 
    1.0000000000000000E+00     1.7187499999963671E-01     0.0000000000000000E+00 
    1.0000000000000000E+00     1.8749999999959110E-01     0.0000000000000000E+00 
    1.0000000000000000E+00     2.0312499999954539E-01     0.0000000000000000E+00 
    1.0000000000000000E+00     2.1874999999949971E-01     0.0000000000000000E+00 
    1.0000000000000000E+00     2.3437499999945391E-01     0.0000000000000000E+00 
    1.0000000000000000E+00     2.4999999999940831E-01     0.0000000000000000E+00 
    1.0000000000000000E+00     2.6562499999936218E-01     0.0000000000000000E+00 
    1.0000000000000000E+00     2.8124999999931621E-01     0.0000000000000000E+00 
    1.0000000000000000E+00     2.9687499999927008E-01     0.0000000000000000E+00 
    1.0000000000000000E+00     3.1249999999922412E-01     0.0000000000000000E+00 
    1.0000000000000000E+00     3.2812499999917810E-01     0.0000000000000000E+00 
    1.0000000000000000E+00     3.4374999999913203E-01     0.0000000000000000E+00 
    1.0000000000000000E+00     3.5937499999908601E-01     0.0000000000000000E+00 
    1.0000000000000000E+00     3.7499999999903999E-01     0.0000000000000000E+00 
    1.0000000000000000E+00     3.9062499999899403E-01     0.0000000000000000E+00 
    1.0000000000000000E+00     4.0624999999894801E-01     0.0000000000000000E+00 
    1.0000000000000000E+00     4.2187499999890188E-01     0.0000000000000000E+00 
    1.0000000000000000E+00     4.3749999999885592E-01     0.0000000000000000E+00 
    1.0000000000000000E+00     4.5312499999880979E-01     0.0000000000000000E+00 
    1.0000000000000000E+00     4.6874999999876382E-01     0.0000000000000000E+00 
    1.0000000000000000E+00     4.8437499999871780E-01     0.0000000000000000E+00 
    1.0000000000000000E+00     4.9999999999867167E-01     0.0000000000000000E+00 
    1.0000000000000000E+00     5.1562499999871325E-01     0.0000000000000000E+00 
    1.0000000000000000E+00     5.3124999999875477E-01     0.0000000000000000E+00 
    1.0000000000000000E+00     5.4687499999879630E-01     0.0000000000000000E+00 
    1.0000000000000000E+00     5.6249999999883782E-01     0.0000000000000000E+00 
    1.0000000000000000E+00     5.7812499999887934E-01     0.0000000000000000E+00 
    1.0000000000000000E+00     5.9374999999892086E-01     0.0000000000000000E+00 
    1.0000000000000000E+00     6.0937499999896239E-01     0.0000000000000000E+00 
    1.0000000000000000E+00     6.2499999999900380E-01     0.0000000000000000E+00 
    1.0000000000000000E+00     6.4062499999904521E-01     0.0000000000000000E+00 
    1.0000000000000000E+00     6.5624999999908673E-01     0.0000000000000000E+00 
    1.0000000000000000E+00     6.7187499999912825E-01     0.0000000000000000E+00 
    1.0000000000000000E+00     6.8749999999916978E-01     0.0000000000000000E+00 
    1.0000000000000000E+00     7.0312499999921130E-01     0.0000000000000000E+00 
    1.0000000000000000E+00     7.1874999999925282E-01     0.0000000000000000E+00 
    1.0000000000000000E+00     7.3437499999929434E-01     0.0000000000000000E+00 
    1.0000000000000000E+00     7.4999999999933586E-01     0.0000000000000000E+00 
    1.0000000000000000E+00     7.6562499999937739E-01     0.0000000000000000E+00 
    1.0000000000000000E+00     7.8124999999941891E-01     0.0000000000000000E+00 
    1.0000000000000000E+00     7.9687499999946043E-01     0.0000000000000000E+00 
    1.0000000000000000E+00     8.1249999999950195E-01     0.0000000000000000E+00 
    1.0000000000000000E+00     8.2812499999954348E-01     0.0000000000000000E+00 
[...]
CELL_DATA 6144 
SCALARS Pressure double 1 
LOOKUP_TABLE default 

    2.7230026281787167E+00 
    2.6256242113190571E+00 
    2.6103085280939733E+00 
    2.6294000303606895E+00 
    2.5707677270731510E+00 
    2.5357577837600220E+00 
    2.5512850868191355E+00 
    2.5826471144698573E+00 
    2.5708978011223951E+00 
    2.5809356744475935E+00 
    2.5534982207628469E+00 
    2.5356229260286884E+00 
    2.5181828044194785E+00 
    2.5331073815854186E+00 
    2.5172464456132948E+00 
    2.5070898002320035E+00 
    2.5344014307137575E+00 
    2.5193556199810581E+00 
    2.5078345941947520E+00 
    2.5186655305289229E+00 
    2.4966998838975978E+00 
    2.5078575919944286E+00 
    2.4979326474980259E+00 
    2.4852122292278302E+00 
    2.4964116467657287E+00 
    2.4933367813123999E+00 
    2.4794964786537621E+00 
    2.4769640091132783E+00 
    2.4861010784679820E+00 
    2.4752256512018196E+00 
    2.4668292019016782E+00 
    2.4751502232097318E+00 
    2.4604687898125883E+00 
    2.4675957995920133E+00 
    2.4578838136966636E+00 
    2.4456407124091890E+00 
    2.4369438131760925E+00 
    2.4489854703501952E+00 
    2.4418143082299393E+00 
    2.4322205841474207E+00 
    2.4565184800166704E+00 
    2.4609482602743094E+00 
    2.4474230801655277E+00 
    2.4465679048523579E+00 
    2.4280736917349333E+00 
    2.4375471724352176E+00 
    2.4357254930508008E+00 
    2.4230414662483795E+00 
    2.4218437210514807E+00 
    2.4210648015021605E+00 
    2.4104688114797437E+00 
    2.4077199196923416E+00 
    2.4178053553779995E+00 
    2.4119817890304245E+00 
    2.4032496474918408E+00 
    2.4081327672672299E+00 
    2.3952552013541086E+00 
    2.4015141726496574E+00 
    2.3938841593962579E+00 
    2.3831737853416501E+00 
    2.3765452957497040E+00 
    2.3870960067150788E+00 
    2.3820595015932198E+00 
    2.3736722523131046E+00 
    2.3951369436245846E+00 
    2.4013839736225830E+00 
    2.3896092792323400E+00 
    2.3870810140896572E+00 
    2.3710713639073631E+00 
    2.3794950038449634E+00 
    2.3791138418220275E+00 
    2.3678702089566181E+00 
    2.3653691829278332E+00 
    2.3648394613347756E+00 
    2.3568138253500979E+00 
    2.3555514955644163E+00 
    2.3625878976405001E+00 
    2.3582637740641625E+00 
    2.3512641950665070E+00 
    2.3557690270992988E+00 
    2.3474242958212406E+00 
    2.3508865362742775E+00 
    2.3459221248375761E+00 
    2.3410862296748061E+00 
    2.3377291171779575E+00 
    2.3424028619842012E+00 
    2.3399317475719479E+00 
    2.3362426054574787E+00 
    2.3468567937012512E+00 
    2.3508752594830185E+00 
    2.3440928123695057E+00 
    2.3430458358562487E+00 
    2.3346474737631651E+00 
    2.3390165172527420E+00 
    2.3385974124972986E+00 
    2.3331399913923563E+00 
    2.3323097727404329E+00 
    2.3319841727733670E+00 
    2.3280443194701874E+00 
    2.3270997870170191E+00 
    2.3309237660771314E+00 
    2.3290537432284633E+00 
    2.3254867594835660E+00 
    2.3273185829013601E+00 
    2.3221867868887438E+00 
    2.3247284738095160E+00 
    2.3217946265946718E+00 
    2.3172087371355623E+00 
    2.3142073550791777E+00 
    2.3190304236790316E+00 
    2.3169998517497215E+00 
    2.3129880441332671E+00 
    2.3225233027149095E+00 
    2.3251372410188420E+00 
    2.3205332865565711E+00 
    2.3192254885571186E+00 
    2.3119997746206966E+00 
    2.3159160803505974E+00 
    2.3161162791852958E+00 
    2.3107842124840192E+00 
    2.3081237963499541E+00 
    2.3081591317798638E+00 
    2.3033092484807041E+00 
    2.3016531570460135E+00 
    2.3072211023552027E+00 
    2.3052623299237869E+00 
    2.3004469640584997E+00 
    2.3023187192566787E+00 
    2.2954941400904678E+00 
    2.2989321882189575E+00 
    2.2951683230075623E+00 
    2.2888952490133905E+00 
    2.2848826134209181E+00 
    2.2916510228098259E+00 
    2.2891491522400380E+00 
    2.2834074111595259E+00 
    2.2966002835790893E+00 
    2.3007677565641860E+00 
    2.2946325233297156E+00 
    2.2923649988112360E+00 
    2.2823483182806559E+00 
    2.2878733622637712E+00 
    2.2885480407914622E+00 
    2.2812011946821400E+00 
    2.2766432203902722E+00 
    2.2767123411849250E+00 
    2.2700879359606638E+00 
    2.2680044448540126E+00 
    2.2756691197408112E+00 
    2.2734741048132272E+00 
    2.2667399737718132E+00 
    2.2690998875987085E+00 
    2.2599605688066453E+00 
    2.2644594470333086E+00 
    2.2596851835327265E+00 
    2.2517654166000698E+00 
    2.2471411712807776E+00 
    2.2554882651045185E+00 
    2.2524945192348604E+00 
    2.2456750968839785E+00 
    2.2620644764094138E+00 
    2.2678147412587060E+00 
    2.2599333427734463E+00 
    2.2568362590148499E+00 
    2.2446353301475437E+00 
    2.2513263619634194E+00 
    2.2523937703573642E+00 
    2.2436538277273894E+00 
    2.2380370333733612E+00 
    2.2381241265160718E+00 
    2.2310949196989496E+00 
    2.2291956414094001E+00 
    2.2370647736817135E+00 
    2.2346521531396615E+00 
    2.2272191160170687E+00 
    2.2302224888809574E+00 
    2.2210653862926293E+00 
    2.2254156606847268E+00 
    2.2206980911055338E+00 
    2.2136114442388082E+00 
    2.2094558498606904E+00 
    2.2167214917395550E+00 
    2.2134623083711049E+00 
    2.2077371101462284E+00 
    2.2227195209063981E+00 
    2.2285436293463738E+00 
    2.2205234376888003E+00 
    2.2177928104615630E+00 
    2.2066268552503723E+00 
    2.2124894458463755E+00 
    2.2134506108392538E+00 
    2.2059581358669593E+00 
    2.2020607897659117E+00 
    2.2019103607782049E+00 
    2.1965994334941770E+00 
    2.1954159649205351E+00 
    2.2009844752935139E+00 
    2.1990140888672243E+00 
    2.1933706094989591E+00 
    2.1959938193037760E+00 
    2.1893271125608362E+00 
    2.1924023328240092E+00 
    2.1888218476655639E+00 
    2.1838888265810725E+00 
    2.1808744935217583E+00 
    2.1859125486654243E+00 
    2.1837507087132391E+00 
    2.1796970663288229E+00 
    2.1901137474265542E+00 
    2.1942296139557391E+00 
    2.1884761876261023E+00 
    2.1866516709466182E+00 
    2.1788091068250171E+00 
    2.1830159449299411E+00 
    2.1834460223900369E+00 
    2.1780673600835971E+00 
    2.1753709332413171E+00 
    2.1752381506278859E+00 
    2.1711936020269600E+00 
    2.1702575980702381E+00 
    2.1745216841628485E+00 
    2.1730548717865519E+00 
    2.1689630071586414E+00 
    2.1707498547346642E+00 
    2.1655946307625347E+00 
    2.1680284428131236E+00 
    2.1653118993524041E+00 
    2.1612451345478467E+00 
    2.1587885939067117E+00 
    2.1629683641849144E+00 
    2.1613016681007520E+00 
    2.1578752446927925E+00 
    2.1663367403834202E+00 
    2.1694448769493633E+00 
    2.1650360089445404E+00 
    2.1635750764766213E+00 
    2.1571855386579921E+00 
    2.1606778521678449E+00 
    2.1610332026911956E+00 
    2.1564908891631944E+00 
    2.1541448334890037E+00 
    2.1540576406736403E+00 
    2.1505229981927898E+00 
    2.1496968175813937E+00 
    2.1534275116981627E+00 
    2.1520646252447535E+00 
    2.1485310694380000E+00 
    2.1500851757704829E+00 
    2.1457099086121851E+00 
    2.1477668543976733E+00 
    2.1454849774668854E+00 
    2.1420800385954375E+00 
    2.1399507310506962E+00 
    2.1434385524896822E+00 
    2.1416952404884637E+00 
    2.1388747739266876E+00 
    2.1462104295602158E+00 
    2.1488226535789052E+00 
    2.1447924579160822E+00 
    2.1436433547555795E+00 
    2.1381086095974284E+00 
    2.1409792536446521E+00 
    2.1412086972530426E+00 
    2.1373679808019292E+00 
    2.1360741212775451E+00 
    2.1358789797413444E+00 
    2.1331273433776743E+00 
    2.1325046760191011E+00 
    2.1352174781830278E+00 
    2.1339177784016701E+00 
    2.1312879912981995E+00 
    2.1326509081332463E+00 
    2.1292660534677221E+00 
    2.1308756962776556E+00 
    2.1288651952371684E+00 
    2.1261528082169616E+00 
    2.1243647623157451E+00 
    2.1271128516141813E+00 
    2.1258210710795442E+00 
    2.1235252712310531E+00 
    2.1292618402913837E+00 
    2.1311042799708741E+00 
    2.1278567876372154E+00 
    2.1271569222094335E+00 
    2.1227070712564946E+00 
    2.1250646917241558E+00 
    2.1249338658229098E+00 
    2.1216712996157430E+00 
    2.1211108099683438E+00 
    2.1209432556807513E+00 
    2.1184718068112636E+00 
    2.1178265853774283E+00 
    2.1202025356023579E+00 
    2.1188411808780363E+00 
    2.1166419284365445E+00 
    2.1178535672921548E+00 
    2.1146020879202734E+00 
    2.1162434893056461E+00 
    2.1142321081915916E+00 
    2.1110963439580326E+00 
    2.1090494182692918E+00 
    2.1123980366599189E+00 
    2.1108648425037684E+00 
    2.1080537476901640E+00 
    2.1146505882191748E+00 
    2.1162025947341481E+00 
    2.1131586955706161E+00 
    2.1124680852447391E+00 
    2.1072673868287972E+00 
    2.1100563388380649E+00 
    2.1101385627673399E+00 
    2.1063945817241172E+00 
    2.1052744637459759E+00 
    2.1052181672548747E+00 
    2.1025522489657025E+00 
    2.1017723658509238E+00 
    2.1045093397558423E+00 
    2.1030965319537076E+00 
    2.1006949560570565E+00 
    2.1019212561605469E+00 
    2.0986285360872601E+00 
    2.1002316717401128E+00 
    2.0982938729601965E+00 
    2.0955003693800411E+00 
    2.0937104259992090E+00 
    2.0965087645760252E+00 
    2.0951328570417376E+00 
    2.0928162870866047E+00 
    2.0985551869852199E+00 
    2.1002205736258177E+00 
    2.0969966590755145E+00 
    2.0963614772220813E+00 
    2.0920033601581429E+00 
    2.0942916157576348E+00 
    2.0940807465291971E+00 
    2.0908694160661154E+00 
    2.0904377268746335E+00 
    2.0902499994745649E+00 
    2.0878951693486769E+00 
    2.0873671901854736E+00 
    2.0895240168372933E+00 
    2.0881383183431406E+00 
    2.0862251143122488E+00 
    2.0873453322721076E+00 
    2.0848150612246905E+00 
    2.0860217666964438E+00 
    2.0844903545594722E+00 
    2.0825506794676421E+00 
    2.0812683814295800E+00 
    2.0830732792792794E+00 
    2.0817884311182904E+00 
    2.0803713876525562E+00 
    2.0844424530712060E+00 
    2.0855771421517701E+00 
    2.0828438095427582E+00 
    2.0826264512058610E+00 
    2.0795236644486748E+00 
    2.0810029237575933E+00 
    2.0805697968573842E+00 
    2.0783942811815264E+00 
    2.0793151413277995E+00 
    2.0789705993118561E+00 
    2.0778306501627974E+00 
    2.0777991725668854E+00 
    2.0782626961646185E+00 
    2.0770746483778435E+00 
    2.0765812052127242E+00 
    2.0774231181534257E+00 
    2.0767490395990227E+00 
    2.0770266670049802E+00 
    2.0763030208592892E+00 
    2.0760969168001924E+00 
    2.0758673891397672E+00 
    2.0756853804038853E+00 
    2.0750231802328210E+00 
    2.0752808744565350E+00 
    2.0755793537743927E+00 
    2.0753401914854410E+00 
    2.0740972620134404E+00 
    2.0747726079568896E+00 
    2.0743538017360756E+00 
    2.0743467417559955E+00 
    2.0733825647884414E+00 
    2.0730687322549177E+00 
    2.4977720224226467E+00 
    2.4793002192213729E+00 
    2.4804292767352587E+00 
    2.4939131905532714E+00 
    2.4635280306749974E+00 
    2.4495235816572647E+00 
    2.4607376187728001E+00 
    2.4691241433398181E+00 
    2.4870265002175596E+00 
    2.4765099957617269E+00 
    2.4685011006110202E+00 
    2.4761542816428341E+00 
    2.4621443990495853E+00 
    2.4590870660786659E+00 
    2.4493091493621821E+00 
    2.4490792489086086E+00 
    2.4519282053513485E+00 
    2.4406078295029769E+00 
    2.4352331937238518E+00 
    2.4440506973995424E+00 
    2.4378709134389580E+00 
    2.4399235508197141E+00 
    2.4306268406287184E+00 
    2.4254404405994743E+00 
    2.4557597560288902E+00 
    2.4452979349939619E+00 
    2.4392561094148819E+00 
    2.4444405521463972E+00 
    2.4350567071114848E+00 
    2.4232525227399386E+00 
    2.4236811167223680E+00 
    2.4323172939030009E+00 
    2.4338326097599552E+00 
    2.4319820219960806E+00 
    2.4231391083365907E+00 
    2.4217143513267660E+00 
    2.4103395327128649E+00 
    2.4139296762974860E+00 
    2.4056987010900177E+00 
    2.4012786239266140E+00 
    2.4144109410718753E+00 
    2.4118670612556006E+00 
    2.4022789262619684E+00 
    2.4058669194723556E+00 
    2.3936273285326255E+00 
    2.3993935343171500E+00 
    2.3940863144068869E+00 
    2.3851343888317262E+00 
    2.4008318872689189E+00 
    2.3945143302721168E+00 
    2.3872239999349945E+00 
    2.3894189440553557E+00 
    2.3875081731574390E+00 
    2.3784433773780465E+00 
    2.3747634910030970E+00 
    2.3819350265134869E+00 
    2.3792074789659190E+00 
    2.3796371706111819E+00 
    2.3715035209713222E+00 
    2.3679300596323851E+00 
    2.3585975697633166E+00 
    2.3636755052320950E+00 
    2.3566875705852528E+00 
    2.3519836458899612E+00 
    2.3663473582451844E+00 
    2.3670376069762158E+00 
    2.3561200239782458E+00 
    2.3581813194928194E+00 
    2.3464941063116136E+00 
    2.3519786624137069E+00 
    2.3477965718322094E+00 
    2.3408351459723691E+00 
    2.3511734545594605E+00 
    2.3468291321795971E+00 
    2.3425330647754148E+00 
    2.3446656073057159E+00 
    2.3423706190489431E+00 
    2.3370864179705859E+00 
    2.3351935993197919E+00 
    2.3404283795861147E+00 
    2.3384781480962569E+00 
    2.3387731716850420E+00 
    2.3343037304371728E+00 
    2.3330111142708105E+00 
    2.3286657041811996E+00 
    2.3303579845644879E+00 
    2.3269071169703452E+00 
    2.3252042869314469E+00 
    2.3313566664218195E+00 
    2.3310994646253285E+00 
    2.3261131053562374E+00 
    2.3275727117144798E+00 
    2.3219775159519633E+00 
    2.3245154266849495E+00 
    2.3223097694520543E+00 
    2.3186372065720775E+00 
    2.3250422978211134E+00 
    2.3226431949633910E+00 
    2.3198639909710637E+00 
    2.3206024207247675E+00 
    2.3198498646665811E+00 
    2.3162675099908792E+00 
    2.3149884555512577E+00 
    2.3176946024156768E+00 
    2.3165229872402748E+00 
    2.3168800031836980E+00 
    2.3136248587092370E+00 
    2.3116292068836466E+00 
    2.3072262074863747E+00 
    2.3101407251371930E+00 
    2.3070115209812068E+00 
    2.3039813337850332E+00 
    2.3114249731208010E+00 
    2.3117076692808021E+00 
    2.3072987299305061E+00 
    2.3077983415186458E+00 
    2.3013386636086004E+00 
    2.3045900814239020E+00 
    2.3031437620954036E+00 
    2.2982726129379336E+00 
    2.3017066239322559E+00 
    2.2998778739012269E+00 
    2.2955104535873598E+00 
    2.2954452178185165E+00 
    2.2974112766446106E+00 
    2.2939094109341185E+00 
    2.2905116591323829E+00 
    2.2933834581899748E+00 
    2.2897970266162013E+00 
    2.2912398026287968E+00 
    2.2870705556353284E+00 
    2.2830954607713605E+00 
    2.2775857981742909E+00 
    2.2828461636316368E+00 
    2.2792226652846073E+00 
    2.2742641247434747E+00 
    2.2861436294162250E+00 
    2.2885572006652155E+00 
    2.2823224167695031E+00 
    2.2815124227284240E+00 
    2.2717654877341720E+00 
    2.2769718942139141E+00 
    2.2762907216641142E+00 
    2.2691167300351163E+00 
    2.2697748699008602E+00 
    2.2681300931744639E+00 
    2.2620450607873006E+00 
    2.2615414271896630E+00 
    2.2656922493809533E+00 
    2.2620518942831702E+00 
    2.2564586673979199E+00 
    2.2600160842684698E+00 
    2.2542996235576136E+00 
    2.2565872803046401E+00 
    2.2514590169548239E+00 
    2.2461645249628184E+00 
    2.2398138350236216E+00 
    2.2465538092972936E+00 
    2.2424439882270106E+00 
    2.2363226381358010E+00 
    2.2514278825510985E+00 
    2.2556710131359168E+00 
    2.2477067389390664E+00 
    2.2459566775278605E+00 
    2.2338161802643799E+00 
    2.2403343073554516E+00 
    2.2401634139036926E+00 
    2.2314735925775793E+00 
    2.2309394915702914E+00 
    2.2292279638748731E+00 
    2.2225579061261613E+00 
    2.2222647394611243E+00 
    2.2267960416229484E+00 
    2.2231218036739282E+00 
    2.2168531831869616E+00 
    2.2209148816829067E+00 
    2.2150483757046229E+00 
    2.2172206497056921E+00 
    2.2120607738578308E+00 
    2.2076534706053041E+00 
    2.2021090880948071E+00 
    2.2074273243554914E+00 
    2.2035222279364799E+00 
    2.1988914278323666E+00 
    2.2120050650437491E+00 
    2.2164501705764375E+00 
    2.2084967090931471E+00 
    2.2069581957598863E+00 
    2.1965318484009844E+00 
    2.2018798867998064E+00 
    2.2017241136512418E+00 
    2.1947878243685643E+00 
    2.1957759580397695E+00 
    2.1940259646420452E+00 
    2.1894657488027933E+00 
    2.1896123076152434E+00 
    2.1918793559789704E+00 
    2.1888424789858485E+00 
    2.1846529305922848E+00 
    2.1881346828830996E+00 
    2.1843455754586034E+00 
    2.1856460609593498E+00 
    2.1817994171785871E+00 
    2.1790573345455044E+00 
    2.1750283530561521E+00 
    2.1783615315477229E+00 
    2.1756410951381850E+00 
    2.1726103903466520E+00 
    2.1811201846476593E+00 
    2.1837472477640913E+00 
    2.1783051471817703E+00 
    2.1776384756769231E+00 
    2.1706525602408613E+00 
    2.1742827456072256E+00 
    2.1737408559048297E+00 
    2.1689098278165262E+00 
    2.1704550420853645E+00 
    2.1690738155526321E+00 
    2.1657410645534347E+00 
    2.1658196460553318E+00 
    2.1673059524186247E+00 
    2.1647980242609344E+00 
    2.1619657671087293E+00 
    2.1645063897612955E+00 
    2.1617953780365426E+00 
    2.1627973501205955E+00 
    2.1597452464991962E+00 
    2.1573870653101581E+00 
    2.1538234970721364E+00 
    2.1567154573691329E+00 
    2.1542300763883278E+00 
    2.1514986242637666E+00 
    2.1588270917119758E+00 
    2.1606794010583195E+00 
    2.1561428017823210E+00 
    2.1556749560801083E+00 
    2.1495743431563255E+00 
    2.1527191485551165E+00 
    2.1520544734443097E+00 
    2.1475203780473415E+00 
    2.1496317029370555E+00 
    2.1483363759230087E+00 
    2.1452064836748930E+00 
    2.1453410849048078E+00 
    2.1464640177043122E+00 
    2.1437165382933703E+00 
    2.1412980287973147E+00 
    2.1438159536706283E+00 
    2.1416803868683094E+00 
    2.1423298426893411E+00 
    2.1394955443981263E+00 
    2.1377979075690918E+00 
    2.1346025756318605E+00 
    2.1367620635573621E+00 
    2.1343750030548203E+00 
    2.1322524591397696E+00 
    2.1383409586260806E+00 
    2.1396877694155556E+00 
    2.1354962283504895E+00 
    2.1354353272647710E+00 
    2.1302076249416735E+00 
    2.1328097200432414E+00 
    2.1318403123208784E+00 
    2.1279720644872326E+00 
    2.1313368575645510E+00 
    2.1297677442566574E+00 
    2.1273886440759084E+00 
    2.1279051672840783E+00 
    2.1278177949006647E+00 
    2.1251048955676777E+00 
    2.1236970007631539E+00 
    2.1259430657542300E+00 
    2.1249524868545189E+00 
    2.1251203535140823E+00 
    2.1226316359965116E+00 
    2.1216163210669432E+00 
    2.1186634686663695E+00 
    2.1200036576571120E+00 
    2.1176805827152632E+00 
    2.1162137216012655E+00 
    2.1208284317672828E+00 
    2.1213119069900785E+00 
    2.1176467563438117E+00 
    2.1181455013013837E+00 
    2.1139925495412792E+00 
    2.1159416035939875E+00 
    2.1145753278794843E+00 
    2.1114018395165992E+00 
    2.1160586386380542E+00 
    2.1143584364224242E+00 
    2.1123626655986989E+00 
    2.1130002417000320E+00 
    2.1122376378422358E+00 
    2.1093659774414415E+00 
    2.1085511682351954E+00 
    2.1107347963996155E+00 
    2.1101983676742617E+00 
    2.1101813938528835E+00 
    2.1077981071779637E+00 
    2.1066976318954458E+00 
    2.1035071966779899E+00 
    2.1052615311450276E+00 
    2.1029259265627083E+00 
    2.1009490097924797E+00 
    2.1058540422518268E+00 
    2.1057916291328853E+00 
    2.1025933731004880E+00 
    2.1032955648126963E+00 
    2.0987482806565114E+00 
    2.1011812945257820E+00 
    2.0997613335232654E+00 
    2.0961841773479470E+00 
    2.1002182460370360E+00 
    2.0984903611388064E+00 
    2.0963025190240216E+00 
    2.0968744754922479E+00 
    2.0964004055629686E+00 
    2.0935504010963135E+00 
    2.0925608725965095E+00 
    2.0947012905528601E+00 
    2.0940220847091604E+00 
    2.0940789067321148E+00 
    2.0916619830578442E+00 
    2.0907413842060367E+00 
    2.0878085640839998E+00 
    2.0890591576706901E+00 
    2.0867458869288362E+00 