# vtk DataFile Version 2.0
Pressure Field Data 
ASCII 
DATASET UNSTRUCTURED_GRID 

POINTS 6273 double 

    0.0000000000000000E+00     0.0000000000000000E+00     0.0000000000000000E+00 
    1.0000000000000000E+00     0.0000000000000000E+00     0.0000000000000000E+00 
    1.0000000000000000E+00     1.0000000000000000E+00     0.0000000000000000E+00 
    0.0000000000000000E+00     1.0000000000000000E+00     0.0000000000000000E+00 
    1.5624999999970249E-02     0.0000000000000000E+00     0.0000000000000000E+00 
    3.1249999999940652E-02     0.0000000000000000E+00     0.0000000000000000E+00 
    4.6874999999905617E-02     0.0000000000000000E+00     0.0000000000000000E+00 
    6.2499999999870597E-02     0.0000000000000000E+00     0.0000000000000000E+00 
    7.8124999999846401E-02     0.0000000000000000E+00     0.0000000000000000E+00 
    9.3749999999822212E-02     0.0000000000000000E+00     0.0000000000000000E+00 
    1.0937499999979799E-01     0.0000000000000000E+00     0.0000000000000000E+00 
    1.2499999999977381E-01     0.0000000000000000E+00     0.0000000000000000E+00 
    1.4062499999972811E-01     0.0000000000000000E+00     0.0000000000000000E+00 
    1.5624999999968239E-01     0.0000000000000000E+00     0.0000000000000000E+00 
    1.7187499999963671E-01     0.0000000000000000E+00     0.0000000000000000E+00 
    1.8749999999959110E-01     0.0000000000000000E+00     0.0000000000000000E+00 
    2.0312499999954539E-01     0.0000000000000000E+00     0.0000000000000000E+00 
    2.1874999999949971E-01     0.0000000000000000E+00     0.0000000000000000E+00 
    2.3437499999945391E-01     0.0000000000000000E+00     0.0000000000000000E+00 
    2.4999999999940831E-01     0.0000000000000000E+00     0.0000000000000000E+00 
    2.6562499999936218E-01     0.0000000000000000E+00     0.0000000000000000E+00 
    2.8124999999931621E-01     0.0000000000000000E+00     0.0000000000000000E+00 
    2.9687499999927008E-01     0.0000000000000000E+00     0.0000000000000000E+00 
    3.1249999999922412E-01     0.0000000000000000E+00     0.0000000000000000E+00 
    3.2812499999917810E-01     0.0000000000000000E+00     0.0000000000000000E+00 
    3.4374999999913203E-01     0.0000000000000000E+00     0.0000000000000000E+00 
    3.5937499999908601E-01     0.0000000000000000E+00     0.0000000000000000E+00 
    3.7499999999903999E-01     0.0000000000000000E+00     0.0000000000000000E+00 
    3.9062499999899403E-01     0.0000000000000000E+00     0.0000000000000000E+00 
    4.0624999999894801E-01     0.0000000000000000E+00     0.0000000000000000E+00 
    4.2187499999890188E-01     0.0000000000000000E+00     0.0000000000000000E+00 
    4.3749999999885592E-01     0.0000000000000000E+00     0.0000000000000000E+00 
    4.5312499999880979E-01     0.0000000000000000E+00     0.0000000000000000E+00 
    4.6874999999876382E-01     0.0000000000000000E+00     0.0000000000000000E+00 
    4.8437499999871780E-01     0.0000000000000000E+00     0.0000000000000000E+00 
    4.9999999999867167E-01     0.0000000000000000E+00     0.0000000000000000E+00 
    5.1562499999871325E-01     0.0000000000000000E+00     0.0000000000000000E+00 
    5.3124999999875477E-01     0.0000000000000000E+00     0.0000000000000000E+00 
    5.4687499999879630E-01     0.0000000000000000E+00     0.0000000000000000E+00 
    5.6249999999883782E-01     0.0000000000000000E+00     0.0000000000000000E+00 
    5.7812499999887934E-01     0.0000000000000000E+00     0.0000000000000000E+00 
    5.9374999999892086E-01     0.0000000000000000E+00     0.0000000000000000E+00 
    6.0937499999896239E-01     0.0000000000000000E+00     0.0000000000000000E+00 
    6.2499999999900380E-01     0.0000000000000000E+00     0.0000000000000000E+00 
    6.4062499999904521E-01     0.0000000000000000E+00     0.0000000000000000E+00 
    6.5624999999908673E-01     0.0000000000000000E+00     0.0000000000000000E+00 
    6.7187499999912825E-01     0.0000000000000000E+00     0.0000000000000000E+00 
    6.8749999999916978E-01     0.0000000000000000E+00     0.0000000000000000E+00 
    7.0312499999921130E-01     0.0000000000000000E+00     0.0000000000000000E+00 
    7.1874999999925282E-01     0.0000000000000000E+00     0.0000000000000000E+00 
    7.3437499999929434E-01     0.0000000000000000E+00     0.0000000000000000E+00 
    7.4999999999933586E-01     0.0000000000000000E+00     0.0000000000000000E+00 
    7.6562499999937739E-01     0.0000000000000000E+00     0.0000000000000000E+00 
    7.8124999999941891E-01     0.0000000000000000E+00     0.0000000000000000E+00 
    7.9687499999946043E-01     0.0000000000000000E+00     0.0000000000000000E+00 
    8.1249999999950195E-01     0.0000000000000000E+00     0.0000000000000000E+00 
    8.2812499999954348E-01     0.0000000000000000E+00     0.0000000000000000E+00 
    8.4374999999958500E-01     0.0000000000000000E+00     0.0000000000000000E+00 
    8.5937499999962652E-01     0.0000000000000000E+00     0.0000000000000000E+00 
    8.7499999999966793E-01     0.0000000000000000E+00     0.0000000000000000E+00 
    8.9062499999970934E-01     0.0000000000000000E+00     0.0000000000000000E+00 
    9.0624999999975087E-01     0.0000000000000000E+00     0.0000000000000000E+00 
    9.2187499999979239E-01     0.0000000000000000E+00     0.0000000000000000E+00 
    9.3749999999983391E-01     0.0000000000000000E+00     0.0000000000000000E+00 
    9.5312499999987543E-01     0.0000000000000000E+00     0.0000000000000000E+00 
    9.6874999999991696E-01     0.0000000000000000E+00     0.0000000000000000E+00 
    9.8437499999995848E-01     0.0000000000000000E+00     0.0000000000000000E+00 
    1.0000000000000000E+00     1.5624999999970249E-02     0.0000000000000000E+00 
    1.0000000000000000E+00     3.1249999999940652E-02     0.0000000000000000E+00 
    1.0000000000000000E+00     4.6874999999905617E-02     0.0000000000000000E+00 
    1.0000000000000000E+00     6.2499999999870597E-02     0.0000000000000000E+00 
    1.0000000000000000E+00     7.8124999999846401E-02     0.0000000000000000E+00 
    1.0000000000000000E+00     9.3749999999822212E-02     0.0000000000000000E+00 
    1.0000000000000000E+00     1.0937499999979799E-01     0.0000000000000000E+00 
    1.0000000000000000E+00     1.2499999999977381E-01     0.0000000000000000E+00 
    1.0000000000000000E+00     1.4062499999972811E-01     0.0000000000000000E+00 
    1.0000000000000000E+00     1.5624999999968239E-01     0.0000000000000000E+00 
    1.0000000000000000E+00     1.7187499999963671E-01     0.0000000000000000E+00 
    1.0000000000000000E+00     1.8749999999959110E-01     0.0000000000000000E+00 
    1.0000000000000000E+00     2.0312499999954539E-01     0.0000000000000000E+00 
    1.0000000000000000E+00     2.1874999999949971E-01     0.0000000000000000E+00 
    1.0000000000000000E+00     2.3437499999945391E-01     0.0000000000000000E+00 
    1.0000000000000000E+00     2.4999999999940831E-01     0.0000000000000000E+00 
    1.0000000000000000E+00     2.6562499999936218E-01     0.0000000000000000E+00 
    1.0000000000000000E+00     2.8124999999931621E-01     0.0000000000000000E+00 
    1.0000000000000000E+00     2.9687499999927008E-01     0.0000000000000000E+00 
    1.0000000000000000E+00     3.1249999999922412E-01     0.0000000000000000E+00 
    1.0000000000000000E+00     3.2812499999917810E-01     0.0000000000000000E+00 
    1.0000000000000000E+00     3.4374999999913203E-01     0.0000000000000000E+00 
    1.0000000000000000E+00     3.5937499999908601E-01     0.0000000000000000E+00 
    1.0000000000000000E+00     3.7499999999903999E-01     0.0000000000000000E+00 
    1.0000000000000000E+00     3.9062499999899403E-01     0.0000000000000000E+00 
    1.0000000000000000E+00     4.0624999999894801E-01     0.0000000000000000E+00 
    1.0000000000000000E+00     4.2187499999890188E-01     0.0000000000000000E+00 
    1.0000000000000000E+00     4.3749999999885592E-01     0.0000000000000000E+00 
    1.0000000000000000E+00     4.5312499999880979E-01     0.0000000000000000E+00 
    1.0000000000000000E+00     4.6874999999876382E-01     0.0000000000000000E+00 
    1.0000000000000000E+00     4.8437499999871780E-01     0.0000000000000000E+00 
    1.0000000000000000E+00     4.9999999999867167E-01     0.0000000000000000E+00 
    1.0000000000000000E+00     5.1562499999871325E-01     0.0000000000000000E+00 
    1.0000000000000000E+00     5.3124999999875477E-01     0.0000000000000000E+00 
    1.0000000000000000E+00     5.4687499999879630E-01     0.0000000000000000E+00 
    1.0000000000000000E+00     5.6249999999883782E-01     0.0000000000000000E+00 
    1.0000000000000000E+00     5.7812499999887934E-01     0.0000000000000000E+00 
    1.0000000000000000E+00     5.9374999999892086E-01     0.0000000000000000E+00 
    1.0000000000000000E+00     6.0937499999896239E-01     0.0000000000000000E+00 
    1.0000000000000000E+00     6.2499999999900380E-01     0.0000000000000000E+00 
    1.0000000000000000E+00     6.4062499999904521E-01     0.0000000000000000E+00 
    1.0000000000000000E+00     6.5624999999908673E-01     0.0000000000000000E+00 
    1.0000000000000000E+00     6.7187499999912825E-01     0.0000000000000000E+00 
    1.0000000000000000E+00     6.8749999999916978E-01     0.0000000000000000E+00 
    1.0000000000000000E+00     7.0312499999921130E-01     0.0000000000000000E+00 
    1.0000000000000000E+00     7.1874999999925282E-01     0.0000000000000000E+00 
    1.0000000000000000E+00     7.3437499999929434E-01     0.0000000000000000E+00 
    1.0000000000000000E+00     7.4999999999933586E-01     0.0000000000000000E+00 
    1.0000000000000000E+00     7.6562499999937739E-01     0.0000000000000000E+00 
    1.0000000000000000E+00     7.8124999999941891E-01     0.0000000000000000E+00 
    1.0000000000000000E+00     7.9687499999946043E-01     0.0000000000000000E+00 
    1.0000000000000000E+00     8.1249999999950195E-01     0.0000000000000000E+00 
    1.0000000000000000E+00     8.2812499999954348E-01     0.0000000000000000E+00 
[...]
CELL_DATA 6144 
SCALARS Pressure double 1 
LOOKUP_TABLE default 

    2.4526827636972599E+00 
    2.3553127100211766E+00 
    2.3400048627331116E+00 
    2.3590746479874203E+00 
    2.3004789381097366E+00 
    2.2655410771958766E+00 
    2.2810208265364320E+00 
    2.3123238872397325E+00 
    2.3006424571833257E+00 
    2.3106371914658004E+00 
    2.2832509897610542E+00 
    2.2654639851055496E+00 
    2.2481094010450695E+00 
    2.2629157370336519E+00 
    2.2471163447109581E+00 
    2.2370441529465745E+00 
    2.2641800116260655E+00 
    2.2492095435138131E+00 
    2.2377311818495791E+00 
    2.2485110998079789E+00 
    2.2267169643295133E+00 
    2.2377729687702663E+00 
    2.2279077416549278E+00 
    2.2153277032738115E+00 
    2.2264993788281022E+00 
    2.2234317293437016E+00 
    2.2097766538065660E+00 
    2.2072962487658807E+00 
    2.2162560424182955E+00 
    2.2055053721938136E+00 
    2.1972805968327731E+00 
    2.2054749160561222E+00 
    2.1911056516594165E+00 
    2.1980645586367009E+00 
    2.1885418878879093E+00 
    2.1766207299502041E+00 
    2.1681389391917052E+00 
    2.1798246924070259E+00 
    2.1728135766729051E+00 
    2.1634995411554878E+00 
    2.1871545376842767E+00 
    2.1914579439756916E+00 
    2.1782232212163191E+00 
    2.1774212908425636E+00 
    2.1594527738359819E+00 
    2.1686332138039521E+00 
    2.1668301717210845E+00 
    2.1545393687266206E+00 
    2.1534823619107630E+00 
    2.1527184771105916E+00 
    2.1425204635322621E+00 
    2.1398645336092983E+00 
    2.1495488193445582E+00 
    2.1439021692011182E+00 
    2.1355563273580715E+00 
    2.1402445409740443E+00 
    2.1279122203710465E+00 
    2.1338981426297581E+00 
    2.1265880484913779E+00 
    2.1163464539362766E+00 
    2.1100014926363104E+00 
    2.1200799961039500E+00 
    2.1152670983620512E+00 
    2.1072532742442123E+00 
    2.1277561033681875E+00 
    2.1336985499568097E+00 
    2.1224358811425881E+00 
    2.1200417555510400E+00 
    2.1047682378012142E+00 
    2.1127912950361667E+00 
    2.1124189216396796E+00 
    2.1016787193410114E+00 
    2.0992852244954721E+00 
    2.0988106128130419E+00 
    2.0911210520562116E+00 
    2.0898915355551644E+00 
    2.0966534083279638E+00 
    2.0924820735233589E+00 
    2.0858194411937645E+00 
    2.0900768996301573E+00 
    2.0822050620225894E+00 
    2.0854607709932096E+00 
    2.0807420458977024E+00 
    2.0762768619990828E+00 
    2.0731840573538971E+00 
    2.0774278978716563E+00 
    2.0750970587818354E+00 
    2.0717790461463510E+00 
    2.0815671633612651E+00 
    2.0853567637898984E+00 
    2.0788956007387389E+00 
    2.0779833699242771E+00 
    2.0702823532175603E+00 
    2.0742718774234810E+00 
    2.0738725368540050E+00 
    2.0689383415581801E+00 
    2.0682156445692939E+00 
    2.0679116168729839E+00 
    2.0643354800016973E+00 
    2.0634829056576836E+00 
    2.0669439164332650E+00 
    2.0652513225149560E+00 
    2.0620301589984558E+00 
    2.0636670048198411E+00 
    2.0590520364786955E+00 
    2.0613423144414429E+00 
    2.0587064371959305E+00 
    2.0545556978629609E+00 
    2.0518361373977578E+00 
    2.0562035411487076E+00 
    2.0543612481954212E+00 
    2.0507247238460984E+00 
    2.0593418217058614E+00 
    2.0616951073777163E+00 
    2.0575431525210650E+00 
    2.0563564038718365E+00 
    2.0498314550872263E+00 
    2.0533631707044733E+00 
    2.0535439190718168E+00 
    2.0487222927767594E+00 
    2.0463438312012410E+00 
    2.0463739740631168E+00 
    2.0420109235005981E+00 
    2.0405041710720777E+00 
    2.0455068608816478E+00 
    2.0437168441218350E+00 
    2.0393942250678929E+00 
    2.0410812712987760E+00 
    2.0349586256396015E+00 
    2.0380410984617932E+00 
    2.0346425482267589E+00 
    2.0289960964574432E+00 
    2.0253720971867866E+00 
    2.0314396314528484E+00 
    2.0291674331382121E+00 
    2.0240192081560897E+00 
    2.0358886256556170E+00 
    2.0396471197688246E+00 
    2.0340694100574170E+00 
    2.0320417068862078E+00 
    2.0230255689681922E+00 
    2.0279823011170017E+00 
    2.0285595356008628E+00 
    2.0219339008749002E+00 
    2.0179684888375919E+00 
    2.0180300764973556E+00 
    2.0120884056549584E+00 
    2.0101723116022274E+00 
    2.0170416537652498E+00 
    2.0150018247178583E+00 
    2.0090189587113620E+00 
    2.0111262027481005E+00 
    2.0029193703861798E+00 
    2.0069769461518057E+00 
    2.0026682668296800E+00 
    1.9954895522760170E+00 
    1.9913131457462252E+00 
    1.9988477292190610E+00 
    1.9961266963912243E+00 
    1.9899879970307195E+00 
    2.0047433890513160E+00 
    2.0098719161880250E+00 
    2.0027734344006434E+00 
    2.0000078731627253E+00 
    1.9890370729368114E+00 
    1.9950417346246265E+00 
    1.9959782850279013E+00 
    1.9881179000883697E+00 
    1.9831594573170248E+00 
    1.9832194350226522E+00 
    1.9769450396732733E+00 
    1.9752637292187798E+00 
    1.9822457592639500E+00 
    1.9800474643024832E+00 
    1.9734242038570735E+00 
    1.9761435657988338E+00 
    1.9679895192940111E+00 
    1.9718657927207290E+00 
    1.9676345639512547E+00 
    1.9613059393447021E+00 
    1.9576012851940177E+00 
    1.9640347518672110E+00 
    1.9610906510497896E+00 
    1.9560682036634451E+00 
    1.9693600807669722E+00 
    1.9745317709818651E+00 
    1.9672954640949436E+00 
    1.9649136327167984E+00 
    1.9550219744271011E+00 
    1.9601833148242429E+00 
    1.9609511974275864E+00 
    1.9543217614187574E+00 
    1.9511901619900123E+00 
    1.9510265654187748E+00 
    1.9464479374389996E+00 
    1.9454574266731937E+00 
    1.9501435180027424E+00 
    1.9483250434719990E+00 
    1.9435481646700379E+00 
    1.9458651534570939E+00 
    1.9402211480285501E+00 
    1.9428216714643147E+00 
    1.9397300174356025E+00 
    1.9355682345067411E+00 
    1.9329912616564930E+00 
    1.9372017475791805E+00 
    1.9353096032993982E+00 
    1.9319294902119166E+00 
    1.9406912078484777E+00 
    1.9440980671490977E+00 
    1.9391521437815635E+00 
    1.9377061539654237E+00 
    1.9310851309116663E+00 
    1.9346045125744453E+00 
    1.9348600880030853E+00 
    1.9303325131918747E+00 
    1.9283472673876310E+00 
    1.9281993014472236E+00 
    1.9248121364346469E+00 
    1.9240343808381148E+00 
    1.9275263010819323E+00 
    1.9262092895904233E+00 
    1.9228745874807387E+00 
    1.9243854848018711E+00 
    1.9201297687412640E+00 
    1.9221499581731516E+00 
    1.9198691674909274E+00 
    1.9164785808021731E+00 
    1.9144149062749680E+00 
    1.9178864503594941E+00 
    1.9164705077774093E+00 
    1.9136302943183874E+00 
    1.9206347901131473E+00 
    1.9231281154760675E+00 
    1.9194725268829409E+00 
    1.9183210431594542E+00 
    1.9130331056322565E+00 
    1.9159154776727116E+00 
    1.9161657078287722E+00 
    1.9124166831536336E+00 
    1.9105197236513045E+00 
    1.9104472382401501E+00 
    1.9074878923553056E+00 
    1.9067869852452943E+00 
    1.9099135060453083E+00 
    1.9087629687887386E+00 
    1.9058188019725515E+00 
    1.9071092803017067E+00 
    1.9034516621795601E+00 
    1.9051733418467327E+00 
    1.9032617940933736E+00 
    1.9004177252868748E+00 
    1.8986559269857730E+00 
    1.9015489421212395E+00 
    1.9000826868021610E+00 
    1.8977549534070142E+00 
    1.9038619496475699E+00 
    1.9060396143274105E+00 
    1.9026384125324991E+00 
    1.9016943180445309E+00 
    1.8971061992878671E+00 
    1.8994785583650402E+00 
    1.8996310323944579E+00 
    1.8964607621570693E+00 
    1.8955206579696644E+00 
    1.8953323259551038E+00 
    1.8931543567079538E+00 
    1.8927109599135852E+00 
    1.8947757500081595E+00 
    1.8936997989050681E+00 
    1.8916613936666007E+00 
    1.8927928673854553E+00 
    1.8902001990476891E+00 
    1.8914124253256099E+00 
    1.8898524140352524E+00 
    1.8878639947356217E+00 
    1.8865300297834828E+00 
    1.8885093518137006E+00 
    1.8874956670701231E+00 
    1.8858535641799208E+00 
    1.8900856478733579E+00 
    1.8914299615342802E+00 
    1.8888927819024666E+00 
    1.8884561395606347E+00 
    1.8851521306236219E+00 
    1.8868732541833901E+00 
    1.8866660071496080E+00 
    1.8842406221740087E+00 
    1.8841853089539131E+00 
    1.8840121040122855E+00 
    1.8822718370365652E+00 
    1.8818494104176198E+00 
    1.8833942601083919E+00 
    1.8822837382765367E+00 
    1.8808622637985604E+00 
    1.8817636509733060E+00 
    1.8797265702836057E+00 
    1.8807315529202895E+00 
    1.8794073491393026E+00 
    1.8776159182446874E+00 
    1.8763366497647418E+00 
    1.8781660239845781E+00 
    1.8771002162634400E+00 
    1.8755663864972754E+00 
    1.8793998104468175E+00 
    1.8802619642691267E+00 
    1.8780964709699222E+00 
    1.8778580170920582E+00 
    1.8748809414308429E+00 
    1.8763754767610177E+00 
    1.8761033380399184E+00 
    1.8739133053598767E+00 
    1.8739631430529897E+00 
    1.8738503273968243E+00 
    1.8721043030341495E+00 
    1.8715585737234770E+00 
    1.8732510884151443E+00 
    1.8721072862554682E+00 
    1.8707319305389500E+00 
    1.8715815169094707E+00 
    1.8693327160576758E+00 
    1.8704838582501175E+00 
    1.8690700156122113E+00 
    1.8668872007483859E+00 
    1.8653202417642349E+00 
    1.8676621487123701E+00 
    1.8665457665990419E+00 
    1.8645407401180407E+00 
    1.8691271060371957E+00 
    1.8700742746405958E+00 
    1.8678355408277814E+00 
    1.8674695942485851E+00 
    1.8639090218187706E+00 
    1.8658919823285542E+00 
    1.8657092060282663E+00 
    1.8630645349439134E+00 
    1.8623948716886949E+00 
    1.8622297846758802E+00 
    1.8600311874943634E+00 
    1.8595510823584060E+00 
    1.8616393372337008E+00 
    1.8604816846570302E+00 
    1.8585967441639408E+00 
    1.8596083440211733E+00 
    1.8573449309166052E+00 
    1.8583754326872890E+00 
    1.8570608661835328E+00 
    1.8554581256434173E+00 
    1.8543983793670544E+00 
    1.8558785233696304E+00 
    1.8548329996809365E+00 
    1.8536660584854416E+00 
    1.8570633376465921E+00 
    1.8581961140127456E+00 
    1.8557721780802854E+00 
    1.8555453231531596E+00 
    1.8529829220374456E+00 
    1.8542097973724121E+00 
    1.8538916269064254E+00 
    1.8520899017300056E+00 
    1.8527872962554646E+00 
    1.8525077833892531E+00 
    1.8515640161884224E+00 
    1.8515362908019768E+00 
    1.8519358372858299E+00 
    1.8509763601460636E+00 
    1.8505454737500850E+00 
    1.8512365701131148E+00 
    1.8506675463792048E+00 
    1.8509013999035813E+00 
    1.8503047815298037E+00 
    1.8501320073476970E+00 
    1.8499454179527846E+00 
    1.8497988260189167E+00 
    1.8492587789601145E+00 
    1.8494689894772098E+00 
    1.8497265940744791E+00 
    1.8495571747964019E+00 
    1.8485263734734025E+00 
    1.8490654851651263E+00 
    1.8487144375578075E+00 
    1.8487130860173686E+00 
    1.8479330615428529E+00 
    1.8476732925433779E+00 
    2.2277510408936791E+00 
    2.2094769449061276E+00 
    2.2105782779736227E+00 
    2.2239153100838145E+00 
    2.1939573744445959E+00 
    2.1802386061211152E+00 
    2.1912006640437718E+00 
    2.1994391458653881E+00 
    2.2170959778412560E+00 
    2.2067017968391882E+00 
    2.1988079130988676E+00 
    2.2063647265252699E+00 
    2.1925744528337909E+00 
    2.1895600346069926E+00 
    2.1799813807911295E+00 
    2.1797607119246409E+00 
    2.1825623488824224E+00 
    2.1715193703913167E+00 
    2.1662443172289656E+00 
    2.1748446035361355E+00 
    2.1688132874752930E+00 
    2.1708132355503080E+00 
    2.1617535568074668E+00 
    2.1567188501224579E+00 
    2.1863312611597627E+00 
    2.1760766781406540E+00 
    2.1701952783595480E+00 
    2.1752787050381612E+00 
    2.1660823815641486E+00 
    2.1546127047418611E+00 
    2.1550463931751609E+00 
    2.1634359447316349E+00 
    2.1649542824989485E+00 
    2.1631270691095366E+00 
    2.1545511389909113E+00 
    2.1532115904267828E+00 
    2.1422271182147137E+00 
    2.1456482530362706E+00 
    2.1377151447636629E+00 
    2.1334984423635146E+00 
    2.1460854573372821E+00 
    2.1436083568210367E+00 
    2.1343913532980725E+00 
    2.1378608127151169E+00 
    2.1261610361069119E+00 
    2.1316601009437486E+00 
    2.1265627604810553E+00 
    2.1180586647210999E+00 
    2.1331226793992282E+00 
    2.1270468784013259E+00 
    2.1201115786935572E+00 
    2.1222308446446205E+00 
    2.1203542478073487E+00 
    2.1117426843017051E+00 
    2.1082592807038032E+00 
    2.1150736199484022E+00 
    2.1124993756974169E+00 
    2.1128976717340553E+00 
    2.1051692124096104E+00 
    2.1017478518250874E+00 
    2.0928080997575469E+00 
    2.0977072003314641E+00 
    2.0910326577506821E+00 
    2.0864421319271242E+00 
    2.1002686276342657E+00 
    2.1009393251196258E+00 
    2.0905339215990733E+00 
    2.0924490655225387E+00 
    2.0811906213441858E+00 
    2.0864846058266777E+00 
    2.0824993551987574E+00 
    2.0757668603831108E+00 
    2.0856171146281022E+00 
    2.0814535601687951E+00 
    2.0773818265800270E+00 
    2.0794609696067456E+00 
    2.0771920124211869E+00 
    2.0721997869679316E+00 
    2.0704967578084670E+00 
    2.0754759231745967E+00 
    2.0737455012212855E+00 
    2.0739510277704465E+00 
    2.0698328520995508E+00 
    2.0687775746087556E+00 
    2.0647933531669134E+00 
    2.0662225727753905E+00 
    2.0630656330649146E+00 
    2.0616132393902471E+00 
    2.0670451172655238E+00 
    2.0667079656167116E+00 
    2.0622635769246931E+00 
    2.0636405180362121E+00 
    2.0586533665017153E+00 
    2.0608936696918141E+00 
    2.0588782814400810E+00 
    2.0556342477723710E+00 
    2.0615660410780188E+00 
    2.0593641237949609E+00 
    2.0569126658652572E+00 
    2.0575821803127901E+00 
    2.0568174198184321E+00 
    2.0535786450926867E+00 
    2.0525156792297534E+00 
    2.0549278343165405E+00 
    2.0539239339346747E+00 
    2.0542414594992189E+00 
    2.0513276562446108E+00 
    2.0495195748903958E+00 
    2.0455460373349337E+00 
    2.0481790336613375E+00 
    2.0453399933391232E+00 
    2.0425873705655326E+00 
    2.0492944369942663E+00 
    2.0494915603433936E+00 
    2.0455403605292819E+00 
    2.0460075216388081E+00 
    2.0401902384684618E+00 
    2.0431144101968592E+00 
    2.0418003302135186E+00 
    2.0374062600666827E+00 
    2.0404993920004384E+00 
    2.0388448015963330E+00 
    2.0348674197758663E+00 
    2.0347959605303845E+00 
    2.0366180835526486E+00 
    2.0334686398845516E+00 
    2.0303734445542476E+00 
    2.0329416556530409E+00 
    2.0296746777959891E+00 
    2.0309897487509923E+00 
    2.0272194522826057E+00 
    2.0236092506635339E+00 
    2.0186290437104257E+00 
    2.0234097993484053E+00 
    2.0201400268559748E+00 
    2.0156401351100772E+00 
    2.0264158854825096E+00 
    2.0286407265085740E+00 
    2.0229956972853738E+00 
    2.0222277863246108E+00 
    2.0134064205197602E+00 
    2.0181254965923374E+00 
    2.0175382122708760E+00 
    2.0110500964048486E+00 
    2.0115978015617544E+00 
    2.0100992699303117E+00 
    2.0046212512269230E+00 
    2.0041886247606358E+00 
    2.0079096701715331E+00 
    2.0046502220815934E+00 
    1.9995908498841550E+00 
    2.0028045467297284E+00 
    1.9976646611182285E+00 
    1.9997094343000970E+00 
    1.9950935678663588E+00 
    1.9903505801664909E+00 
    1.9846379407441781E+00 
    1.9906881051280054E+00 
    1.9870093400137585E+00 
    1.9815059671585789E+00 
    1.9950877626187073E+00 
    1.9989358576366607E+00 
    1.9917848683852959E+00 
    1.9901839769971703E+00 
    1.9792698424352102E+00 
    1.9851338310062090E+00 
    1.9850172254090694E+00 
    1.9772026017398019E+00 
    1.9766520905906388E+00 
    1.9751121641435812E+00 
    1.9690766942535198E+00 
    1.9688104122615233E+00 
    1.9729346001911481E+00 
    1.9696455577662184E+00 
    1.9639368617135262E+00 
    1.9675768273776282E+00 
    1.9623120018073317E+00 
    1.9642422770236354E+00 
    1.9595796700834867E+00 
    1.9556833992041256E+00 
    1.9507339334756910E+00 
    1.9554197378108260E+00 
    1.9519097542176929E+00 
    1.9478454331627626E+00 
    1.9595497787047051E+00 
    1.9636300304423648E+00 
    1.9563995033898571E+00 
    1.9549994548492347E+00 
    1.9456997872591539E+00 
    1.9504615478722542E+00 
    1.9502889358704070E+00 
    1.9441293031742446E+00 
    1.9453016844596978E+00 
    1.9436476369606632E+00 
    1.9397497016069718E+00 
    1.9400073058555798E+00 
    1.9416884298310233E+00 
    1.9389733433754062E+00 
    1.9354420128893326E+00 
    1.9385613793624075E+00 
    1.9354843065487979E+00 
    1.9364760121466296E+00 
    1.9331430230248778E+00 
    1.9309964939577136E+00 
    1.9275349696367994E+00 
    1.9301729479313672E+00 
    1.9278218847991671E+00 
    1.9253976807978397E+00 
    1.9324036660409907E+00 
    1.9345277503240694E+00 
    1.9298961677562132E+00 
    1.9294481229765259E+00 
    1.9236539314387893E+00 
    1.9266362915100872E+00 
    1.9260791425416373E+00 
    1.9221247038775984E+00 
    1.9238284242315209E+00 
    1.9225534174702916E+00 
    1.9198679777269594E+00 
    1.9200332389484256E+00 
    1.9209982373797643E+00 
    1.9188614881739876E+00 
    1.9166588622165848E+00 
    1.9188063177767656E+00 
    1.9167284860333851E+00 
    1.9174723502685334E+00 
    1.9149576574623117E+00 
    1.9131098796758250E+00 
    1.9101454191808223E+00 
    1.9124472661659102E+00 
    1.9103729274291645E+00 
    1.9081564737242560E+00 
    1.9140820260301856E+00 
    1.9154712588039402E+00 
    1.9118014703870929E+00 
    1.9114895987962992E+00 
    1.9064808224460565E+00 
    1.9090529586749869E+00 
    1.9084386940263085E+00 
    1.9046466149913661E+00 
    1.9066659188681709E+00 
    1.9055317620789098E+00 
    1.9029014284143346E+00 
    1.9030430748422955E+00 
    1.9038869344810161E+00 
    1.9014807941563279E+00 
    1.8995375023605217E+00 
    1.9016533961361661E+00 
    1.8999780632407377E+00 
    1.9004666710388558E+00 
    1.8980736596888628E+00 
    1.8967353137618457E+00 
    1.8940758092747139E+00 
    1.8957660804163359E+00 
    1.8937361450010264E+00 
    1.8920682879574897E+00 
    1.8969897168875363E+00 
    1.8980082270125240E+00 
    1.8944777780003770E+00 
    1.8945416169264142E+00 
    1.8902894748044325E+00 
    1.8923791285093388E+00 
    1.8914578326375038E+00 
    1.8883161283620822E+00 
    1.8915102887228497E+00 
    1.8901262881117231E+00 
    1.8882782362112762E+00 
    1.8888200379519748E+00 
    1.8884385842459659E+00 
    1.8861109164626257E+00 
    1.8851717336054643E+00 
    1.8870510799033497E+00 
    1.8865270127730680E+00 
    1.8865086974123666E+00 
    1.8845214160263679E+00 
    1.8839675276083490E+00 
    1.8816414039382805E+00 
    1.8824053328891726E+00 
    1.8804877713833168E+00 
    1.8795590508120013E+00 
    1.8828296183061894E+00 
    1.8829598230865645E+00 
    1.8800418877877341E+00 
    1.8806754003513890E+00 
    1.8776158040686939E+00 
    1.8789866892813389E+00 
    1.8776759455354661E+00 
    1.8753154539390204E+00 
    1.8798816127996791E+00 
    1.8783372341134035E+00 
    1.8769911660859162E+00 
    1.8777074602040837E+00 
    1.8764914977327591E+00 
    1.8740471460447425E+00 
    1.8738509239886725E+00 
    1.8755948404692129E+00 
    1.8757785168393293E+00 
    1.8754395520353535E+00 
    1.8737044260566098E+00 
    1.8735370026354503E+00 
    1.8713347648906464E+00 
    1.8717904766669786E+00 
    1.8699669892198187E+00 
    1.8692224530323571E+00 
    1.8717430022779902E+00 
    1.8711806616946263E+00 
    1.8688366355844934E+00 
    1.8698030474375180E+00 
    1.8672617549673647E+00 
    1.8683523977324092E+00 
    1.8668547760914236E+00 
    1.8648431170613446E+00 
    1.8696435623426779E+00 
    1.8680953594569061E+00 
    1.8668177286778509E+00 
    1.8674741729050128E+00 
    1.8662652336497798E+00 
    1.8638598379478069E+00 
    1.8637986374309643E+00 
    1.8654014945026121E+00 
    1.8655356385002420E+00 
    1.8653016659354844E+00 
    1.8635125012167695E+00 
    1.8630154243227148E+00 
    1.8605387561666349E+00 
    1.8614588424197163E+00 
    1.8595690136082539E+00 