# vtk DataFile Version 2.0
Pressure Field Data 
ASCII 
DATASET UNSTRUCTURED_GRID 

POINTS 6273 double 

    0.0000000000000000E+00     0.0000000000000000E+00     0.0000000000000000E+00 
    1.0000000000000000E+00     0.0000000000000000E+00     0.0000000000000000E+00 
    1.0000000000000000E+00     1.0000000000000000E+00     0.0000000000000000E+00 
    0.0000000000000000E+00     1.0000000000000000E+00     0.0000000000000000E+00 
    1.5624999999970249E-02     0.0000000000000000E+00     0.0000000000000000E+00 
    3.1249999999940652E-02     0.0000000000000000E+00     0.0000000000000000E+00 
    4.6874999999905617E-02     0.0000000000000000E+00     0.0000000000000000E+00 
    6.2499999999870597E-02     0.0000000000000000E+00     0.0000000000000000E+00 
    7.8124999999846401E-02     0.0000000000000000E+00     0.0000000000000000E+00 
    9.3749999999822212E-02     0.0000000000000000E+00     0.0000000000000000E+00 
    1.0937499999979799E-01     0.0000000000000000E+00     0.0000000000000000E+00 
    1.2499999999977381E-01     0.0000000000000000E+00     0.0000000000000000E+00 
    1.4062499999972811E-01     0.0000000000000000E+00     0.0000000000000000E+00 
    1.5624999999968239E-01     0.0000000000000000E+00     0.0000000000000000E+00 
    1.7187499999963671E-01     0.0000000000000000E+00     0.0000000000000000E+00 
    1.8749999999959110E-01     0.0000000000000000E+00     0.0000000000000000E+00 
    2.0312499999954539E-01     0.0000000000000000E+00     0.0000000000000000E+00 
    2.1874999999949971E-01     0.0000000000000000E+00     0.0000000000000000E+00 
    2.3437499999945391E-01     0.0000000000000000E+00     0.0000000000000000E+00 
    2.4999999999940831E-01     0.0000000000000000E+00     0.0000000000000000E+00 
    2.6562499999936218E-01     0.0000000000000000E+00     0.0000000000000000E+00 
    2.8124999999931621E-01     0.0000000000000000E+00     0.0000000000000000E+00 
    2.9687499999927008E-01     0.0000000000000000E+00     0.0000000000000000E+00 
    3.1249999999922412E-01     0.0000000000000000E+00     0.0000000000000000E+00 
    3.2812499999917810E-01     0.0000000000000000E+00     0.0000000000000000E+00 
    3.4374999999913203E-01     0.0000000000000000E+00     0.0000000000000000E+00 
    3.5937499999908601E-01     0.0000000000000000E+00     0.0000000000000000E+00 
    3.7499999999903999E-01     0.0000000000000000E+00     0.0000000000000000E+00 
    3.9062499999899403E-01     0.0000000000000000E+00     0.0000000000000000E+00 
    4.0624999999894801E-01     0.0000000000000000E+00     0.0000000000000000E+00 
    4.2187499999890188E-01     0.0000000000000000E+00     0.0000000000000000E+00 
    4.3749999999885592E-01     0.0000000000000000E+00     0.0000000000000000E+00 
    4.5312499999880979E-01     0.0000000000000000E+00     0.0000000000000000E+00 
    4.6874999999876382E-01     0.0000000000000000E+00     0.0000000000000000E+00 
    4.8437499999871780E-01     0.0000000000000000E+00     0.0000000000000000E+00 
    4.9999999999867167E-01     0.0000000000000000E+00     0.0000000000000000E+00 
    5.1562499999871325E-01     0.0000000000000000E+00     0.0000000000000000E+00 
    5.3124999999875477E-01     0.0000000000000000E+00     0.0000000000000000E+00 
    5.4687499999879630E-01     0.0000000000000000E+00     0.0000000000000000E+00 
    5.6249999999883782E-01     0.0000000000000000E+00     0.0000000000000000E+00 
    5.7812499999887934E-01     0.0000000000000000E+00     0.0000000000000000E+00 
    5.9374999999892086E-01     0.0000000000000000E+00     0.0000000000000000E+00 
    6.0937499999896239E-01     0.0000000000000000E+00     0.0000000000000000E+00 
    6.2499999999900380E-01     0.0000000000000000E+00     0.0000000000000000E+00 
    6.4062499999904521E-01     0.0000000000000000E+00     0.0000000000000000E+00 
    6.5624999999908673E-01     0.0000000000000000E+00     0.0000000000000000E+00 
    6.7187499999912825E-01     0.0000000000000000E+00     0.0000000000000000E+00 
    6.8749999999916978E-01     0.0000000000000000E+00     0.0000000000000000E+00 
    7.0312499999921130E-01     0.0000000000000000E+00     0.0000000000000000E+00 
    7.1874999999925282E-01     0.0000000000000000E+00     0.0000000000000000E+00 
    7.3437499999929434E-01     0.0000000000000000E+00     0.0000000000000000E+00 
    7.4999999999933586E-01     0.0000000000000000E+00     0.0000000000000000E+00 
    7.6562499999937739E-01     0.0000000000000000E+00     0.0000000000000000E+00 
    7.8124999999941891E-01     0.0000000000000000E+00     0.0000000000000000E+00 
    7.9687499999946043E-01     0.0000000000000000E+00     0.0000000000000000E+00 
    8.1249999999950195E-01     0.0000000000000000E+00     0.0000000000000000E+00 
    8.2812499999954348E-01     0.0000000000000000E+00     0.0000000000000000E+00 
    8.4374999999958500E-01     0.0000000000000000E+00     0.0000000000000000E+00 
    8.5937499999962652E-01     0.0000000000000000E+00     0.0000000000000000E+00 
    8.7499999999966793E-01     0.0000000000000000E+00     0.0000000000000000E+00 
    8.9062499999970934E-01     0.0000000000000000E+00     0.0000000000000000E+00 
    9.0624999999975087E-01     0.0000000000000000E+00     0.0000000000000000E+00 
    9.2187499999979239E-01     0.0000000000000000E+00     0.0000000000000000E+00 
    9.3749999999983391E-01     0.0000000000000000E+00     0.0000000000000000E+00 
    9.5312499999987543E-01     0.0000000000000000E+00     0.0000000000000000E+00 
    9.6874999999991696E-01     0.0000000000000000E+00     0.0000000000000000E+00 
    9.8437499999995848E-01     0.0000000000000000E+00     0.0000000000000000E+00 
    1.0000000000000000E+00     1.5624999999970249E-02     0.0000000000000000E+00 
    1.0000000000000000E+00     3.1249999999940652E-02     0.0000000000000000E+00 
    1.0000000000000000E+00     4.6874999999905617E-02     0.0000000000000000E+00 
    1.0000000000000000E+00     6.2499999999870597E-02     0.0000000000000000E+00 
    1.0000000000000000E+00     7.8124999999846401E-02     0.0000000000000000E+00 
    1.0000000000000000E+00     9.3749999999822212E-02     0.0000000000000000E+00 
    1.0000000000000000E+00     1.0937499999979799E-01     0.0000000000000000E+00 
    1.0000000000000000E+00     1.2499999999977381E-01     0.0000000000000000E+00 
    1.0000000000000000E+00     1.4062499999972811E-01     0.0000000000000000E+00 
    1.0000000000000000E+00     1.5624999999968239E-01     0.0000000000000000E+00 
    1.0000000000000000E+00     1.7187499999963671E-01     0.0000000000000000E+00 
    1.0000000000000000E+00     1.8749999999959110E-01     0.0000000000000000E+00 
    1.0000000000000000E+00     2.0312499999954539E-01     0.0000000000000000E+00 
    1.0000000000000000E+00     2.1874999999949971E-01     0.0000000000000000E+00 
    1.0000000000000000E+00     2.3437499999945391E-01     0.0000000000000000E+00 
    1.0000000000000000E+00     2.4999999999940831E-01     0.0000000000000000E+00 
    1.0000000000000000E+00     2.6562499999936218E-01     0.0000000000000000E+00 
    1.0000000000000000E+00     2.8124999999931621E-01     0.0000000000000000E+00 
    1.0000000000000000E+00     2.9687499999927008E-01     0.0000000000000000E+00 
    1.0000000000000000E+00     3.1249999999922412E-01     0.0000000000000000E+00 
    1.0000000000000000E+00     3.2812499999917810E-01     0.0000000000000000E+00 
    1.0000000000000000E+00     3.4374999999913203E-01     0.0000000000000000E+00 
    1.0000000000000000E+00     3.5937499999908601E-01     0.0000000000000000E+00 
    1.0000000000000000E+00     3.7499999999903999E-01     0.0000000000000000E+00 
    1.0000000000000000E+00     3.9062499999899403E-01     0.0000000000000000E+00 
    1.0000000000000000E+00     4.0624999999894801E-01     0.0000000000000000E+00 
    1.0000000000000000E+00     4.2187499999890188E-01     0.0000000000000000E+00 
    1.0000000000000000E+00     4.3749999999885592E-01     0.0000000000000000E+00 
    1.0000000000000000E+00     4.5312499999880979E-01     0.0000000000000000E+00 
    1.0000000000000000E+00     4.6874999999876382E-01     0.0000000000000000E+00 
    1.0000000000000000E+00     4.8437499999871780E-01     0.0000000000000000E+00 
    1.0000000000000000E+00     4.9999999999867167E-01     0.0000000000000000E+00 
    1.0000000000000000E+00     5.1562499999871325E-01     0.0000000000000000E+00 
    1.0000000000000000E+00     5.3124999999875477E-01     0.0000000000000000E+00 
    1.0000000000000000E+00     5.4687499999879630E-01     0.0000000000000000E+00 
    1.0000000000000000E+00     5.6249999999883782E-01     0.0000000000000000E+00 
    1.0000000000000000E+00     5.7812499999887934E-01     0.0000000000000000E+00 
    1.0000000000000000E+00     5.9374999999892086E-01     0.0000000000000000E+00 
    1.0000000000000000E+00     6.0937499999896239E-01     0.0000000000000000E+00 
    1.0000000000000000E+00     6.2499999999900380E-01     0.0000000000000000E+00 
    1.0000000000000000E+00     6.4062499999904521E-01     0.0000000000000000E+00 
    1.0000000000000000E+00     6.5624999999908673E-01     0.0000000000000000E+00 
    1.0000000000000000E+00     6.7187499999912825E-01     0.0000000000000000E+00 
    1.0000000000000000E+00     6.8749999999916978E-01     0.0000000000000000E+00 
    1.0000000000000000E+00     7.0312499999921130E-01     0.0000000000000000E+00 
    1.0000000000000000E+00     7.1874999999925282E-01     0.0000000000000000E+00 
    1.0000000000000000E+00     7.3437499999929434E-01     0.0000000000000000E+00 
    1.0000000000000000E+00     7.4999999999933586E-01     0.0000000000000000E+00 
    1.0000000000000000E+00     7.6562499999937739E-01     0.0000000000000000E+00 
    1.0000000000000000E+00     7.8124999999941891E-01     0.0000000000000000E+00 
    1.0000000000000000E+00     7.9687499999946043E-01     0.0000000000000000E+00 
    1.0000000000000000E+00     8.1249999999950195E-01     0.0000000000000000E+00 
    1.0000000000000000E+00     8.2812499999954348E-01     0.0000000000000000E+00 
[...]
CELL_DATA 6144 
SCALARS Pressure double 1 
LOOKUP_TABLE default 

    2.8827375315240280E+00 
    2.7853030870359965E+00 
    2.7699729427697113E+00 
    2.7891606249147558E+00 
    2.7303972311959561E+00 
    2.6952586618551160E+00 
    2.7108562809474761E+00 
    2.7423787401615676E+00 
    2.7305337377430114E+00 
    2.7406321117973325E+00 
    2.7131069187611336E+00 
    2.6951303418688379E+00 
    2.6775707876308581E+00 
    2.6926393536244522E+00 
    2.6766819079939030E+00 
    2.6664398979754602E+00 
    2.6939346886696209E+00 
    2.6787610796536705E+00 
    2.6671932627553607E+00 
    2.6781299078975338E+00 
    2.6559314541358225E+00 
    2.6672301605084430E+00 
    2.6571926809084920E+00 
    2.6442810891367960E+00 
    2.6555883923942241E+00 
    2.6524856052981880E+00 
    2.6383549873055960E+00 
    2.6357634393870253E+00 
    2.6451454092873314E+00 
    2.6340693124439394E+00 
    2.6254073138718201E+00 
    2.6339473771379653E+00 
    2.6187697559100127E+00 
    2.6261679710735550E+00 
    2.6161497170657557E+00 
    2.6033979627664308E+00 
    2.5943715100027185E+00 
    2.6069709572789628E+00 
    2.5995479402592805E+00 
    2.5895242816772446E+00 
    2.6148155802306383E+00 
    2.6194285717620538E+00 
    2.6054557833354663E+00 
    2.6045297057995827E+00 
    2.5852139757017185E+00 
    2.5951475408704461E+00 
    2.5932884088649195E+00 
    2.5799904270834650E+00 
    2.5785837473990254E+00 
    2.5777756169387001E+00 
    2.5665478872605987E+00 
    2.5636653610914606E+00 
    2.5743733111638263E+00 
    2.5682690952784575E+00 
    2.5589219491460318E+00 
    2.5641251982557227E+00 
    2.5503926027657267E+00 
    2.5570783320614887E+00 
    2.5489406552284160E+00 
    2.5375140897831470E+00 
    2.5304558006451603E+00 
    2.5417173655022141E+00 
    2.5363307791802554E+00 
    2.5273900401212308E+00 
    2.5503213453083475E+00 
    2.5570414575086349E+00 
    2.5444562102061554E+00 
    2.5417342393160642E+00 
    2.5246154829030649E+00 
    2.5336412838492359E+00 
    2.5332309408800548E+00 
    2.5212608661390798E+00 
    2.5186015541167590E+00 
    2.5179901827182007E+00 
    2.5094856166430874E+00 
    2.5081469231468461E+00 
    2.5156160375764460E+00 
    2.5110950328702697E+00 
    2.5035919391104700E+00 
    2.5084587556352611E+00 
    2.4993145066502120E+00 
    2.5031462258274901E+00 
    2.4978005717497012E+00 
    2.4922946286503724E+00 
    2.4885183729623312E+00 
    2.4939522844087505E+00 
    2.4912360773839124E+00 
    2.4869088221125168E+00 
    2.4989459919010266E+00 
    2.5033352018903963E+00 
    2.4960003116250813E+00 
    2.4947146386888095E+00 
    2.4851599290903885E+00 
    2.4901472915888396E+00 
    2.4896880891331321E+00 
    2.4833898637171217E+00 
    2.4823372615225527E+00 
    2.4819849710521935E+00 
    2.4773978952050846E+00 
    2.4762869852837333E+00 
    2.4807747067107715E+00 
    2.4786204039628386E+00 
    2.4744358587798243E+00 
    2.4765856814608984E+00 
    2.4705271117783885E+00 
    2.4735111438772983E+00 
    2.4700609231905113E+00 
    2.4647068102254734E+00 
    2.4612104606288319E+00 
    2.4668554900709170E+00 
    2.4645155265673155E+00 
    2.4598168836449315E+00 
    2.4710049962814318E+00 
    2.4741090325647765E+00 
    2.4687264905010200E+00 
    2.4671734606618676E+00 
    2.4587037844251176E+00 
    2.4633129798855595E+00 
    2.4635760008336414E+00 
    2.4573577114497449E+00 
    2.4541020750246969E+00 
    2.4541493070551508E+00 
    2.4484703416691604E+00 
    2.4465753730220747E+00 
    2.4531187980266629E+00 
    2.4509130344824444E+00 
    2.4452110441401751E+00 
    2.4474118624688241E+00 
    2.4393776022993388E+00 
    2.4434101165228053E+00 
    2.4390314213816096E+00 
    2.4317181581115022E+00 
    2.4270603202983456E+00 
    2.4349927716836004E+00 
    2.4321291940662069E+00 
    2.4254004165069110E+00 
    2.4408263999824382E+00 
    2.4457461961878679E+00 
    2.4386790297670111E+00 
    2.4359622555701419E+00 
    2.4242780737810254E+00 
    2.4307556590423336E+00 
    2.4316407461028238E+00 
    2.4231107347922287E+00 
    2.4174802864412852E+00 
    2.4175668960320191E+00 
    2.4098576089495833E+00 
    2.4075066300046335E+00 
    2.4164640471796033E+00 
    2.4140584852656022E+00 
    2.4060810832497128E+00 
    2.4088583063965894E+00 
    2.3981725719175153E+00 
    2.4033920243186091E+00 
    2.3978747903911470E+00 
    2.3887285349059733E+00 
    2.3833743850510474E+00 
    2.3930751537767665E+00 
    2.3896691285298188E+00 
    2.3817186523477432E+00 
    2.4008061474585918E+00 
    2.4075961098683107E+00 
    2.3984813899869750E+00 
    2.3948053512497975E+00 
    2.3806103308025315E+00 
    2.3884276523033208E+00 
    2.3897698585392400E+00 
    2.3796374865859828E+00 
    2.3727979920896884E+00 
    2.3729286750446943E+00 
    2.3647577989663864E+00 
    2.3625636690155831E+00 
    2.3717953223322401E+00 
    2.3691410994909332E+00 
    2.3603806753336833E+00 
    2.3638449053423156E+00 
    2.3531061160653959E+00 
    2.3581994523562386E+00 
    2.3527415575719699E+00 
    2.3443963381772281E+00 
    2.3394472294133171E+00 
    2.3481348951362997E+00 
    2.3443681346897449E+00 
    2.3374139158921552E+00 
    2.3552579143232029E+00 
    2.3621903720574093E+00 
    2.3529445218480727E+00 
    2.3495693318391262E+00 
    2.3362320275645891E+00 
    2.3433037644088208E+00 
    2.3446508322812583E+00 
    2.3356526151470742E+00 
    2.3303124213112940E+00 
    2.3302256381974003E+00 
    2.3235881940864513E+00 
    2.3219951874916358E+00 
    2.3292102442190936E+00 
    2.3269689822018313E+00 
    2.3197604488094026E+00 
    2.3229082186273091E+00 
    2.3143212550810985E+00 
    2.3182870834486748E+00 
    2.3137932879267056E+00 
    2.3073817227570239E+00 
    2.3035048158542444E+00 
    2.3101594963112815E+00 
    2.3074938302071537E+00 
    2.3021005845496254E+00 
    2.3157430705929500E+00 
    2.3212176375826785E+00 
    2.3139794378737912E+00 
    2.3113829629846823E+00 
    2.3011427851126842E+00 
    2.3067126805685705E+00 
    2.3075261490750134E+00 
    2.3004559576944654E+00 
    2.2962923261931816E+00 
    2.2961830619909143E+00 
    2.2908027943288127E+00 
    2.2895451378329561E+00 
    2.2953759464520189E+00 
    2.2936158548689218E+00 
    2.2879771920114180E+00 
    2.2903177228035876E+00 
    2.2833346859975086E+00 
    2.2866115756736147E+00 
    2.2830049567592869E+00 
    2.2775541293910417E+00 
    2.2743099681023073E+00 
    2.2799352519922560E+00 
    2.2777714058623615E+00 
    2.2731723507339217E+00 
    2.2845700988141688E+00 
    2.2889547469221436E+00 
    2.2830239054377390E+00 
    2.2809195767677295E+00 
    2.2723476194002563E+00 
    2.2770554755687211E+00 
    2.2776569898750920E+00 
    2.2716048841145491E+00 
    2.2681906446359288E+00 
    2.2681062985426119E+00 
    2.2634560969178108E+00 
    2.2623448336331928E+00 
    2.2673483021363903E+00 
    2.2656803682086517E+00 
    2.2609325896542738E+00 
    2.2629781245217053E+00 
    2.2569860241426531E+00 
    2.2598617709705922E+00 
    2.2568572849723174E+00 
    2.2518157353327184E+00 
    2.2484185430545707E+00 
    2.2540799158197533E+00 
    2.2516541888925494E+00 
    2.2468669485741462E+00 
    2.2579528434772445E+00 
    2.2615536627111834E+00 
    2.2563249414291073E+00 
    2.2545700605796650E+00 
    2.2460307667377322E+00 
    2.2508233159420117E+00 
    2.2514774565335451E+00 
    2.2455089080533184E+00 
    2.2418311001877034E+00 
    2.2416410952448533E+00 
    2.2371584903166659E+00 
    2.2360877384295681E+00 
    2.2408952812345388E+00 
    2.2392724042461589E+00 
    2.2345922241251861E+00 
    2.2365888945403625E+00 
    2.2310138966644013E+00 
    2.2336334746221631E+00 
    2.2305327435788485E+00 
    2.2262054939703217E+00 
    2.2235516117365917E+00 
    2.2279366622207615E+00 
    2.2261332185010856E+00 
    2.2225002147655517E+00 
    2.2316016354534156E+00 
    2.2351028457354669E+00 
    2.2299760417761849E+00 
    2.2284741132320778E+00 
    2.2215475980128958E+00 
    2.2252566049474432E+00 
    2.2254408725545702E+00 
    2.2204386122333584E+00 
    2.2186683010949038E+00 
    2.2185574391537388E+00 
    2.2149192599082492E+00 
    2.2139618669715069E+00 
    2.2176742054673411E+00 
    2.2159450975254780E+00 
    2.2124920945372959E+00 
    2.2141561772634795E+00 
    2.2097430074770905E+00 
    2.2118548863023344E+00 
    2.2092756489354226E+00 
    2.2056497828024568E+00 
    2.2032501257050461E+00 
    2.2069725731487750E+00 
    2.2050975484243880E+00 
    2.2019950539019399E+00 
    2.2098210178735922E+00 
    2.2122745499931837E+00 
    2.2079444536483859E+00 
    2.2069452315761580E+00 
    2.2009805536592308E+00 
    2.2040360058209134E+00 
    2.2039962611049333E+00 
    2.1997001201850321E+00 
    2.1988102905931726E+00 
    2.1986835091907557E+00 
    2.1954554322348399E+00 
    2.1945109979347115E+00 
    2.1977690310365436E+00 
    2.1959721099246994E+00 
    2.1931441496273236E+00 
    2.1946389587515718E+00 
    2.1906695852394367E+00 
    2.1926131145527741E+00 
    2.1902424355170980E+00 
    2.1868308972350938E+00 
    2.1846272336298798E+00 
    2.1880416358657810E+00 
    2.1863350693953936E+00 
    2.1835036852829042E+00 
    2.1905056487764920E+00 
    2.1924883565800766E+00 
    2.1885405486269507E+00 
    2.1878024800709230E+00 
    2.1824780273373192E+00 
    2.1852681482487517E+00 
    2.1849688186984286E+00 
    2.1810356317378536E+00 
    2.1806013207279236E+00 
    2.1803596849812474E+00 
    2.1774704125428479E+00 
    2.1768209649844508E+00 
    2.1794447638049390E+00 
    2.1777089333748743E+00 
    2.1753920384776042E+00 
    2.1767739635129764E+00 
    2.1736841170189489E+00 
    2.1751606861678443E+00 
    2.1732729251795511E+00 
    2.1708944399611805E+00 
    2.1693095649535552E+00 
    2.1715189668066750E+00 
    2.1699254468578535E+00 
    2.1681883150727059E+00 
    2.1731815260863421E+00 
    2.1745398203140298E+00 
    2.1711764379839900E+00 
    2.1709362820771561E+00 
    2.1671258694966098E+00 
    2.1689378489486133E+00 
    2.1683782384469179E+00 
    2.1657029839934405E+00 
    2.1668965580388608E+00 
    2.1664661789882960E+00 
    2.1650614439551177E+00 
    2.1650191049649465E+00 
    2.1655793047753868E+00 
    2.1640936657421026E+00 
    2.1635049846916692E+00 
    2.1645448275086663E+00 
    2.1637210667071973E+00 
    2.1640639330444551E+00 
    2.1631677480235822E+00 
    2.1629111317526526E+00 
    2.1626220685960100E+00 
    2.1623964976885719E+00 
    2.1615679668758303E+00 
    2.1618869692107956E+00 
    2.1622540694591237E+00 
    2.1619394731684296E+00 
    2.1604002843199654E+00 
    2.1612475541703469E+00 
    2.1607290129628804E+00 
    2.1607184326261750E+00 
    2.1595119798027422E+00 
    2.1591216054896445E+00 
    2.6569639637735043E+00 
    2.6381112421116280E+00 
    2.6393005666728846E+00 
    2.6530854127725001E+00 
    2.6218731773441353E+00 
    2.6073701978582222E+00 
    2.6190296624890923E+00 
    2.6277165205868354E+00 
    2.6460962733048738E+00 
    2.6353388405912517E+00 
    2.6271383683625245E+00 
    2.6350242211771802E+00 
    2.6206606168098130E+00 
    2.6174503593812206E+00 
    2.6073412066733375E+00 
    2.6071635165193929E+00 
    2.6099589564220063E+00 
    2.5981494562182403E+00 
    2.5926356308960861E+00 
    2.6018480635373695E+00 
    2.5954980253246598E+00 
    2.5975899754097971E+00 
    2.5878742115784723E+00 
    2.5824926913971589E+00 
    2.6141073598383056E+00 
    2.6032792770541291E+00 
    2.5970153030863283E+00 
    2.6023917604206037E+00 
    2.5926113372916104E+00 
    2.5802428383699700E+00 
    2.5807284282304721E+00 
    2.5897711550565665E+00 
    2.5913489234472467E+00 
    2.5894299050100735E+00 
    2.5801636081528292E+00 
    2.5786440126230277E+00 
    2.5666403477028403E+00 
    2.5704591632264635E+00 
    2.5617371488300060E+00 
    2.5570205388239469E+00 
    2.5709592865404929E+00 
    2.5682410103192619E+00 
    2.5580757394624869E+00 
    2.5619017816232250E+00 
    2.5488325177784068E+00 
    2.5550015169680211E+00 
    2.5493142924826526E+00 
    2.5396669295050556E+00 
    2.5565079246285847E+00 
    2.5497777642619859E+00 
    2.5419351021605254E+00 
    2.5442731115571227E+00 
    2.5422398607781189E+00 
    2.5324254909606170E+00 
    2.5284879849123296E+00 
    2.5362397996488242E+00 
    2.5333243074089360E+00 
    2.5337722651641683E+00 
    2.5250156143834284E+00 
    2.5212827471018722E+00 
    2.5114084469787161E+00 
    2.5166614581369982E+00 
    2.5092412812172746E+00 
    2.5044527065106861E+00 
    2.5194424471572279E+00 
    2.5200961079828548E+00 
    2.5085000901023800E+00 
    2.5108288764584152E+00 
    2.4985919610049057E+00 
    2.5043184007962993E+00 
    2.4998423559494141E+00 
    2.4925573742368843E+00 
    2.5036786685131354E+00 
    2.4990627388507476E+00 
    2.4943794924913281E+00 
    2.4965536168780131E+00 
    2.4942843146676945E+00 
    2.4884942919813700E+00 
    2.4862923400523549E+00 
    2.4919123115655011E+00 
    2.4896026480726667E+00 
    2.4900556383978598E+00 
    2.4850270477699175E+00 
    2.4833508135987845E+00 
    2.4784327586495252E+00 
    2.4805600632359601E+00 
    2.4766377429056510E+00 
    2.4745158142491630E+00 
    2.4818236095300970E+00 
    2.4816613226072515E+00 
    2.4758231391333685E+00 
    2.4774326914525480E+00 
    2.4708569851822690E+00 
    2.4738739642429195E+00 
    2.4713619558117417E+00 
    2.4669923752092267E+00 
    2.4741069944899765E+00 
    2.4714040021072448E+00 
    2.4680532850397072E+00 
    2.4688772200720912E+00 
    2.4682141101071799E+00 
    2.4640788431090392E+00 
    2.4624182531280963E+00 
    2.4656003919099625E+00 
    2.4640729582664251E+00 
    2.4645377647796480E+00 
    2.4607250972249339E+00 
    2.4583540277674460E+00 
    2.4532751191793460E+00 
    2.4567108882387969E+00 
    2.4531279021341601E+00 
    2.4496153982516291E+00 
    2.4583103341398753E+00 
    2.4587623454271661E+00 
    2.4536105831900943E+00 
    2.4541367325936214E+00 
    2.4466055032462095E+00 
    2.4504074162641611E+00 
    2.4487743799670545E+00 
    2.4431185386401149E+00 
    2.4469249168024194E+00 
    2.4448738976579243E+00 
    2.4398257270270687E+00 
    2.4397114593504994E+00 
    2.4420593905175338E+00 
    2.4380360478559466E+00 
    2.4340966366540178E+00 
    2.4374221848737414E+00 
    2.4331819315143979E+00 
    2.4349061492657000E+00 
    2.4301072625732885E+00 
    2.4254488063607034E+00 
    2.4191266082858318E+00 
    2.4252498818111783E+00 
    2.4210998624349869E+00 
    2.4153559168699967E+00 
    2.4290917407824426E+00 
    2.4318719128712667E+00 
    2.4247014001534519E+00 
    2.4237673194737575E+00 
    2.4125107836774413E+00 
    2.4185264254731886E+00 
    2.4177543067486296E+00 
    2.4094791931187802E+00 
    2.4100207496877522E+00 
    2.4082262777094705E+00 
    2.4011411837280323E+00 
    2.4004723064992541E+00 
    2.4054731303727177E+00 
    2.4013104072136287E+00 
    2.3947823251723781E+00 
    2.3988472258933125E+00 
    2.3920938054172050E+00 
    2.3948329146577065E+00 
    2.3889242537052500E+00 
    2.3826841647544792E+00 
    2.3754016229036541E+00 
    2.3832823238659451E+00 
    2.3785569208570321E+00 
    2.3714548438061351E+00 
    2.3889731510682219E+00 
    2.3939300971210336E+00 
    2.3847081141662545E+00 
    2.3826570393640374E+00 
    2.3686252847895299E+00 
    2.3761645215172362E+00 
    2.3759793134509772E+00 
    2.3659706002784522E+00 
    2.3651297760887271E+00 
    2.3632604469957728E+00 
    2.3555886122043073E+00 
    2.3551412173415351E+00 
    2.3605411866575379E+00 
    2.3563906631031890E+00 
    2.3491504752761170E+00 
    2.3537847658683919E+00 
    2.3467392673967757E+00 
    2.3494335332179541E+00 
    2.3434980046604492E+00 
    2.3380379272975138E+00 
    2.3315220181797609E+00 
    2.3381214709905458E+00 
    2.3336185578509254E+00 
    2.3278708869107447E+00 
    2.3436024491883298E+00 
    2.3487882509374485E+00 
    2.3396935965159469E+00 
    2.3377438661326169E+00 
    2.3252901711588847E+00 
    2.3317313821496253E+00 
    2.3317676001156027E+00 
    2.3234042737757599E+00 
    2.3234855233145271E+00 
    2.3217057430768753E+00 
    2.3158925226474962E+00 
    2.3157191324227262E+00 
    2.3193517766066174E+00 
    2.3158745176827464E+00 
    2.3103076499591895E+00 
    2.3143798409335203E+00 
    2.3090358266105571E+00 
    2.3110297316743713E+00 
    2.3062338491596441E+00 
    2.3021879387161812E+00 
    2.2970712233105020E+00 
    2.3019413632390577E+00 
    2.2985773192387002E+00 
    2.2942107554577196E+00 
    2.3059022311358017E+00 
    2.3096934256859489E+00 
    2.3027177818302511E+00 
    2.3014295635349500E+00 
    2.2919739108785007E+00 
    2.2969847935461156E+00 
    2.2966506269879683E+00 
    2.2900118502374118E+00 
    2.2906706691088230E+00 
    2.2891861155115185E+00 
    2.2844999380718987E+00 
    2.2843270325550389E+00 
    2.2871201919287256E+00 
    2.2840452835375471E+00 
    2.2797757604248052E+00 
    2.2830424228924522E+00 
    2.2788814913424171E+00 
    2.2804827094320497E+00 
    2.2764292831207120E+00 
    2.2730035830962225E+00 
    2.2684341182213132E+00 
    2.2725257166717001E+00 
    2.2694175818388840E+00 
    2.2656968434556601E+00 
    2.2756920593529459E+00 
    2.2786545533414126E+00 
    2.2725591135681915E+00 
    2.2716274788973752E+00 
    2.2634954248678998E+00 
    2.2677369025610301E+00 
    2.2671862349588752E+00 
    2.2612765007069435E+00 
    2.2628922648100844E+00 
    2.2614928406376995E+00 
    2.2573915711928385E+00 
    2.2573386669689048E+00 
    2.2593662362930491E+00 
    2.2561279904118527E+00 
    2.2526294186152698E+00 
    2.2558183335487714E+00 
    2.2524974905587882E+00 
    2.2536684208225881E+00 
    2.2499685094591344E+00 
    2.2470075079478424E+00 
    2.2424221099669830E+00 
    2.2463644620060697E+00 
    2.2432421351561036E+00 
    2.2394629494521494E+00 
    2.2488678253318906E+00 
    2.2510796691072303E+00 
    2.2455362732909747E+00 
    2.2450310821225292E+00 
    2.2371394471572517E+00 
    2.2414142245816113E+00 
    2.2405627184140529E+00 
    2.2347834577560679E+00 
    2.2364308880796457E+00 
    2.2347695513871315E+00 
    2.2305567960834822E+00 
    2.2307217163471194E+00 
    2.2325236607927201E+00 
    2.2291760961797249E+00 
    2.2257287514437669E+00 
    2.2288978472683882E+00 
    2.2260489283781051E+00 
    2.2269771729383825E+00 
    2.2232975187378323E+00 
    2.2209864437776590E+00 
    2.2168301993043804E+00 
    2.2196048350629103E+00 
    2.2164979299212315E+00 
    2.2137876880168696E+00 
    2.2217054295319287E+00 
    2.2237873318711960E+00 
    2.2179785087972270E+00 
    2.2178415834254297E+00 
    2.2111302612739561E+00 
    2.2144335476560086E+00 
    2.2131745041069837E+00 
    2.2081439501816069E+00 
    2.2125804469113790E+00 
    2.2106438695616100E+00 
    2.2074897541414664E+00 
    2.2080346079787123E+00 
    2.2080812327213728E+00 
    2.2044655228454446E+00 
    2.2025858266175242E+00 
    2.2055073817510631E+00 
    2.2041094111311668E+00 
    2.2043483015375012E+00 
    2.2011535891807514E+00 
    2.1997698405987904E+00 
    2.1959510235449149E+00 
    2.1978593007438274E+00 
    2.1948873072368831E+00 
    2.1927939215204493E+00 
    2.1989776518080451E+00 
    2.1995808023229189E+00 
    2.1949268025494475E+00 
    2.1955082909973127E+00 
    2.1900097123964413E+00 
    2.1926162393932676E+00 
    2.1909157872133238E+00 
    2.1867562865668706E+00 
    2.1923431782334406E+00 
    2.1901826573182173E+00 
    2.1875559072750068E+00 
    2.1883062764158416E+00 
    2.1875559089781635E+00 
    2.1840133299831450E+00 
    2.1829175583986711E+00 
    2.1855418194223057E+00 
    2.1848382536068098E+00 
    2.1848443513517593E+00 
    2.1818817881721659E+00 
    2.1808193078312881E+00 
    2.1771967669083554E+00 
    2.1786727553341225E+00 
    2.1758095933511838E+00 