# vtk DataFile Version 2.0
Pressure Field Data 
ASCII 
DATASET UNSTRUCTURED_GRID 

POINTS 6273 double 

    0.0000000000000000E+00     0.0000000000000000E+00     0.0000000000000000E+00 
    1.0000000000000000E+00     0.0000000000000000E+00     0.0000000000000000E+00 
    1.0000000000000000E+00     1.0000000000000000E+00     0.0000000000000000E+00 
    0.0000000000000000E+00     1.0000000000000000E+00     0.0000000000000000E+00 
    1.5624999999970249E-02     0.0000000000000000E+00     0.0000000000000000E+00 
    3.1249999999940652E-02     0.0000000000000000E+00     0.0000000000000000E+00 
    4.6874999999905617E-02     0.0000000000000000E+00     0.0000000000000000E+00 
    6.2499999999870597E-02     0.0000000000000000E+00     0.0000000000000000E+00 
    7.8124999999846401E-02     0.0000000000000000E+00     0.0000000000000000E+00 
    9.3749999999822212E-02     0.0000000000000000E+00     0.0000000000000000E+00 
    1.0937499999979799E-01     0.0000000000000000E+00     0.0000000000000000E+00 
    1.2499999999977381E-01     0.0000000000000000E+00     0.0000000000000000E+00 
    1.4062499999972811E-01     0.0000000000000000E+00     0.0000000000000000E+00 
    1.5624999999968239E-01     0.0000000000000000E+00     0.0000000000000000E+00 
    1.7187499999963671E-01     0.0000000000000000E+00     0.0000000000000000E+00 
    1.8749999999959110E-01     0.0000000000000000E+00     0.0000000000000000E+00 
    2.0312499999954539E-01     0.0000000000000000E+00     0.0000000000000000E+00 
    2.1874999999949971E-01     0.0000000000000000E+00     0.0000000000000000E+00 
    2.3437499999945391E-01     0.0000000000000000E+00     0.0000000000000000E+00 
    2.4999999999940831E-01     0.0000000000000000E+00     0.0000000000000000E+00 
    2.6562499999936218E-01     0.0000000000000000E+00     0.0000000000000000E+00 
    2.8124999999931621E-01     0.0000000000000000E+00     0.0000000000000000E+00 
    2.9687499999927008E-01     0.0000000000000000E+00     0.0000000000000000E+00 
    3.1249999999922412E-01     0.0000000000000000E+00     0.0000000000000000E+00 
    3.2812499999917810E-01     0.0000000000000000E+00     0.0000000000000000E+00 
    3.4374999999913203E-01     0.0000000000000000E+00     0.0000000000000000E+00 
    3.5937499999908601E-01     0.0000000000000000E+00     0.0000000000000000E+00 
    3.7499999999903999E-01     0.0000000000000000E+00     0.0000000000000000E+00 
    3.9062499999899403E-01     0.0000000000000000E+00     0.0000000000000000E+00 
    4.0624999999894801E-01     0.0000000000000000E+00     0.0000000000000000E+00 
    4.2187499999890188E-01     0.0000000000000000E+00     0.0000000000000000E+00 
    4.3749999999885592E-01     0.0000000000000000E+00     0.0000000000000000E+00 
    4.5312499999880979E-01     0.0000000000000000E+00     0.0000000000000000E+00 
    4.6874999999876382E-01     0.0000000000000000E+00     0.0000000000000000E+00 
    4.8437499999871780E-01     0.0000000000000000E+00     0.0000000000000000E+00 
    4.9999999999867167E-01     0.0000000000000000E+00     0.0000000000000000E+00 
    5.1562499999871325E-01     0.0000000000000000E+00     0.0000000000000000E+00 
    5.3124999999875477E-01     0.0000000000000000E+00     0.0000000000000000E+00 
    5.4687499999879630E-01     0.0000000000000000E+00     0.0000000000000000E+00 
    5.6249999999883782E-01     0.0000000000000000E+00     0.0000000000000000E+00 
    5.7812499999887934E-01     0.0000000000000000E+00     0.0000000000000000E+00 
    5.9374999999892086E-01     0.0000000000000000E+00     0.0000000000000000E+00 
    6.0937499999896239E-01     0.0000000000000000E+00     0.0000000000000000E+00 
    6.2499999999900380E-01     0.0000000000000000E+00     0.0000000000000000E+00 
    6.4062499999904521E-01     0.0000000000000000E+00     0.0000000000000000E+00 
    6.5624999999908673E-01     0.0000000000000000E+00     0.0000000000000000E+00 
    6.7187499999912825E-01     0.0000000000000000E+00     0.0000000000000000E+00 
    6.8749999999916978E-01     0.0000000000000000E+00     0.0000000000000000E+00 
    7.0312499999921130E-01     0.0000000000000000E+00     0.0000000000000000E+00 
    7.1874999999925282E-01     0.0000000000000000E+00     0.0000000000000000E+00 
    7.3437499999929434E-01     0.0000000000000000E+00     0.0000000000000000E+00 
    7.4999999999933586E-01     0.0000000000000000E+00     0.0000000000000000E+00 
    7.6562499999937739E-01     0.0000000000000000E+00     0.0000000000000000E+00 
    7.8124999999941891E-01     0.0000000000000000E+00     0.0000000000000000E+00 
    7.9687499999946043E-01     0.0000000000000000E+00     0.0000000000000000E+00 
    8.1249999999950195E-01     0.0000000000000000E+00     0.0000000000000000E+00 
    8.2812499999954348E-01     0.0000000000000000E+00     0.0000000000000000E+00 
    8.4374999999958500E-01     0.0000000000000000E+00     0.0000000000000000E+00 
    8.5937499999962652E-01     0.0000000000000000E+00     0.0000000000000000E+00 
    8.7499999999966793E-01     0.0000000000000000E+00     0.0000000000000000E+00 
    8.9062499999970934E-01     0.0000000000000000E+00     0.0000000000000000E+00 
    9.0624999999975087E-01     0.0000000000000000E+00     0.0000000000000000E+00 
    9.2187499999979239E-01     0.0000000000000000E+00     0.0000000000000000E+00 
    9.3749999999983391E-01     0.0000000000000000E+00     0.0000000000000000E+00 
    9.5312499999987543E-01     0.0000000000000000E+00     0.0000000000000000E+00 
    9.6874999999991696E-01     0.0000000000000000E+00     0.0000000000000000E+00 
    9.8437499999995848E-01     0.0000000000000000E+00     0.0000000000000000E+00 
    1.0000000000000000E+00     1.5624999999970249E-02     0.0000000000000000E+00 
    1.0000000000000000E+00     3.1249999999940652E-02     0.0000000000000000E+00 
    1.0000000000000000E+00     4.6874999999905617E-02     0.0000000000000000E+00 
    1.0000000000000000E+00     6.2499999999870597E-02     0.0000000000000000E+00 
    1.0000000000000000E+00     7.8124999999846401E-02     0.0000000000000000E+00 
    1.0000000000000000E+00     9.3749999999822212E-02     0.0000000000000000E+00 
    1.0000000000000000E+00     1.0937499999979799E-01     0.0000000000000000E+00 
    1.0000000000000000E+00     1.2499999999977381E-01     0.0000000000000000E+00 
    1.0000000000000000E+00     1.4062499999972811E-01     0.0000000000000000E+00 
    1.0000000000000000E+00     1.5624999999968239E-01     0.0000000000000000E+00 
    1.0000000000000000E+00     1.7187499999963671E-01     0.0000000000000000E+00 
    1.0000000000000000E+00     1.8749999999959110E-01     0.0000000000000000E+00 
    1.0000000000000000E+00     2.0312499999954539E-01     0.0000000000000000E+00 
    1.0000000000000000E+00     2.1874999999949971E-01     0.0000000000000000E+00 
    1.0000000000000000E+00     2.3437499999945391E-01     0.0000000000000000E+00 
    1.0000000000000000E+00     2.4999999999940831E-01     0.0000000000000000E+00 
    1.0000000000000000E+00     2.6562499999936218E-01     0.0000000000000000E+00 
    1.0000000000000000E+00     2.8124999999931621E-01     0.0000000000000000E+00 
    1.0000000000000000E+00     2.9687499999927008E-01     0.0000000000000000E+00 
    1.0000000000000000E+00     3.1249999999922412E-01     0.0000000000000000E+00 
    1.0000000000000000E+00     3.2812499999917810E-01     0.0000000000000000E+00 
    1.0000000000000000E+00     3.4374999999913203E-01     0.0000000000000000E+00 
    1.0000000000000000E+00     3.5937499999908601E-01     0.0000000000000000E+00 
    1.0000000000000000E+00     3.7499999999903999E-01     0.0000000000000000E+00 
    1.0000000000000000E+00     3.9062499999899403E-01     0.0000000000000000E+00 
    1.0000000000000000E+00     4.0624999999894801E-01     0.0000000000000000E+00 
    1.0000000000000000E+00     4.2187499999890188E-01     0.0000000000000000E+00 
    1.0000000000000000E+00     4.3749999999885592E-01     0.0000000000000000E+00 
    1.0000000000000000E+00     4.5312499999880979E-01     0.0000000000000000E+00 
    1.0000000000000000E+00     4.6874999999876382E-01     0.0000000000000000E+00 
    1.0000000000000000E+00     4.8437499999871780E-01     0.0000000000000000E+00 
    1.0000000000000000E+00     4.9999999999867167E-01     0.0000000000000000E+00 
    1.0000000000000000E+00     5.1562499999871325E-01     0.0000000000000000E+00 
    1.0000000000000000E+00     5.3124999999875477E-01     0.0000000000000000E+00 
    1.0000000000000000E+00     5.4687499999879630E-01     0.0000000000000000E+00 
    1.0000000000000000E+00     5.6249999999883782E-01     0.0000000000000000E+00 
    1.0000000000000000E+00     5.7812499999887934E-01     0.0000000000000000E+00 
    1.0000000000000000E+00     5.9374999999892086E-01     0.0000000000000000E+00 
    1.0000000000000000E+00     6.0937499999896239E-01     0.0000000000000000E+00 
    1.0000000000000000E+00     6.2499999999900380E-01     0.0000000000000000E+00 
    1.0000000000000000E+00     6.4062499999904521E-01     0.0000000000000000E+00 
    1.0000000000000000E+00     6.5624999999908673E-01     0.0000000000000000E+00 
    1.0000000000000000E+00     6.7187499999912825E-01     0.0000000000000000E+00 
    1.0000000000000000E+00     6.8749999999916978E-01     0.0000000000000000E+00 
    1.0000000000000000E+00     7.0312499999921130E-01     0.0000000000000000E+00 
    1.0000000000000000E+00     7.1874999999925282E-01     0.0000000000000000E+00 
    1.0000000000000000E+00     7.3437499999929434E-01     0.0000000000000000E+00 
    1.0000000000000000E+00     7.4999999999933586E-01     0.0000000000000000E+00 
    1.0000000000000000E+00     7.6562499999937739E-01     0.0000000000000000E+00 
    1.0000000000000000E+00     7.8124999999941891E-01     0.0000000000000000E+00 
    1.0000000000000000E+00     7.9687499999946043E-01     0.0000000000000000E+00 
    1.0000000000000000E+00     8.1249999999950195E-01     0.0000000000000000E+00 
    1.0000000000000000E+00     8.2812499999954348E-01     0.0000000000000000E+00 
[...]
CELL_DATA 6144 
SCALARS Pressure double 1 
LOOKUP_TABLE default 

    2.8918278722054143E+00 
    2.7943877584403998E+00 
    2.7790565589530014E+00 
    2.7982525599707180E+00 
    2.7394763645976998E+00 
    2.7043251812142541E+00 
    2.7199301398298674E+00 
    2.7514671914703497E+00 
    2.7396141431384278E+00 
    2.7497176677741590E+00 
    2.7221840374288488E+00 
    2.7041986142403198E+00 
    2.6866279866140403E+00 
    2.7017089295494410E+00 
    2.6857420821309734E+00 
    2.6754925489681933E+00 
    2.7030040496050165E+00 
    2.6878182094311538E+00 
    2.6762456431930741E+00 
    2.6871924293904943E+00 
    2.6649728825327705E+00 
    2.6762842297458320E+00 
    2.6662360819627269E+00 
    2.6533078445242508E+00 
    2.6646261570841507E+00 
    2.6615200822672151E+00 
    2.6473636557987152E+00 
    2.6447675698878523E+00 
    2.6541703753260082E+00 
    2.6430768110602680E+00 
    2.6343915095131760E+00 
    2.6429511090028557E+00 
    2.6277306571897623E+00 
    2.6351519750895247E+00 
    2.6251074770160145E+00 
    2.6123137708070217E+00 
    2.6032607131390901E+00 
    2.6159056693161591E+00 
    2.6084620255251214E+00 
    2.5984033293630135E+00 
    2.6237765612334920E+00 
    2.6284052101435247E+00 
    2.6143950938473575E+00 
    2.6134631113231745E+00 
    2.5940797293420506E+00 
    2.6040512780518714E+00 
    2.6021892582591555E+00 
    2.5888412342998834E+00 
    2.5874171479555823E+00 
    2.5866061776121501E+00 
    2.5753274185333903E+00 
    2.5724350271390048E+00 
    2.5831925342565492E+00 
    2.5770661169249025E+00 
    2.5676688313791001E+00 
    2.5728985877154447E+00 
    2.5590977762342750E+00 
    2.5658171450363274E+00 
    2.5576389370143615E+00 
    2.5461573311423202E+00 
    2.5390662344276431E+00 
    2.5503818455124061E+00 
    2.5449683174447819E+00 
    2.5359859220745076E+00 
    2.5590302148621658E+00 
    2.5657881810162344E+00 
    2.5531388056612778E+00 
    2.5504019965161357E+00 
    2.5331988042976104E+00 
    2.5422704503991578E+00 
    2.5418578062301505E+00 
    2.5298342301355445E+00 
    2.5271607418187036E+00 
    2.5265438012822341E+00 
    2.5180035915754857E+00 
    2.5166573198097018E+00 
    2.5241618740365674E+00 
    2.5196277759360273E+00 
    2.5120853924494928E+00 
    2.5169788720260793E+00 
    2.5077694830345658E+00 
    2.5116320378781336E+00 
    2.5062564806818446E+00 
    2.5006953871275370E+00 
    2.4968861929888200E+00 
    2.5023821573373297E+00 
    2.4996456271430612E+00 
    2.4952670546281577E+00 
    2.5074201703047403E+00 
    2.5118399406937848E+00 
    2.5044587139288246E+00 
    2.5031530093050018E+00 
    2.4935065425804517E+00 
    2.4985427515789733E+00 
    2.4980814075743005E+00 
    2.4917177665735077E+00 
    2.4906420827962208E+00 
    2.4902884136485848E+00 
    2.4856468789589914E+00 
    2.4845214876906563E+00 
    2.4890670930780954E+00 
    2.4868922355350453E+00 
    2.4826542552920383E+00 
    2.4848284092650381E+00 
    2.4786909676801678E+00 
    2.4817125274498983E+00 
    2.4782200164271795E+00 
    2.4728000696560737E+00 
    2.4692623891041099E+00 
    2.4749790115314765E+00 
    2.4726148139397006E+00 
    2.4678567001531340E+00 
    2.4791858893773031E+00 
    2.4823340539027972E+00 
    2.4768874022611076E+00 
    2.4753109262529573E+00 
    2.4667365867891693E+00 
    2.4714047299088939E+00 
    2.4716758754900439E+00 
    2.4653842390677259E+00 
    2.4620689313325492E+00 
    2.4621185552719393E+00 
    2.4563705403339777E+00 
    2.4544554303583528E+00 
    2.4610828963718774E+00 
    2.4588603883402955E+00 
    2.4530811199894540E+00 
    2.4553089086878686E+00 
    2.4471711462344747E+00 
    2.4512538140869422E+00 
    2.4468245035927181E+00 
    2.4394242051786099E+00 
    2.4347142718955044E+00 
    2.4427440352920105E+00 
    2.4398533320665945E+00 
    2.4330423559149250E+00 
    2.4486547051122880E+00 
    2.4536418051851738E+00 
    2.4464983808588254E+00 
    2.4437407295684377E+00 
    2.4319197789454816E+00 
    2.4384762477828317E+00 
    2.4393827339493699E+00 
    2.4307572960196784E+00 
    2.4250288486805953E+00 
    2.4251188056020152E+00 
    2.4173248485116510E+00 
    2.4149499253671385E+00 
    2.4240160071257781E+00 
    2.4215977784467171E+00 
    2.4135185734125661E+00 
    2.4163285206213754E+00 
    2.4055103673281040E+00 
    2.4107920824388223E+00 
    2.4052129935270394E+00 
    2.3959621230749999E+00 
    2.3905494447805467E+00 
    2.4003638039225366E+00 
    2.3969272868715548E+00 
    2.3888839489509270E+00 
    2.4081940536259503E+00 
    2.4150733721678863E+00 
    2.4058593064926361E+00 
    2.4021317800993440E+00 
    2.3877759230592335E+00 
    2.3956851009922016E+00 
    2.3970551226137369E+00 
    2.3868122685102406E+00 
    2.3798561223435470E+00 
    2.3799931890761465E+00 
    2.3717299723238052E+00 
    2.3695100830107187E+00 
    2.3788586009150192E+00 
    2.3761910522741081E+00 
    2.3673154401428436E+00 
    2.3708173599532945E+00 
    2.3599470284972508E+00 
    2.3651016312678967E+00 
    2.3595839024938852E+00 
    2.3511315272794486E+00 
    2.3461180892960409E+00 
    2.3549253406341313E+00 
    2.3511197573159586E+00 
    2.3440671016862997E+00 
    2.3621440086318835E+00 
    2.3691761601714245E+00 
    2.3598272649284171E+00 
    2.3563939283503785E+00 
    2.3428850674975594E+00 
    2.3500532815884929E+00 
    2.3514352218073094E+00 
    2.3423194484195506E+00 
    2.3368507261725551E+00 
    2.3367722241566158E+00 
    2.3300347449914462E+00 
    2.3284125026371227E+00 
    2.3357540998926032E+00 
    2.3334967328577494E+00 
    2.3261606868624720E+00 
    2.3293492930192432E+00 
    2.3206113624563547E+00 
    2.3246476361440331E+00 
    2.3200818341648342E+00 
    2.3135508825875655E+00 
    2.3096041906570699E+00 
    2.3163904154056536E+00 
    2.3136846178399355E+00 
    2.3081817455603773E+00 
    2.3220863951689354E+00 
    2.3276735567224676E+00 
    2.3203194187189564E+00 
    2.3176563624439375E+00 
    2.3072189059476496E+00 
    2.3129008335940764E+00 
    2.3137496717783712E+00 
    2.3065393221190309E+00 
    2.3022527513941355E+00 
    2.3021463128393682E+00 
    2.2966577991289396E+00 
    2.2953715846660137E+00 
    2.3013324360039062E+00 
    2.2995505964495071E+00 
    2.2937861041642154E+00 
    2.2961690578553062E+00 
    2.2890301031440088E+00 
    2.2923805614706882E+00 
    2.2887002768354754E+00 
    2.2831230351586052E+00 
    2.2798087460028595E+00 
    2.2855716669476758E+00 
    2.2833723551728564E+00 
    2.2786629333813475E+00 
    2.2903172284928766E+00 
    2.2948076722219866E+00 
    2.2887594702607443E+00 
    2.2865979359790032E+00 
    2.2778416810323368E+00 
    2.2826567844737689E+00 
    2.2832877139522005E+00 
    2.2771132219887016E+00 
    2.2735403334396409E+00 
    2.2734713101224142E+00 
    2.2686950712337346E+00 
    2.2675362994660238E+00 
    2.2727214583453321E+00 
    2.2710546752253391E+00 
    2.2661488780681265E+00 
    2.2682303279648321E+00 
    2.2619349764306897E+00 
    2.2649721989632283E+00 
    2.2617577098969677E+00 
    2.2561847589921391E+00 
    2.2526405725360794E+00 
    2.2587855802285430E+00 
    2.2562245920595245E+00 
    2.2511007598134753E+00 
    2.2630978054335436E+00 
    2.2668745033271041E+00 
    2.2615058395387102E+00 
    2.2595590837791510E+00 
    2.2501963194222028E+00 
    2.2554013789174974E+00 
    2.2563173047279959E+00 
    2.2496929522545530E+00 
    2.2459700770461417E+00 
    2.2458729143494289E+00 
    2.2413277748668450E+00 
    2.2402307005100743E+00 
    2.2450760413493231E+00 
    2.2433598665010557E+00 
    2.2386871479178105E+00 
    2.2407355835485196E+00 
    2.2350663657386280E+00 
    2.2377309475700775E+00 
    2.2345701630803250E+00 
    2.2301799203911505E+00 
    2.2274859160048917E+00 
    2.2319254365360042E+00 
    2.2300841265981601E+00 
    2.2264110253810214E+00 
    2.2356250213391395E+00 
    2.2390509636743690E+00 
    2.2339195016060063E+00 
    2.2324421487913213E+00 
    2.2254332753918602E+00 
    2.2291828904845081E+00 
    2.2293427116657454E+00 
    2.2242918373219580E+00 
    2.2225389487000116E+00 
    2.2224215700086649E+00 
    2.2187402672387670E+00 
    2.2177740852919174E+00 
    2.2215199208446923E+00 
    2.2197600608363577E+00 
    2.2162771283243416E+00 
    2.2179645458437398E+00 
    2.2135053198812034E+00 
    2.2156396963906677E+00 
    2.2130298578976859E+00 
    2.2093655843404827E+00 
    2.2069387593879650E+00 
    2.2106992759510011E+00 
    2.2088013035267848E+00 
    2.2056674829356564E+00 
    2.2135732306504652E+00 
    2.2160426695128819E+00 
    2.2116669822892381E+00 
    2.2106645770548603E+00 
    2.2046389552955739E+00 
    2.2077248235756621E+00 
    2.2076785807573542E+00 
    2.2033394573929259E+00 
    2.2024504343507383E+00 
    2.2023212005731523E+00 
    2.1990586770354232E+00 
    2.1981041745347936E+00 
    2.2013950299107976E+00 
    2.1995763708546243E+00 
    2.1967211321108340E+00 
    2.1982321839361196E+00 
    2.1942210385608338E+00 
    2.1961853850340658E+00 
    2.1937889852338976E+00 
    2.1903401870285375E+00 
    2.1881121103231242E+00 
    2.1915640285863294E+00 
    2.1898387672690331E+00 
    2.1869762445647920E+00 
    2.1940536101200672E+00 
    2.1960546612630338E+00 
    2.1920658714283130E+00 
    2.1913212117578076E+00 
    2.1859398608063829E+00 
    2.1887599751707878E+00 
    2.1884568557385715E+00 
    2.1844820851302509E+00 
    2.1840407870791458E+00 
    2.1837969437214291E+00 
    2.1808747068985612E+00 
    2.1802175046989634E+00 
    2.1828728086808802E+00 
    2.1811191077409569E+00 
    2.1787746510212522E+00 
    2.1801714423465506E+00 
    2.1770444430416398E+00 
    2.1785386997380569E+00 
    2.1766296958010591E+00 
    2.1742225680100735E+00 
    2.1726197282519442E+00 
    2.1748566634386690E+00 
    2.1732462937437065E+00 
    2.1714874656422194E+00 
    2.1765405614790212E+00 
    2.1779166152207883E+00 
    2.1745165225624281E+00 
    2.1742709380078598E+00 
    2.1704158817641828E+00 
    2.1722500423029909E+00 
    2.1716873963991197E+00 
    2.1689817372887883E+00 
    2.1701781208078050E+00 
    2.1697438974620185E+00 
    2.1683217333349227E+00 
    2.1682789648159368E+00 
    2.1688495957351734E+00 
    2.1673509236697663E+00 
    2.1667505516034749E+00 
    2.1678020688194062E+00 
    2.1669653570266134E+00 
    2.1673131092681355E+00 
    2.1664068190048003E+00 
    2.1661473367134687E+00 
    2.1658561722283172E+00 
    2.1656284439448901E+00 
    2.1647927226721642E+00 
    2.1651149418814430E+00 
    2.1654881514214326E+00 
    2.1651754139025150E+00 
    2.1636191626853547E+00 
    2.1644720404560047E+00 
    2.1639469909307523E+00 
    2.1639372695486694E+00 
    2.1627213012056510E+00 
    2.1623269753363852E+00 
    2.6660006527663458E+00 
    2.6471131396993153E+00 
    2.6483082212495428E+00 
    2.6621204538553913E+00 
    2.6308344365083154E+00 
    2.6162894674556298E+00 
    2.6279865880622060E+00 
    2.6367000709351429E+00 
    2.6551221483645766E+00 
    2.6443430037338969E+00 
    2.6361258979578857E+00 
    2.6440330613854544E+00 
    2.6296392285459120E+00 
    2.6264146507678472E+00 
    2.6162778565370561E+00 
    2.6161056742012296E+00 
    2.6188945631751666E+00 
    2.6070438383516374E+00 
    2.6015190420920300E+00 
    2.6107648718147689E+00 
    2.6044019639367666E+00 
    2.6064964874502952E+00 
    2.5967457345382101E+00 
    2.5913493892575157E+00 
    2.6230726670077771E+00 
    2.6122137063852389E+00 
    2.6059318510116993E+00 
    2.6113245137980363E+00 
    2.6015103861714408E+00 
    2.5890956965964333E+00 
    2.5895865938924403E+00 
    2.5986627449749840E+00 
    2.6002460478646374E+00 
    2.5983212784611713E+00 
    2.5890205562971409E+00 
    2.5874935304401561E+00 
    2.5754390921017571E+00 
    2.5792761271279478E+00 
    2.5705145338416031E+00 
    2.5657743754896973E+00 
    2.5797772870115430E+00 
    2.5770441525708954E+00 
    2.5668328444620596E+00 
    2.5706785626871720E+00 
    2.5575433322427803E+00 
    2.5637442873624368E+00 
    2.5580261951316392E+00 
    2.5483243066971721E+00 
    2.5652564822720230E+00 
    2.5584934478665411E+00 
    2.5506071121610421E+00 
    2.5529567446745878E+00 
    2.5509134135857701E+00 
    2.5410407711352518E+00 
    2.5370837425649899E+00 
    2.5448811227894601E+00 
    2.5419512192303428E+00 
    2.5424001559034197E+00 
    2.5335963375913226E+00 
    2.5298536141697343E+00 
    2.5199409223672298E+00 
    2.5252044693017024E+00 
    2.5177544215078758E+00 
    2.5129613552085179E+00 
    2.5279926608126164E+00 
    2.5286425843263181E+00 
    2.5170003782522778E+00 
    2.5193494372650465E+00 
    2.5070728067200450E+00 
    2.5128171496196359E+00 
    2.5083207233404390E+00 
    2.5010099115152675E+00 
    2.5121873364879392E+00 
    2.5075518521058013E+00 
    2.5028355990337992E+00 
    2.5050106196178508E+00 
    2.5027488339182993E+00 
    2.4969186490418513E+00 
    2.4946915598118884E+00 
    2.5003400038918997E+00 
    2.4980010029106752E+00 
    2.4984671320289027E+00 
    2.4933961111892033E+00 
    2.4916890086947343E+00 
    2.4867268015118049E+00 
    2.4888898215707016E+00 
    2.4849312674615560E+00 
    2.4827751543743637E+00 
    2.4901742125843884E+00 
    2.4900195195274222E+00 
    2.4841169172170026E+00 
    2.4857369207307904E+00 
    2.4790839224325669E+00 
    2.4821389059710466E+00 
    2.4796049291587772E+00 
    2.4751804372021113E+00 
    2.4823427498684700E+00 
    2.4796181784938787E+00 
    2.4762206743625925E+00 
    2.4770479681257971E+00 
    2.4763991176632500E+00 
    2.4722228323422435E+00 
    2.4705295112050503E+00 
    2.4737474539490769E+00 
    2.4721844279487466E+00 
    2.4726621755290923E+00 
    2.4688062332282112E+00 
    2.4663993720148660E+00 
    2.4612690360842802E+00 
    2.4647516425466991E+00 
    2.4611346142740409E+00 
    2.4575804430010839E+00 
    2.4663800552786395E+00 
    2.4668489895714587E+00 
    2.4616391986009623E+00 
    2.4621639010560870E+00 
    2.4545450359101455E+00 
    2.4583927667311878E+00 
    2.4567486321302305E+00 
    2.4510295561205977E+00 
    2.4548472264123986E+00 
    2.4527838786932032E+00 
    2.4476779247221092E+00 
    2.4475546017905785E+00 
    2.4499463351788653E+00 
    2.4458870977023857E+00 
    2.4418986532902194E+00 
    2.4452567853361722E+00 
    2.4409531569961267E+00 
    2.4427060143641990E+00 
    2.4378586692163400E+00 
    2.4331379059614133E+00 
    2.4267546412066463E+00 
    2.4329542275043021E+00 
    2.4287663592744821E+00 
    2.4229558329953518E+00 
    2.4368459398066746E+00 
    2.4396622825710792E+00 
    2.4324187416768357E+00 
    2.4314688323180960E+00 
    2.4200905671012416E+00 
    2.4261729166191661E+00 
    2.4253998293720480E+00 
    2.4170374571410722E+00 
    2.4175424951202276E+00 
    2.4157433742847640E+00 
    2.4085759779654721E+00 
    2.4078879297529130E+00 
    2.4129727118287665E+00 
    2.4087771726330942E+00 
    2.4021668370531821E+00 
    2.4062678011987888E+00 
    2.3994190937476305E+00 
    2.4022010711619601E+00 
    2.3962337748200975E+00 
    2.3899109051144078E+00 
    2.3825604095205342E+00 
    2.3905386578367049E+00 
    2.3857710389712867E+00 
    2.3785875477907812E+00 
    2.3963018932050359E+00 
    2.4013246328286835E+00 
    2.3920068741571572E+00 
    2.3899240138608611E+00 
    2.3757429603392453E+00 
    2.3833647053940359E+00 
    2.3831876174503539E+00 
    2.3730768961771189E+00 
    2.3721713708568513E+00 
    2.3703005973924673E+00 
    2.3625416038438525E+00 
    2.3620701469931347E+00 
    2.3675698445168263E+00 
    2.3633945855541052E+00 
    2.3560622368643225E+00 
    2.3607329374697592E+00 
    2.3535708473504724E+00 
    2.3563185875075745E+00 
    2.3503249555745196E+00 
    2.3447675235069334E+00 
    2.3381800142969471E+00 
    2.3448951613975506E+00 
    2.3403509012773274E+00 
    2.3345063938263775E+00 
    2.3504633712558793E+00 
    2.3557267072788757E+00 
    2.3465404153558738E+00 
    2.3445424447024812E+00 
    2.3319198192087955E+00 
    2.3384544816403685E+00 
    2.3385195638615395E+00 
    2.3300393140808131E+00 
    2.3300072237966245E+00 
    2.3282347742569662E+00 
    2.3223195146695361E+00 
    2.3221139226835121E+00 
    2.3258746267535897E+00 
    2.3223745035853618E+00 
    2.3166838435235091E+00 
    2.3207991649110884E+00 
    2.3153154034020913E+00 
    2.3173729245999857E+00 
    2.3125011413993835E+00 
    2.3083386301200721E+00 
    2.3031362948188501E+00 
    2.3081413489729439E+00 
    2.3047286611838849E+00 
    2.3002463798416031E+00 
    2.3122114027728009E+00 
    2.3161136021254882E+00 
    2.3090102040441320E+00 
    2.3076585539666357E+00 
    2.2979942129596833E+00 
    2.3031224666217400E+00 
    2.3028148275894393E+00 
    2.2960235013472259E+00 
    2.2965843461952993E+00 
    2.2950979713282540E+00 
    2.2903048734447604E+00 
    2.2901080408327559E+00 
    2.2930146217653196E+00 
    2.2899020508104320E+00 
    2.2855162404988669E+00 
    2.2888342880397929E+00 
    2.2845563161548790E+00 
    2.2862072787929497E+00 
    2.2820814274527148E+00 
    2.2785686475802076E+00 
    2.2739331100728033E+00 
    2.2781173759377578E+00 
    2.2749664457535266E+00 
    2.2711714891221164E+00 
    2.2813649470387389E+00 
    2.2844155564852469E+00 
    2.2782017817872551E+00 
    2.2772338446569327E+00 
    2.2689407443049960E+00 
    2.2732697389744962E+00 
    2.2727249642622200E+00 
    2.2666889651494895E+00 
    2.2682827714696403E+00 
    2.2668846993757383E+00 
    2.2626919404437569E+00 
    2.2626086759491466E+00 
    2.2647213983245491E+00 
    2.2614064237679301E+00 
    2.2577905974957071E+00 
    2.2610791638634726E+00 
    2.2575391262247555E+00 
    2.2588435847286736E+00 
    2.2549367641338360E+00 
    2.2514752421605153E+00 
    2.2464921851661810E+00 
    2.2511000923534552E+00 
    2.2478293368636919E+00 
    2.2434502566535972E+00 
    2.2538946324926745E+00 
    2.2562283763660305E+00 
    2.2505199653719901E+00 
    2.2499016547351247E+00 
    2.2411027486033710E+00 
    2.2460341627797797E+00 
    2.2453042127714347E+00 
    2.2387492367552881E+00 
    2.2402449227057133E+00 
    2.2385500744064859E+00 
    2.2344332652023002E+00 
    2.2346236572912739E+00 
    2.2362858304798010E+00 
    2.2328739596575744E+00 
    2.2295636921323765E+00 
    2.2327346269311663E+00 
    2.2299228033625247E+00 
    2.2308317857600000E+00 
    2.2271221992158856E+00 
    2.2248174677416928E+00 
    2.2206118728894015E+00 
    2.2233924971937857E+00 
    2.2202495040790260E+00 
    2.2175253673116049E+00 
    2.2255091134156424E+00 
    2.2274401383090932E+00 
    2.2216987265669705E+00 
    2.2215997004411303E+00 
    2.2148282618818680E+00 
    2.2181561660658251E+00 
    2.2168622896563521E+00 
    2.2117943156374467E+00 
    2.2163337177401181E+00 
    2.2143617461140037E+00 
    2.2111838805202120E+00 
    2.2117462887725141E+00 
    2.2117613058283312E+00 
    2.2080979128737632E+00 
    2.2062180242316627E+00 
    2.2091736763059746E+00 
    2.2077834323212602E+00 
    2.2080136107413315E+00 
    2.2047858937639817E+00 
    2.2034010921740497E+00 
    2.1995408711862479E+00 
    2.2014559265209095E+00 
    2.1984507149345904E+00 
    2.1963451948084636E+00 
    2.2025715421819445E+00 
    2.2031617676308821E+00 
    2.1984676122013957E+00 
    2.1990678532691517E+00 
    2.1935258333933363E+00 
    2.1961508232530349E+00 
    2.1944233157802935E+00 
    2.1902304102822208E+00 
    2.1959022595210134E+00 
    2.1937142189444283E+00 
    2.1910645212112954E+00 
    2.1918258860385587E+00 
    2.1910553483378874E+00 
    2.1874717325429298E+00 
    2.1863752817750286E+00 
    2.1890265133997886E+00 
    2.1883233292471971E+00 
    2.1883263014461507E+00 
    2.1853338312395185E+00 
    2.1842632631806325E+00 
    2.1806031413595197E+00 
    2.1820917640913140E+00 
    2.1791988779701414E+00 