# vtk DataFile Version 2.0
Pressure Field Data 
ASCII 
DATASET UNSTRUCTURED_GRID 

POINTS 6273 double 

    0.0000000000000000E+00     0.0000000000000000E+00     0.0000000000000000E+00 
    1.0000000000000000E+00     0.0000000000000000E+00     0.0000000000000000E+00 
    1.0000000000000000E+00     1.0000000000000000E+00     0.0000000000000000E+00 
    0.0000000000000000E+00     1.0000000000000000E+00     0.0000000000000000E+00 
    1.5624999999970249E-02     0.0000000000000000E+00     0.0000000000000000E+00 
    3.1249999999940652E-02     0.0000000000000000E+00     0.0000000000000000E+00 
    4.6874999999905617E-02     0.0000000000000000E+00     0.0000000000000000E+00 
    6.2499999999870597E-02     0.0000000000000000E+00     0.0000000000000000E+00 
    7.8124999999846401E-02     0.0000000000000000E+00     0.0000000000000000E+00 
    9.3749999999822212E-02     0.0000000000000000E+00     0.0000000000000000E+00 
    1.0937499999979799E-01     0.0000000000000000E+00     0.0000000000000000E+00 
    1.2499999999977381E-01     0.0000000000000000E+00     0.0000000000000000E+00 
    1.4062499999972811E-01     0.0000000000000000E+00     0.0000000000000000E+00 
    1.5624999999968239E-01     0.0000000000000000E+00     0.0000000000000000E+00 
    1.7187499999963671E-01     0.0000000000000000E+00     0.0000000000000000E+00 
    1.8749999999959110E-01     0.0000000000000000E+00     0.0000000000000000E+00 
    2.0312499999954539E-01     0.0000000000000000E+00     0.0000000000000000E+00 
    2.1874999999949971E-01     0.0000000000000000E+00     0.0000000000000000E+00 
    2.3437499999945391E-01     0.0000000000000000E+00     0.0000000000000000E+00 
    2.4999999999940831E-01     0.0000000000000000E+00     0.0000000000000000E+00 
    2.6562499999936218E-01     0.0000000000000000E+00     0.0000000000000000E+00 
    2.8124999999931621E-01     0.0000000000000000E+00     0.0000000000000000E+00 
    2.9687499999927008E-01     0.0000000000000000E+00     0.0000000000000000E+00 
    3.1249999999922412E-01     0.0000000000000000E+00     0.0000000000000000E+00 
    3.2812499999917810E-01     0.0000000000000000E+00     0.0000000000000000E+00 
    3.4374999999913203E-01     0.0000000000000000E+00     0.0000000000000000E+00 
    3.5937499999908601E-01     0.0000000000000000E+00     0.0000000000000000E+00 
    3.7499999999903999E-01     0.0000000000000000E+00     0.0000000000000000E+00 
    3.9062499999899403E-01     0.0000000000000000E+00     0.0000000000000000E+00 
    4.0624999999894801E-01     0.0000000000000000E+00     0.0000000000000000E+00 
    4.2187499999890188E-01     0.0000000000000000E+00     0.0000000000000000E+00 
    4.3749999999885592E-01     0.0000000000000000E+00     0.0000000000000000E+00 
    4.5312499999880979E-01     0.0000000000000000E+00     0.0000000000000000E+00 
    4.6874999999876382E-01     0.0000000000000000E+00     0.0000000000000000E+00 
    4.8437499999871780E-01     0.0000000000000000E+00     0.0000000000000000E+00 
    4.9999999999867167E-01     0.0000000000000000E+00     0.0000000000000000E+00 
    5.1562499999871325E-01     0.0000000000000000E+00     0.0000000000000000E+00 
    5.3124999999875477E-01     0.0000000000000000E+00     0.0000000000000000E+00 
    5.4687499999879630E-01     0.0000000000000000E+00     0.0000000000000000E+00 
    5.6249999999883782E-01     0.0000000000000000E+00     0.0000000000000000E+00 
    5.7812499999887934E-01     0.0000000000000000E+00     0.0000000000000000E+00 
    5.9374999999892086E-01     0.0000000000000000E+00     0.0000000000000000E+00 
    6.0937499999896239E-01     0.0000000000000000E+00     0.0000000000000000E+00 
    6.2499999999900380E-01     0.0000000000000000E+00     0.0000000000000000E+00 
    6.4062499999904521E-01     0.0000000000000000E+00     0.0000000000000000E+00 
    6.5624999999908673E-01     0.0000000000000000E+00     0.0000000000000000E+00 
    6.7187499999912825E-01     0.0000000000000000E+00     0.0000000000000000E+00 
    6.8749999999916978E-01     0.0000000000000000E+00     0.0000000000000000E+00 
    7.0312499999921130E-01     0.0000000000000000E+00     0.0000000000000000E+00 
    7.1874999999925282E-01     0.0000000000000000E+00     0.0000000000000000E+00 
    7.3437499999929434E-01     0.0000000000000000E+00     0.0000000000000000E+00 
    7.4999999999933586E-01     0.0000000000000000E+00     0.0000000000000000E+00 
    7.6562499999937739E-01     0.0000000000000000E+00     0.0000000000000000E+00 
    7.8124999999941891E-01     0.0000000000000000E+00     0.0000000000000000E+00 
    7.9687499999946043E-01     0.0000000000000000E+00     0.0000000000000000E+00 
    8.1249999999950195E-01     0.0000000000000000E+00     0.0000000000000000E+00 
    8.2812499999954348E-01     0.0000000000000000E+00     0.0000000000000000E+00 
    8.4374999999958500E-01     0.0000000000000000E+00     0.0000000000000000E+00 
    8.5937499999962652E-01     0.0000000000000000E+00     0.0000000000000000E+00 
    8.7499999999966793E-01     0.0000000000000000E+00     0.0000000000000000E+00 
    8.9062499999970934E-01     0.0000000000000000E+00     0.0000000000000000E+00 
    9.0624999999975087E-01     0.0000000000000000E+00     0.0000000000000000E+00 
    9.2187499999979239E-01     0.0000000000000000E+00     0.0000000000000000E+00 
    9.3749999999983391E-01     0.0000000000000000E+00     0.0000000000000000E+00 
    9.5312499999987543E-01     0.0000000000000000E+00     0.0000000000000000E+00 
    9.6874999999991696E-01     0.0000000000000000E+00     0.0000000000000000E+00 
    9.8437499999995848E-01     0.0000000000000000E+00     0.0000000000000000E+00 
    1.0000000000000000E+00     1.5624999999970249E-02     0.0000000000000000E+00 
    1.0000000000000000E+00     3.1249999999940652E-02     0.0000000000000000E+00 
    1.0000000000000000E+00     4.6874999999905617E-02     0.0000000000000000E+00 
    1.0000000000000000E+00     6.2499999999870597E-02     0.0000000000000000E+00 
    1.0000000000000000E+00     7.8124999999846401E-02     0.0000000000000000E+00 
    1.0000000000000000E+00     9.3749999999822212E-02     0.0000000000000000E+00 
    1.0000000000000000E+00     1.0937499999979799E-01     0.0000000000000000E+00 
    1.0000000000000000E+00     1.2499999999977381E-01     0.0000000000000000E+00 
    1.0000000000000000E+00     1.4062499999972811E-01     0.0000000000000000E+00 
    1.0000000000000000E+00     1.5624999999968239E-01     0.0000000000000000E+00 
    1.0000000000000000E+00     1.7187499999963671E-01     0.0000000000000000E+00 
    1.0000000000000000E+00     1.8749999999959110E-01     0.0000000000000000E+00 
    1.0000000000000000E+00     2.0312499999954539E-01     0.0000000000000000E+00 
    1.0000000000000000E+00     2.1874999999949971E-01     0.0000000000000000E+00 
    1.0000000000000000E+00     2.3437499999945391E-01     0.0000000000000000E+00 
    1.0000000000000000E+00     2.4999999999940831E-01     0.0000000000000000E+00 
    1.0000000000000000E+00     2.6562499999936218E-01     0.0000000000000000E+00 
    1.0000000000000000E+00     2.8124999999931621E-01     0.0000000000000000E+00 
    1.0000000000000000E+00     2.9687499999927008E-01     0.0000000000000000E+00 
    1.0000000000000000E+00     3.1249999999922412E-01     0.0000000000000000E+00 
    1.0000000000000000E+00     3.2812499999917810E-01     0.0000000000000000E+00 
    1.0000000000000000E+00     3.4374999999913203E-01     0.0000000000000000E+00 
    1.0000000000000000E+00     3.5937499999908601E-01     0.0000000000000000E+00 
    1.0000000000000000E+00     3.7499999999903999E-01     0.0000000000000000E+00 
    1.0000000000000000E+00     3.9062499999899403E-01     0.0000000000000000E+00 
    1.0000000000000000E+00     4.0624999999894801E-01     0.0000000000000000E+00 
    1.0000000000000000E+00     4.2187499999890188E-01     0.0000000000000000E+00 
    1.0000000000000000E+00     4.3749999999885592E-01     0.0000000000000000E+00 
    1.0000000000000000E+00     4.5312499999880979E-01     0.0000000000000000E+00 
    1.0000000000000000E+00     4.6874999999876382E-01     0.0000000000000000E+00 
    1.0000000000000000E+00     4.8437499999871780E-01     0.0000000000000000E+00 
    1.0000000000000000E+00     4.9999999999867167E-01     0.0000000000000000E+00 
    1.0000000000000000E+00     5.1562499999871325E-01     0.0000000000000000E+00 
    1.0000000000000000E+00     5.3124999999875477E-01     0.0000000000000000E+00 
    1.0000000000000000E+00     5.4687499999879630E-01     0.0000000000000000E+00 
    1.0000000000000000E+00     5.6249999999883782E-01     0.0000000000000000E+00 
    1.0000000000000000E+00     5.7812499999887934E-01     0.0000000000000000E+00 
    1.0000000000000000E+00     5.9374999999892086E-01     0.0000000000000000E+00 
    1.0000000000000000E+00     6.0937499999896239E-01     0.0000000000000000E+00 
    1.0000000000000000E+00     6.2499999999900380E-01     0.0000000000000000E+00 
    1.0000000000000000E+00     6.4062499999904521E-01     0.0000000000000000E+00 
    1.0000000000000000E+00     6.5624999999908673E-01     0.0000000000000000E+00 
    1.0000000000000000E+00     6.7187499999912825E-01     0.0000000000000000E+00 
    1.0000000000000000E+00     6.8749999999916978E-01     0.0000000000000000E+00 
    1.0000000000000000E+00     7.0312499999921130E-01     0.0000000000000000E+00 
    1.0000000000000000E+00     7.1874999999925282E-01     0.0000000000000000E+00 
    1.0000000000000000E+00     7.3437499999929434E-01     0.0000000000000000E+00 
    1.0000000000000000E+00     7.4999999999933586E-01     0.0000000000000000E+00 
    1.0000000000000000E+00     7.6562499999937739E-01     0.0000000000000000E+00 
    1.0000000000000000E+00     7.8124999999941891E-01     0.0000000000000000E+00 
    1.0000000000000000E+00     7.9687499999946043E-01     0.0000000000000000E+00 
    1.0000000000000000E+00     8.1249999999950195E-01     0.0000000000000000E+00 
    1.0000000000000000E+00     8.2812499999954348E-01     0.0000000000000000E+00 
[...]
CELL_DATA 6144 
SCALARS Pressure double 1 
LOOKUP_TABLE default 

    3.0456825558358083E+00 
    2.9480477499355633E+00 
    2.9326513841813417E+00 
    2.9520238665879366E+00 
    2.8928938971940172E+00 
    2.8572738945770486E+00 
    2.8731267471061122E+00 
    2.9050986149678604E+00 
    2.8929418085161247E+00 
    2.9032338692708186E+00 
    2.8753621962421265E+00 
    2.8570024651059778E+00 
    2.8389896241790007E+00 
    2.8545508069067007E+00 
    2.8382093223367311E+00 
    2.8276097583142357E+00 
    2.8559291043449093E+00 
    2.8403984075805666E+00 
    2.8285340368501291E+00 
    2.8397698105698184E+00 
    2.8167154234240925E+00 
    2.8285096802855509E+00 
    2.8181302468110072E+00 
    2.8045782543429341E+00 
    2.8161895122011491E+00 
    2.8129625000352223E+00 
    2.7979388916004222E+00 
    2.7951771749759979E+00 
    2.8053057802589088E+00 
    2.7936617558817383E+00 
    2.7842014865175537E+00 
    2.7933673133794308E+00 
    2.7767993152444737E+00 
    2.7849225110328644E+00 
    2.7740704520474657E+00 
    2.7600402813279428E+00 
    2.7501951530624389E+00 
    2.7641734357464309E+00 
    2.7561193844044811E+00 
    2.7450074711095831E+00 
    2.7728732873259019E+00 
    2.7780327371394535E+00 
    2.7628676185375429E+00 
    2.7617219843923095E+00 
    2.7403163085981754E+00 
    2.7514204132930327E+00 
    2.7495064562968921E+00 
    2.7346896797771696E+00 
    2.7327004061781555E+00 
    2.7318016680012556E+00 
    2.7190940973504647E+00 
    2.7159308866609884E+00 
    2.7280851441092713E+00 
    2.7213587183215124E+00 
    2.7105434683574536E+00 
    2.7165153550986476E+00 
    2.7008328950766627E+00 
    2.7084587691536584E+00 
    2.6991769660895955E+00 
    2.6862457858326612E+00 
    2.6782862433007297E+00 
    2.6910227577765600E+00 
    2.6849215650666909E+00 
    2.6748509538979719E+00 
    2.7008917492030693E+00 
    2.7087058712394421E+00 
    2.6943247648786088E+00 
    2.6911828123414354E+00 
    2.6717782851021616E+00 
    2.6820449880624513E+00 
    2.6816020232458144E+00 
    2.6682048612913389E+00 
    2.6650013718615213E+00 
    2.6643013481826290E+00 
    2.6547801915078715E+00 
    2.6531502205134192E+00 
    2.6617609358697250E+00 
    2.6568849364652287E+00 
    2.6482292350543406E+00 
    2.6537734783368938E+00 
    2.6427717504570523E+00 
    2.6474952850049531E+00 
    2.6412840064472309E+00 
    2.6342488576374361E+00 
    2.6296001016694266E+00 
    2.6366887534795733E+00 
    2.6333549546504074E+00 
    2.6276829251873854E+00 
    2.6429220058653815E+00 
    2.6482316127535399E+00 
    2.6394282620418341E+00 
    2.6376051553332318E+00 
    2.6255960465805259E+00 
    2.6318803731345501E+00 
    2.6313722066987717E+00 
    2.6233734967769218E+00 
    2.6216933501069484E+00 
    2.6212951914289744E+00 
    2.6152374531083376E+00 
    2.6137244170500344E+00 
    2.6197817418685490E+00 
    2.6170848164416465E+00 
    2.6114704263336961E+00 
    2.6142490668027216E+00 
    2.6060587803008288E+00 
    2.6100568807713520E+00 
    2.6054722460107222E+00 
    2.5983263714363716E+00 
    2.5937107636068935E+00 
    2.6012974053750315E+00 
    2.5982845163951085E+00 
    2.5919760052204621E+00 
    2.6069967565583063E+00 
    2.6112954675651681E+00 
    2.6041610705621925E+00 
    2.6019663949664911E+00 
    2.5906528134531732E+00 
    2.5968542829667083E+00 
    2.5973257361961792E+00 
    2.5891128621037525E+00 
    2.5843297280506663E+00 
    2.5844299717485484E+00 
    2.5769209257612040E+00 
    2.5744698429621740E+00 
    2.5832230536739300E+00 
    2.5805264715443457E+00 
    2.5727960341942167E+00 
    2.5757276479867830E+00 
    2.5649602547829531E+00 
    2.5703203895154942E+00 
    2.5645765649066923E+00 
    2.5549456482319655E+00 
    2.5489053654055533E+00 
    2.5593882588681396E+00 
    2.5557787337901310E+00 
    2.5469167984918655E+00 
    2.5672406039971531E+00 
    2.5739305792685334E+00 
    2.5647643784974274E+00 
    2.5610068930522125E+00 
    2.5456898112500821E+00 
    2.5542395892290752E+00 
    2.5556235338874571E+00 
    2.5445191598948340E+00 
    2.5365029233989826E+00 
    2.5366916115565847E+00 
    2.5267108413417736E+00 
    2.5236927332181556E+00 
    2.5354628815674700E+00 
    2.5325877968133192E+00 
    2.5219718833957172E+00 
    2.5256106984766378E+00 
    2.5115281484351812E+00 
    2.5183648632806950E+00 
    2.5111840444544522E+00 
    2.4992324965849440E+00 
    2.4922768971952989E+00 
    2.5050065285010534E+00 
    2.5006815117861669E+00 
    2.4902592602802422E+00 
    2.5152922446325463E+00 
    2.5243827259330827E+00 
    2.5125643709653689E+00 
    2.5075762205575813E+00 
    2.4890246632502064E+00 
    2.4992980166503269E+00 
    2.5012789362900412E+00 
    2.4881281839470391E+00 
    2.4785665615321220E+00 
    2.4787876209799120E+00 
    2.4681273097818539E+00 
    2.4652535388322439E+00 
    2.4775071354594660E+00 
    2.4743777971083216E+00 
    2.4626370445315153E+00 
    2.4671477435996239E+00 
    2.4526595674878942E+00 
    2.4595763375095836E+00 
    2.4523858585269456E+00 
    2.4409190522735935E+00 
    2.4340785624604280E+00 
    2.4463490199078088E+00 
    2.4414785993287080E+00 
    2.4315485368943421E+00 
    2.4561790985130254E+00 
    2.4656803007502703E+00 
    2.4537871133952569E+00 
    2.4488322568081076E+00 
    2.4305219266475846E+00 
    2.4404759539065282E+00 
    2.4429219609210913E+00 
    2.4307072568051864E+00 
    2.4204285556665539E+00 
    2.4206491691578536E+00 
    2.4091489474122469E+00 
    2.4059444679140700E+00 
    2.4196032241619561E+00 
    2.4168852753887959E+00 
    2.4033676845414029E+00 
    2.4083788705187499E+00 
    2.3925508861933018E+00 
    2.3996116381003509E+00 
    2.3921577099857001E+00 
    2.3811198333549592E+00 
    2.3748584179002683E+00 
    2.3863674613372043E+00 
    2.3823538669410209E+00 
    2.3730037031982705E+00 
    2.3967542038214460E+00 
    2.4079819503758699E+00 
    2.3949579859773542E+00 
    2.3894559773736872E+00 
    2.3720453951465679E+00 
    2.3816022483542301E+00 
    2.3838659450331718E+00 
    2.3717954450304570E+00 
    2.3628939318617714E+00 
    2.3630037535570003E+00 
    2.3540932589988564E+00 
    2.3519468150539167E+00 
    2.3621342142562685E+00 
    2.3598289033854858E+00 
    2.3499972006271204E+00 
    2.3535950840632882E+00 
    2.3420112549471725E+00 
    2.3473597952107732E+00 
    2.3416738829971457E+00 
    2.3329635042104169E+00 
    2.3280196113935188E+00 
    2.3369800960565836E+00 
    2.3338081893108722E+00 
    2.3265172866628312E+00 
    2.3447849505302107E+00 
    2.3525796927298561E+00 
    2.3429686795295752E+00 
    2.3391236317152138E+00 
    2.3255785063245580E+00 
    2.3330338729761477E+00 
    2.3344362939236167E+00 
    2.3249870157307972E+00 
    2.3187015268987761E+00 
    2.3187032482158205E+00 
    2.3116990465645877E+00 
    2.3100714546402861E+00 
    2.3178294322825908E+00 
    2.3157149350779886E+00 
    2.3082655229423859E+00 
    2.3111779470221085E+00 
    2.3024067065238820E+00 
    2.3064558464013141E+00 
    2.3021828502954018E+00 
    2.2956078024390916E+00 
    2.2917214360866893E+00 
    2.2984801759277658E+00 
    2.2954575321118731E+00 
    2.2900168061672019E+00 
    2.3041412847768514E+00 
    2.3098351713251719E+00 
    2.3022306840964011E+00 
    2.2994936429841744E+00 
    2.2889606591546356E+00 
    2.2944752032582860E+00 
    2.2954675115582632E+00 
    2.2882185476973436E+00 
    2.2844918646068892E+00 
    2.2843255387875514E+00 
    2.2791645839556294E+00 
    2.2779527320502377E+00 
    2.2834068710205173E+00 
    2.2814475618798977E+00 
    2.2761543291354842E+00 
    2.2785068074467358E+00 
    2.2720882719639843E+00 
    2.2750966846481919E+00 
    2.2715165285149372E+00 
    2.2665879692267121E+00 
    2.2635700103565406E+00 
    2.2685435873251407E+00 
    2.2664778786147290E+00 
    2.2623737330746918E+00 
    2.2727196566377006E+00 
    2.2766291596794139E+00 
    2.2708097698268470E+00 
    2.2691454324701654E+00 
    2.2612824309439534E+00 
    2.2654854176514534E+00 
    2.2656655343591718E+00 
    2.2600205459252924E+00 
    2.2580611101386183E+00 
    2.2579254974313718E+00 
    2.2538339441928770E+00 
    2.2527754508418747E+00 
    2.2569273955930549E+00 
    2.2549794802553520E+00 
    2.2511029984976210E+00 
    2.2529900092680055E+00 
    2.2480465331467809E+00 
    2.2504060465570301E+00 
    2.2475183579562565E+00 
    2.2434889710157631E+00 
    2.2408276689818925E+00 
    2.2449553704493641E+00 
    2.2428715743955383E+00 
    2.2394386467369340E+00 
    2.2481283195745050E+00 
    2.2508610754893512E+00 
    2.2460344727204182E+00 
    2.2449323320673282E+00 
    2.2383145957744124E+00 
    2.2417026710456547E+00 
    2.2416547557553201E+00 
    2.2369044508141278E+00 
    2.2359241344667136E+00 
    2.2357797630428298E+00 
    2.2322199970910219E+00 
    2.2311875512013097E+00 
    2.2347717611608640E+00 
    2.2327930648215379E+00 
    2.2296733071558648E+00 
    2.2313286125711449E+00 
    2.2269584412180770E+00 
    2.2290946392511368E+00 
    2.2264864344484776E+00 
    2.2227463169092960E+00 
    2.2203318322465786E+00 
    2.2240719622832406E+00 
    2.2222016954213681E+00 
    2.2191020167703379E+00 
    2.2267788540637872E+00 
    2.2289586179718697E+00 
    2.2246245427452958E+00 
    2.2238158608219427E+00 
    2.2179801472296887E+00 
    2.2210380872719258E+00 
    2.2207116709156920E+00 
    2.2164075386226938E+00 
    2.2159270227395700E+00 
    2.2156613516323316E+00 
    2.2125018354854435E+00 
    2.2117940635095428E+00 
    2.2146623145673376E+00 
    2.2127678654279652E+00 
    2.2102304301354496E+00 
    2.2117436334524494E+00 
    2.2083640415985322E+00 
    2.2099778078686740E+00 
    2.2079143171642577E+00 
    2.2053161694945200E+00 
    2.2035845720290452E+00 
    2.2059983194662460E+00 
    2.2042591452241638E+00 
    2.2023601783941995E+00 
    2.2078180723739282E+00 
    2.2093071432001654E+00 
    2.2056341105641328E+00 
    2.2053675953449994E+00 
    2.2012025949666314E+00 
    2.2031845191803208E+00 
    2.2025788508551667E+00 
    2.1996567908131150E+00 
    2.2009474613790454E+00 
    2.2004775476786747E+00 
    2.1989423354223483E+00 
    2.1988959778073771E+00 
    2.1995112200334628E+00 
    2.1978935077877675E+00 
    2.1972443443333463E+00 
    2.1983802915515622E+00 
    2.1974770650908222E+00 
    2.1978524111260187E+00 
    2.1968733869612249E+00 
    2.1965936844010732E+00 
    2.1962785257383417E+00 
    2.1960318318163936E+00 
    2.1951291153181383E+00 
    2.1954772556945903E+00 
    2.1958807573588355E+00 
    2.1955453640049485E+00 
    2.1938645721937742E+00 
    2.1947839437131300E+00 
    2.1942162118376638E+00 
    2.1942060973772670E+00 
    2.1928946817530024E+00 
    2.1924694615473648E+00 
    2.8178577710125707E+00 
    2.7978948459820372E+00 
    2.7992311618512842E+00 
    2.8138478003666831E+00 
    2.7804405296835322E+00 
    2.7647156014599661E+00 
    2.7774255213163568E+00 
    2.7868971306181987E+00 
    2.8065020657674276E+00 
    2.7951003737561653E+00 
    2.7863589966475266E+00 
    2.7948176077739140E+00 
    2.7794882006326920E+00 
    2.7759426491823147E+00 
    2.7650025151990376E+00 
    2.7649066402364499E+00 
    2.7676942747653386E+00 
    2.7547572765219495E+00 
    2.7488424814520798E+00 
    2.7589829919282427E+00 
    2.7521419494580726E+00 
    2.7543761129460269E+00 
    2.7436754514706405E+00 
    2.7377984405651303E+00 
    2.7724264799251852E+00 
    2.7607116028263787E+00 
    2.7538521587095977E+00 
    2.7596605355709425E+00 
    2.7490335712989107E+00 
    2.7353540769053022E+00 
    2.7358965416296397E+00 
    2.7458954012163623E+00 
    2.7475131887554962E+00 
    2.7454883063188293E+00 
    2.7352060283675526E+00 
    2.7333761534470224E+00 
    2.7199099365208070E+00 
    2.7243477736181418E+00 
    2.7145063721917468E+00 
    2.7090520249871521E+00 
    2.7249652332483927E+00 
    2.7219205479665218E+00 
    2.7104009260678175E+00 
    2.7147147898837423E+00 
    2.6997073279300707E+00 
    2.7068260652753686E+00 
    2.7003235478011587E+00 
    2.6891384498441364E+00 
    2.7082809954062563E+00 
    2.7006776336752725E+00 
    2.6915931775256947E+00 
    2.6942276259320699E+00 
    2.6920304647266922E+00 
    2.6807217784548620E+00 
    2.6761820473179312E+00 
    2.6851463727159826E+00 
    2.6817477710273638E+00 
    2.6822575894234513E+00 
    2.6722768194399125E+00 
    2.6682480796538353E+00 
    2.6573473231967708E+00 
    2.6629727108033947E+00 
    2.6548050724120071E+00 
    2.6497281983815246E+00 
    2.6660197837695061E+00 
    2.6666687852416189E+00 
    2.6539080479849146E+00 
    2.6566557825015504E+00 
    2.6430927733921257E+00 
    2.6494662437686354E+00 
    2.6445208920370993E+00 
    2.6362383264450036E+00 
    2.6487146378310200E+00 
    2.6435689904683679E+00 
    2.6378139548564845E+00 
    2.6399915145431758E+00 
    2.6380753032489839E+00 
    2.6311390436229689E+00 
    2.6281858225572661E+00 
    2.6346076228188093E+00 
    2.6314812704097705E+00 
    2.6322886176798299E+00 
    2.6261360248470429E+00 
    2.6236432885494736E+00 
    2.6175017753398051E+00 
    2.6206196014573204E+00 
    2.6157025968033842E+00 
    2.6126213916298253E+00 
    2.6224446683567502E+00 
    2.6225298069185476E+00 
    2.6150180605955349E+00 
    2.6168251641630822E+00 
    2.6080941173269010E+00 
    2.6121785429525675E+00 
    2.6091480201085138E+00 
    2.6032288311927565E+00 
    2.6115642429188584E+00 
    2.6082608050120908E+00 
    2.6036448680675686E+00 
    2.6045605396160609E+00 
    2.6042787008244117E+00 
    2.5990415875252895E+00 
    2.5964825805789307E+00 
    2.6006432005667737E+00 
    2.5981498224570836E+00 
    2.5989672241376240E+00 
    2.5939842467081800E+00 
    2.5906299483853990E+00 
    2.5841376583430895E+00 
    2.5888579811803938E+00 
    2.5843115084078354E+00 
    2.5796417530465621E+00 
    2.5912309523710322E+00 
    2.5921581862051077E+00 
    2.5853698240664582E+00 
    2.5858601936169219E+00 
    2.5759044369937998E+00 
    2.5809596087224174E+00 
    2.5790072013081211E+00 
    2.5715967124581152E+00 
    2.5757947703817083E+00 
    2.5733611482347318E+00 
    2.5667192362038365E+00 
    2.5663918500177805E+00 
    2.5698881302164311E+00 
    2.5648598707264054E+00 
    2.5595756949928634E+00 
    2.5638110111595935E+00 
    2.5578906881319066E+00 
    2.5603585060986469E+00 
    2.5542134031504986E+00 
    2.5479054741878819E+00 
    2.5398693587982195E+00 
    2.5480476954221367E+00 
    2.5428336415134192E+00 
    2.5352741728760684E+00 
    2.5532346152399747E+00 
    2.5570055437155252E+00 
    2.5478164288399698E+00 
    2.5464553906388656E+00 
    2.5318489514324578E+00 
    2.5397024854228247E+00 
    2.5388981703569797E+00 
    2.5282344937042889E+00 
    2.5278957029068474E+00 
    2.5258880370341590E+00 
    2.5165734992651769E+00 
    2.5154648381212721E+00 
    2.5226077928150783E+00 
    2.5175257463866960E+00 
    2.5087461878540189E+00 
    2.5138517878064111E+00 
    2.5045926436824959E+00 
    2.5084278655985668E+00 
    2.5008838203704773E+00 
    2.4924725968882520E+00 
    2.4833305990591303E+00 
    2.4937812226126561E+00 
    2.4879209907152675E+00 
    2.4786875600573972E+00 
    2.5014197507887572E+00 
    2.5081876659158846E+00 
    2.4963548115487399E+00 
    2.4934463861293379E+00 
    2.4754471833358971E+00 
    2.4851661662906515E+00 
    2.4852151072747377E+00 
    2.4725181350795942E+00 
    2.4699914452084801E+00 
    2.4680917611851725E+00 
    2.4582099775042954E+00 
    2.4571716458826969E+00 
    2.4650538980665750E+00 
    2.4602225799151385E+00 
    2.4506100301390039E+00 
    2.4562400160256179E+00 
    2.4463383971303814E+00 
    2.4503465280980432E+00 
    2.4428604201205451E+00 
    2.4349841098364835E+00 
    2.4262396938520543E+00 
    2.4359745768990106E+00 
    2.4302295856092182E+00 
    2.4217564038867008E+00 
    2.4436563636896942E+00 
    2.4508302335749854E+00 
    2.4392320482967689E+00 
    2.4360868434996017E+00 
    2.4189443163822810E+00 
    2.4280386219687724E+00 
    2.4287556171864932E+00 
    2.4172197571782346E+00 
    2.4134656580715594E+00 
    2.4120245966098159E+00 
    2.4013947070374204E+00 
    2.3993005086569563E+00 
    2.4094096142996970E+00 
    2.4050056967949334E+00 
    2.3936605793412746E+00 
    2.3996497463032660E+00 
    2.3875911402743877E+00 
    2.3923561624568466E+00 
    2.3844348732594631E+00 
    2.3760003908093488E+00 
    2.3679370017111681E+00 
    2.3775199057400336E+00 
    2.3723519307267815E+00 
    2.3640813464755843E+00 
    2.3861031951534168E+00 
    2.3951571842979869E+00 
    2.3818454468367545E+00 
    2.3781172890249644E+00 
    2.3612634155032550E+00 
    2.3702392604446638E+00 
    2.3706095081724468E+00 
    2.3588172498843920E+00 
    2.3564380889446306E+00 
    2.3549865319720014E+00 
    2.3468394052932453E+00 
    2.3458216329988719E+00 
    2.3524090110976270E+00 
    2.3481358234912690E+00 
    2.3401601412395587E+00 
    2.3450683808471204E+00 
    2.3370136661477177E+00 
    2.3402803446794280E+00 
    2.3339950114531884E+00 
    2.3278477713791461E+00 
    2.3212015711370371E+00 
    2.3282177119655811E+00 
    2.3238235360222967E+00 
    2.3177075957488271E+00 
    2.3340070200286602E+00 
    2.3397781535680449E+00 
    2.3300441732796302E+00 
    2.3278540139612169E+00 
    2.3150061587995157E+00 
    2.3217766053294704E+00 
    2.3216092549120768E+00 
    2.3124396989941185E+00 
    2.3124569159752455E+00 
    2.3110086367682277E+00 
    2.3046711345331135E+00 
    2.3041296142618690E+00 
    2.3084448502082551E+00 
    2.3042715945097587E+00 
    2.2984460550498902E+00 
    2.3027777005418844E+00 
    2.2971154289032207E+00 
    2.2992012483224840E+00 
    2.2940993663723153E+00 
    2.2899052996762159E+00 
    2.2844154698566665E+00 
    2.2893878689477534E+00 
    2.2854652320801168E+00 
    2.2809423506497022E+00 
    2.2933679524454438E+00 
    2.2972202910265307E+00 
    2.2893206802689443E+00 
    2.2881751382248399E+00 
    2.2780988145484198E+00 
    2.2832629820471144E+00 
    2.2824249179870120E+00 
    2.2751619140793355E+00 
    2.2778980824640560E+00 
    2.2759052938080853E+00 
    2.2712974530190566E+00 
    2.2715760861703882E+00 
    2.2732224919946851E+00 
    2.2692948495934608E+00 
    2.2657421415297727E+00 
    2.2693465653877971E+00 
    2.2662934203353413E+00 
    2.2672694340807671E+00 
    2.2631071827951379E+00 
    2.2605893102564991E+00 
    2.2559019626082941E+00 
    2.2589371253032482E+00 
    2.2554227012150116E+00 
    2.2524554520174775E+00 
    2.2612055706270646E+00 
    2.2631699111290224E+00 
    2.2568754691353590E+00 
    2.2568638957303726E+00 
    2.2494349780501612E+00 
    2.2530728149915715E+00 
    2.2515653107584854E+00 
    2.2460291568319173E+00 
    2.2511819651853977E+00 
    2.2489840022152374E+00 
    2.2454911393550372E+00 
    2.2461265565198945E+00 
    2.2460950659745853E+00 
    2.2420367426978212E+00 
    2.2400136013808707E+00 
    2.2432774463644503E+00 
    2.2417683794189331E+00 
    2.2420140460299107E+00 
    2.2384713545844273E+00 
    2.2369702917974346E+00 
    2.2327532518827655E+00 
    2.2348271665829107E+00 
    2.2315404656447346E+00 
    2.2292644906889283E+00 
    2.2360207090874833E+00 
    2.2366124041548088E+00 
    2.2314991618473798E+00 
    2.2321951669270619E+00 
    2.2261819992576584E+00 
    2.2290247791624380E+00 
    2.2271120671370435E+00 
    2.2225757880292818E+00 
    2.2287964127055355E+00 
    2.2264117830462213E+00 
    2.2235365944116832E+00 
    2.2243687819407572E+00 
    2.2235156278182386E+00 
    2.2196151563553901E+00 
    2.2184449308937304E+00 
    2.2213266201238708E+00 
    2.2205681716650201E+00 
    2.2205704411150489E+00 
    2.2173274507522258E+00 
    2.2161723088275229E+00 
    2.2122136713902583E+00 
    2.2138191281022754E+00 
    2.2106893315949780E+00 