# vtk DataFile Version 2.0
Pressure Field Data 
ASCII 
DATASET UNSTRUCTURED_GRID 

POINTS 6273 double 

    0.0000000000000000E+00     0.0000000000000000E+00     0.0000000000000000E+00 
    1.0000000000000000E+00     0.0000000000000000E+00     0.0000000000000000E+00 
    1.0000000000000000E+00     1.0000000000000000E+00     0.0000000000000000E+00 
    0.0000000000000000E+00     1.0000000000000000E+00     0.0000000000000000E+00 
    1.5624999999970249E-02     0.0000000000000000E+00     0.0000000000000000E+00 
    3.1249999999940652E-02     0.0000000000000000E+00     0.0000000000000000E+00 
    4.6874999999905617E-02     0.0000000000000000E+00     0.0000000000000000E+00 
    6.2499999999870597E-02     0.0000000000000000E+00     0.0000000000000000E+00 
    7.8124999999846401E-02     0.0000000000000000E+00     0.0000000000000000E+00 
    9.3749999999822212E-02     0.0000000000000000E+00     0.0000000000000000E+00 
    1.0937499999979799E-01     0.0000000000000000E+00     0.0000000000000000E+00 
    1.2499999999977381E-01     0.0000000000000000E+00     0.0000000000000000E+00 
    1.4062499999972811E-01     0.0000000000000000E+00     0.0000000000000000E+00 
    1.5624999999968239E-01     0.0000000000000000E+00     0.0000000000000000E+00 
    1.7187499999963671E-01     0.0000000000000000E+00     0.0000000000000000E+00 
    1.8749999999959110E-01     0.0000000000000000E+00     0.0000000000000000E+00 
    2.0312499999954539E-01     0.0000000000000000E+00     0.0000000000000000E+00 
    2.1874999999949971E-01     0.0000000000000000E+00     0.0000000000000000E+00 
    2.3437499999945391E-01     0.0000000000000000E+00     0.0000000000000000E+00 
    2.4999999999940831E-01     0.0000000000000000E+00     0.0000000000000000E+00 
    2.6562499999936218E-01     0.0000000000000000E+00     0.0000000000000000E+00 
    2.8124999999931621E-01     0.0000000000000000E+00     0.0000000000000000E+00 
    2.9687499999927008E-01     0.0000000000000000E+00     0.0000000000000000E+00 
    3.1249999999922412E-01     0.0000000000000000E+00     0.0000000000000000E+00 
    3.2812499999917810E-01     0.0000000000000000E+00     0.0000000000000000E+00 
    3.4374999999913203E-01     0.0000000000000000E+00     0.0000000000000000E+00 
    3.5937499999908601E-01     0.0000000000000000E+00     0.0000000000000000E+00 
    3.7499999999903999E-01     0.0000000000000000E+00     0.0000000000000000E+00 
    3.9062499999899403E-01     0.0000000000000000E+00     0.0000000000000000E+00 
    4.0624999999894801E-01     0.0000000000000000E+00     0.0000000000000000E+00 
    4.2187499999890188E-01     0.0000000000000000E+00     0.0000000000000000E+00 
    4.3749999999885592E-01     0.0000000000000000E+00     0.0000000000000000E+00 
    4.5312499999880979E-01     0.0000000000000000E+00     0.0000000000000000E+00 
    4.6874999999876382E-01     0.0000000000000000E+00     0.0000000000000000E+00 
    4.8437499999871780E-01     0.0000000000000000E+00     0.0000000000000000E+00 
    4.9999999999867167E-01     0.0000000000000000E+00     0.0000000000000000E+00 
    5.1562499999871325E-01     0.0000000000000000E+00     0.0000000000000000E+00 
    5.3124999999875477E-01     0.0000000000000000E+00     0.0000000000000000E+00 
    5.4687499999879630E-01     0.0000000000000000E+00     0.0000000000000000E+00 
    5.6249999999883782E-01     0.0000000000000000E+00     0.0000000000000000E+00 
    5.7812499999887934E-01     0.0000000000000000E+00     0.0000000000000000E+00 
    5.9374999999892086E-01     0.0000000000000000E+00     0.0000000000000000E+00 
    6.0937499999896239E-01     0.0000000000000000E+00     0.0000000000000000E+00 
    6.2499999999900380E-01     0.0000000000000000E+00     0.0000000000000000E+00 
    6.4062499999904521E-01     0.0000000000000000E+00     0.0000000000000000E+00 
    6.5624999999908673E-01     0.0000000000000000E+00     0.0000000000000000E+00 
    6.7187499999912825E-01     0.0000000000000000E+00     0.0000000000000000E+00 
    6.8749999999916978E-01     0.0000000000000000E+00     0.0000000000000000E+00 
    7.0312499999921130E-01     0.0000000000000000E+00     0.0000000000000000E+00 
    7.1874999999925282E-01     0.0000000000000000E+00     0.0000000000000000E+00 
    7.3437499999929434E-01     0.0000000000000000E+00     0.0000000000000000E+00 
    7.4999999999933586E-01     0.0000000000000000E+00     0.0000000000000000E+00 
    7.6562499999937739E-01     0.0000000000000000E+00     0.0000000000000000E+00 
    7.8124999999941891E-01     0.0000000000000000E+00     0.0000000000000000E+00 
    7.9687499999946043E-01     0.0000000000000000E+00     0.0000000000000000E+00 
    8.1249999999950195E-01     0.0000000000000000E+00     0.0000000000000000E+00 
    8.2812499999954348E-01     0.0000000000000000E+00     0.0000000000000000E+00 
    8.4374999999958500E-01     0.0000000000000000E+00     0.0000000000000000E+00 
    8.5937499999962652E-01     0.0000000000000000E+00     0.0000000000000000E+00 
    8.7499999999966793E-01     0.0000000000000000E+00     0.0000000000000000E+00 
    8.9062499999970934E-01     0.0000000000000000E+00     0.0000000000000000E+00 
    9.0624999999975087E-01     0.0000000000000000E+00     0.0000000000000000E+00 
    9.2187499999979239E-01     0.0000000000000000E+00     0.0000000000000000E+00 
    9.3749999999983391E-01     0.0000000000000000E+00     0.0000000000000000E+00 
    9.5312499999987543E-01     0.0000000000000000E+00     0.0000000000000000E+00 
    9.6874999999991696E-01     0.0000000000000000E+00     0.0000000000000000E+00 
    9.8437499999995848E-01     0.0000000000000000E+00     0.0000000000000000E+00 
    1.0000000000000000E+00     1.5624999999970249E-02     0.0000000000000000E+00 
    1.0000000000000000E+00     3.1249999999940652E-02     0.0000000000000000E+00 
    1.0000000000000000E+00     4.6874999999905617E-02     0.0000000000000000E+00 
    1.0000000000000000E+00     6.2499999999870597E-02     0.0000000000000000E+00 
    1.0000000000000000E+00     7.8124999999846401E-02     0.0000000000000000E+00 
    1.0000000000000000E+00     9.3749999999822212E-02     0.0000000000000000E+00 
    1.0000000000000000E+00     1.0937499999979799E-01     0.0000000000000000E+00 
    1.0000000000000000E+00     1.2499999999977381E-01     0.0000000000000000E+00 
    1.0000000000000000E+00     1.4062499999972811E-01     0.0000000000000000E+00 
    1.0000000000000000E+00     1.5624999999968239E-01     0.0000000000000000E+00 
    1.0000000000000000E+00     1.7187499999963671E-01     0.0000000000000000E+00 
    1.0000000000000000E+00     1.8749999999959110E-01     0.0000000000000000E+00 
    1.0000000000000000E+00     2.0312499999954539E-01     0.0000000000000000E+00 
    1.0000000000000000E+00     2.1874999999949971E-01     0.0000000000000000E+00 
    1.0000000000000000E+00     2.3437499999945391E-01     0.0000000000000000E+00 
    1.0000000000000000E+00     2.4999999999940831E-01     0.0000000000000000E+00 
    1.0000000000000000E+00     2.6562499999936218E-01     0.0000000000000000E+00 
    1.0000000000000000E+00     2.8124999999931621E-01     0.0000000000000000E+00 
    1.0000000000000000E+00     2.9687499999927008E-01     0.0000000000000000E+00 
    1.0000000000000000E+00     3.1249999999922412E-01     0.0000000000000000E+00 
    1.0000000000000000E+00     3.2812499999917810E-01     0.0000000000000000E+00 
    1.0000000000000000E+00     3.4374999999913203E-01     0.0000000000000000E+00 
    1.0000000000000000E+00     3.5937499999908601E-01     0.0000000000000000E+00 
    1.0000000000000000E+00     3.7499999999903999E-01     0.0000000000000000E+00 
    1.0000000000000000E+00     3.9062499999899403E-01     0.0000000000000000E+00 
    1.0000000000000000E+00     4.0624999999894801E-01     0.0000000000000000E+00 
    1.0000000000000000E+00     4.2187499999890188E-01     0.0000000000000000E+00 
    1.0000000000000000E+00     4.3749999999885592E-01     0.0000000000000000E+00 
    1.0000000000000000E+00     4.5312499999880979E-01     0.0000000000000000E+00 
    1.0000000000000000E+00     4.6874999999876382E-01     0.0000000000000000E+00 
    1.0000000000000000E+00     4.8437499999871780E-01     0.0000000000000000E+00 
    1.0000000000000000E+00     4.9999999999867167E-01     0.0000000000000000E+00 
    1.0000000000000000E+00     5.1562499999871325E-01     0.0000000000000000E+00 
    1.0000000000000000E+00     5.3124999999875477E-01     0.0000000000000000E+00 
    1.0000000000000000E+00     5.4687499999879630E-01     0.0000000000000000E+00 
    1.0000000000000000E+00     5.6249999999883782E-01     0.0000000000000000E+00 
    1.0000000000000000E+00     5.7812499999887934E-01     0.0000000000000000E+00 
    1.0000000000000000E+00     5.9374999999892086E-01     0.0000000000000000E+00 
    1.0000000000000000E+00     6.0937499999896239E-01     0.0000000000000000E+00 
    1.0000000000000000E+00     6.2499999999900380E-01     0.0000000000000000E+00 
    1.0000000000000000E+00     6.4062499999904521E-01     0.0000000000000000E+00 
    1.0000000000000000E+00     6.5624999999908673E-01     0.0000000000000000E+00 
    1.0000000000000000E+00     6.7187499999912825E-01     0.0000000000000000E+00 
    1.0000000000000000E+00     6.8749999999916978E-01     0.0000000000000000E+00 
    1.0000000000000000E+00     7.0312499999921130E-01     0.0000000000000000E+00 
    1.0000000000000000E+00     7.1874999999925282E-01     0.0000000000000000E+00 
    1.0000000000000000E+00     7.3437499999929434E-01     0.0000000000000000E+00 
    1.0000000000000000E+00     7.4999999999933586E-01     0.0000000000000000E+00 
    1.0000000000000000E+00     7.6562499999937739E-01     0.0000000000000000E+00 
    1.0000000000000000E+00     7.8124999999941891E-01     0.0000000000000000E+00 
    1.0000000000000000E+00     7.9687499999946043E-01     0.0000000000000000E+00 
    1.0000000000000000E+00     8.1249999999950195E-01     0.0000000000000000E+00 
    1.0000000000000000E+00     8.2812499999954348E-01     0.0000000000000000E+00 
[...]
CELL_DATA 6144 
SCALARS Pressure double 1 
LOOKUP_TABLE default 

    2.7084700372936634E+00 
    2.6111008508706597E+00 
    2.5957941156567710E+00 
    2.6148825808743048E+00 
    2.5562599562522692E+00 
    2.5212834735980669E+00 
    2.5367977937453952E+00 
    2.5681333564186275E+00 
    2.5564203463237476E+00 
    2.5664375464843969E+00 
    2.5390294807921214E+00 
    2.5211972258085376E+00 
    2.5037985054738821E+00 
    2.5186691978271774E+00 
    2.5028390096761148E+00 
    2.4927250179322109E+00 
    2.5199398811653948E+00 
    2.5049134266353539E+00 
    2.4934272314547137E+00 
    2.5042418636408441E+00 
    2.4823633087452213E+00 
    2.4934708679868933E+00 
    2.4835690702873272E+00 
    2.4709161253311609E+00 
    2.4821067902788951E+00 
    2.4790373919069872E+00 
    2.4652778328026832E+00 
    2.4627672722503138E+00 
    2.4718278371899176E+00 
    2.4610045878483127E+00 
    2.4526832678636641E+00 
    2.4609505882032630E+00 
    2.4463997514514570E+00 
    2.4534581425451480E+00 
    2.4438247595251608E+00 
    2.4317104107956271E+00 
    2.4230990492900655E+00 
    2.4349998079333584E+00 
    2.4278922894758512E+00 
    2.4184103583091634E+00 
    2.4424481262180704E+00 
    2.4468223011648758E+00 
    2.4334163768089345E+00 
    2.4325853819072116E+00 
    2.4143013350398492E+00 
    2.4236579459890208E+00 
    2.4218409429086418E+00 
    2.4093120203914693E+00 
    2.4081747740742121E+00 
    2.4074017863480459E+00 
    2.3969591247350559E+00 
    2.3942459609615110E+00 
    2.4041756198948958E+00 
    2.3984178005589003E+00 
    2.3898359002017813E+00 
    2.3946447393849222E+00 
    2.3819763948806800E+00 
    2.3881315021171901E+00 
    2.3806227287432900E+00 
    2.3700892866567864E+00 
    2.3635672774177388E+00 
    2.3739395314633152E+00 
    2.3689854276847995E+00 
    2.3607392729633943E+00 
    2.3818401593767788E+00 
    2.3879685947269409E+00 
    2.3763872719351129E+00 
    2.3739120460878764E+00 
    2.3581790942334462E+00 
    2.3664519840670053E+00 
    2.3660709922551559E+00 
    2.3550160070470456E+00 
    2.3525662243904435E+00 
    2.3520539111309420E+00 
    2.3441563482476027E+00 
    2.3429112491808257E+00 
    2.3498349325448751E+00 
    2.3455662595766817E+00 
    2.3386968587003882E+00 
    2.3431121580050145E+00 
    2.3349515974425530E+00 
    2.3383317912351176E+00 
    2.3334605475459465E+00 
    2.3287668585137582E+00 
    2.3255010561774054E+00 
    2.3300168680205915E+00 
    2.3275999711238073E+00 
    2.3240438971783179E+00 
    2.3343514365751954E+00 
    2.3382798826068409E+00 
    2.3316280623801480E+00 
    2.3306306686995790E+00 
    2.3224846636620042E+00 
    2.3267188718776866E+00 
    2.3263092118003832E+00 
    2.3210342225504146E+00 
    2.3202407876145332E+00 
    2.3199229934760108E+00 
    2.3161137195018773E+00 
    2.3152021732108317E+00 
    2.3188964701880965E+00 
    2.3170908538989523E+00 
    2.3136459550394433E+00 
    2.3154090186785607E+00 
    2.3104619678314191E+00 
    2.3129144766178289E+00 
    2.3100877375189137E+00 
    2.3056571379441775E+00 
    2.3027587835565546E+00 
    2.3074183566800861E+00 
    2.3054564487912597E+00 
    2.3015823672243663E+00 
    2.3107831762949775E+00 
    2.3133036621305414E+00 
    2.3088624169952991E+00 
    2.3075989051671524E+00 
    2.3006292659265664E+00 
    2.3044046150643647E+00 
    2.3045988025884943E+00 
    2.2994536410755417E+00 
    2.2968898012148729E+00 
    2.2969261793352427E+00 
    2.2922497157479804E+00 
    2.2906452786634732E+00 
    2.2960160373588150E+00 
    2.2941212710025365E+00 
    2.2894815346137398E+00 
    2.2912833699425921E+00 
    2.2847055242540026E+00 
    2.2880200285944938E+00 
    2.2843883748426879E+00 
    2.2783346756296039E+00 
    2.2744638888176740E+00 
    2.2809878372539578E+00 
    2.2785715972237019E+00 
    2.2730416985534920E+00 
    2.2857598685570077E+00 
    2.2897815049183605E+00 
    2.2838503647266624E+00 
    2.2816665402146761E+00 
    2.2720109599458178E+00 
    2.2773314836149878E+00 
    2.2779748956491970E+00 
    2.2708889420456497E+00 
    2.2665216724182562E+00 
    2.2665933328532781E+00 
    2.2602057261712525E+00 
    2.2581802703321099E+00 
    2.2655758202215464E+00 
    2.2634440324659093E+00 
    2.2569674853476447E+00 
    2.2592327221026838E+00 
    2.2504168017692550E+00 
    2.2547636469638106E+00 
    2.2501564349227436E+00 
    2.2424966400227948E+00 
    2.2380369174518187E+00 
    2.2460998934618015E+00 
    2.2432082589618032E+00 
    2.2366287802400726E+00 
    2.2524413107336332E+00 
    2.2579785911081727E+00 
    2.2503802217494884E+00 
    2.2473937423983452E+00 
    2.2356256621766102E+00 
    2.2420766952731590E+00 
    2.2431064028248207E+00 
    2.2346742839186318E+00 
    2.2292760657294224E+00 
    2.2293576395107646E+00 
    2.2226000358918485E+00 
    2.2207735900400265E+00 
    2.2283341586180181E+00 
    2.2260035591982192E+00 
    2.2188621996608342E+00 
    2.2217577181334374E+00 
    2.2129531077234437E+00 
    2.2171384064083193E+00 
    2.2125967858138393E+00 
    2.2057819160899830E+00 
    2.2017986416915960E+00 
    2.2087636465242850E+00 
    2.2056259118943857E+00 
    2.2001629639038374E+00 
    2.2145222259530200E+00 
    2.2201115400792424E+00 
    2.2123798836589885E+00 
    2.2097752836879851E+00 
    2.1990837300673824E+00 
    2.2046879000199069E+00 
    2.2055829766521655E+00 
    2.1984164123679797E+00 
    2.1947802846581062E+00 
    2.1946264648669560E+00 
    2.1895907352058614E+00 
    2.1884876561083288E+00 
    2.1937279450612825E+00 
    2.1918283755402679E+00 
    2.1864995718764502E+00 
    2.1890055993950637E+00 
    2.1827309915735214E+00 
    2.1856225533916178E+00 
    2.1822373946764730E+00 
    2.1776124637714149E+00 
    2.1747794245664349E+00 
    2.1794860630534378E+00 
    2.1774360548218454E+00 
    2.1736538926461018E+00 
    2.1834113937457640E+00 
    2.1872641085138129E+00 
    2.1818248478898998E+00 
    2.1801425658164284E+00 
    2.1727871362497506E+00 
    2.1767199311886403E+00 
    2.1770863291382758E+00 
    2.1720474468704976E+00 
    2.1696321161603165E+00 
    2.1694931361145264E+00 
    2.1657206572489454E+00 
    2.1648526026370352E+00 
    2.1687969389348476E+00 
    2.1673943644297013E+00 
    2.1636113054946677E+00 
    2.1652870517252798E+00 
    2.1605025617484044E+00 
    2.1627654544062769E+00 
    2.1602280571580539E+00 
    2.1564405346868454E+00 
    2.1541453843103540E+00 
    2.1580324900100272E+00 
    2.1564675145440861E+00 
    2.1532825479850426E+00 
    2.1611453315931866E+00 
    2.1640008262076806E+00 
    2.1598996266276158E+00 
    2.1585667863079205E+00 
    2.1526266390056539E+00 
    2.1558693439361454E+00 
    2.1561787291474102E+00 
    2.1519560429334952E+00 
    2.1498117352532220E+00 
    2.1497288526243969E+00 
    2.1464399442753175E+00 
    2.1456700175052892E+00 
    2.1491341176358407E+00 
    2.1478501550145341E+00 
    2.1445756999352206E+00 
    2.1460222022700863E+00 
    2.1419678376130449E+00 
    2.1438742906262527E+00 
    2.1417493815584558E+00 
    2.1385954172785797E+00 
    2.1366233382508102E+00 
    2.1398422696754320E+00 
    2.1382138114841953E+00 
    2.1356163377657156E+00 
    2.1424039524856542E+00 
    2.1448143385183465E+00 
    2.1410508736301774E+00 
    2.1400064325750665E+00 
    2.1348920517697842E+00 
    2.1375382226599844E+00 
    2.1377205673426674E+00 
    2.1341781810442528E+00 
    2.1330657428082671E+00 
    2.1328724831259045E+00 
    2.1303664774635882E+00 
    2.1298134120790815E+00 
    2.1322508161052247E+00 
    2.1310379765529941E+00 
    2.1286675105443047E+00 
    2.1299291871942665E+00 
    2.1268726919315557E+00 
    2.1283221870648772E+00 
    2.1264953455424469E+00 
    2.1240601881427694E+00 
    2.1224382182909500E+00 
    2.1248988260478323E+00 
    2.1237117672933774E+00 
    2.1216560507825339E+00 
    2.1268169749692039E+00 
    2.1284464401984504E+00 
    2.1254876717148825E+00 
    2.1248941684897127E+00 
    2.1208768538375709E+00 
    2.1229955050527867E+00 
    2.1228312814293329E+00 
    2.1198726401251995E+00 
    2.1195040439884916E+00 
    2.1193377514650393E+00 
    2.1171262578439447E+00 
    2.1165577296657814E+00 
    2.1186364447856909E+00 
    2.1173522410671040E+00 
    2.1154410123971608E+00 
    2.1165333823238686E+00 
    2.1138605821696181E+00 
    2.1151763026033681E+00 
    2.1134993353234428E+00 
    2.1111319637271890E+00 
    2.1094034713290402E+00 
    2.1119377939331110E+00 
    2.1106168915499137E+00 
    2.1084817379376544E+00 
    2.1136414662263703E+00 
    2.1149156852129276E+00 
    2.1121822517631181E+00 
    2.1117218614508162E+00 
    2.1077567791493976E+00 
    2.1098200941260798E+00 
    2.1096434693274317E+00 
    2.1067695306633025E+00 
    2.1059259940482908E+00 
    2.1058344826712303E+00 
    2.1030702318303609E+00 
    2.1023171600255428E+00 
    2.1051979543336570E+00 
    2.1038601271670561E+00 
    2.1013168608974868E+00 
    2.1025095758254229E+00 
    2.0993327883649213E+00 
    2.1008639038762125E+00 
    2.0990262425530095E+00 
    2.0963774049631687E+00 
    2.0946907537273778E+00 
    2.0973444312736884E+00 
    2.0960537210486230E+00 
    2.0938606959358230E+00 
    2.0993037716155185E+00 
    2.1011404375936644E+00 
    2.0979092851386714E+00 
    2.0972323848419605E+00 
    2.0931099190879481E+00 
    2.0952778785095174E+00 
    2.0951118272020706E+00 
    2.0920733128598115E+00 
    2.0916052856672316E+00 
    2.0914344568604593E+00 
    2.0892106893309763E+00 
    2.0887133399967608E+00 
    2.0907645544406166E+00 
    2.0894805592948202E+00 
    2.0876536166869855E+00 
    2.0887068750012823E+00 
    2.0863056837953340E+00 
    2.0874483514496198E+00 
    2.0860079713881494E+00 
    2.0841744743597661E+00 
    2.0829710291938035E+00 
    2.0846810517850765E+00 
    2.0834815258924038E+00 
    2.0821402604566446E+00 
    2.0859881089780097E+00 
    2.0870828518847588E+00 
    2.0845124809953028E+00 
    2.0842873462776215E+00 
    2.0813597876681906E+00 
    2.0827600867674234E+00 
    2.0823746014103390E+00 
    2.0803270363855830E+00 
    2.0811343870614136E+00 
    2.0808167122832177E+00 
    2.0797406811025061E+00 
    2.0797116415969565E+00 
    2.0801656618649447E+00 
    2.0790699639997237E+00 
    2.0785825438983205E+00 
    2.0793717170546655E+00 
    2.0787232137027893E+00 
    2.0789880494468158E+00 
    2.0783097769764374E+00 
    2.0781155384413079E+00 
    2.0779057463148876E+00 
    2.0777378063965339E+00 
    2.0771268849361393E+00 
    2.0773667792132455E+00 
    2.0776550678919294E+00 
    2.0774559572166944E+00 
    2.0762912620107534E+00 
    2.0769068068667629E+00 
    2.0765115921407284E+00 
    2.0765089846220253E+00 
    2.0756232821236638E+00 
    2.0753309287190973E+00 
    2.4833876917737250E+00 
    2.4649970304887461E+00 
    2.4661208208580900E+00 
    2.4795484510755172E+00 
    2.4493236954217918E+00 
    2.4354279451272212E+00 
    2.4465545785013636E+00 
    2.4548820567648177E+00 
    2.4726979915706666E+00 
    2.4622258599352485E+00 
    2.4542675020251252E+00 
    2.4618911777782335E+00 
    2.4479726686574041E+00 
    2.4449220081841299E+00 
    2.4352226752434833E+00 
    2.4350046660753888E+00 
    2.4378140687139913E+00 
    2.4265877881128377E+00 
    2.4212628523296806E+00 
    2.4300033845362163E+00 
    2.4238944484900564E+00 
    2.4259188029541399E+00 
    2.4167086660148671E+00 
    2.4115881725516815E+00 
    2.4416529509249676E+00 
    2.4312689027140739E+00 
    2.4252950820169374E+00 
    2.4304440885038967E+00 
    2.4211200189213811E+00 
    2.4094407188231757E+00 
    2.4098808764413988E+00 
    2.4184230418373884E+00 
    2.4199502349523243E+00 
    2.4181034144876046E+00 
    2.4093641119466458E+00 
    2.4079792393097965E+00 
    2.3967525787375217E+00 
    2.4002712360219425E+00 
    2.3921515122989336E+00 
    2.3878132701257386E+00 
    2.4007282044181979E+00 
    2.3982002480524511E+00 
    2.3887554760951755E+00 
    2.3923054098070708E+00 
    2.3802750595763085E+00 
    2.3859367208447235E+00 
    2.3807025154660795E+00 
    2.3719207493180461E+00 
    2.3874024473202846E+00 
    2.3811710868508182E+00 
    2.3740166199475903E+00 
    2.3761869312603370E+00 
    2.3742771448380582E+00 
    2.3653741130228898E+00 
    2.3617747704190255E+00 
    2.3688163516247704E+00 
    2.3661552228207881E+00 
    2.3665686586471013E+00 
    2.3585835461094886E+00 
    2.3550726035625380E+00 
    2.3458848192043704E+00 
    2.3508884570138435E+00 
    2.3440131930332639E+00 
    2.3393614373578173E+00 
    2.3535119417310000E+00 
    2.3541855308932158E+00 
    2.3434563305699987E+00 
    2.3454724789207342E+00 
    2.3339600120706643E+00 
    2.3393626591374068E+00 
    2.3352476620757590E+00 
    2.3283894254521340E+00 
    2.3385605175147162E+00 
    2.3342824871240651E+00 
    2.3300800839683680E+00 
    2.3321964135053497E+00 
    2.3298984727685701E+00 
    2.3247258435209326E+00 
    2.3229112098889888E+00 
    2.3280476829413055E+00 
    2.3261842256040892E+00 
    2.3264435441636007E+00 
    2.3221017430335591E+00 
    2.3208918425422360E+00 
    2.3166749892845782E+00 
    2.3182737325086853E+00 
    2.3149274783784044E+00 
    2.3133147936779817E+00 
    2.3192098441121649E+00 
    2.3189243022538988E+00 
    2.3141286396369813E+00 
    2.3155598776771376E+00 
    2.3101839432264617E+00 
    2.3126146280405444E+00 
    2.3104743378107737E+00 
    2.3069577387981965E+00 
    2.3131969561611290E+00 
    2.3108692628593919E+00 
    2.3082088859259655E+00 
    2.3089220570758111E+00 
    2.3081656196846523E+00 
    2.3047077436874637E+00 
    2.3035070516034839E+00 
    2.3061063968591036E+00 
    2.3049954694769084E+00 
    2.3053382977137469E+00 
    2.3022065577044177E+00 
    2.3002806583403528E+00 
    2.2960331345683271E+00 
    2.2988441363851551E+00 
    2.2958211313305101E+00 
    2.2928923042248268E+00 
    2.3000678319435623E+00 
    2.3003190677649052E+00 
    2.2960778132899744E+00 
    2.2965655366546098E+00 
    2.2903405242719375E+00 
    2.2934732814569783E+00 
    2.2920755467261937E+00 
    2.2873797999384737E+00 
    2.2906876864893948E+00 
    2.2889225266611741E+00 
    2.2847001714428226E+00 
    2.2846324394840121E+00 
    2.2865452207194914E+00 
    2.2831730353977213E+00 
    2.2798846640377559E+00 
    2.2826464463310403E+00 
    2.2791776909216543E+00 
    2.2805741680605967E+00 
    2.2765513586293942E+00 
    2.2727086304751216E+00 
    2.2673929615472739E+00 
    2.2724781123087325E+00 
    2.2689839355540853E+00 
    2.2641930569041997E+00 
    2.2756676696543310E+00 
    2.2780127958722511E+00 
    2.2719935954281834E+00 
    2.2711991944239545E+00 
    2.2617911078266477E+00 
    2.2668189136409320E+00 
    2.2661716880097433E+00 
    2.2592486009209152E+00 
    2.2598609394904217E+00 
    2.2582735712503896E+00 
    2.2524074364357092E+00 
    2.2519243094583921E+00 
    2.2559274974490955E+00 
    2.2524265376487729E+00 
    2.2470258592285135E+00 
    2.2504560674558483E+00 
    2.2449418453843024E+00 
    2.2471464418095217E+00 
    2.2422031396251230E+00 
    2.2370969106479008E+00 
    2.2309765500738430E+00 
    2.2374781503166319E+00 
    2.2335248983538007E+00 
    2.2276198420106748E+00 
    2.2421854046778256E+00 
    2.2462876690345661E+00 
    2.2386177400872818E+00 
    2.2369187432141588E+00 
    2.2252158108781188E+00 
    2.2315015063480281E+00 
    2.2313532133316194E+00 
    2.2229759985552486E+00 
    2.2224140038800124E+00 
    2.2207720528667552E+00 
    2.2143296445803946E+00 
    2.2140439015911313E+00 
    2.2184376259006364E+00 
    2.2149064227510542E+00 
    2.2088376512832988E+00 
    2.2127453073867414E+00 
    2.2070976653235457E+00 
    2.2091809322529476E+00 
    2.2042075593026884E+00 
    2.1999945932740146E+00 
    2.1946800365179988E+00 
    2.1997552533115989E+00 
    2.1960021492439958E+00 
    2.1915921804159195E+00 
    2.2041640611272690E+00 
    2.2084746454679012E+00 
    2.2007904443057793E+00 
    2.1993079799614010E+00 
    2.1893161674675383E+00 
    2.1944371118480541E+00 
    2.1942737126797756E+00 
    2.1876426326985765E+00 
    2.1886921632230170E+00 
    2.1869858860837121E+00 
    2.1826758110451761E+00 
    2.1828603651100487E+00 
    2.1849168910249177E+00 
    2.1820099399184816E+00 
    2.1780658946688409E+00 
    2.1814040120175333E+00 
    2.1778834656205519E+00 
    2.1790685144268083E+00 
    2.1754233550956226E+00 
    2.1729108815635967E+00 
    2.1691094746149915E+00 
    2.1721702285776257E+00 
    2.1695944388821871E+00 
    2.1668029341393793E+00 
    2.1747263289164627E+00 
    2.1771676071583177E+00 
    2.1720338615812276E+00 
    2.1714485751216435E+00 
    2.1649268590570356E+00 
    2.1683029551537416E+00 
    2.1677532633653680E+00 
    2.1632606691830234E+00 
    2.1648851106222184E+00 
    2.1635439709180186E+00 
    2.1604725254517247E+00 
    2.1605899851806791E+00 
    2.1618565402372920E+00 
    2.1594870843290948E+00 
    2.1569135030494508E+00 
    2.1593013082092485E+00 
    2.1568553225527105E+00 
    2.1577481595711552E+00 
    2.1549069110928460E+00 
    2.1527594612371912E+00 
    2.1494263678651016E+00 
    2.1520747254209924E+00 
    2.1497400093940802E+00 
    2.1472181126663576E+00 
    2.1539870397844334E+00 
    2.1556429660945962E+00 
    2.1514375449365879E+00 
    2.1510446978295921E+00 
    2.1453776435100229E+00 
    2.1482914638037016E+00 
    2.1476293001890445E+00 
    2.1433939394125630E+00 
    2.1455293884365387E+00 
    2.1442805433946921E+00 
    2.1413656907412153E+00 
    2.1415229977188277E+00 
    2.1424862727464205E+00 
    2.1398668477353704E+00 
    2.1376658803656867E+00 
    2.1400296808437616E+00 
    2.1381199467521927E+00 
    2.1386819433538955E+00 
    2.1360339209534436E+00 
    2.1345192931385668E+00 
    2.1315491538346532E+00 
    2.1334790880328187E+00 
    2.1312394373212213E+00 
    2.1293290356493357E+00 
    2.1348839983083439E+00 
    2.1360688486736148E+00 
    2.1321667473336228E+00 
    2.1321763536610470E+00 
    2.1273801682323108E+00 
    2.1297519467487258E+00 
    2.1287889697013878E+00 
    2.1252356013821210E+00 
    2.1285956131453614E+00 
    2.1270873216527866E+00 
    2.1249357140619916E+00 
    2.1254721155707523E+00 
    2.1252303052879786E+00 
    2.1226589918708396E+00 
    2.1214617257567414E+00 
    2.1235607497913311E+00 
    2.1227809215281259E+00 
    2.1228638442894336E+00 
    2.1205668309961303E+00 
    2.1197313223605363E+00 
    2.1169973501822477E+00 
    2.1181224095391751E+00 
    2.1159420656719470E+00 
    2.1146674340522309E+00 
    2.1187848464795684E+00 
    2.1191145512358176E+00 
    2.1157357989088710E+00 
    2.1162937552683898E+00 
    2.1125366570777437E+00 
    2.1142765765162546E+00 
    2.1129226003085289E+00 
    2.1100339697436672E+00 
    2.1146797251136946E+00 
    2.1130288248532043E+00 
    2.1112495451328548E+00 
    2.1119150882292619E+00 
    2.1109965188217514E+00 
    2.1082627687072755E+00 
    2.1076708299807874E+00 
    2.1096922510476457E+00 
    2.1094703637859480E+00 
    2.1092867089455485E+00 
    2.1071656738582942E+00 
    2.1066308165840524E+00 
    2.1038714529075273E+00 
    2.1048700290329871E+00 
    2.1027383216232138E+00 
    2.1014970345229727E+00 
    2.1051769036836090E+00 
    2.1049233236235656E+00 
    2.1020134231838239E+00 
    2.1028411987997724E+00 
    2.0994142106048783E+00 
    2.1010022315438368E+00 
    2.0995116745352567E+00 
    2.0969185232608916E+00 
    2.1012494229519114E+00 
    2.0996629532451041E+00 
    2.0974687264581582E+00 
    2.0978928480425951E+00 
    2.0977065400998658E+00 
    2.0950643387159853E+00 
    2.0939182897915321E+00 
    2.0959816617219462E+00 
    2.0950884156754563E+00 
    2.0952145410682612E+00 
    2.0929012086089176E+00 
    2.0919873903539932E+00 
    2.0892353533663854E+00 
    2.0904389723817700E+00 
    2.0882740947013514E+00 