# vtk DataFile Version 2.0
Pressure Field Data 
ASCII 
DATASET UNSTRUCTURED_GRID 

POINTS 6273 double 

    0.0000000000000000E+00     0.0000000000000000E+00     0.0000000000000000E+00 
    1.0000000000000000E+00     0.0000000000000000E+00     0.0000000000000000E+00 
    1.0000000000000000E+00     1.0000000000000000E+00     0.0000000000000000E+00 
    0.0000000000000000E+00     1.0000000000000000E+00     0.0000000000000000E+00 
    1.5624999999970249E-02     0.0000000000000000E+00     0.0000000000000000E+00 
    3.1249999999940652E-02     0.0000000000000000E+00     0.0000000000000000E+00 
    4.6874999999905617E-02     0.0000000000000000E+00     0.0000000000000000E+00 
    6.2499999999870597E-02     0.0000000000000000E+00     0.0000000000000000E+00 
    7.8124999999846401E-02     0.0000000000000000E+00     0.0000000000000000E+00 
    9.3749999999822212E-02     0.0000000000000000E+00     0.0000000000000000E+00 
    1.0937499999979799E-01     0.0000000000000000E+00     0.0000000000000000E+00 
    1.2499999999977381E-01     0.0000000000000000E+00     0.0000000000000000E+00 
    1.4062499999972811E-01     0.0000000000000000E+00     0.0000000000000000E+00 
    1.5624999999968239E-01     0.0000000000000000E+00     0.0000000000000000E+00 
    1.7187499999963671E-01     0.0000000000000000E+00     0.0000000000000000E+00 
    1.8749999999959110E-01     0.0000000000000000E+00     0.0000000000000000E+00 
    2.0312499999954539E-01     0.0000000000000000E+00     0.0000000000000000E+00 
    2.1874999999949971E-01     0.0000000000000000E+00     0.0000000000000000E+00 
    2.3437499999945391E-01     0.0000000000000000E+00     0.0000000000000000E+00 
    2.4999999999940831E-01     0.0000000000000000E+00     0.0000000000000000E+00 
    2.6562499999936218E-01     0.0000000000000000E+00     0.0000000000000000E+00 
    2.8124999999931621E-01     0.0000000000000000E+00     0.0000000000000000E+00 
    2.9687499999927008E-01     0.0000000000000000E+00     0.0000000000000000E+00 
    3.1249999999922412E-01     0.0000000000000000E+00     0.0000000000000000E+00 
    3.2812499999917810E-01     0.0000000000000000E+00     0.0000000000000000E+00 
    3.4374999999913203E-01     0.0000000000000000E+00     0.0000000000000000E+00 
    3.5937499999908601E-01     0.0000000000000000E+00     0.0000000000000000E+00 
    3.7499999999903999E-01     0.0000000000000000E+00     0.0000000000000000E+00 
    3.9062499999899403E-01     0.0000000000000000E+00     0.0000000000000000E+00 
    4.0624999999894801E-01     0.0000000000000000E+00     0.0000000000000000E+00 
    4.2187499999890188E-01     0.0000000000000000E+00     0.0000000000000000E+00 
    4.3749999999885592E-01     0.0000000000000000E+00     0.0000000000000000E+00 
    4.5312499999880979E-01     0.0000000000000000E+00     0.0000000000000000E+00 
    4.6874999999876382E-01     0.0000000000000000E+00     0.0000000000000000E+00 
    4.8437499999871780E-01     0.0000000000000000E+00     0.0000000000000000E+00 
    4.9999999999867167E-01     0.0000000000000000E+00     0.0000000000000000E+00 
    5.1562499999871325E-01     0.0000000000000000E+00     0.0000000000000000E+00 
    5.3124999999875477E-01     0.0000000000000000E+00     0.0000000000000000E+00 
    5.4687499999879630E-01     0.0000000000000000E+00     0.0000000000000000E+00 
    5.6249999999883782E-01     0.0000000000000000E+00     0.0000000000000000E+00 
    5.7812499999887934E-01     0.0000000000000000E+00     0.0000000000000000E+00 
    5.9374999999892086E-01     0.0000000000000000E+00     0.0000000000000000E+00 
    6.0937499999896239E-01     0.0000000000000000E+00     0.0000000000000000E+00 
    6.2499999999900380E-01     0.0000000000000000E+00     0.0000000000000000E+00 
    6.4062499999904521E-01     0.0000000000000000E+00     0.0000000000000000E+00 
    6.5624999999908673E-01     0.0000000000000000E+00     0.0000000000000000E+00 
    6.7187499999912825E-01     0.0000000000000000E+00     0.0000000000000000E+00 
    6.8749999999916978E-01     0.0000000000000000E+00     0.0000000000000000E+00 
    7.0312499999921130E-01     0.0000000000000000E+00     0.0000000000000000E+00 
    7.1874999999925282E-01     0.0000000000000000E+00     0.0000000000000000E+00 
    7.3437499999929434E-01     0.0000000000000000E+00     0.0000000000000000E+00 
    7.4999999999933586E-01     0.0000000000000000E+00     0.0000000000000000E+00 
    7.6562499999937739E-01     0.0000000000000000E+00     0.0000000000000000E+00 
    7.8124999999941891E-01     0.0000000000000000E+00     0.0000000000000000E+00 
    7.9687499999946043E-01     0.0000000000000000E+00     0.0000000000000000E+00 
    8.1249999999950195E-01     0.0000000000000000E+00     0.0000000000000000E+00 
    8.2812499999954348E-01     0.0000000000000000E+00     0.0000000000000000E+00 
    8.4374999999958500E-01     0.0000000000000000E+00     0.0000000000000000E+00 
    8.5937499999962652E-01     0.0000000000000000E+00     0.0000000000000000E+00 
    8.7499999999966793E-01     0.0000000000000000E+00     0.0000000000000000E+00 
    8.9062499999970934E-01     0.0000000000000000E+00     0.0000000000000000E+00 
    9.0624999999975087E-01     0.0000000000000000E+00     0.0000000000000000E+00 
    9.2187499999979239E-01     0.0000000000000000E+00     0.0000000000000000E+00 
    9.3749999999983391E-01     0.0000000000000000E+00     0.0000000000000000E+00 
    9.5312499999987543E-01     0.0000000000000000E+00     0.0000000000000000E+00 
    9.6874999999991696E-01     0.0000000000000000E+00     0.0000000000000000E+00 
    9.8437499999995848E-01     0.0000000000000000E+00     0.0000000000000000E+00 
    1.0000000000000000E+00     1.5624999999970249E-02     0.0000000000000000E+00 
    1.0000000000000000E+00     3.1249999999940652E-02     0.0000000000000000E+00 
    1.0000000000000000E+00     4.6874999999905617E-02     0.0000000000000000E+00 
    1.0000000000000000E+00     6.2499999999870597E-02     0.0000000000000000E+00 
    1.0000000000000000E+00     7.8124999999846401E-02     0.0000000000000000E+00 
    1.0000000000000000E+00     9.3749999999822212E-02     0.0000000000000000E+00 
    1.0000000000000000E+00     1.0937499999979799E-01     0.0000000000000000E+00 
    1.0000000000000000E+00     1.2499999999977381E-01     0.0000000000000000E+00 
    1.0000000000000000E+00     1.4062499999972811E-01     0.0000000000000000E+00 
    1.0000000000000000E+00     1.5624999999968239E-01     0.0000000000000000E+00 
    1.0000000000000000E+00     1.7187499999963671E-01     0.0000000000000000E+00 
    1.0000000000000000E+00     1.8749999999959110E-01     0.0000000000000000E+00 
    1.0000000000000000E+00     2.0312499999954539E-01     0.0000000000000000E+00 
    1.0000000000000000E+00     2.1874999999949971E-01     0.0000000000000000E+00 
    1.0000000000000000E+00     2.3437499999945391E-01     0.0000000000000000E+00 
    1.0000000000000000E+00     2.4999999999940831E-01     0.0000000000000000E+00 
    1.0000000000000000E+00     2.6562499999936218E-01     0.0000000000000000E+00 
    1.0000000000000000E+00     2.8124999999931621E-01     0.0000000000000000E+00 
    1.0000000000000000E+00     2.9687499999927008E-01     0.0000000000000000E+00 
    1.0000000000000000E+00     3.1249999999922412E-01     0.0000000000000000E+00 
    1.0000000000000000E+00     3.2812499999917810E-01     0.0000000000000000E+00 
    1.0000000000000000E+00     3.4374999999913203E-01     0.0000000000000000E+00 
    1.0000000000000000E+00     3.5937499999908601E-01     0.0000000000000000E+00 
    1.0000000000000000E+00     3.7499999999903999E-01     0.0000000000000000E+00 
    1.0000000000000000E+00     3.9062499999899403E-01     0.0000000000000000E+00 
    1.0000000000000000E+00     4.0624999999894801E-01     0.0000000000000000E+00 
    1.0000000000000000E+00     4.2187499999890188E-01     0.0000000000000000E+00 
    1.0000000000000000E+00     4.3749999999885592E-01     0.0000000000000000E+00 
    1.0000000000000000E+00     4.5312499999880979E-01     0.0000000000000000E+00 
    1.0000000000000000E+00     4.6874999999876382E-01     0.0000000000000000E+00 
    1.0000000000000000E+00     4.8437499999871780E-01     0.0000000000000000E+00 
    1.0000000000000000E+00     4.9999999999867167E-01     0.0000000000000000E+00 
    1.0000000000000000E+00     5.1562499999871325E-01     0.0000000000000000E+00 
    1.0000000000000000E+00     5.3124999999875477E-01     0.0000000000000000E+00 
    1.0000000000000000E+00     5.4687499999879630E-01     0.0000000000000000E+00 
    1.0000000000000000E+00     5.6249999999883782E-01     0.0000000000000000E+00 
    1.0000000000000000E+00     5.7812499999887934E-01     0.0000000000000000E+00 
    1.0000000000000000E+00     5.9374999999892086E-01     0.0000000000000000E+00 
    1.0000000000000000E+00     6.0937499999896239E-01     0.0000000000000000E+00 
    1.0000000000000000E+00     6.2499999999900380E-01     0.0000000000000000E+00 
    1.0000000000000000E+00     6.4062499999904521E-01     0.0000000000000000E+00 
    1.0000000000000000E+00     6.5624999999908673E-01     0.0000000000000000E+00 
    1.0000000000000000E+00     6.7187499999912825E-01     0.0000000000000000E+00 
    1.0000000000000000E+00     6.8749999999916978E-01     0.0000000000000000E+00 
    1.0000000000000000E+00     7.0312499999921130E-01     0.0000000000000000E+00 
    1.0000000000000000E+00     7.1874999999925282E-01     0.0000000000000000E+00 
    1.0000000000000000E+00     7.3437499999929434E-01     0.0000000000000000E+00 
    1.0000000000000000E+00     7.4999999999933586E-01     0.0000000000000000E+00 
    1.0000000000000000E+00     7.6562499999937739E-01     0.0000000000000000E+00 
    1.0000000000000000E+00     7.8124999999941891E-01     0.0000000000000000E+00 
    1.0000000000000000E+00     7.9687499999946043E-01     0.0000000000000000E+00 
    1.0000000000000000E+00     8.1249999999950195E-01     0.0000000000000000E+00 
    1.0000000000000000E+00     8.2812499999954348E-01     0.0000000000000000E+00 
[...]
CELL_DATA 6144 
SCALARS Pressure double 1 
LOOKUP_TABLE default 

    2.3684999799160948E+00 
    2.2711284202177673E+00 
    2.2558198692884850E+00 
    2.2748821840050328E+00 
    2.2162922517513759E+00 
    2.1813607143157689E+00 
    2.1968345760476966E+00 
    2.2281281988213553E+00 
    2.2164573560081902E+00 
    2.2264453634277723E+00 
    2.1990639142606230E+00 
    2.1812886219917931E+00 
    2.1639445042110008E+00 
    2.1787328009078988E+00 
    2.1629394923139680E+00 
    2.1528783688642070E+00 
    2.1799941305561505E+00 
    2.1650368780917240E+00 
    2.1535575718769970E+00 
    2.1643301472005363E+00 
    2.1425584600635297E+00 
    2.1535997893340189E+00 
    2.1437417830269743E+00 
    2.1311814214103237E+00 
    2.1423549114882841E+00 
    2.1392868860761811E+00 
    2.1256613569739762E+00 
    2.1231892038555982E+00 
    2.1321187995900686E+00 
    2.1213861283248603E+00 
    2.1131916314386148E+00 
    2.1213651188921610E+00 
    2.1070496590999603E+00 
    2.1139790964900564E+00 
    2.1044882632834394E+00 
    2.0926243090746812E+00 
    2.0841804874395331E+00 
    2.0958018814784287E+00 
    2.0888184455904963E+00 
    2.0795547431150041E+00 
    2.1030956744145040E+00 
    2.1073758260497115E+00 
    2.0941911574099952E+00 
    2.0933996273155620E+00 
    2.0755257518103472E+00 
    2.0846528278290299E+00 
    2.0828522927289268E+00 
    2.0706334109888616E+00 
    2.0696039741798571E+00 
    2.0688426523887147E+00 
    2.0587194976913659E+00 
    2.0560809163979101E+00 
    2.0656895316763295E+00 
    2.0600757160910010E+00 
    2.0518036274532738E+00 
    2.0564548133422424E+00 
    2.0442267872005337E+00 
    2.0501601332693231E+00 
    2.0429115018990820E+00 
    2.0327610515110672E+00 
    2.0264713615353118E+00 
    2.0364576508144649E+00 
    2.0316885229132673E+00 
    2.0237478724581237E+00 
    2.0440632711312072E+00 
    2.0499467325112670E+00 
    2.0387827428035314E+00 
    2.0364150516864856E+00 
    2.0212861016661217E+00 
    2.0292302328856229E+00 
    2.0288594293697204E+00 
    2.0182187378098124E+00 
    2.0158443048508037E+00 
    2.0153820326813245E+00 
    2.0077583626803497E+00 
    2.0065322102879195E+00 
    2.0132443890585479E+00 
    2.0091033238798013E+00 
    2.0025068357125688E+00 
    2.0067137214945379E+00 
    1.9989312540642692E+00 
    2.0021491464368886E+00 
    1.9974782361721122E+00 
    1.9930835269937246E+00 
    1.9900466391966198E+00 
    1.9942046844894090E+00 
    1.9918996862217901E+00 
    1.9886578751751534E+00 
    1.9982823842190169E+00 
    2.0020274642234850E+00 
    1.9956234094257541E+00 
    1.9947390743313038E+00 
    1.9871801429104408E+00 
    1.9910905520604183E+00 
    1.9906926983204487E+00 
    1.9858687992641531E+00 
    1.9851718319151852E+00 
    1.9848720763941750E+00 
    1.9813700133711585E+00 
    1.9805362860356819E+00 
    1.9839223028883319E+00 
    1.9822646671903619E+00 
    1.9791164185846584E+00 
    1.9807125850205154E+00 
    1.9762042355514189E+00 
    1.9784420919797931E+00 
    1.9758670562449432E+00 
    1.9718065479112046E+00 
    1.9691437506614571E+00 
    1.9734173189903605E+00 
    1.9716130603765980E+00 
    1.9680520170016897E+00 
    1.9764829344845893E+00 
    1.9787817848710554E+00 
    1.9747223731212178E+00 
    1.9735607035021894E+00 
    1.9671777342523533E+00 
    1.9706317148993671E+00 
    1.9708070786841940E+00 
    1.9660889940133961E+00 
    1.9637721879348364E+00 
    1.9637994834056025E+00 
    1.9595383170608258E+00 
    1.9580644702060033E+00 
    1.9629459017165716E+00 
    1.9611890298168462E+00 
    1.9569696248502071E+00 
    1.9586206938822683E+00 
    1.9526478086139556E+00 
    1.9556532550602346E+00 
    1.9523306046992539E+00 
    1.9468190815357069E+00 
    1.9432751016840413E+00 
    1.9491914315843903E+00 
    1.9469655952173774E+00 
    1.9419433545126201E+00 
    1.9535344457370161E+00 
    1.9572068450238476E+00 
    1.9517439533490504E+00 
    1.9497676394622019E+00 
    1.9409608698184087E+00 
    1.9457981292795445E+00 
    1.9463531631334947E+00 
    1.9398786613066630E+00 
    1.9360490619101707E+00 
    1.9361062289274755E+00 
    1.9303137763473428E+00 
    1.9284357018849507E+00 
    1.9351267791026643E+00 
    1.9331161610722505E+00 
    1.9272989774979377E+00 
    1.9293549502584884E+00 
    1.9213534099682628E+00 
    1.9253128748110175E+00 
    1.9211038731195385E+00 
    1.9140861771404658E+00 
    1.9100015892951334E+00 
    1.9173603076849552E+00 
    1.9146951210328966E+00 
    1.9087019740136162E+00 
    1.9231078993074722E+00 
    1.9280975036556842E+00 
    1.9211663578632341E+00 
    1.9184759177312465E+00 
    1.9077679161004601E+00 
    1.9136245614555303E+00 
    1.9145304560775875E+00 
    1.9068588985383219E+00 
    1.9020501794264895E+00 
    1.9021014179715008E+00 
    1.8959894229028216E+00 
    1.8943631449674454E+00 
    1.9011435738633804E+00 
    1.8989889237818804E+00 
    1.8925413159468265E+00 
    1.8952033561907782E+00 
    1.8872775647953468E+00 
    1.8910443366433753E+00 
    1.8869204959548185E+00 
    1.8807595680671028E+00 
    1.8771410870006817E+00 
    1.8833987905656928E+00 
    1.8805187922302518E+00 
    1.8756349936227166E+00 
    1.8885728407346125E+00 
    1.8936002697467369E+00 
    1.8865362247651416E+00 
    1.8842307627986490E+00 
    1.8746006013503955E+00 
    1.8796212354060078E+00 
    1.8803481618851896E+00 
    1.8738901737795561E+00 
    1.8709160552669633E+00 
    1.8707486896781726E+00 
    1.8663149647651593E+00 
    1.8653575450499622E+00 
    1.8698686442707118E+00 
    1.8680745379174910E+00 
    1.8634761233677433E+00 
    1.8657303203435525E+00 
    1.8602901592365677E+00 
    1.8627968263893768E+00 
    1.8598007130812242E+00 
    1.8557863894273716E+00 
    1.8532904437660285E+00 
    1.8573437111697619E+00 
    1.8555019725761002E+00 
    1.8522494314132936E+00 
    1.8606921192132913E+00 
    1.8639551741446292E+00 
    1.8591673277219289E+00 
    1.8577980268347376E+00 
    1.8514122909460571E+00 
    1.8547994441669158E+00 
    1.8550188663366294E+00 
    1.8506546860837241E+00 
    1.8488043785959172E+00 
    1.8486548406415770E+00 
    1.8453869254172450E+00 
    1.8446360112475562E+00 
    1.8479892564201224E+00 
    1.8466978298390933E+00 
    1.8435011753092789E+00 
    1.8449617953277289E+00 
    1.8408665136592353E+00 
    1.8428132937980108E+00 
    1.8406095290402080E+00 
    1.8373388076871533E+00 
    1.8353463156522376E+00 
    1.8386913504050435E+00 
    1.8373213304365856E+00 
    1.8345872774282797E+00 
    1.8413290266305604E+00 
    1.8437119617788560E+00 
    1.8401918442266461E+00 
    1.8390955449052226E+00 
    1.8340094809633434E+00 
    1.8367802204139192E+00 
    1.8370125319080084E+00 
    1.8334113387128743E+00 
    1.8315875526840544E+00 
    1.8315192979480270E+00 
    1.8286635736540764E+00 
    1.8279841643763559E+00 
    1.8310058482944185E+00 
    1.8298991294899554E+00 
    1.8270573254380480E+00 
    1.8282982597542996E+00 
    1.8247633967150796E+00 
    1.8264286577108999E+00 
    1.8245837202045998E+00 
    1.8218310391900336E+00 
    1.8201297781519137E+00 
    1.8229300668838182E+00 
    1.8215128634654703E+00 
    1.8192604102600618E+00 
    1.8251683611307361E+00 
    1.8272763504133076E+00 
    1.8239891202355176E+00 
    1.8230713674148422E+00 
    1.8186358768065976E+00 
    1.8209302971132140E+00 
    1.8210778168855006E+00 
    1.8180136490909300E+00 
    1.8171112228118900E+00 
    1.8169254626567402E+00 
    1.8148365831620079E+00 
    1.8144232850536641E+00 
    1.8163890822126774E+00 
    1.8153547728051223E+00 
    1.8134038898973956E+00 
    1.8144981532290079E+00 
    1.8120324806467549E+00 
    1.8131788312462185E+00 
    1.8116937564924458E+00 
    1.8098327061470367E+00 
    1.8085828210777186E+00 
    1.8104239945709597E+00 
    1.8094610035726602E+00 
    1.8079372864571213E+00 
    1.8119070158637538E+00 
    1.8131782219287258E+00 
    1.8107584948975439E+00 
    1.8103616813191976E+00 
    1.8072596456407903E+00 
    1.8088681633891337E+00 
    1.8086525531316624E+00 
    1.8063797105313899E+00 
    1.8064098352126914E+00 
    1.8062337810260796E+00 
    1.8046305059648848E+00 
    1.8042529364589870E+00 
    1.8056404504640962E+00 
    1.8045826743977869E+00 
    1.8033015675835629E+00 
    1.8041490246979819E+00 
    1.8023041335868231E+00 
    1.8032140585991914E+00 
    1.8019945136925108E+00 
    1.8003749689918480E+00 
    1.7992042872571381E+00 
    1.8008470265916161E+00 
    1.7998547811185539E+00 
    1.7984762758437447E+00 
    1.8019421539350751E+00 
    1.8026860049122932E+00 
    1.8006926014420581E+00 
    1.8005179195303929E+00 
    1.7978185858910960E+00 
    1.7991638757877249E+00 
    1.7988706288198064E+00 
    1.7968826941516811E+00 
    1.7970491367101213E+00 
    1.7969269099657299E+00 
    1.7953474979045441E+00 
    1.7948681612517605E+00 
    1.7963532251709953E+00 
    1.7952763763311255E+00 
    1.7940682587111700E+00 
    1.7948352205313203E+00 
    1.7928789989474363E+00 
    1.7938760041901805E+00 
    1.7926260259459230E+00 
    1.7907740241602292E+00 
    1.7894520080014611E+00 
    1.7913817406063295E+00 
    1.7903675759300488E+00 
    1.7887149926943751E+00 
    1.7926010679266968E+00 
    1.7933951913128146E+00 
    1.7913526639889858E+00 
    1.7910892530301212E+00 
    1.7880855638572806E+00 
    1.7896980125219568E+00 
    1.7894358446402487E+00 
    1.7872022114768240E+00 
    1.7869769900250954E+00 
    1.7867669227902876E+00 
    1.7847989273111333E+00 
    1.7843274788538415E+00 
    1.7861953251858864E+00 
    1.7851357374763064E+00 
    1.7834822349819230E+00 
    1.7844127826553140E+00 
    1.7820750882426326E+00 
    1.7831759589530551E+00 
    1.7818619992124922E+00 
    1.7801683673883466E+00 
    1.7791135361405188E+00 
    1.7806632110893816E+00 
    1.7796102391551376E+00 
    1.7784139910445136E+00 
    1.7819985388061272E+00 
    1.7831386638253328E+00 
    1.7807459967915551E+00 
    1.7804183408687078E+00 
    1.7777761340988389E+00 
    1.7790197640914664E+00 
    1.7787383481157804E+00 
    1.7769338156702408E+00 
    1.7775232515147514E+00 
    1.7772597390804543E+00 
    1.7763180886361973E+00 
    1.7762859977619181E+00 
    1.7767183147705550E+00 
    1.7757987687479944E+00 
    1.7753342559615310E+00 
    1.7760112270721049E+00 
    1.7754229859982222E+00 
    1.7756638618568852E+00 
    1.7750746461659614E+00 
    1.7748975515067262E+00 
    1.7747201236275225E+00 
    1.7745826477239817E+00 
    1.7740605321416032E+00 
    1.7742642871494714E+00 
    1.7745370035079417E+00 
    1.7744101523904259E+00 
    1.7733860495386014E+00 
    1.7738913741026947E+00 
    1.7735371139810545E+00 
    1.7735425093622266E+00 
    1.7727967866125174E+00 
    1.7725406182852985E+00 
    2.1435908383584841E+00 
    2.1253445426897848E+00 
    2.1264401243302880E+00 
    2.1397549063280517E+00 
    2.1098646045740970E+00 
    2.0961936835747381E+00 
    2.1071107429667189E+00 
    2.1153264304697506E+00 
    2.1329430969265410E+00 
    2.1225677107262904E+00 
    2.1146905485747496E+00 
    2.1222321016856673E+00 
    2.1084766245972490E+00 
    2.1054688937898933E+00 
    2.0959235709623285E+00 
    2.0957045714127753E+00 
    2.0985005004923289E+00 
    2.0875085649772500E+00 
    2.0822467973722021E+00 
    2.0908088293077118E+00 
    2.0848020952589827E+00 
    2.0867931669214363E+00 
    2.0777750454607342E+00 
    2.0727674959308144E+00 
    2.1022578560953891E+00 
    2.0920380065072046E+00 
    2.0861856432918633E+00 
    2.0912520990860446E+00 
    2.0820867929714151E+00 
    2.0706772309650288E+00 
    2.0711130273460601E+00 
    2.0794579719063377E+00 
    2.0809785313998028E+00 
    2.0791546179988858E+00 
    2.0706274963403155E+00 
    2.0693047125694477E+00 
    2.0583930663202774E+00 
    2.0617814074436480E+00 
    2.0539040824572079E+00 
    2.0497267442478475E+00 
    2.0622092707508441E+00 
    2.0597433424698077E+00 
    2.0505967553609574E+00 
    2.0540447025811504E+00 
    2.0424489252888161E+00 
    2.0478961358835512E+00 
    2.0428382128697673E+00 
    2.0344214937131428E+00 
    2.0493656104396187E+00 
    2.0433356505146785E+00 
    2.0364694755667472E+00 
    2.0385745710794492E+00 
    2.0367032807849297E+00 
    2.0281801712509004E+00 
    2.0247362239603248E+00 
    2.0314805841389321E+00 
    2.0289371889944636E+00 
    2.0293288217230385E+00 
    2.0216804955967351E+00 
    2.0182901476537403E+00 
    2.0094283052436794E+00 
    2.0142915097527663E+00 
    2.0076797552285446E+00 
    2.0031101596398795E+00 
    2.0168305819989922E+00 
    2.0174967030005546E+00 
    2.0071947293924537E+00 
    2.0090805568504799E+00 
    1.9979032501103555E+00 
    2.0031621244640236E+00 
    1.9992159494303097E+00 
    1.9925217367014860E+00 
    2.0022791883355771E+00 
    1.9981497716955274E+00 
    1.9941177842338671E+00 
    1.9961854855475454E+00 
    1.9939238365985512E+00 
    1.9889841064864966E+00 
    1.9873185791058245E+00 
    1.9922492661982301E+00 
    1.9905641521589417E+00 
    1.9907510289563701E+00 
    1.9867035193952025E+00 
    1.9857009002450736E+00 
    1.9817904604845855E+00 
    1.9831625657201535E+00 
    1.9800647588525409E+00 
    1.9786654317614329E+00 
    1.9839453028502296E+00 
    1.9835869507861352E+00 
    1.9792554397749009E+00 
    1.9806185105077547E+00 
    1.9757574078690461E+00 
    1.9779351591714294E+00 
    1.9759570481009388E+00 
    1.9728009691511843E+00 
    1.9786435968350546E+00 
    1.9764796125151520E+00 
    1.9740958610083228E+00 
    1.9747530584245536E+00 
    1.9739803766514341E+00 
    1.9708088267763868E+00 
    1.9697937666835315E+00 
    1.9721472309391355E+00 
    1.9711806094931088E+00 
    1.9714886123637980E+00 
    1.9686445969075255E+00 
    1.9668757782388149E+00 
    1.9629908791011255E+00 
    1.9655645190860382E+00 
    1.9627838434058156E+00 
    1.9600901157599093E+00 
    1.9666420352114478E+00 
    1.9668173230225237E+00 
    1.9629600425053140E+00 
    1.9634239876827491E+00 
    1.9577404705139825E+00 
    1.9605952464062448E+00 
    1.9593053270799912E+00 
    1.9550099629057343E+00 
    1.9580415796611097E+00 
    1.9564217150399632E+00 
    1.9525240740428196E+00 
    1.9524521263302463E+00 
    1.9542417464492803E+00 
    1.9511625101142573E+00 
    1.9481335674710902E+00 
    1.9506389094599332E+00 
    1.9474392764517161E+00 
    1.9487271517081355E+00 
    1.9450390749604500E+00 
    1.9415057751464304E+00 
    1.9366356421136222E+00 
    1.9413155130268405E+00 
    1.9381186781860142E+00 
    1.9337153454621587E+00 
    1.9442598435849074E+00 
    1.9464420531297550E+00 
    1.9409197613791047E+00 
    1.9401628670438573E+00 
    1.9315357037096603E+00 
    1.9361521206068770E+00 
    1.9355822357220767E+00 
    1.9292381461895185E+00 
    1.9297705019914269E+00 
    1.9283002155680133E+00 
    1.9229513197971422E+00 
    1.9225370586873927E+00 
    1.9261610222627161E+00 
    1.9229796169506148E+00 
    1.9180353215149744E+00 
    1.9211781920923003E+00 
    1.9161666307360088E+00 
    1.9181561217483476E+00 
    1.9136485937444185E+00 
    1.9090282156398455E+00 
    1.9034507976418991E+00 
    1.9093486737199721E+00 
    1.9057601709524739E+00 
    1.9003928316007965E+00 
    1.9136435180896936E+00 
    1.9174044937658692E+00 
    1.9104256024493071E+00 
    1.9088599201278680E+00 
    1.8982115594137765E+00 
    1.9039328675866733E+00 
    1.9038240284718582E+00 
    1.8961997786197866E+00 
    1.8956591477710303E+00 
    1.8941535912103655E+00 
    1.8882594680343361E+00 
    1.8879998919376109E+00 
    1.8920285730305417E+00 
    1.8888198982629718E+00 
    1.8832381596650247E+00 
    1.8867879711557631E+00 
    1.8816573956787255E+00 
    1.8835343875038568E+00 
    1.8789762822540290E+00 
    1.8751840467504139E+00 
    1.8703499727855597E+00 
    1.8749105164129714E+00 
    1.8714786667334107E+00 
    1.8675237439937000E+00 
    1.8789461336596820E+00 
    1.8829449619827221E+00 
    1.8758686375732310E+00 
    1.8744959163210315E+00 
    1.8654208921329265E+00 
    1.8700667542957676E+00 
    1.8698915369247284E+00 
    1.8638825704198196E+00 
    1.8650890105266187E+00 
    1.8634524685053528E+00 
    1.8596850447035063E+00 
    1.8599647647143525E+00 
    1.8615291733829344E+00 
    1.8588754054528827E+00 
    1.8554750391119741E+00 
    1.8585241571309470E+00 
    1.8555871536769457E+00 
    1.8565173356409130E+00 
    1.8532844309661067E+00 
    1.8512548202283290E+00 
    1.8478998660920851E+00 
    1.8504040546845342E+00 
    1.8481237109385593E+00 
    1.8458146525460080E+00 
    1.8525326187356794E+00 
    1.8545569411624947E+00 
    1.8500818250970454E+00 
    1.8496775357934789E+00 
    1.8441112643031754E+00 
    1.8469698393175291E+00 
    1.8464084487740526E+00 
    1.8426221018807329E+00 
    1.8443545895941811E+00 
    1.8430995212661017E+00 
    1.8405332025506853E+00 
    1.8407125800388273E+00 
    1.8415848665010268E+00 
    1.8395199208050186E+00 
    1.8374333478748999E+00 
    1.8395055369657798E+00 
    1.8375405617549319E+00 
    1.8382389922724252E+00 
    1.8358262402683105E+00 
    1.8340712744815795E+00 
    1.8312251820515759E+00 
    1.8334185116261368E+00 
    1.8314292970767301E+00 
    1.8293108356679706E+00 
    1.8349674200203694E+00 
    1.8362735683392228E+00 
    1.8327768752485667E+00 
    1.8324894137174930E+00 
    1.8276921986111343E+00 
    1.8301552477382865E+00 
    1.8295607497847302E+00 
    1.8259127854603345E+00 
    1.8278787134341692E+00 
    1.8267856504169482E+00 
    1.8242444193089580E+00 
    1.8243761432532313E+00 
    1.8251927636206904E+00 
    1.8228581115729672E+00 
    1.8209902487773806E+00 
    1.8230245262497111E+00 
    1.8214139411019390E+00 
    1.8218850499540553E+00 
    1.8195704591845852E+00 
    1.8182759381532623E+00 
    1.8157086217999494E+00 
    1.8173373691379526E+00 
    1.8153715048530292E+00 
    1.8137690600710203E+00 
    1.8185128518690372E+00 
    1.8194875753502491E+00 
    1.8160669288668163E+00 
    1.8161411052327963E+00 
    1.8120478930965602E+00 
    1.8140570093706181E+00 
    1.8131537751847357E+00 
    1.8101345565614413E+00 
    1.8132483471820031E+00 
    1.8119086260324802E+00 
    1.8101428855150450E+00 
    1.8106778550856646E+00 
    1.8102782154679380E+00 
    1.8080315793792909E+00 
    1.8071530469282580E+00 
    1.8089657616176549E+00 
    1.8084956239566672E+00 
    1.8084581012438969E+00 
    1.8065612522979833E+00 
    1.8060770337672762E+00 
    1.8038730168150194E+00 
    1.8045448787489502E+00 
    1.8027105050558472E+00 
    1.8018742226556450E+00 
    1.8049143891316073E+00 
    1.8050031294784277E+00 
    1.8022206924678541E+00 
    1.8028617872978203E+00 
    1.7999986678626350E+00 
    1.8012679363156829E+00 
    1.7999838878652752E+00 
    1.7977760705248125E+00 
    1.8022715580084299E+00 
    1.8007694424584015E+00 
    1.7995517063273316E+00 
    1.8002770018260581E+00 
    1.7989912641172765E+00 
    1.7966488481093570E+00 
    1.7965610957605815E+00 
    1.7982162599470950E+00 
    1.7985093624941735E+00 
    1.7981305674466963E+00 
    1.7965184806324044E+00 
    1.7964584881002925E+00 
    1.7944127396064897E+00 
    1.7947291847647147E+00 
    1.7930140879087100E+00 
    1.7924037139092934E+00 
    1.7945865021761138E+00 
    1.7939416683964253E+00 
    1.7917879615541479E+00 
    1.7927858485695745E+00 
    1.7905231985663188E+00 
    1.7914672568932108E+00 
    1.7899896689062467E+00 
    1.7881868874641456E+00 
    1.7929225308364050E+00 
    1.7914309620765756E+00 
    1.7902958908868305E+00 
    1.7909478642348975E+00 
    1.7896829809450250E+00 
    1.7873954986129934E+00 
    1.7874670842139981E+00 
    1.7889429417993141E+00 
    1.7891853872083008E+00 
    1.7889080647914157E+00 
    1.7872909226277520E+00 
    1.7869778401764302E+00 
    1.7848310594792409E+00 
    1.7854316357068845E+00 
    1.7836969747842379E+00 