# vtk DataFile Version 2.0
Pressure Field Data 
ASCII 
DATASET UNSTRUCTURED_GRID 

POINTS 289 double 

    0.0000000000000000E+00     0.0000000000000000E+00     0.0000000000000000E+00 
    1.0000000000000000E+00     0.0000000000000000E+00     0.0000000000000000E+00 
    1.0000000000000000E+00     1.0000000000000000E+00     0.0000000000000000E+00 
    0.0000000000000000E+00     1.0000000000000000E+00     0.0000000000000000E+00 
    6.2499999999872928E-02     0.0000000000000000E+00     0.0000000000000000E+00 
    1.2499999999977310E-01     0.0000000000000000E+00     0.0000000000000000E+00 
    1.8749999999959341E-01     0.0000000000000000E+00     0.0000000000000000E+00 
    2.4999999999941089E-01     0.0000000000000000E+00     0.0000000000000000E+00 
    3.1249999999922851E-01     0.0000000000000000E+00     0.0000000000000000E+00 
    3.7499999999904610E-01     0.0000000000000000E+00     0.0000000000000000E+00 
    4.3749999999886358E-01     0.0000000000000000E+00     0.0000000000000000E+00 
    4.9999999999869210E-01     0.0000000000000000E+00     0.0000000000000000E+00 
    5.6249999999884603E-01     0.0000000000000000E+00     0.0000000000000000E+00 
    6.2499999999901090E-01     0.0000000000000000E+00     0.0000000000000000E+00 
    6.8749999999917577E-01     0.0000000000000000E+00     0.0000000000000000E+00 
    7.4999999999934064E-01     0.0000000000000000E+00     0.0000000000000000E+00 
    8.1249999999950551E-01     0.0000000000000000E+00     0.0000000000000000E+00 
    8.7499999999967026E-01     0.0000000000000000E+00     0.0000000000000000E+00 
    9.3749999999983513E-01     0.0000000000000000E+00     0.0000000000000000E+00 
    1.0000000000000000E+00     6.2499999999872928E-02     0.0000000000000000E+00 
    1.0000000000000000E+00     1.2499999999977310E-01     0.0000000000000000E+00 
    1.0000000000000000E+00     1.8749999999959341E-01     0.0000000000000000E+00 
    1.0000000000000000E+00     2.4999999999941089E-01     0.0000000000000000E+00 
    1.0000000000000000E+00     3.1249999999922851E-01     0.0000000000000000E+00 
    1.0000000000000000E+00     3.7499999999904610E-01     0.0000000000000000E+00 
    1.0000000000000000E+00     4.3749999999886358E-01     0.0000000000000000E+00 
    1.0000000000000000E+00     4.9999999999869210E-01     0.0000000000000000E+00 
    1.0000000000000000E+00     5.6249999999884603E-01     0.0000000000000000E+00 
    1.0000000000000000E+00     6.2499999999901090E-01     0.0000000000000000E+00 
    1.0000000000000000E+00     6.8749999999917577E-01     0.0000000000000000E+00 
    1.0000000000000000E+00     7.4999999999934064E-01     0.0000000000000000E+00 
    1.0000000000000000E+00     8.1249999999950551E-01     0.0000000000000000E+00 
    1.0000000000000000E+00     8.7499999999967026E-01     0.0000000000000000E+00 
    1.0000000000000000E+00     9.3749999999983513E-01     0.0000000000000000E+00 
    9.3749999999973976E-01     1.0000000000000000E+00     0.0000000000000000E+00 
    8.7499999999950118E-01     1.0000000000000000E+00     0.0000000000000000E+00 
    8.1249999999991318E-01     1.0000000000000000E+00     0.0000000000000000E+00 
    7.5000000000034706E-01     1.0000000000000000E+00     0.0000000000000000E+00 
    6.8750000000078049E-01     1.0000000000000000E+00     0.0000000000000000E+00 
    6.2500000000121403E-01     1.0000000000000000E+00     0.0000000000000000E+00 
    5.6250000000164757E-01     1.0000000000000000E+00     0.0000000000000000E+00 
    5.0000000000205946E-01     1.0000000000000000E+00     0.0000000000000000E+00 
    4.3750000000182099E-01     1.0000000000000000E+00     0.0000000000000000E+00 
    3.7500000000156092E-01     1.0000000000000000E+00     0.0000000000000000E+00 
    3.1250000000130068E-01     1.0000000000000000E+00     0.0000000000000000E+00 
    2.5000000000104050E-01     1.0000000000000000E+00     0.0000000000000000E+00 
    1.8750000000078040E-01     1.0000000000000000E+00     0.0000000000000000E+00 
    1.2500000000052031E-01     1.0000000000000000E+00     0.0000000000000000E+00 
    6.2500000000260125E-02     1.0000000000000000E+00     0.0000000000000000E+00 
    0.0000000000000000E+00     9.3749999999973976E-01     0.0000000000000000E+00 
    0.0000000000000000E+00     8.7499999999950118E-01     0.0000000000000000E+00 
    0.0000000000000000E+00     8.1249999999991318E-01     0.0000000000000000E+00 
    0.0000000000000000E+00     7.5000000000034706E-01     0.0000000000000000E+00 
    0.0000000000000000E+00     6.8750000000078049E-01     0.0000000000000000E+00 
    0.0000000000000000E+00     6.2500000000121403E-01     0.0000000000000000E+00 
    0.0000000000000000E+00     5.6250000000164757E-01     0.0000000000000000E+00 
    0.0000000000000000E+00     5.0000000000205946E-01     0.0000000000000000E+00 
    0.0000000000000000E+00     4.3750000000182099E-01     0.0000000000000000E+00 
    0.0000000000000000E+00     3.7500000000156092E-01     0.0000000000000000E+00 
    0.0000000000000000E+00     3.1250000000130068E-01     0.0000000000000000E+00 
    0.0000000000000000E+00     2.5000000000104050E-01     0.0000000000000000E+00 
    0.0000000000000000E+00     1.8750000000078040E-01     0.0000000000000000E+00 
    0.0000000000000000E+00     1.2500000000052031E-01     0.0000000000000000E+00 
    0.0000000000000000E+00     6.2500000000260125E-02     0.0000000000000000E+00 
    6.2499999999897131E-02     6.2500000000235922E-02     0.0000000000000000E+00 
    6.2499999999921327E-02     1.2500000000047351E-01     0.0000000000000000E+00 
    6.2499999999945530E-02     1.8750000000070621E-01     0.0000000000000000E+00 
    6.2499999999969733E-02     2.5000000000093858E-01     0.0000000000000000E+00 
    6.2499999999993928E-02     3.1250000000117117E-01     0.0000000000000000E+00 
    6.2500000000018124E-02     3.7500000000140382E-01     0.0000000000000000E+00 
    6.2500000000042327E-02     4.3750000000163619E-01     0.0000000000000000E+00 
    6.2500000000066530E-02     5.0000000000184897E-01     0.0000000000000000E+00 
    6.2500000000090733E-02     5.6250000000147260E-01     0.0000000000000000E+00 
    6.2500000000114922E-02     6.2500000000107636E-01     0.0000000000000000E+00 
    6.2500000000139125E-02     6.8750000000068034E-01     0.0000000000000000E+00 
    6.2500000000163328E-02     7.5000000000028411E-01     0.0000000000000000E+00 
    6.2500000000187531E-02     8.1249999999988787E-01     0.0000000000000000E+00 
    6.2500000000211720E-02     8.7499999999951172E-01     0.0000000000000000E+00 
    6.2500000000235922E-02     9.3749999999974565E-01     0.0000000000000000E+00 
    1.2499999999981980E-01     6.2500000000211733E-02     0.0000000000000000E+00 
    1.2499999999986650E-01     1.2500000000042691E-01     0.0000000000000000E+00 
    1.2499999999991319E-01     1.8750000000063199E-01     0.0000000000000000E+00 
    1.2499999999995989E-01     2.5000000000083678E-01     0.0000000000000000E+00 
    1.2500000000000661E-01     3.1250000000104172E-01     0.0000000000000000E+00 
    1.2500000000005329E-01     3.7500000000124661E-01     0.0000000000000000E+00 
    1.2500000000010000E-01     4.3750000000145117E-01     0.0000000000000000E+00 
    1.2500000000014669E-01     5.0000000000163858E-01     0.0000000000000000E+00 
    1.2500000000019340E-01     5.6250000000129741E-01     0.0000000000000000E+00 
    1.2500000000024011E-01     6.2500000000093847E-01     0.0000000000000000E+00 
    1.2500000000028680E-01     6.8750000000057998E-01     0.0000000000000000E+00 
    1.2500000000033351E-01     7.5000000000022127E-01     0.0000000000000000E+00 
    1.2500000000038020E-01     8.1249999999986211E-01     0.0000000000000000E+00 
    1.2500000000042691E-01     8.7499999999952238E-01     0.0000000000000000E+00 
    1.2500000000047359E-01     9.3749999999975164E-01     0.0000000000000000E+00 
    1.8749999999966760E-01     6.2500000000187531E-02     0.0000000000000000E+00 
    1.8749999999974179E-01     1.2500000000038020E-01     0.0000000000000000E+00 
    1.8749999999981601E-01     1.8750000000055780E-01     0.0000000000000000E+00 
    1.8749999999989009E-01     2.5000000000073502E-01     0.0000000000000000E+00 
    1.8749999999996431E-01     3.1250000000091221E-01     0.0000000000000000E+00 
    1.8750000000003850E-01     3.7500000000108941E-01     0.0000000000000000E+00 
    1.8750000000011269E-01     4.3750000000126649E-01     0.0000000000000000E+00 
    1.8750000000018691E-01     5.0000000000142808E-01     0.0000000000000000E+00 
    1.8750000000026110E-01     5.6250000000112244E-01     0.0000000000000000E+00 
    1.8750000000033529E-01     6.2500000000080080E-01     0.0000000000000000E+00 
    1.8750000000040951E-01     6.8750000000047962E-01     0.0000000000000000E+00 
    1.8750000000048361E-01     7.5000000000015843E-01     0.0000000000000000E+00 
    1.8750000000055780E-01     8.1249999999983680E-01     0.0000000000000000E+00 
    1.8750000000063199E-01     8.7499999999953304E-01     0.0000000000000000E+00 
    1.8750000000070621E-01     9.3749999999975764E-01     0.0000000000000000E+00 
    2.4999999999951281E-01     6.2500000000163314E-02     0.0000000000000000E+00 
    2.4999999999961461E-01     1.2500000000033351E-01     0.0000000000000000E+00 
    2.4999999999971650E-01     1.8750000000048361E-01     0.0000000000000000E+00 
    2.4999999999981831E-01     2.5000000000063310E-01     0.0000000000000000E+00 
    2.4999999999992020E-01     3.1250000000078260E-01     0.0000000000000000E+00 
    2.5000000000002198E-01     3.7500000000093209E-01     0.0000000000000000E+00 
    2.5000000000012390E-01     4.3750000000108180E-01     0.0000000000000000E+00 
    2.5000000000022571E-01     5.0000000000121769E-01     0.0000000000000000E+00 
    2.5000000000032763E-01     5.6250000000094724E-01     0.0000000000000000E+00 
    2.5000000000042938E-01     6.2500000000066314E-01     0.0000000000000000E+00 
    2.5000000000053119E-01     6.8750000000037925E-01     0.0000000000000000E+00 
[...]
CELL_DATA 256 
SCALARS Pressure double 1 
LOOKUP_TABLE default 

    1.0502836608170540E+00 
    9.9415981657091312E-01 
    9.5298889554167654E-01 
    9.1189202118171653E-01 
    8.6758831260466918E-01 
    8.1986979602996179E-01 
    7.6881105358047375E-01 
    7.1348435538565169E-01 
    6.4772229786092250E-01 
    5.7439802897513115E-01 
    5.0814181804562930E-01 
    4.4875848275599045E-01 
    3.9724641605964295E-01 
    3.5700260158727171E-01 
    3.3134008027765643E-01 
    3.2095243863346451E-01 
    1.0363691484846793E+00 
    9.9602798102053858E-01 
    9.5619576570432907E-01 
    9.1556042352392564E-01 
    8.7174202681011603E-01 
    8.2444963438313223E-01 
    7.7380053073118804E-01 
    7.1906306781208162E-01 
    6.5391569646688807E-01 
    5.8065586895630461E-01 
    5.1390394340594436E-01 
    4.5361599945623166E-01 
    4.0086341973779716E-01 
    3.5905821703332808E-01 
    3.3183864601990348E-01 
    3.2052041018873845E-01 
    1.0254580054897613E+00 
    9.9547323534765697E-01 
    9.5837191279230849E-01 
    9.1858853072498314E-01 
    8.7540538092018627E-01 
    8.2863534255282711E-01 
    7.7842930853805092E-01 
    7.2418804055722263E-01 
    6.5941153458465662E-01 
    5.8626856474811972E-01 
    5.1921045345970029E-01 
    4.5789456244952847E-01 
    4.0363977384326205E-01 
    3.5997400071973029E-01 
    3.3102478247824063E-01 
    3.1892686381352398E-01 
    1.0163878918722333E+00 
    9.9346769062310858E-01 
    9.5953726761345659E-01 
    9.2099231941499771E-01 
    8.7859005238873977E-01 
    8.3243476363877011E-01 
    7.8270868698521456E-01 
    7.2886445477646800E-01 
    6.6428845571145523E-01 
    5.9134869240373744E-01 
    5.2411310454780247E-01 
    4.6168064472459186E-01 
    4.0566993407195917E-01 
    3.5979121687537130E-01 
    3.2881794817186782E-01 
    3.1594931443938168E-01 
    1.0085353092759983E+00 
    9.9055940317849855E-01 
    9.5981549075353800E-01 
    9.2282104337362647E-01 
    8.8134742674120592E-01 
    8.3588566658864361E-01 
    7.8666823597990931E-01 
    7.3308531792013909E-01 
    6.6859317214525327E-01 
    5.9601932424793069E-01 
    5.2868658677926850E-01 
    4.6507405282727449E-01 
    4.0706372700033999E-01 
    3.5856423899448936E-01 
    3.2513417942597128E-01 
    3.1135724563307904E-01 
    1.0017020658102351E+00 
    9.8720731741626233E-01 
    9.5942247871397590E-01 
    9.2416491600000683E-01 
    8.8375119514742506E-01 
    8.3903860847739620E-01 
    7.9034274096163626E-01 
    7.3680210701389659E-01 
    6.7233250348717388E-01 
    6.0043207074952465E-01 
    5.3302323370131321E-01 
    4.6818942311257533E-01 
    4.0795233578063106E-01 
    3.5637081133280185E-01 
    3.1989040108784272E-01 
    3.0489237507346018E-01 
    9.9575974937534051E-01 
    9.8373518288405326E-01 
    9.5858080711135019E-01 
    9.2512752604451876E-01 
    8.8587243024409223E-01 
    8.4194770465002255E-01 
    7.9376104315723572E-01 
    7.3995973516232050E-01 
    6.7553941018694541E-01 
    6.0477611377736962E-01 
    5.3722987822835255E-01 
    4.7115555009330812E-01 
    4.0849385164598506E-01 
    3.5332555504315244E-01 
    3.1301412489220609E-01 
    2.9625764237265650E-01 
    9.9062169672043976E-01 
    9.8036813016519575E-01 
    9.5749472331712560E-01 
    9.2581977597749288E-01 
    8.8778223485566155E-01 
    8.4466737523850621E-01 
    7.9689769559961132E-01 
    7.4257391580705734E-01 
    6.7839039018805836E-01 
    6.0919313652879026E-01 
    5.4141945516625267E-01 
    4.7411291239195885E-01 
    4.0887654286341457E-01 
    3.4959365823907151E-01 
    3.0445427362895633E-01 
    2.8509136612427799E-01 
    9.8624792263915184E-01 
    9.7727726051620711E-01 
    9.5634985886769741E-01 
    9.2636036035000269E-01 
    8.8955188632118687E-01 
    8.4722579986722701E-01 
    7.9957826447153668E-01 
    7.4468580747121804E-01 
    6.8121810426949103E-01 
    6.1368253877612589E-01 
    5.4569369424885761E-01 
    4.7720791679810665E-01 
    4.0932096008222607E-01 
    3.4541084594984933E-01 
    2.9420604428350244E-01 
    2.7094057867924853E-01 
    9.8262575283638753E-01 
    9.7459381345204676E-01 
    9.5530332398896745E-01 
    9.2685825841894653E-01 
    8.9121297545686740E-01 
    8.4947043531185951E-01 
    8.0163271321477569E-01 
    7.4657180853730853E-01 
    6.8440283568026949E-01 
    6.1820691257894600E-01 
    5.5013427918423818E-01 
    4.8058526058409323E-01 
    4.1007764627127941E-01 
    3.4110496336189677E-01 
    2.8235003235543471E-01 
    2.5321693691904201E-01 
    9.7962464518048176E-01 
    9.7231523742652493E-01 
    9.5440327794722268E-01 
    9.2727806614900088E-01 
    8.9252139715530621E-01 
    8.5113059687387582E-01 
    8.0328962693117290E-01 
    7.4882962682722387E-01 
    6.8807405368069663E-01 
    6.2282746391839683E-01 
    5.5481240295663958E-01 
    4.8437945373479341E-01 
    4.1141944771571487E-01 
    3.3712020521639258E-01 
    2.6912291179365666E-01 
    2.3114335815984388E-01 
    9.7663187839738963E-01 
    9.6994291189910753E-01 
    9.5322117094585235E-01 
    9.2726600849334551E-01 
    8.9332529147161632E-01 
    8.5251971074444088E-01 
    8.0531089358118557E-01 
    7.5175675022443489E-01 
    6.9209154899896363E-01 
    6.2763956224060391E-01 
    5.5979037754145089E-01 
    4.8870522870614230E-01 
    4.1362352395059426E-01 
    3.3403340851801150E-01 
    2.5503198939464611E-01 
    2.0366771518548824E-01 
    9.7405628725037863E-01 
    9.6772829236178337E-01 
    9.5201975857987275E-01 
    9.2720499552340496E-01 
    8.9430462716933545E-01 
    8.5440651166394910E-01 
    8.0801129645835035E-01 
    7.5522571244291703E-01 
    6.9643332278171333E-01 
    6.3270537927445414E-01 
    5.6511614929502263E-01 
    4.9364600345894949E-01 
    4.1694187003292033E-01 
    3.3255364983960795E-01 
    2.4105236049045467E-01 
    1.6933906123033191E-01 
    9.7247063956297397E-01 
    9.6645820150887407E-01 
    9.5162145917638430E-01 
    9.2786908753260811E-01 
    8.9597831546108753E-01 
    8.5690436478050025E-01 
    8.1121494239360337E-01 
    7.5915230147661583E-01 
    7.0113419900373652E-01 
    6.3806782966612163E-01 
    5.7081898779393814E-01 
    4.9924366291839950E-01 
    4.2155784954070852E-01 
    3.3347294568876767E-01 
    2.2895545385739446E-01 
    1.2611840123882742E-01 
    9.7161840765070162E-01 
    9.6596092377520570E-01 
    9.5193730605853044E-01 
    9.2914853808260400E-01 
    8.9818418744742068E-01 
    8.5990669741733494E-01 
    8.1491803104227067E-01 
    7.6354284809917139E-01 
    7.0621878451380760E-01 
    6.4375687714114826E-01 
    5.7690984898852260E-01 
    5.0549320289142885E-01 
    4.2753441618186949E-01 
    3.3751252972312967E-01 
    2.2186208623842732E-01 
    7.1090610013411618E-02 
    9.7138212486725140E-01 
    9.6618168076267807E-01 
    9.5295476101473620E-01 
    9.3105765862396128E-01 
    9.0094537226638527E-01 
    8.6342727604236691E-01 
    8.1912576007511884E-01 
    7.6840642287398198E-01 
    7.1170817298553013E-01 
    6.4979299584852224E-01 
    5.8338453777326127E-01 
    5.1234666750202884E-01 
    4.3477612186925774E-01 
    3.4495335559005319E-01 
    2.2517017218254856E-01 
    0.0000000000000000E+00 

SCALARS Saturarion double 1 
LOOKUP_TABLE default 

    1.0000000000001996E+00 
    9.4212962808400480E-01 
    8.5659422650062067E-01 
    7.5156201427917591E-01 
    6.7526602931031721E-01 
    6.1941630871014630E-01 
    5.6999702800952901E-01 
    5.1443230897674919E-01 
    3.8965803028029278E-01 
    4.3212628656387198E-02 
    1.0000001840857358E-06 
    1.0000000000001272E-06 
    9.9999999999999995E-07 
    9.9999999999999995E-07 
    9.9999999999999995E-07 
    9.9999999999999995E-07 
    9.7274742573113715E-01 
    9.1901944783009204E-01 
    8.3141683280542356E-01 
    7.4203608868143078E-01 
    6.6928705516788389E-01 
    6.1342034578664439E-01 
    5.6545713161777056E-01 
    5.1062234385310923E-01 
    3.8112418076611598E-01 
    3.6838478882351575E-02 
    1.4814467105361779E-06 
    1.0000000909709626E-06 
    1.0000000000000264E-06 
    9.9999999999999995E-07 
    9.9999999999999995E-07 
    9.9999999999999995E-07 
    9.2823816739557496E-01 
    8.8265170417996519E-01 
    7.9814040521143859E-01 
    7.2354223834648279E-01 
    6.5704024069460121E-01 
    6.0254535707467760E-01 
    5.5703157350434018E-01 
    5.0354116554243089E-01 
    3.6805328642820578E-01 
    2.8134312228381999E-02 
    1.8208605461045146E-06 
    1.0000001504335463E-06 
    1.0000000000000400E-06 
    9.9999999999999995E-07 
    9.9999999999999995E-07 
    9.9999999999999995E-07 
    8.5938713760117680E-01 
    8.2484887171192156E-01 
    7.5537739879015120E-01 
    6.9417598322229856E-01 
    6.4028469775912433E-01 
    5.9296466302839601E-01 
    5.5033525250809745E-01 
    4.9791133575673219E-01 
    3.5419706806590517E-01 
    2.1478493230930498E-02 
    1.6587631713319787E-06 
    1.0000002784244083E-06 
    9.9999999999999974E-07 
    9.9999999999999995E-07 
    9.9999999999999995E-07 
    9.9999999999999995E-07 
    7.9543229580505226E-01 
    7.6789628818134736E-01 
    7.1405946747290339E-01 
    6.6306540628629984E-01 
    6.1974306940912649E-01 
    5.8008419175914661E-01 
    5.4091799802678298E-01 
    4.8920263297106448E-01 
    3.2837360649895858E-01 
    1.2177046584182928E-02 
    2.1044454550064615E-06 
    1.0000001879506709E-06 
    1.0000000000000139E-06 
    9.9999999999999995E-07 
    9.9999999999999995E-07 
    9.9999999999999995E-07 
    7.3594805367018601E-01 
    7.1626181524153765E-01 
    6.7503703953145433E-01 
    6.3262280759832701E-01 
    5.9662833799572146E-01 
    5.6336240945234328E-01 
    5.2739276354117171E-01 
    4.7407547635039943E-01 
    2.7403948454427857E-01 
    3.5579612516738633E-03 
    1.2740674131905556E-06 
    1.0000000653148041E-06 
    9.9999999999999995E-07 
    9.9999999999999995E-07 
    9.9999999999999995E-07 
    9.9999999999999995E-07 
    6.8038597606264573E-01 
    6.6782268035261116E-01 
    6.3753129039478029E-01 
    6.0265471717247421E-01 
    5.7162011053286133E-01 
    5.4358266108290687E-01 
    5.1106910789979498E-01 
    4.4811354256954417E-01 
    1.8640385898082465E-01 
    3.2127072673565914E-04 
    1.0100427616333643E-06 
    1.0000000010273040E-06 
    9.9999999999999995E-07 
    9.9999999999999995E-07 
    9.9999999999999995E-07 
    9.9999999999999995E-07 
    6.2824290448303599E-01 
    6.2211969623032393E-01 
    6.0201780976495856E-01 
    5.7373866077243929E-01 
    5.4615134774656404E-01 
    5.2170213922460684E-01 
    4.8975835726522643E-01 
    3.9860542154157114E-01 
    8.3970565193170144E-02 
    1.1797713994503032E-04 
    1.0036868388924232E-06 
    1.0000000000000021E-06 
    9.9999999999999995E-07 
    9.9999999999999995E-07 
    9.9999999999999995E-07 
    9.9999999999999995E-07 
    5.8155950056381567E-01 
    5.8028339763624182E-01 
    5.6763986346715345E-01 
    5.4540368542434603E-01 
    5.2193788864647006E-01 
    4.9728176870185098E-01 
    4.5350345974647793E-01 
    2.7126891074835219E-01 
    1.0226859230048287E-02 
    5.6998731412987724E-06 
    1.0000027597011666E-06 
    1.0000000000000036E-06 
    9.9999999999999995E-07 
    9.9999999999999995E-07 
    9.9999999999999995E-07 
    9.9999999999999995E-07 
    5.4061561322278007E-01 
    5.4195476376951812E-01 
    5.3313535564761583E-01 
    5.1677971325218675E-01 
    4.9388477137689635E-01 
    4.5523935078341787E-01 
    3.3847426502599798E-01 
    7.0198478983799287E-02 
    2.5194322784089933E-04 
    1.0110726615312540E-06 
    1.0000000000003928E-06 
    9.9999999999999995E-07 
    9.9999999999999995E-07 
    9.9999999999999995E-07 
    9.9999999999999995E-07 
    9.9999999999999995E-07 
    4.8339119085173687E-01 
    4.8858645459494737E-01 
    4.8554514149564953E-01 
    4.6941213601579451E-01 
    4.1680390253286342E-01 
    2.8309541783299746E-01 
    7.6778321754136389E-02 
    4.5313949233929290E-04 
    1.0391525851361857E-06 
    1.0000000024921581E-06 
    1.0000000000000002E-06 
    9.9999999999999995E-07 
    9.9999999999999995E-07 
    9.9999999999999995E-07 
    9.9999999999999995E-07 
    9.9999999999999995E-07 
    2.6199037827883681E-01 
    3.2604035135563642E-01 
    3.2424308480262320E-01 
    2.4813645965535139E-01 
    1.2307117113375464E-01 
    1.3259072582027749E-02 
    1.6336844132606055E-04 
    1.0222406141077804E-06 
    1.0000000090180567E-06 
    1.0000000000000010E-06 
    9.9999999999999995E-07 
    9.9999999999999995E-07 
    9.9999999999999995E-07 
    9.9999999999999995E-07 
    9.9999999999999995E-07 
    9.9999999999999995E-07 
    9.5441113846432394E-04 
    1.1514437885576351E-02 
    9.5440723664159729E-03 
    1.3759445758797380E-03 
    1.4210072583080750E-04 
    5.2018523267769776E-06 
    1.0020138047426831E-06 
    1.0000000010579632E-06 
    1.0000000000000004E-06 
    9.9999999999999995E-07 
    9.9999999999999995E-07 
    9.9999999999999995E-07 
    9.9999999999999995E-07 
    9.9999999999999995E-07 
    9.9999999999999995E-07 
    9.9999999999999995E-07 
    1.0000003992358331E-06 
    1.7577640980534327E-06 
    1.4308236219243280E-06 
    1.0443968958293136E-06 
    1.0046324364834498E-06 
    1.0000010086424847E-06 
    1.0000000000003741E-06 
    9.9999999999999995E-07 
    9.9999999999999995E-07 
    9.9999999999999995E-07 
    9.9999999999999995E-07 
    9.9999999999999995E-07 
    9.9999999999999995E-07 
    9.9999999999999995E-07 
    9.9999999999999995E-07 
    9.9999999999999995E-07 
    1.0000000000000400E-06 
    1.0000000488085136E-06 
    1.0000000652948806E-06 
    1.0000000052540934E-06 
    1.0000000000000029E-06 
    1.0000000000000002E-06 
    9.9999999999999995E-07 
    9.9999999999999995E-07 
    9.9999999999999995E-07 
    9.9999999999999995E-07 
    9.9999999999999995E-07 
    9.9999999999999995E-07 
    9.9999999999999995E-07 
    9.9999999999999995E-07 
    9.9999999999999995E-07 
    9.9999999999999995E-07 
    9.9999999999999995E-07 
    1.0000000000000014E-06 
    9.9999999999999995E-07 
    9.9999999999999995E-07 
    9.9999999999999995E-07 
    9.9999999999999995E-07 
    9.9999999999999995E-07 
    9.9999999999999995E-07 
    9.9999999999999995E-07 
    9.9999999999999995E-07 
    9.9999999999999995E-07 
    9.9999999999999995E-07 
    9.9999999999999995E-07 
    9.9999999999999995E-07 
    9.9999999999999995E-07 
    1.0000002692321609E-06 
