# vtk DataFile Version 2.0
Pressure Field Data 
ASCII 
DATASET UNSTRUCTURED_GRID 

POINTS 289 double 

    0.0000000000000000E+00     0.0000000000000000E+00     0.0000000000000000E+00 
    1.0000000000000000E+00     0.0000000000000000E+00     0.0000000000000000E+00 
    1.0000000000000000E+00     1.0000000000000000E+00     0.0000000000000000E+00 
    0.0000000000000000E+00     1.0000000000000000E+00     0.0000000000000000E+00 
    6.2499999999872928E-02     0.0000000000000000E+00     0.0000000000000000E+00 
    1.2499999999977310E-01     0.0000000000000000E+00     0.0000000000000000E+00 
    1.8749999999959341E-01     0.0000000000000000E+00     0.0000000000000000E+00 
    2.4999999999941089E-01     0.0000000000000000E+00     0.0000000000000000E+00 
    3.1249999999922851E-01     0.0000000000000000E+00     0.0000000000000000E+00 
    3.7499999999904610E-01     0.0000000000000000E+00     0.0000000000000000E+00 
    4.3749999999886358E-01     0.0000000000000000E+00     0.0000000000000000E+00 
    4.9999999999869210E-01     0.0000000000000000E+00     0.0000000000000000E+00 
    5.6249999999884603E-01     0.0000000000000000E+00     0.0000000000000000E+00 
    6.2499999999901090E-01     0.0000000000000000E+00     0.0000000000000000E+00 
    6.8749999999917577E-01     0.0000000000000000E+00     0.0000000000000000E+00 
    7.4999999999934064E-01     0.0000000000000000E+00     0.0000000000000000E+00 
    8.1249999999950551E-01     0.0000000000000000E+00     0.0000000000000000E+00 
    8.7499999999967026E-01     0.0000000000000000E+00     0.0000000000000000E+00 
    9.3749999999983513E-01     0.0000000000000000E+00     0.0000000000000000E+00 
    1.0000000000000000E+00     6.2499999999872928E-02     0.0000000000000000E+00 
    1.0000000000000000E+00     1.2499999999977310E-01     0.0000000000000000E+00 
    1.0000000000000000E+00     1.8749999999959341E-01     0.0000000000000000E+00 
    1.0000000000000000E+00     2.4999999999941089E-01     0.0000000000000000E+00 
    1.0000000000000000E+00     3.1249999999922851E-01     0.0000000000000000E+00 
    1.0000000000000000E+00     3.7499999999904610E-01     0.0000000000000000E+00 
    1.0000000000000000E+00     4.3749999999886358E-01     0.0000000000000000E+00 
    1.0000000000000000E+00     4.9999999999869210E-01     0.0000000000000000E+00 
    1.0000000000000000E+00     5.6249999999884603E-01     0.0000000000000000E+00 
    1.0000000000000000E+00     6.2499999999901090E-01     0.0000000000000000E+00 
    1.0000000000000000E+00     6.8749999999917577E-01     0.0000000000000000E+00 
    1.0000000000000000E+00     7.4999999999934064E-01     0.0000000000000000E+00 
    1.0000000000000000E+00     8.1249999999950551E-01     0.0000000000000000E+00 
    1.0000000000000000E+00     8.7499999999967026E-01     0.0000000000000000E+00 
    1.0000000000000000E+00     9.3749999999983513E-01     0.0000000000000000E+00 
    9.3749999999973976E-01     1.0000000000000000E+00     0.0000000000000000E+00 
    8.7499999999950118E-01     1.0000000000000000E+00     0.0000000000000000E+00 
    8.1249999999991318E-01     1.0000000000000000E+00     0.0000000000000000E+00 
    7.5000000000034706E-01     1.0000000000000000E+00     0.0000000000000000E+00 
    6.8750000000078049E-01     1.0000000000000000E+00     0.0000000000000000E+00 
    6.2500000000121403E-01     1.0000000000000000E+00     0.0000000000000000E+00 
    5.6250000000164757E-01     1.0000000000000000E+00     0.0000000000000000E+00 
    5.0000000000205946E-01     1.0000000000000000E+00     0.0000000000000000E+00 
    4.3750000000182099E-01     1.0000000000000000E+00     0.0000000000000000E+00 
    3.7500000000156092E-01     1.0000000000000000E+00     0.0000000000000000E+00 
    3.1250000000130068E-01     1.0000000000000000E+00     0.0000000000000000E+00 
    2.5000000000104050E-01     1.0000000000000000E+00     0.0000000000000000E+00 
    1.8750000000078040E-01     1.0000000000000000E+00     0.0000000000000000E+00 
    1.2500000000052031E-01     1.0000000000000000E+00     0.0000000000000000E+00 
    6.2500000000260125E-02     1.0000000000000000E+00     0.0000000000000000E+00 
    0.0000000000000000E+00     9.3749999999973976E-01     0.0000000000000000E+00 
    0.0000000000000000E+00     8.7499999999950118E-01     0.0000000000000000E+00 
    0.0000000000000000E+00     8.1249999999991318E-01     0.0000000000000000E+00 
    0.0000000000000000E+00     7.5000000000034706E-01     0.0000000000000000E+00 
    0.0000000000000000E+00     6.8750000000078049E-01     0.0000000000000000E+00 
    0.0000000000000000E+00     6.2500000000121403E-01     0.0000000000000000E+00 
    0.0000000000000000E+00     5.6250000000164757E-01     0.0000000000000000E+00 
    0.0000000000000000E+00     5.0000000000205946E-01     0.0000000000000000E+00 
    0.0000000000000000E+00     4.3750000000182099E-01     0.0000000000000000E+00 
    0.0000000000000000E+00     3.7500000000156092E-01     0.0000000000000000E+00 
    0.0000000000000000E+00     3.1250000000130068E-01     0.0000000000000000E+00 
    0.0000000000000000E+00     2.5000000000104050E-01     0.0000000000000000E+00 
    0.0000000000000000E+00     1.8750000000078040E-01     0.0000000000000000E+00 
    0.0000000000000000E+00     1.2500000000052031E-01     0.0000000000000000E+00 
    0.0000000000000000E+00     6.2500000000260125E-02     0.0000000000000000E+00 
    6.2499999999897131E-02     6.2500000000235922E-02     0.0000000000000000E+00 
    6.2499999999921327E-02     1.2500000000047351E-01     0.0000000000000000E+00 
    6.2499999999945530E-02     1.8750000000070621E-01     0.0000000000000000E+00 
    6.2499999999969733E-02     2.5000000000093858E-01     0.0000000000000000E+00 
    6.2499999999993928E-02     3.1250000000117117E-01     0.0000000000000000E+00 
    6.2500000000018124E-02     3.7500000000140382E-01     0.0000000000000000E+00 
    6.2500000000042327E-02     4.3750000000163619E-01     0.0000000000000000E+00 
    6.2500000000066530E-02     5.0000000000184897E-01     0.0000000000000000E+00 
    6.2500000000090733E-02     5.6250000000147260E-01     0.0000000000000000E+00 
    6.2500000000114922E-02     6.2500000000107636E-01     0.0000000000000000E+00 
    6.2500000000139125E-02     6.8750000000068034E-01     0.0000000000000000E+00 
    6.2500000000163328E-02     7.5000000000028411E-01     0.0000000000000000E+00 
    6.2500000000187531E-02     8.1249999999988787E-01     0.0000000000000000E+00 
    6.2500000000211720E-02     8.7499999999951172E-01     0.0000000000000000E+00 
    6.2500000000235922E-02     9.3749999999974565E-01     0.0000000000000000E+00 
    1.2499999999981980E-01     6.2500000000211733E-02     0.0000000000000000E+00 
    1.2499999999986650E-01     1.2500000000042691E-01     0.0000000000000000E+00 
    1.2499999999991319E-01     1.8750000000063199E-01     0.0000000000000000E+00 
    1.2499999999995989E-01     2.5000000000083678E-01     0.0000000000000000E+00 
    1.2500000000000661E-01     3.1250000000104172E-01     0.0000000000000000E+00 
    1.2500000000005329E-01     3.7500000000124661E-01     0.0000000000000000E+00 
    1.2500000000010000E-01     4.3750000000145117E-01     0.0000000000000000E+00 
    1.2500000000014669E-01     5.0000000000163858E-01     0.0000000000000000E+00 
    1.2500000000019340E-01     5.6250000000129741E-01     0.0000000000000000E+00 
    1.2500000000024011E-01     6.2500000000093847E-01     0.0000000000000000E+00 
    1.2500000000028680E-01     6.8750000000057998E-01     0.0000000000000000E+00 
    1.2500000000033351E-01     7.5000000000022127E-01     0.0000000000000000E+00 
    1.2500000000038020E-01     8.1249999999986211E-01     0.0000000000000000E+00 
    1.2500000000042691E-01     8.7499999999952238E-01     0.0000000000000000E+00 
    1.2500000000047359E-01     9.3749999999975164E-01     0.0000000000000000E+00 
    1.8749999999966760E-01     6.2500000000187531E-02     0.0000000000000000E+00 
    1.8749999999974179E-01     1.2500000000038020E-01     0.0000000000000000E+00 
    1.8749999999981601E-01     1.8750000000055780E-01     0.0000000000000000E+00 
    1.8749999999989009E-01     2.5000000000073502E-01     0.0000000000000000E+00 
    1.8749999999996431E-01     3.1250000000091221E-01     0.0000000000000000E+00 
    1.8750000000003850E-01     3.7500000000108941E-01     0.0000000000000000E+00 
    1.8750000000011269E-01     4.3750000000126649E-01     0.0000000000000000E+00 
    1.8750000000018691E-01     5.0000000000142808E-01     0.0000000000000000E+00 
    1.8750000000026110E-01     5.6250000000112244E-01     0.0000000000000000E+00 
    1.8750000000033529E-01     6.2500000000080080E-01     0.0000000000000000E+00 
    1.8750000000040951E-01     6.8750000000047962E-01     0.0000000000000000E+00 
    1.8750000000048361E-01     7.5000000000015843E-01     0.0000000000000000E+00 
    1.8750000000055780E-01     8.1249999999983680E-01     0.0000000000000000E+00 
    1.8750000000063199E-01     8.7499999999953304E-01     0.0000000000000000E+00 
    1.8750000000070621E-01     9.3749999999975764E-01     0.0000000000000000E+00 
    2.4999999999951281E-01     6.2500000000163314E-02     0.0000000000000000E+00 
    2.4999999999961461E-01     1.2500000000033351E-01     0.0000000000000000E+00 
    2.4999999999971650E-01     1.8750000000048361E-01     0.0000000000000000E+00 
    2.4999999999981831E-01     2.5000000000063310E-01     0.0000000000000000E+00 
    2.4999999999992020E-01     3.1250000000078260E-01     0.0000000000000000E+00 
    2.5000000000002198E-01     3.7500000000093209E-01     0.0000000000000000E+00 
    2.5000000000012390E-01     4.3750000000108180E-01     0.0000000000000000E+00 
    2.5000000000022571E-01     5.0000000000121769E-01     0.0000000000000000E+00 
    2.5000000000032763E-01     5.6250000000094724E-01     0.0000000000000000E+00 
    2.5000000000042938E-01     6.2500000000066314E-01     0.0000000000000000E+00 
    2.5000000000053119E-01     6.8750000000037925E-01     0.0000000000000000E+00 
[...]
CELL_DATA 256 
SCALARS Pressure double 1 
LOOKUP_TABLE default 

    9.4036401863613117E-01 
    8.8715048835040566E-01 
    8.5018083820556922E-01 
    8.1454912328912876E-01 
    7.7692836036959745E-01 
    7.3665863464856562E-01 
    6.9383371063658217E-01 
    6.4893724238908834E-01 
    6.0256888594228741E-01 
    5.5540628015937554E-01 
    5.0809964315791201E-01 
    4.6024871858626143E-01 
    4.0749666629461184E-01 
    3.6148877060063567E-01 
    3.3506003450192018E-01 
    3.2443715403349005E-01 
    9.2644563395858792E-01 
    8.8877374738698689E-01 
    8.5305364162649922E-01 
    8.1778090102730661E-01 
    7.8050488425911702E-01 
    7.4056250037326665E-01 
    6.9800018727510693E-01 
    6.5327847951718077E-01 
    6.0698777468350384E-01 
    5.5979371620495821E-01 
    5.1236286728314584E-01 
    4.6441286897454120E-01 
    4.1122837259375405E-01 
    3.6367048019495629E-01 
    3.3556160059145723E-01 
    3.2398809867570288E-01 
    9.1569602126881056E-01 
    8.8813403292864623E-01 
    8.5505083358315059E-01 
    8.2054359480482097E-01 
    7.8374225788682339E-01 
    7.4419486637214960E-01 
    7.0193809312460709E-01 
    6.5740797772683601E-01 
    6.1117680620429293E-01 
    5.6388156941068890E-01 
    5.1617260135847076E-01 
    4.6783010660650048E-01 
    4.1385010760540597E-01 
    3.6453688089814001E-01 
    3.3469026108074845E-01 
    3.2233972106883441E-01 
    9.0704940283600466E-01 
    8.8625415284631226E-01 
    8.5620140915596687E-01 
    8.2283293218450404E-01 
    7.8665251043121553E-01 
    7.4756311357465610E-01 
    7.0565283543523627E-01 
    6.6133979890541983E-01 
    6.1516452437859825E-01 
    5.6771631999369065E-01 
    5.1959642030397823E-01 
    4.7059674434601378E-01 
    4.1548417298104295E-01 
    3.6414133742171489E-01 
    3.3235177231171270E-01 
    3.1926282565905045E-01 
    8.9985186204441769E-01 
    8.8369762418679332E-01 
    8.5662726091268393E-01 
    8.2466575740985959E-01 
    7.8925752098895396E-01 
    7.5069304609995036E-01 
    7.0916718457236738E-01 
    6.6509761230768216E-01 
    6.1898413465536939E-01 
    5.7135065647221572E-01 
    5.2271427075820587E-01 
    4.7282047218575352E-01 
    4.1625049508552958E-01 
    3.6254753056122241E-01 
    3.2845596329442800E-01 
    3.1452219979733698E-01 
    8.9378920984975618E-01 
    8.8084845473470397E-01 
    8.5649800836280865E-01 
    8.2609100104620448E-01 
    7.9158920505655972E-01 
    7.5362073521814699E-01 
    7.1251583867771906E-01 
    6.6871171427264753E-01 
    6.2266924024810033E-01 
    5.7483458546970045E-01 
    5.2560518730857375E-01 
    4.7460426603082528E-01 
    4.1626024582657994E-01 
    3.5983246934901880E-01 
    3.2291900457096046E-01 
    3.0785778475523445E-01 
    8.8865989953362501E-01 
    8.7796666815609115E-01 
    8.5599595047206012E-01 
    8.2718436495631353E-01 
    7.9368685601594779E-01 
    7.5638345987142563E-01 
    7.1573519962896881E-01 
    6.7221697935189684E-01 
    6.2625864535518971E-01 
    5.7821946035397764E-01 
    5.2834847107758265E-01 
    4.7603350212841383E-01 
    4.1561552703672772E-01 
    3.5610275118206280E-01 
    3.1567253021079039E-01 
    2.9897391990285671E-01 
    8.8432189849511511E-01 
    8.7521957120985816E-01 
    8.5528346275523071E-01 
    8.2803104927656257E-01 
    7.9559676408596447E-01 
    7.5901731185262344E-01 
    7.1886152605664733E-01 
    6.7565235308205729E-01 
    6.2979595045455583E-01 
    5.8156182832954628E-01 
    5.3102856480738136E-01 
    4.7717157905394864E-01 
    4.1442771783653054E-01 
    3.5153366240290324E-01 
    3.0667576094179749E-01 
    2.8751393301625727E-01 
    8.8067169122773847E-01 
    8.7271110770870552E-01 
    8.5449672652472175E-01 
    8.2872090932084230E-01 
    7.9737109226307445E-01 
    7.6155832197928552E-01 
    7.2192898391670235E-01 
    6.7905837194433027E-01 
    6.3332816082204513E-01 
    5.8491590222397172E-01 
    5.3371844645530564E-01 
    4.7804781344418196E-01 
    4.1284592420425575E-01 
    3.4642160909741682E-01 
    2.9594142971943876E-01 
    2.7303357576195292E-01 
    8.7764207167906505E-01 
    8.7051407104692280E-01 
    8.5375174703425294E-01 
    8.2934477871453804E-01 
    7.9906979373153675E-01 
    7.6404845693777934E-01 
    7.2497220728020628E-01 
    6.8247149831201759E-01 
    6.3689314735010627E-01 
    5.8830656400880632E-01 
    5.3636716708869714E-01 
    4.7867374407991142E-01 
    4.1122304285137851E-01 
    3.4125834913078357E-01 
    2.8357840969586190E-01 
    2.5495716074068214E-01 
    8.7520370654879065E-01 
    8.6869715572602968E-01 
    8.5315659729972959E-01 
    8.2999513710022765E-01 
    8.0076225193208828E-01 
    7.6653862954162622E-01 
    7.2801706509391617E-01 
    6.8590091070141257E-01 
    6.4047582347082610E-01 
    5.9160254123167189E-01 
    5.3870029960420174E-01 
    4.7917580639065882E-01 
    4.1018922987398132E-01 
    3.3660110330570997E-01 
    2.6985593905660954E-01 
    2.3252283269211804E-01 
    8.7332323489645602E-01 
    8.6730781958670577E-01 
    8.5279749806883220E-01 
    8.3075061159733077E-01 
    8.0250554948698372E-01 
    7.6904603493401591E-01 
    7.3099562226592785E-01 
    6.8916289533999719E-01 
    6.4383782895720842E-01 
    5.9461464868665259E-01 
    5.4087264096410381E-01 
    4.8038216553384699E-01 
    4.1045439525767946E-01 
    3.3287749754421964E-01 
    2.5529602157739573E-01 
    2.0469418389280558E-01 
    8.7177791227351109E-01 
    8.6622958179073328E-01 
    8.5263161792307729E-01 
    8.3155520683217521E-01 
    8.0416028079335844E-01 
    7.7137548450536286E-01 
    7.3375191387175176E-01 
    6.9215960817589084E-01 
    6.4700958134172237E-01 
    5.9776674928066187E-01 
    5.4372783253508150E-01 
    4.8291444918212539E-01 
    4.1226809620150329E-01 
    3.3070179998777860E-01 
    2.4087523975903813E-01 
    1.7003481992958674E-01 
    8.7047589565664418E-01 
    8.6527427959334358E-01 
    8.5248457386267174E-01 
    8.3230263069712263E-01 
    8.0568587066785935E-01 
    7.7355714772130524E-01 
    7.3650733624271614E-01 
    6.9533022096268249E-01 
    6.5048934703632555E-01 
    6.0149945602535904E-01 
    5.4751495533404781E-01 
    4.8660914505622538E-01 
    4.1556815206439979E-01 
    3.3094484351192704E-01 
    2.2837451057812677E-01 
    1.2652041667085623E-01 
    8.6972295468759442E-01 
    8.6481189637767764E-01 
    8.5271732859426652E-01 
    8.3336011369960006E-01 
    8.0751054213641671E-01 
    7.7605035919163046E-01 
    7.3961870910134297E-01 
    6.9891777291048929E-01 
    6.5439922414235863E-01 
    6.0570496739217483E-01 
    5.5197080550370836E-01 
    4.9131166216272715E-01 
    4.2044909546992093E-01 
    3.3438078385992986E-01 
    2.2093116181015771E-01 
    7.1251999859362439E-02 
    8.6952005377880937E-01 
    8.6500787136258173E-01 
    8.5360514875242999E-01 
    8.3499731176173497E-01 
    8.0983411726570576E-01 
    7.7896670500170517E-01 
    7.4306224196775328E-01 
    7.0280839263135397E-01 
    6.5866272722742736E-01 
    6.1035076281222045E-01 
    5.5704477014769205E-01 
    4.9694008863307204E-01 
    4.2683607177878513E-01 
    3.4133154391796627E-01 
    2.2396098408690307E-01 
    0.0000000000000000E+00 

SCALARS Saturarion double 1 
LOOKUP_TABLE default 

    1.0000000000000373E+00 
    9.5869905364407371E-01 
    8.9074155348544193E-01 
    8.0867323128409618E-01 
    7.4061111602860041E-01 
    6.8735493383481838E-01 
    6.4491177092973484E-01 
    6.0873771189370585E-01 
    5.7590192756303749E-01 
    5.4498708955910025E-01 
    5.1241058121949301E-01 
    4.5529602409520475E-01 
    2.1300750845135238E-01 
    1.0739822714669218E-04 
    1.0000000001292320E-06 
    9.9999999999999995E-07 
    9.8218466860884845E-01 
    9.4320163785215572E-01 
    8.7219606796787985E-01 
    7.9852302660744268E-01 
    7.3569994867591537E-01 
    6.8371351396580426E-01 
    6.4116300294367889E-01 
    6.0517790919740178E-01 
    5.7315187649223998E-01 
    5.4307526367949088E-01 
    5.1123115647790029E-01 
    4.5566990583109984E-01 
    2.2369784816437291E-01 
    2.4621675884187752E-04 
    1.0000304422451149E-06 
    1.0000000000010289E-06 
    9.5406078766334579E-01 
    9.1748099712073594E-01 
    8.4781916908471122E-01 
    7.8111505123363290E-01 
    7.2508218117734557E-01 
    6.7580956509057533E-01 
    6.3373524180972296E-01 
    5.9826264447770605E-01 
    5.6760651023589670E-01 
    5.3908114454831502E-01 
    5.0876401658593973E-01 
    4.5613976275625950E-01 
    2.3533841678850900E-01 
    5.1637195632069132E-04 
    1.0002910916958938E-06 
    1.0000000000129373E-06 
    9.0552820792696365E-01 
    8.7745007897708960E-01 
    8.1750332197227127E-01 
    7.5689420442790600E-01 
    7.0708051675936046E-01 
    6.6384963131155683E-01 
    6.2539036438757989E-01 
    5.9204423147002716E-01 
    5.6266056040912527E-01 
    5.3548499291388063E-01 
    5.0696003274403201E-01 
    4.5736953565060007E-01 
    2.5256303429436050E-01 
    1.2531716528881591E-03 
    1.0048479311051742E-06 
    1.0000000002955971E-06 
    8.5537504584354795E-01 
    8.3177130810609934E-01 
    7.8157036211616804E-01 
    7.2923842412393935E-01 
    6.8492240890740363E-01 
    6.4725171724559338E-01 
    6.1408504820474452E-01 
    5.8421461495036131E-01 
    5.5694746139516349E-01 
    5.3116848238361170E-01 
    5.0406736018034470E-01 
    4.5806655211153247E-01 
    2.7114349132898530E-01 
    2.5485219192746436E-03 
    1.0112133456723874E-06 
    1.0000000003464930E-06 
    8.0506230340710994E-01 
    7.8670748004806423E-01 
    7.4628906181148857E-01 
    7.0145468267180855E-01 
    6.6164575284669069E-01 
    6.2808886777509731E-01 
    5.9893465028537929E-01 
    5.7256491714881252E-01 
    5.4796819493475468E-01 
    5.2435552869067648E-01 
    4.9871588797983796E-01 
    4.5580872370962555E-01 
    2.8036637281888965E-01 
    3.5454534118235983E-03 
    1.0012879909730817E-06 
    1.0000000001895829E-06 
    7.5513957706276924E-01 
    7.4253355487066164E-01 
    7.1114100058830187E-01 
    6.7285253169346648E-01 
    6.3759791660056009E-01 
    6.0762715529145650E-01 
    5.8196294406097737E-01 
    5.5867975097944034E-01 
    5.3673817843381799E-01 
    5.1535561591066792E-01 
    4.9177034979449724E-01 
    4.5028102581210466E-01 
    2.7533588602212061E-01 
    3.3595202481895158E-03 
    1.0503837103741918E-06 
    1.0000000023489818E-06 
    7.0526519855854275E-01 
    6.9816760139672496E-01 
    6.7546494577091221E-01 
    6.4400729201526685E-01 
    6.1295998347372971E-01 
    5.8568094082545641E-01 
    5.6230209465556402E-01 
    5.4230604674117455E-01 
    5.2380669489616316E-01 
    5.0480566149309758E-01 
    4.8289921539131686E-01 
    4.4178129782016895E-01 
    2.5273969009980213E-01 
    1.8407358304687921E-03 
    1.0436903179327446E-06 
    1.0000000049304782E-06 
    6.5550599225371775E-01 
    6.5302863655078236E-01 
    6.3801605283783258E-01 
    6.1380695912312888E-01 
    5.8757867655656537E-01 
    5.6270881387367566E-01 
    5.4139306391811859E-01 
    5.2384675435832462E-01 
    5.0822932500139273E-01 
    4.9188734011769175E-01 
    4.7080425968796114E-01 
    4.2427486093499722E-01 
    2.0346175562334382E-01 
    5.9944891771771978E-04 
    1.0129496205743234E-06 
    1.0000000020781017E-06 
    6.0690569837645481E-01 
    6.0816093442765329E-01 
    5.9986265761002122E-01 
    5.8206791344108610E-01 
    5.6087540375760780E-01 
    5.3963239454708567E-01 
    5.2062228885087158E-01 
    5.0424646992945799E-01 
    4.8923035829094774E-01 
    4.7208085948935796E-01 
    4.4552862638545693E-01 
    3.6877936662701810E-01 
    9.6786031585566770E-02 
    1.7973201651734402E-04 
    1.0089402396782789E-06 
    1.0000000000000057E-06 
    5.6235326740545699E-01 
    5.6611214969077128E-01 
    5.6277544302366722E-01 
    5.4955189936288340E-01 
    5.3311860663119359E-01 
    5.1643060737223334E-01 
    4.9876575385857058E-01 
    4.7941274078439644E-01 
    4.5905942121646442E-01 
    4.2883462998151928E-01 
    3.5655257114965838E-01 
    1.6986930641648534E-01 
    4.3500568738992530E-03 
    1.4756294516890470E-06 
    1.0000000854272955E-06 
    1.0000000000000052E-06 
    5.1585517626916888E-01 
    5.2277449594621628E-01 
    5.2254188670785962E-01 
    5.1318900442966331E-01 
    4.9968183634730906E-01 
    4.8131330733357391E-01 
    4.5128244773303433E-01 
    4.0140352847710076E-01 
    3.0758456881500129E-01 
    1.8587511079250696E-01 
    6.8124671549449678E-02 
    1.9423086328086737E-03 
    1.7782575653650342E-06 
    1.0000004265110377E-06 
    1.0000000000000878E-06 
    9.9999999999999995E-07 
    3.9135028260883375E-01 
    4.2603384986478926E-01 
    4.4310715533583217E-01 
    4.3379877703663444E-01 
    3.9919842883639761E-01 
    3.1221880212126424E-01 
    1.8045924015824508E-01 
    6.3121635893910774E-02 
    9.9797946960789898E-03 
    3.9497781050403343E-04 
    8.8384472483728465E-05 
    1.0542205296686373E-06 
    1.0000000661241509E-06 
    1.0000000000001340E-06 
    9.9999999999999995E-07 
    9.9999999999999995E-07 
    3.4917985521157636E-02 
    1.0557391958440199E-01 
    1.3116083561116731E-01 
    1.0388580918941706E-01 
    5.6750675322643732E-02 
    1.0628604583809178E-02 
    1.4387970755304431E-04 
    2.8612321848808872E-05 
    2.2154509924450522E-06 
    1.0083413042297755E-06 
    1.0005917172085536E-06 
    1.0000000056100421E-06 
    1.0000000000000160E-06 
    9.9999999999999995E-07 
    9.9999999999999995E-07 
    9.9999999999999995E-07 
    1.0005472351113195E-06 
    6.4722041584178736E-05 
    2.3472822496293944E-06 
    2.4824906652164459E-05 
    2.2280617158525219E-05 
    2.9474713837384156E-06 
    1.0003941611733515E-06 
    1.0000423825065159E-06 
    1.0000001301924927E-06 
    1.0000000002022428E-06 
    1.0000000000000006E-06 
    1.0000000000000006E-06 
    9.9999999999999995E-07 
    9.9999999999999995E-07 
    9.9999999999999995E-07 
    9.9999999999999995E-07 
    1.0000000000752086E-06 
    1.0001555001318145E-06 
    1.0000003865838847E-06 
    1.0000256930493326E-06 
    1.0000267230079886E-06 
    1.0000001741116056E-06 
    1.0000000000122123E-06 
    9.9999999999999995E-07 
    9.9999999999999995E-07 
    9.9999999999999995E-07 
    9.9999999999999995E-07 
    9.9999999999999995E-07 
    9.9999999999999995E-07 
    9.9999999999999995E-07 
    9.9999999999999995E-07 
    1.0000004403383254E-06 
