# vtk DataFile Version 2.0
Pressure Field Data 
ASCII 
DATASET UNSTRUCTURED_GRID 

POINTS 289 double 

    0.0000000000000000E+00     0.0000000000000000E+00     0.0000000000000000E+00 
    1.0000000000000000E+00     0.0000000000000000E+00     0.0000000000000000E+00 
    1.0000000000000000E+00     1.0000000000000000E+00     0.0000000000000000E+00 
    0.0000000000000000E+00     1.0000000000000000E+00     0.0000000000000000E+00 
    6.2499999999872928E-02     0.0000000000000000E+00     0.0000000000000000E+00 
    1.2499999999977310E-01     0.0000000000000000E+00     0.0000000000000000E+00 
    1.8749999999959341E-01     0.0000000000000000E+00     0.0000000000000000E+00 
    2.4999999999941089E-01     0.0000000000000000E+00     0.0000000000000000E+00 
    3.1249999999922851E-01     0.0000000000000000E+00     0.0000000000000000E+00 
    3.7499999999904610E-01     0.0000000000000000E+00     0.0000000000000000E+00 
    4.3749999999886358E-01     0.0000000000000000E+00     0.0000000000000000E+00 
    4.9999999999869210E-01     0.0000000000000000E+00     0.0000000000000000E+00 
    5.6249999999884603E-01     0.0000000000000000E+00     0.0000000000000000E+00 
    6.2499999999901090E-01     0.0000000000000000E+00     0.0000000000000000E+00 
    6.8749999999917577E-01     0.0000000000000000E+00     0.0000000000000000E+00 
    7.4999999999934064E-01     0.0000000000000000E+00     0.0000000000000000E+00 
    8.1249999999950551E-01     0.0000000000000000E+00     0.0000000000000000E+00 
    8.7499999999967026E-01     0.0000000000000000E+00     0.0000000000000000E+00 
    9.3749999999983513E-01     0.0000000000000000E+00     0.0000000000000000E+00 
    1.0000000000000000E+00     6.2499999999872928E-02     0.0000000000000000E+00 
    1.0000000000000000E+00     1.2499999999977310E-01     0.0000000000000000E+00 
    1.0000000000000000E+00     1.8749999999959341E-01     0.0000000000000000E+00 
    1.0000000000000000E+00     2.4999999999941089E-01     0.0000000000000000E+00 
    1.0000000000000000E+00     3.1249999999922851E-01     0.0000000000000000E+00 
    1.0000000000000000E+00     3.7499999999904610E-01     0.0000000000000000E+00 
    1.0000000000000000E+00     4.3749999999886358E-01     0.0000000000000000E+00 
    1.0000000000000000E+00     4.9999999999869210E-01     0.0000000000000000E+00 
    1.0000000000000000E+00     5.6249999999884603E-01     0.0000000000000000E+00 
    1.0000000000000000E+00     6.2499999999901090E-01     0.0000000000000000E+00 
    1.0000000000000000E+00     6.8749999999917577E-01     0.0000000000000000E+00 
    1.0000000000000000E+00     7.4999999999934064E-01     0.0000000000000000E+00 
    1.0000000000000000E+00     8.1249999999950551E-01     0.0000000000000000E+00 
    1.0000000000000000E+00     8.7499999999967026E-01     0.0000000000000000E+00 
    1.0000000000000000E+00     9.3749999999983513E-01     0.0000000000000000E+00 
    9.3749999999973976E-01     1.0000000000000000E+00     0.0000000000000000E+00 
    8.7499999999950118E-01     1.0000000000000000E+00     0.0000000000000000E+00 
    8.1249999999991318E-01     1.0000000000000000E+00     0.0000000000000000E+00 
    7.5000000000034706E-01     1.0000000000000000E+00     0.0000000000000000E+00 
    6.8750000000078049E-01     1.0000000000000000E+00     0.0000000000000000E+00 
    6.2500000000121403E-01     1.0000000000000000E+00     0.0000000000000000E+00 
    5.6250000000164757E-01     1.0000000000000000E+00     0.0000000000000000E+00 
    5.0000000000205946E-01     1.0000000000000000E+00     0.0000000000000000E+00 
    4.3750000000182099E-01     1.0000000000000000E+00     0.0000000000000000E+00 
    3.7500000000156092E-01     1.0000000000000000E+00     0.0000000000000000E+00 
    3.1250000000130068E-01     1.0000000000000000E+00     0.0000000000000000E+00 
    2.5000000000104050E-01     1.0000000000000000E+00     0.0000000000000000E+00 
    1.8750000000078040E-01     1.0000000000000000E+00     0.0000000000000000E+00 
    1.2500000000052031E-01     1.0000000000000000E+00     0.0000000000000000E+00 
    6.2500000000260125E-02     1.0000000000000000E+00     0.0000000000000000E+00 
    0.0000000000000000E+00     9.3749999999973976E-01     0.0000000000000000E+00 
    0.0000000000000000E+00     8.7499999999950118E-01     0.0000000000000000E+00 
    0.0000000000000000E+00     8.1249999999991318E-01     0.0000000000000000E+00 
    0.0000000000000000E+00     7.5000000000034706E-01     0.0000000000000000E+00 
    0.0000000000000000E+00     6.8750000000078049E-01     0.0000000000000000E+00 
    0.0000000000000000E+00     6.2500000000121403E-01     0.0000000000000000E+00 
    0.0000000000000000E+00     5.6250000000164757E-01     0.0000000000000000E+00 
    0.0000000000000000E+00     5.0000000000205946E-01     0.0000000000000000E+00 
    0.0000000000000000E+00     4.3750000000182099E-01     0.0000000000000000E+00 
    0.0000000000000000E+00     3.7500000000156092E-01     0.0000000000000000E+00 
    0.0000000000000000E+00     3.1250000000130068E-01     0.0000000000000000E+00 
    0.0000000000000000E+00     2.5000000000104050E-01     0.0000000000000000E+00 
    0.0000000000000000E+00     1.8750000000078040E-01     0.0000000000000000E+00 
    0.0000000000000000E+00     1.2500000000052031E-01     0.0000000000000000E+00 
    0.0000000000000000E+00     6.2500000000260125E-02     0.0000000000000000E+00 
    6.2499999999897131E-02     6.2500000000235922E-02     0.0000000000000000E+00 
    6.2499999999921327E-02     1.2500000000047351E-01     0.0000000000000000E+00 
    6.2499999999945530E-02     1.8750000000070621E-01     0.0000000000000000E+00 
    6.2499999999969733E-02     2.5000000000093858E-01     0.0000000000000000E+00 
    6.2499999999993928E-02     3.1250000000117117E-01     0.0000000000000000E+00 
    6.2500000000018124E-02     3.7500000000140382E-01     0.0000000000000000E+00 
    6.2500000000042327E-02     4.3750000000163619E-01     0.0000000000000000E+00 
    6.2500000000066530E-02     5.0000000000184897E-01     0.0000000000000000E+00 
    6.2500000000090733E-02     5.6250000000147260E-01     0.0000000000000000E+00 
    6.2500000000114922E-02     6.2500000000107636E-01     0.0000000000000000E+00 
    6.2500000000139125E-02     6.8750000000068034E-01     0.0000000000000000E+00 
    6.2500000000163328E-02     7.5000000000028411E-01     0.0000000000000000E+00 
    6.2500000000187531E-02     8.1249999999988787E-01     0.0000000000000000E+00 
    6.2500000000211720E-02     8.7499999999951172E-01     0.0000000000000000E+00 
    6.2500000000235922E-02     9.3749999999974565E-01     0.0000000000000000E+00 
    1.2499999999981980E-01     6.2500000000211733E-02     0.0000000000000000E+00 
    1.2499999999986650E-01     1.2500000000042691E-01     0.0000000000000000E+00 
    1.2499999999991319E-01     1.8750000000063199E-01     0.0000000000000000E+00 
    1.2499999999995989E-01     2.5000000000083678E-01     0.0000000000000000E+00 
    1.2500000000000661E-01     3.1250000000104172E-01     0.0000000000000000E+00 
    1.2500000000005329E-01     3.7500000000124661E-01     0.0000000000000000E+00 
    1.2500000000010000E-01     4.3750000000145117E-01     0.0000000000000000E+00 
    1.2500000000014669E-01     5.0000000000163858E-01     0.0000000000000000E+00 
    1.2500000000019340E-01     5.6250000000129741E-01     0.0000000000000000E+00 
    1.2500000000024011E-01     6.2500000000093847E-01     0.0000000000000000E+00 
    1.2500000000028680E-01     6.8750000000057998E-01     0.0000000000000000E+00 
    1.2500000000033351E-01     7.5000000000022127E-01     0.0000000000000000E+00 
    1.2500000000038020E-01     8.1249999999986211E-01     0.0000000000000000E+00 
    1.2500000000042691E-01     8.7499999999952238E-01     0.0000000000000000E+00 
    1.2500000000047359E-01     9.3749999999975164E-01     0.0000000000000000E+00 
    1.8749999999966760E-01     6.2500000000187531E-02     0.0000000000000000E+00 
    1.8749999999974179E-01     1.2500000000038020E-01     0.0000000000000000E+00 
    1.8749999999981601E-01     1.8750000000055780E-01     0.0000000000000000E+00 
    1.8749999999989009E-01     2.5000000000073502E-01     0.0000000000000000E+00 
    1.8749999999996431E-01     3.1250000000091221E-01     0.0000000000000000E+00 
    1.8750000000003850E-01     3.7500000000108941E-01     0.0000000000000000E+00 
    1.8750000000011269E-01     4.3750000000126649E-01     0.0000000000000000E+00 
    1.8750000000018691E-01     5.0000000000142808E-01     0.0000000000000000E+00 
    1.8750000000026110E-01     5.6250000000112244E-01     0.0000000000000000E+00 
    1.8750000000033529E-01     6.2500000000080080E-01     0.0000000000000000E+00 
    1.8750000000040951E-01     6.8750000000047962E-01     0.0000000000000000E+00 
    1.8750000000048361E-01     7.5000000000015843E-01     0.0000000000000000E+00 
    1.8750000000055780E-01     8.1249999999983680E-01     0.0000000000000000E+00 
    1.8750000000063199E-01     8.7499999999953304E-01     0.0000000000000000E+00 
    1.8750000000070621E-01     9.3749999999975764E-01     0.0000000000000000E+00 
    2.4999999999951281E-01     6.2500000000163314E-02     0.0000000000000000E+00 
    2.4999999999961461E-01     1.2500000000033351E-01     0.0000000000000000E+00 
    2.4999999999971650E-01     1.8750000000048361E-01     0.0000000000000000E+00 
    2.4999999999981831E-01     2.5000000000063310E-01     0.0000000000000000E+00 
    2.4999999999992020E-01     3.1250000000078260E-01     0.0000000000000000E+00 
    2.5000000000002198E-01     3.7500000000093209E-01     0.0000000000000000E+00 
    2.5000000000012390E-01     4.3750000000108180E-01     0.0000000000000000E+00 
    2.5000000000022571E-01     5.0000000000121769E-01     0.0000000000000000E+00 
    2.5000000000032763E-01     5.6250000000094724E-01     0.0000000000000000E+00 
    2.5000000000042938E-01     6.2500000000066314E-01     0.0000000000000000E+00 
    2.5000000000053119E-01     6.8750000000037925E-01     0.0000000000000000E+00 
[...]
CELL_DATA 256 
SCALARS Pressure double 1 
LOOKUP_TABLE default 

    1.0695180038603174E+00 
    1.0126531625725055E+00 
    9.7045915090527768E-01 
    9.2806090921657436E-01 
    8.8218196071390209E-01 
    8.3267041845330181E-01 
    7.7907544812168295E-01 
    7.1808264248480724E-01 
    6.4463295877066540E-01 
    5.7104698607451321E-01 
    5.0698497827910149E-01 
    4.4810272252111572E-01 
    3.9684028388796805E-01 
    3.5672619635651798E-01 
    3.3113046980346356E-01 
    3.2076940703468004E-01 
    1.0555973960269072E+00 
    1.0145748872326501E+00 
    9.7373826071539471E-01 
    9.3182873909012010E-01 
    8.8647314335709315E-01 
    8.3743514939541563E-01 
    7.8437232284720892E-01 
    7.2400394826159709E-01 
    6.5119467033848544E-01 
    5.7750905333793334E-01 
    5.1269897977181322E-01 
    4.5294643222410302E-01 
    4.0045050920942882E-01 
    3.5877808743170597E-01 
    3.3162729446409572E-01 
    3.2033717317792704E-01 
    1.0446242486819839E+00 
    1.0140252013776618E+00 
    9.7594011614375509E-01 
    9.3490830556270133E-01 
    8.9023657567781755E-01 
    8.4176961860167909E-01 
    7.8922988402100258E-01 
    7.2920998861414488E-01 
    6.5698002427157021E-01 
    5.8360341177649300E-01 
    5.1805295452987177E-01 
    4.5724127241000978E-01 
    4.0323425417466591E-01 
    3.5969716654355038E-01 
    3.3081496553105710E-01 
    3.1874470508589159E-01 
    1.0354121108781285E+00 
    1.0119612657828296E+00 
    9.7708219296287002E-01 
    9.3731941964087551E-01 
    8.9348317979909442E-01 
    8.4568418493331154E-01 
    7.9367914931058714E-01 
    7.3376951945816371E-01 
    6.6207811336515698E-01 
    5.8935704469539363E-01 
    5.2309615755572536E-01 
    4.6107895175764768E-01 
    4.0528777138388045E-01 
    3.5952560006003836E-01 
    3.2861360986237353E-01 
    3.1577020043935483E-01 
    1.0273530725864293E+00 
    1.0089306842268870E+00 
    9.7729234502575890E-01 
    9.3912251954706083E-01 
    8.9626992165856911E-01 
    8.4921561920364441E-01 
    7.9775067202105998E-01 
    7.3774264798205735E-01 
    6.6657238351746695E-01 
    5.9481332170158308E-01 
    5.2788911871673849E-01 
    4.6455962721532523E-01 
    4.0672168067706449E-01 
    3.5831827613160971E-01 
    3.2493971944401495E-01 
    3.1118372522518134E-01 
    1.0202844230992782E+00 
    1.0054172467725195E+00 
    9.7680264202543865E-01 
    9.4042074217887117E-01 
    8.9867697591667506E-01 
    8.5240764982578521E-01 
    8.0141305775369442E-01 
    7.4116399443856773E-01 
    6.7059312810583116E-01 
    6.0001308493672190E-01 
    5.3250105201004228E-01 
    4.6779393226342697E-01 
    4.0766662849376895E-01 
    3.5615295344977471E-01 
    3.1971039714802812E-01 
    3.0472724864641587E-01 
    1.0141000432285554E+00 
    1.0017646698546570E+00 
    9.7584731320240614E-01 
    9.4132492543455859E-01 
    9.0078003369817883E-01 
    8.5530701772959317E-01 
    8.0455119499874128E-01 
    7.4403796709719561E-01 
    6.7437796640835068E-01 
    6.0499425209597402E-01 
    5.3700864907720147E-01 
    4.7090321459410805E-01 
    4.0827879382591542E-01 
    3.5314370225085201E-01 
    3.1285305068476271E-01 
    2.9610385939062772E-01 
    1.0087357386406477E+00 
    9.9822059053351420E-01 
    9.7464303745957770E-01 
    9.4195206763317874E-01 
    9.0265205507846635E-01 
    8.5794116150721822E-01 
    8.0705821066053796E-01 
    7.4642889638412169E-01 
    6.7823030732666512E-01 
    6.0982774479896851E-01 
    5.4149371334487317E-01 
    4.7401878359309807E-01 
    4.0874358900096897E-01 
    3.4945471777647774E-01 
    3.0431623225454996E-01 
    2.8495176198661692E-01 
    1.0041735747065357E+00 
    9.9497754513128944E-01 
    9.7338572908377419E-01 
    9.4242368043649583E-01 
    9.0434757658558496E-01 
    8.6018591016125967E-01 
    8.0892744261042138E-01 
    7.4864223995563428E-01 
    6.8232741353507953E-01 
    6.1462349057744325E-01 
    5.4604335016169370E-01 
    4.7727837626441999E-01 
    4.0927804928009870E-01 
    3.4532027765808471E-01 
    2.9409449118827435E-01 
    2.7081770293916885E-01 
    1.0003852257403476E+00 
    9.9215935142238210E-01 
    9.7222061426711481E-01 
    9.4281410325791370E-01 
    9.0575736316459043E-01 
    8.6179677353662987E-01 
    8.1036179704489775E-01 
    7.5113451259341557E-01 
    6.8660136142398709E-01 
    6.1948032009357124E-01 
    5.5074294109179267E-01 
    4.8082043144052133E-01 
    4.1012909880541326E-01 
    3.4106648114136334E-01 
    2.8226752729118598E-01 
    2.5311278530300357E-01 
    9.9711123472502616E-01 
    9.8965605392122458E-01 
    9.7105196517844161E-01 
    9.4286113724158105E-01 
    9.0656557503296897E-01 
    8.6287027485037349E-01 
    8.1200245706764884E-01 
    7.5418458512572550E-01 
    6.9098633649051888E-01 
    6.2446546507088529E-01 
    5.5566898321491820E-01 
    4.8477529539164266E-01 
    4.1156616480745012E-01 
    3.3713562120545870E-01 
    2.6907096518487866E-01 
    2.3105923921312227E-01 
    9.9376879631324733E-01 
    9.8689361898316885E-01 
    9.6947013215828137E-01 
    9.4242927560446754E-01 
    9.0706267881161551E-01 
    8.6420222272507163E-01 
    8.1432003430623712E-01 
    7.5769981782850981E-01 
    6.9554770130306198E-01 
    6.2963172472327034E-01 
    5.6088248496541193E-01 
    4.8925430358683625E-01 
    4.1386321768592171E-01 
    3.3410251493390863E-01 
    2.5501089018746154E-01 
    2.0360406122185279E-01 
    9.9104572987526385E-01 
    9.8446964480329735E-01 
    9.6809081562242316E-01 
    9.4229850010514848E-01 
    9.0809279696797351E-01 
    8.6623936136396507E-01 
    8.1723921998321392E-01 
    7.6157971481535136E-01 
    7.0034767604574188E-01 
    6.3502310841765230E-01 
    5.6642672880188294E-01 
    4.9433751323315872E-01 
    4.1726927215593396E-01 
    3.3267420788130964E-01 
    2.4106109654835156E-01 
    1.6929530014219618E-01 
    9.8939685679027478E-01 
    9.8314856380599958E-01 
    9.6769145144567059E-01 
    9.4298270160753406E-01 
    9.0977972339545699E-01 
    8.6881562156838776E-01 
    8.2065140836324835E-01 
    7.6585413664830015E-01 
    7.0543077839640989E-01 
    6.4067391417967579E-01 
    5.7232587325973316E-01 
    5.0006336000464624E-01 
    4.2196484843741222E-01 
    3.3364070225403414E-01 
    2.2899166168773452E-01 
    1.2609283119414882E-01 
    9.8850958038833536E-01 
    9.8262797545094172E-01 
    9.6802266957563965E-01 
    9.4430786783470566E-01 
    9.1204816735563610E-01 
    8.7193687518043939E-01 
    8.2456680330152587E-01 
    7.7054673888731806E-01 
    7.1083295125177737E-01 
    6.4660939456066957E-01 
    5.7858617756045427E-01 
    5.0642339837321204E-01 
    4.2801017340944375E-01 
    3.3772127743413993E-01 
    2.2192207144974743E-01 
    7.1080295813848615E-02 
    9.8826364426867097E-01 
    9.8285654593477334E-01 
    9.6908275803892108E-01 
    9.4629307391608164E-01 
    9.1491694273253588E-01 
    8.7561745429220594E-01 
    8.2899894619654391E-01 
    7.7568078659604023E-01 
    7.1658435330659376E-01 
    6.5284752609462615E-01 
    5.8519933555432890E-01 
    5.1336632885982181E-01 
    4.3530718188585960E-01 
    3.4519501670397423E-01 
    2.2524900185556088E-01 
    0.0000000000000000E+00 

SCALARS Saturarion double 1 
LOOKUP_TABLE default 

    1.0000000000002622E+00 
    9.3776622418575750E-01 
    8.4813464999626054E-01 
    7.3770681404028904E-01 
    6.6067813274013210E-01 
    6.0305794411389047E-01 
    5.4667873249161592E-01 
    4.5766559718057093E-01 
    1.4832303403860453E-01 
    1.0000004702284052E-06 
    1.0000000000007384E-06 
    9.9999999999999995E-07 
    9.9999999999999995E-07 
    9.9999999999999995E-07 
    9.9999999999999995E-07 
    9.9999999999999995E-07 
    9.7012332017806890E-01 
    9.1267585099513759E-01 
    8.2172643402047307E-01 
    7.2832421539834602E-01 
    6.5391288795402280E-01 
    5.9671833985207412E-01 
    5.4211901324800982E-01 
    4.5121883798076007E-01 
    1.3567241709128022E-01 
    3.2300865502157913E-06 
    1.0000020568389650E-06 
    1.0000000000014048E-06 
    9.9999999999999995E-07 
    9.9999999999999995E-07 
    9.9999999999999995E-07 
    9.9999999999999995E-07 
    9.2094332509073429E-01 
    8.7342465450241868E-01 
    7.8623204144145431E-01 
    7.0960849879180699E-01 
    6.4089254587933475E-01 
    5.8557422190738084E-01 
    5.3372067371135967E-01 
    4.4176439275795487E-01 
    1.1985331233837179E-01 
    5.3235431187691871E-06 
    1.0000051344822139E-06 
    1.0000000000032206E-06 
    9.9999999999999995E-07 
    9.9999999999999995E-07 
    9.9999999999999995E-07 
    9.9999999999999995E-07 
    8.4721101074544747E-01 
    8.1118752263788541E-01 
    7.4088110577587418E-01 
    6.7994245430081068E-01 
    6.2505025512215018E-01 
    5.7650072674473440E-01 
    5.2680002875379084E-01 
    4.3278589676604601E-01 
    1.0399408652864213E-01 
    5.6283739150896412E-06 
    1.0000128701074284E-06 
    1.0000000000001823E-06 
    9.9999999999999995E-07 
    9.9999999999999995E-07 
    9.9999999999999995E-07 
    9.9999999999999995E-07 
    7.8041045577847701E-01 
    7.5240331894213530E-01 
    6.9868644165006710E-01 
    6.4870722605452502E-01 
    6.0554211121842616E-01 
    5.6398985791204659E-01 
    5.1667491521939002E-01 
    4.1466907856013469E-01 
    7.7077019584809697E-02 
    2.2009275811290194E-05 
    1.0000406626203113E-06 
    1.0000000000131182E-06 
    9.9999999999999995E-07 
    9.9999999999999995E-07 
    9.9999999999999995E-07 
    9.9999999999999995E-07 
    7.1936814180337272E-01 
    6.9971697655064746E-01 
    6.5909263166786225E-01 
    6.1813974032474850E-01 
    5.8281642516237353E-01 
    5.4742731735792294E-01 
    5.0072514543011393E-01 
    3.7329418749930354E-01 
    3.6450072023388007E-02 
    2.4871548593716959E-05 
    1.0000748834610265E-06 
    9.9999999999999995E-07 
    9.9999999999999995E-07 
    9.9999999999999995E-07 
    9.9999999999999995E-07 
    9.9999999999999995E-07 
    6.6323515883181938E-01 
    6.5104476333549133E-01 
    6.2177166418816787E-01 
    5.8803450648092237E-01 
    5.5764279688663765E-01 
    5.2736680186300899E-01 
    4.7853436893948115E-01 
    2.9085666537878674E-01 
    6.7097360647663069E-03 
    2.4905151707806437E-06 
    1.0000005340091302E-06 
    1.0000000000000004E-06 
    9.9999999999999995E-07 
    9.9999999999999995E-07 
    9.9999999999999995E-07 
    9.9999999999999995E-07 
    6.1188161734648061E-01 
    6.0632516394319824E-01 
    5.8696423925864427E-01 
    5.5912309425738305E-01 
    5.3223619522540266E-01 
    5.0363492704468860E-01 
    4.4026674245926295E-01 
    1.7349326726053807E-01 
    3.6296572392967747E-04 
    1.0260037985000768E-06 
    1.0000000016833314E-06 
    9.9999999999999995E-07 
    9.9999999999999995E-07 
    9.9999999999999995E-07 
    9.9999999999999995E-07 
    9.9999999999999995E-07 
    5.6751271868876585E-01 
    5.6642600400562271E-01 
    5.5335069972995998E-01 
    5.3136625078192690E-01 
    5.0677785865026381E-01 
    4.6932421838916655E-01 
    3.3728724788869496E-01 
    3.9214501739546548E-02 
    7.6203878656932290E-05 
    1.0006649301863407E-06 
    1.0000000000000006E-06 
    9.9999999999999995E-07 
    9.9999999999999995E-07 
    9.9999999999999995E-07 
    9.9999999999999995E-07 
    9.9999999999999995E-07 
    5.2607229440116954E-01 
    5.2696314641191222E-01 
    5.1748134092946141E-01 
    5.0013633156693160E-01 
    4.6545593556247317E-01 
    3.7265029887344031E-01 
    1.1971371922005614E-01 
    4.9891788494099676E-04 
    1.0618103841331342E-06 
    1.0000000018762525E-06 
    9.9999999999999995E-07 
    9.9999999999999995E-07 
    9.9999999999999995E-07 
    9.9999999999999995E-07 
    9.9999999999999995E-07 
    9.9999999999999995E-07 
    4.4847719372196143E-01 
    4.5749367722632167E-01 
    4.5356693261837949E-01 
    4.1553716713130856E-01 
    2.9766952528193702E-01 
    9.7640822584673090E-02 
    1.0324629669511230E-03 
    1.1318141677679683E-06 
    1.0000000326191278E-06 
    1.0000000000000042E-06 
    9.9999999999999995E-07 
    9.9999999999999995E-07 
    9.9999999999999995E-07 
    9.9999999999999995E-07 
    9.9999999999999995E-07 
    9.9999999999999995E-07 
    1.3988995068043875E-01 
    1.9514171863888199E-01 
    1.8221749353989430E-01 
    9.6869973890289660E-02 
    1.4219028980619731E-02 
    2.4531990907876905E-04 
    1.1032689641477346E-06 
    1.0000000486189919E-06 
    1.0000000000000095E-06 
    9.9999999999999995E-07 
    9.9999999999999995E-07 
    9.9999999999999995E-07 
    9.9999999999999995E-07 
    9.9999999999999995E-07 
    9.9999999999999995E-07 
    9.9999999999999995E-07 
    1.0001384732154645E-06 
    7.0499699054481419E-05 
    7.6478280275345164E-05 
    9.7104362993586656E-05 
    6.5210027815951539E-06 
    1.0072388988404944E-06 
    1.0000000086307147E-06 
    1.0000000000000055E-06 
    9.9999999999999995E-07 
    9.9999999999999995E-07 
    9.9999999999999995E-07 
    9.9999999999999995E-07 
    9.9999999999999995E-07 
    9.9999999999999995E-07 
    9.9999999999999995E-07 
    9.9999999999999995E-07 
    1.0000000000349559E-06 
    1.0001180339991303E-06 
    1.0005778331968936E-06 
    1.0008284857654180E-06 
    1.0000018075325248E-06 
    1.0000000000006486E-06 
    1.0000000000000002E-06 
    9.9999999999999995E-07 
    9.9999999999999995E-07 
    9.9999999999999995E-07 
    9.9999999999999995E-07 
    9.9999999999999995E-07 
    9.9999999999999995E-07 
    9.9999999999999995E-07 
    9.9999999999999995E-07 
    9.9999999999999995E-07 
    9.9999999999999995E-07 
    1.0000000000064658E-06 
    1.0000000001822338E-06 
    1.0000000000392070E-06 
    1.0000000000000002E-06 
    9.9999999999999995E-07 
    9.9999999999999995E-07 
    9.9999999999999995E-07 
    9.9999999999999995E-07 
    9.9999999999999995E-07 
    9.9999999999999995E-07 
    9.9999999999999995E-07 
    9.9999999999999995E-07 
    9.9999999999999995E-07 
    9.9999999999999995E-07 
    9.9999999999999995E-07 
    9.9999999999999995E-07 
    9.9999999999999995E-07 
    9.9999999999999995E-07 
    9.9999999999999995E-07 
    9.9999999999999995E-07 
    9.9999999999999995E-07 
    9.9999999999999995E-07 
    9.9999999999999995E-07 
    9.9999999999999995E-07 
    9.9999999999999995E-07 
    9.9999999999999995E-07 
    9.9999999999999995E-07 
    9.9999999999999995E-07 
    9.9999999999999995E-07 
    9.9999999999999995E-07 
    1.0000002413669669E-06 
