# vtk DataFile Version 2.0
Pressure Field Data 
ASCII 
DATASET UNSTRUCTURED_GRID 

POINTS 289 double 

    0.0000000000000000E+00     0.0000000000000000E+00     0.0000000000000000E+00 
    1.0000000000000000E+00     0.0000000000000000E+00     0.0000000000000000E+00 
    1.0000000000000000E+00     1.0000000000000000E+00     0.0000000000000000E+00 
    0.0000000000000000E+00     1.0000000000000000E+00     0.0000000000000000E+00 
    6.2499999999872928E-02     0.0000000000000000E+00     0.0000000000000000E+00 
    1.2499999999977310E-01     0.0000000000000000E+00     0.0000000000000000E+00 
    1.8749999999959341E-01     0.0000000000000000E+00     0.0000000000000000E+00 
    2.4999999999941089E-01     0.0000000000000000E+00     0.0000000000000000E+00 
    3.1249999999922851E-01     0.0000000000000000E+00     0.0000000000000000E+00 
    3.7499999999904610E-01     0.0000000000000000E+00     0.0000000000000000E+00 
    4.3749999999886358E-01     0.0000000000000000E+00     0.0000000000000000E+00 
    4.9999999999869210E-01     0.0000000000000000E+00     0.0000000000000000E+00 
    5.6249999999884603E-01     0.0000000000000000E+00     0.0000000000000000E+00 
    6.2499999999901090E-01     0.0000000000000000E+00     0.0000000000000000E+00 
    6.8749999999917577E-01     0.0000000000000000E+00     0.0000000000000000E+00 
    7.4999999999934064E-01     0.0000000000000000E+00     0.0000000000000000E+00 
    8.1249999999950551E-01     0.0000000000000000E+00     0.0000000000000000E+00 
    8.7499999999967026E-01     0.0000000000000000E+00     0.0000000000000000E+00 
    9.3749999999983513E-01     0.0000000000000000E+00     0.0000000000000000E+00 
    1.0000000000000000E+00     6.2499999999872928E-02     0.0000000000000000E+00 
    1.0000000000000000E+00     1.2499999999977310E-01     0.0000000000000000E+00 
    1.0000000000000000E+00     1.8749999999959341E-01     0.0000000000000000E+00 
    1.0000000000000000E+00     2.4999999999941089E-01     0.0000000000000000E+00 
    1.0000000000000000E+00     3.1249999999922851E-01     0.0000000000000000E+00 
    1.0000000000000000E+00     3.7499999999904610E-01     0.0000000000000000E+00 
    1.0000000000000000E+00     4.3749999999886358E-01     0.0000000000000000E+00 
    1.0000000000000000E+00     4.9999999999869210E-01     0.0000000000000000E+00 
    1.0000000000000000E+00     5.6249999999884603E-01     0.0000000000000000E+00 
    1.0000000000000000E+00     6.2499999999901090E-01     0.0000000000000000E+00 
    1.0000000000000000E+00     6.8749999999917577E-01     0.0000000000000000E+00 
    1.0000000000000000E+00     7.4999999999934064E-01     0.0000000000000000E+00 
    1.0000000000000000E+00     8.1249999999950551E-01     0.0000000000000000E+00 
    1.0000000000000000E+00     8.7499999999967026E-01     0.0000000000000000E+00 
    1.0000000000000000E+00     9.3749999999983513E-01     0.0000000000000000E+00 
    9.3749999999973976E-01     1.0000000000000000E+00     0.0000000000000000E+00 
    8.7499999999950118E-01     1.0000000000000000E+00     0.0000000000000000E+00 
    8.1249999999991318E-01     1.0000000000000000E+00     0.0000000000000000E+00 
    7.5000000000034706E-01     1.0000000000000000E+00     0.0000000000000000E+00 
    6.8750000000078049E-01     1.0000000000000000E+00     0.0000000000000000E+00 
    6.2500000000121403E-01     1.0000000000000000E+00     0.0000000000000000E+00 
    5.6250000000164757E-01     1.0000000000000000E+00     0.0000000000000000E+00 
    5.0000000000205946E-01     1.0000000000000000E+00     0.0000000000000000E+00 
    4.3750000000182099E-01     1.0000000000000000E+00     0.0000000000000000E+00 
    3.7500000000156092E-01     1.0000000000000000E+00     0.0000000000000000E+00 
    3.1250000000130068E-01     1.0000000000000000E+00     0.0000000000000000E+00 
    2.5000000000104050E-01     1.0000000000000000E+00     0.0000000000000000E+00 
    1.8750000000078040E-01     1.0000000000000000E+00     0.0000000000000000E+00 
    1.2500000000052031E-01     1.0000000000000000E+00     0.0000000000000000E+00 
    6.2500000000260125E-02     1.0000000000000000E+00     0.0000000000000000E+00 
    0.0000000000000000E+00     9.3749999999973976E-01     0.0000000000000000E+00 
    0.0000000000000000E+00     8.7499999999950118E-01     0.0000000000000000E+00 
    0.0000000000000000E+00     8.1249999999991318E-01     0.0000000000000000E+00 
    0.0000000000000000E+00     7.5000000000034706E-01     0.0000000000000000E+00 
    0.0000000000000000E+00     6.8750000000078049E-01     0.0000000000000000E+00 
    0.0000000000000000E+00     6.2500000000121403E-01     0.0000000000000000E+00 
    0.0000000000000000E+00     5.6250000000164757E-01     0.0000000000000000E+00 
    0.0000000000000000E+00     5.0000000000205946E-01     0.0000000000000000E+00 
    0.0000000000000000E+00     4.3750000000182099E-01     0.0000000000000000E+00 
    0.0000000000000000E+00     3.7500000000156092E-01     0.0000000000000000E+00 
    0.0000000000000000E+00     3.1250000000130068E-01     0.0000000000000000E+00 
    0.0000000000000000E+00     2.5000000000104050E-01     0.0000000000000000E+00 
    0.0000000000000000E+00     1.8750000000078040E-01     0.0000000000000000E+00 
    0.0000000000000000E+00     1.2500000000052031E-01     0.0000000000000000E+00 
    0.0000000000000000E+00     6.2500000000260125E-02     0.0000000000000000E+00 
    6.2499999999897131E-02     6.2500000000235922E-02     0.0000000000000000E+00 
    6.2499999999921327E-02     1.2500000000047351E-01     0.0000000000000000E+00 
    6.2499999999945530E-02     1.8750000000070621E-01     0.0000000000000000E+00 
    6.2499999999969733E-02     2.5000000000093858E-01     0.0000000000000000E+00 
    6.2499999999993928E-02     3.1250000000117117E-01     0.0000000000000000E+00 
    6.2500000000018124E-02     3.7500000000140382E-01     0.0000000000000000E+00 
    6.2500000000042327E-02     4.3750000000163619E-01     0.0000000000000000E+00 
    6.2500000000066530E-02     5.0000000000184897E-01     0.0000000000000000E+00 
    6.2500000000090733E-02     5.6250000000147260E-01     0.0000000000000000E+00 
    6.2500000000114922E-02     6.2500000000107636E-01     0.0000000000000000E+00 
    6.2500000000139125E-02     6.8750000000068034E-01     0.0000000000000000E+00 
    6.2500000000163328E-02     7.5000000000028411E-01     0.0000000000000000E+00 
    6.2500000000187531E-02     8.1249999999988787E-01     0.0000000000000000E+00 
    6.2500000000211720E-02     8.7499999999951172E-01     0.0000000000000000E+00 
    6.2500000000235922E-02     9.3749999999974565E-01     0.0000000000000000E+00 
    1.2499999999981980E-01     6.2500000000211733E-02     0.0000000000000000E+00 
    1.2499999999986650E-01     1.2500000000042691E-01     0.0000000000000000E+00 
    1.2499999999991319E-01     1.8750000000063199E-01     0.0000000000000000E+00 
    1.2499999999995989E-01     2.5000000000083678E-01     0.0000000000000000E+00 
    1.2500000000000661E-01     3.1250000000104172E-01     0.0000000000000000E+00 
    1.2500000000005329E-01     3.7500000000124661E-01     0.0000000000000000E+00 
    1.2500000000010000E-01     4.3750000000145117E-01     0.0000000000000000E+00 
    1.2500000000014669E-01     5.0000000000163858E-01     0.0000000000000000E+00 
    1.2500000000019340E-01     5.6250000000129741E-01     0.0000000000000000E+00 
    1.2500000000024011E-01     6.2500000000093847E-01     0.0000000000000000E+00 
    1.2500000000028680E-01     6.8750000000057998E-01     0.0000000000000000E+00 
    1.2500000000033351E-01     7.5000000000022127E-01     0.0000000000000000E+00 
    1.2500000000038020E-01     8.1249999999986211E-01     0.0000000000000000E+00 
    1.2500000000042691E-01     8.7499999999952238E-01     0.0000000000000000E+00 
    1.2500000000047359E-01     9.3749999999975164E-01     0.0000000000000000E+00 
    1.8749999999966760E-01     6.2500000000187531E-02     0.0000000000000000E+00 
    1.8749999999974179E-01     1.2500000000038020E-01     0.0000000000000000E+00 
    1.8749999999981601E-01     1.8750000000055780E-01     0.0000000000000000E+00 
    1.8749999999989009E-01     2.5000000000073502E-01     0.0000000000000000E+00 
    1.8749999999996431E-01     3.1250000000091221E-01     0.0000000000000000E+00 
    1.8750000000003850E-01     3.7500000000108941E-01     0.0000000000000000E+00 
    1.8750000000011269E-01     4.3750000000126649E-01     0.0000000000000000E+00 
    1.8750000000018691E-01     5.0000000000142808E-01     0.0000000000000000E+00 
    1.8750000000026110E-01     5.6250000000112244E-01     0.0000000000000000E+00 
    1.8750000000033529E-01     6.2500000000080080E-01     0.0000000000000000E+00 
    1.8750000000040951E-01     6.8750000000047962E-01     0.0000000000000000E+00 
    1.8750000000048361E-01     7.5000000000015843E-01     0.0000000000000000E+00 
    1.8750000000055780E-01     8.1249999999983680E-01     0.0000000000000000E+00 
    1.8750000000063199E-01     8.7499999999953304E-01     0.0000000000000000E+00 
    1.8750000000070621E-01     9.3749999999975764E-01     0.0000000000000000E+00 
    2.4999999999951281E-01     6.2500000000163314E-02     0.0000000000000000E+00 
    2.4999999999961461E-01     1.2500000000033351E-01     0.0000000000000000E+00 
    2.4999999999971650E-01     1.8750000000048361E-01     0.0000000000000000E+00 
    2.4999999999981831E-01     2.5000000000063310E-01     0.0000000000000000E+00 
    2.4999999999992020E-01     3.1250000000078260E-01     0.0000000000000000E+00 
    2.5000000000002198E-01     3.7500000000093209E-01     0.0000000000000000E+00 
    2.5000000000012390E-01     4.3750000000108180E-01     0.0000000000000000E+00 
    2.5000000000022571E-01     5.0000000000121769E-01     0.0000000000000000E+00 
    2.5000000000032763E-01     5.6250000000094724E-01     0.0000000000000000E+00 
    2.5000000000042938E-01     6.2500000000066314E-01     0.0000000000000000E+00 
    2.5000000000053119E-01     6.8750000000037925E-01     0.0000000000000000E+00 
[...]
CELL_DATA 256 
SCALARS Pressure double 1 
LOOKUP_TABLE default 

    8.5683312690003843E-01 
    8.0526801461589226E-01 
    7.7079324204978261E-01 
    7.3842931417706414E-01 
    7.0478378142141151E-01 
    6.6905677767529714E-01 
    6.3116969954153834E-01 
    5.9149689777650893E-01 
    5.5060516378374025E-01 
    5.0920903580859034E-01 
    4.6824009474351652E-01 
    4.2917422932662935E-01 
    3.9437805476136206E-01 
    3.6602229302871875E-01 
    3.4368013589420598E-01 
    3.3317482387891600E-01 
    8.4288998428340622E-01 
    8.0672958646033333E-01 
    7.7343989993456208E-01 
    7.4137864861404912E-01 
    7.0800588914912987E-01 
    6.7254212857224027E-01 
    6.3487818425168829E-01 
    5.9535645087495548E-01 
    5.5451812232529574E-01 
    5.1304776659307083E-01 
    4.7182614162280700E-01 
    4.3224611987929135E-01 
    3.9664026774163164E-01 
    3.6737894343488592E-01 
    3.4408233733199051E-01 
    3.3277787865403463E-01 
    8.3217017696646622E-01 
    8.0599781819413385E-01 
    7.7527768791104279E-01 
    7.4393262120606718E-01 
    7.1096299180301925E-01 
    6.7581985385143206E-01 
    6.3841232759517919E-01 
    5.9905566799034282E-01 
    5.5825627445182402E-01 
    5.1665324537400015E-01 
    4.7506361044869660E-01 
    4.3478205502670264E-01 
    3.9809354063887015E-01 
    3.6761440399362777E-01 
    3.4320805025506801E-01 
    3.3127399472342833E-01 
    8.2366560307014458E-01 
    8.0411591024067375E-01 
    7.7634169551948295E-01 
    7.4607642293626397E-01 
    7.1366045891595253E-01 
    6.7890010711889637E-01 
    6.4177949576439108E-01 
    6.0260352434398923E-01 
    5.6183988859047640E-01 
    5.2006700879198531E-01 
    4.7801889475285814E-01 
    4.3686820817287048E-01 
    3.9882350216266604E-01 
    3.6675306644373767E-01 
    3.4099994591794680E-01 
    3.2847584231723193E-01 
    8.1672053145193402E-01 
    8.0166112919795041E-01 
    7.7675971987580572E-01 
    7.4782019289132518E-01 
    7.1610583304515096E-01 
    6.8179852803860530E-01 
    6.4499754060686654E-01 
    6.0601914822074554E-01 
    5.6529583050511145E-01 
    5.2333457518150150E-01 
    4.8076400731933860E-01 
    4.3860325333924999E-01 
    3.9893622891873620E-01 
    3.6484994480213506E-01 
    3.3741498011827437E-01 
    3.2419700120606038E-01 
    8.1097196773288049E-01 
    7.9899205056370715E-01 
    7.7668851326902100E-01 
    7.4920216272616547E-01 
    7.1831374863380248E-01 
    6.8453239217822703E-01 
    6.4809047157565169E-01 
    6.0933027193565037E-01 
    5.6865680514674288E-01 
    5.2650343867501792E-01 
    4.8337242856210738E-01 
    4.4009417369591647E-01 
    3.9855541420667201E-01 
    3.6199008500748953E-01 
    3.3240786524076193E-01 
    3.1820306782323565E-01 
    8.0618619527383351E-01 
    7.9634036340705705E-01 
    7.7629141225973930E-01 
    7.5028740132470650E-01 
    7.2031116525769456E-01 
    6.8712142576211344E-01 
    6.5108063459030063E-01 
    6.1256603333784143E-01 
    5.7196001621890435E-01 
    5.2962332010538526E-01 
    4.8592043036078270E-01 
    4.4145482678217490E-01 
    3.9782386193282360E-01 
    3.5827921079850433E-01 
    3.2588674863071376E-01 
    3.1013244516986965E-01 
    8.0219822374600636E-01 
    7.9385016852920787E-01 
    7.7571471630308297E-01 
    7.5115149164151251E-01 
    7.2213533089594972E-01 
    6.8958891763390950E-01 
    6.5398934237583528E-01 
    6.1575191293948395E-01 
    5.7524050779942559E-01 
    5.3274598938731166E-01 
    4.8848797222215040E-01 
    4.4281040190065052E-01 
    3.9691392922860619E-01 
    3.5386939900302550E-01 
    3.1773279928896392E-01 
    2.9942542258375038E-01 
    7.9888853578285746E-01 
    7.9160656629232851E-01 
    7.7507800162482410E-01 
    7.5187156786864373E-01 
    7.2382958104603246E-01 
    6.9196149448785982E-01 
    6.5683583974417104E-01 
    6.1890815612514494E-01 
    5.7852869780757388E-01 
    5.3592084697401865E-01 
    4.9115575968963499E-01 
    4.4429472588155050E-01 
    3.9603161286184746E-01 
    3.4897457158912348E-01 
    3.0788207070155477E-01 
    2.8543774466336852E-01 
    7.9617052791614584E-01 
    7.8965962860147476E-01 
    7.7447585613230263E-01 
    7.5252185090489987E-01 
    7.2544294269274479E-01 
    6.9427018271620455E-01 
    6.5964074759847735E-01 
    6.2205327481821115E-01 
    5.8185106496240857E-01 
    5.3919291520952373E-01 
    4.9400068282860798E-01 
    4.4604562208464926E-01 
    3.9541618535800149E-01 
    3.4389710844439342E-01 
    2.9639416730660667E-01 
    2.6758056014404341E-01 
    7.9398436641453229E-01 
    7.8804371160906717E-01 
    7.7398787250538326E-01 
    7.5317525548296183E-01 
    7.2703032463910711E-01 
    6.9655466761418650E-01 
    6.6243087656970434E-01 
    6.2520864186165459E-01 
    5.8523198436729040E-01 
    5.4259857782024712E-01 
    4.9708753248142801E-01 
    4.4819487027757965E-01 
    3.9533410942153741E-01 
    3.3905802332251872E-01 
    2.8351498853259349E-01 
    2.4520900990250427E-01 
    7.9229766792822509E-01 
    7.8679480992743878E-01 
    7.7369076112180313E-01 
    7.5390665511017729E-01 
    7.2865325965239047E-01 
    6.9886476868914327E-01 
    6.6524296407134664E-01 
    6.2839551118335701E-01 
    5.8868108246975237E-01 
    5.4614571629737474E-01 
    5.0044013633728346E-01 
    4.5083259208736087E-01 
    3.9603999465325390E-01 
    3.3498310803260123E-01 
    2.6970767298217430E-01 
    2.1742712585894639E-01 
    7.9107601540013239E-01 
    7.8593911705812702E-01 
    7.7365032692873026E-01 
    7.5478238768615935E-01 
    7.3036453239638399E-01 
    7.0124263275954202E-01 
    6.6810147922545615E-01 
    6.3158953244386795E-01 
    5.9208977138133190E-01 
    5.4966460052199662E-01 
    5.0386559249201546E-01 
    4.5380568008213307E-01 
    3.9757481123579314E-01 
    3.3210917424273079E-01 
    2.5559002297008898E-01 
    1.8279928528126116E-01 
    7.9011278916468708E-01 
    7.8535830101138004E-01 
    7.7382455020542384E-01 
    7.5577004170706208E-01 
    7.3208532159997297E-01 
    7.0357985166619452E-01 
    6.7090155797219331E-01 
    6.3469321004401014E-01 
    5.9536795654057306E-01 
    5.5308622623843440E-01 
    5.0738688764359918E-01 
    4.5719565271694479E-01 
    4.0006242627116950E-01 
    3.3082683483279179E-01 
    2.4185787022877650E-01 
    1.3852296285256491E-01 
    7.8945695746699440E-01 
    7.8502867311643088E-01 
    7.7417457268152778E-01 
    7.5685283668932835E-01 
    7.3381643738247548E-01 
    7.0588205827852091E-01 
    6.7369249454685887E-01 
    6.3785102336182309E-01 
    5.9880014750402166E-01 
    5.5675594692760810E-01 
    5.1130254199402558E-01 
    4.6126400802041262E-01 
    4.0397831144212332E-01 
    3.3279290221813573E-01 
    2.3164823243906008E-01 
    7.9837833092733096E-02 
    7.8927325994119779E-01 
    7.8520672331625185E-01 
    7.7496362738460667E-01 
    7.5829939973985117E-01 
    7.3585793339808725E-01 
    7.0845019315466451E-01 
    6.7673234753187594E-01 
    6.4128265339450308E-01 
    6.0256381277381454E-01 
    5.6080604900752473E-01 
    5.1564736911723508E-01 
    4.6595851086500389E-01 
    4.0915708841446063E-01 
    3.3864447588261248E-01 
    2.3274186133238231E-01 
    0.0000000000000000E+00 

SCALARS Saturarion double 1 
LOOKUP_TABLE default 

    1.0000000000000011E+00 
    9.6746059430285036E-01 
    9.1081443588433153E-01 
    8.4108240721192729E-01 
    7.8186715019914621E-01 
    7.3231570459877271E-01 
    6.9155244071147226E-01 
    6.5737074372882842E-01 
    6.2738188163498787E-01 
    5.9971942251515853E-01 
    5.7306211733908352E-01 
    5.4652178374245808E-01 
    5.1782157925917704E-01 
    4.5660425730991133E-01 
    1.6039466572337452E-01 
    1.0000060480326469E-06 
    9.8677327232329493E-01 
    9.5593534838606098E-01 
    8.9663017852136828E-01 
    8.3176107892840323E-01 
    7.7650082080233995E-01 
    7.2903094316833794E-01 
    6.8883985231946743E-01 
    6.5466222336850943E-01 
    6.2487616316180294E-01 
    5.9779291707628301E-01 
    5.7205131435985734E-01 
    5.4652176912290651E-01 
    5.1886826463409585E-01 
    4.6089599840353757E-01 
    1.8378776016981266E-01 
    1.2610517768307075E-05 
    9.6599880535943383E-01 
    9.3596324069326731E-01 
    8.7716553784603390E-01 
    8.1604396124911849E-01 
    7.6565744529329338E-01 
    7.2183702666399585E-01 
    6.8315987288119184E-01 
    6.4915873662968748E-01 
    6.1953120630014014E-01 
    5.9327191923452471E-01 
    5.6904524628110209E-01 
    5.4521232254795882E-01 
    5.1933317386225097E-01 
    4.6763221014728767E-01 
    2.1465901314925781E-01 
    1.1325128467373659E-04 
    9.2954952766698296E-01 
    9.0533086074287661E-01 
    8.5364967733988306E-01 
    7.9706810641195946E-01 
    7.4932196819187691E-01 
    7.0949109796374499E-01 
    6.7413270459133612E-01 
    6.4238671384152968E-01 
    6.1404506819212645E-01 
    5.8885502821911084E-01 
    5.6574082668568104E-01 
    5.4337636559910851E-01 
    5.1970358968446939E-01 
    4.7405817188875216E-01 
    2.5388390180613729E-01 
    7.8294021183769689E-04 
    8.8838519799248061E-01 
    8.6797205013192258E-01 
    8.2324003990571770E-01 
    7.7313791219554429E-01 
    7.2912658427814114E-01 
    6.9234053221148917E-01 
    6.6069324714828703E-01 
    6.3250437588813968E-01 
    6.0703513270366027E-01 
    5.8386063986260539E-01 
    5.6240391292339009E-01 
    5.4167078135927738E-01 
    5.1993678118398923E-01 
    4.8008091496406419E-01 
    2.9572829349318575E-01 
    3.1731590399884484E-03 
    8.4551140002901448E-01 
    8.2898817138302594E-01 
    7.9142668850536846E-01 
    7.4780506328958851E-01 
    7.0784381312953026E-01 
    6.7348671061307663E-01 
    6.4413897736166603E-01 
    6.1897394712547205E-01 
    5.9662052339010208E-01 
    5.7608573349009540E-01 
    5.5691690672951022E-01 
    5.3862424706023004E-01 
    5.1963423299119849E-01 
    4.8492149138292473E-01 
    3.3297772369465517E-01 
    1.1833263902460424E-02 
    8.0112897904189184E-01 
    7.8925749692536595E-01 
    7.5915480175510530E-01 
    7.2148764398033882E-01 
    6.8554046813789504E-01 
    6.5395240977912850E-01 
    6.2697549947584164E-01 
    6.0372380073605392E-01 
    5.8357607159066860E-01 
    5.6561029073620983E-01 
    5.4915569840508827E-01 
    5.3359332691621941E-01 
    5.1781178462886490E-01 
    4.8905953861734619E-01 
    3.6160534852652843E-01 
    3.2613748181524592E-02 
    7.5534843402754870E-01 
    7.4831453310300089E-01 
    7.2590046274627218E-01 
    6.9425913689614549E-01 
    6.6203879033118429E-01 
    6.3316051456888489E-01 
    6.0809315738575276E-01 
    5.8664961933610549E-01 
    5.6838741385609370E-01 
    5.5287257922727917E-01 
    5.3920758126469370E-01 
    5.2669186346768393E-01 
    5.1431494168500569E-01 
    4.9230666055690275E-01 
    3.8799250552297992E-01 
    7.3517466630810935E-02 
    7.0827476587330485E-01 
    7.0552968403143379E-01 
    6.9000263292334252E-01 
    6.6468697389917308E-01 
    6.3704086475079014E-01 
    6.1099382519481638E-01 
    5.8767628559338803E-01 
    5.6726300355688897E-01 
    5.5033568921978926E-01 
    5.3688993546554609E-01 
    5.2625848348872073E-01 
    5.1726876791308540E-01 
    5.0878496559634601E-01 
    4.9354229646937497E-01 
    4.0826351689604246E-01 
    1.1944634760920561E-01 
    6.5990214318756923E-01 
    6.6088257696814123E-01 
    6.5145875359826078E-01 
    6.3209943875029295E-01 
    6.0947197856944335E-01 
    5.8700444161575094E-01 
    5.6571400478893163E-01 
    5.4672869723191253E-01 
    5.3124547490179208E-01 
    5.1941725768508962E-01 
    5.1051332233233104E-01 
    5.0460316716307474E-01 
    5.0066739206931121E-01 
    4.9259222516922713E-01 
    4.2588086123096808E-01 
    1.6331461281661297E-01 
    6.1076565257902504E-01 
    6.1479903231588307E-01 
    6.1082585037851911E-01 
    5.9710067851572168E-01 
    5.7942159511243529E-01 
    5.6105789856490929E-01 
    5.4329815215702226E-01 
    5.2662821215536493E-01 
    5.1222923659975428E-01 
    5.0059187722535003E-01 
    4.9181687343486719E-01 
    4.8745293207777490E-01 
    4.8829336417333918E-01 
    4.8827523015126068E-01 
    4.4066257835829370E-01 
    2.0430452315732214E-01 
    5.6351643985991473E-01 
    5.6951508081136015E-01 
    5.7020486541835080E-01 
    5.6140150117644838E-01 
    5.4738400950945254E-01 
    5.3253585049525543E-01 
    5.1867222355090281E-01 
    5.0458921861021733E-01 
    4.8930174500772194E-01 
    4.7484643738841342E-01 
    4.6257403880940406E-01 
    4.5835798480467466E-01 
    4.6484797863516625E-01 
    4.7638932852853205E-01 
    4.5084789641668416E-01 
    2.4265392007602254E-01 
    5.1002893594061338E-01 
    5.2051454637059569E-01 
    5.2502490974473703E-01 
    5.2086215227536137E-01 
    5.0868784123965038E-01 
    4.9437643463210262E-01 
    4.8024929125398302E-01 
    4.6284107409124514E-01 
    4.2587527972643813E-01 
    3.6184873503120635E-01 
    3.0604935388746785E-01 
    3.0356014852453522E-01 
    3.6212729111066805E-01 
    4.3411785224202565E-01 
    4.4464541404126912E-01 
    2.7814603670737714E-01 
    3.2284181750892865E-01 
    3.9011962589127430E-01 
    4.2154100403793809E-01 
    4.2389598966745695E-01 
    3.9797506874299343E-01 
    3.3046603669654545E-01 
    2.6435888583016154E-01 
    1.9899842535802925E-01 
    9.7781312055891856E-02 
    2.1590425832741796E-02 
    5.3475122812196530E-03 
    5.7242994345335753E-03 
    8.5702958708059468E-02 
    2.6661975033568813E-01 
    4.0020600024322744E-01 
    2.9937847148478364E-01 
    3.9121805878756938E-03 
    4.7225387023105574E-02 
    7.2443262535255834E-02 
    7.0802728581507907E-02 
    4.1003463305574160E-02 
    7.9996763135384459E-03 
    1.0163458495135492E-03 
    8.5760383084884187E-05 
    2.5998257775623767E-05 
    6.1413312897912273E-06 
    1.0963568682798349E-06 
    1.2007548843628366E-06 
    4.7429482006384370E-04 
    5.8495796464274032E-02 
    3.0189749955412271E-01 
    3.0707306086718811E-01 
    1.0000230989197707E-06 
    1.9896743056698268E-05 
    3.3650698076247872E-06 
    3.3879931208655610E-06 
    9.9745553320489275E-06 
    1.6047129507270489E-06 
    1.0099963921679568E-06 
    1.0002111882953505E-06 
    1.0000420863849476E-06 
    1.0000008612179242E-06 
    1.0000000095413221E-06 
    1.0000000235433716E-06 
    1.0589679229727937E-06 
    2.5798567380910846E-04 
    1.6979208622091654E-01 
    2.7599011565964393E-01 
