# vtk DataFile Version 2.0
Pressure Field Data 
ASCII 
DATASET UNSTRUCTURED_GRID 

POINTS 289 double 

    0.0000000000000000E+00     0.0000000000000000E+00     0.0000000000000000E+00 
    1.0000000000000000E+00     0.0000000000000000E+00     0.0000000000000000E+00 
    1.0000000000000000E+00     1.0000000000000000E+00     0.0000000000000000E+00 
    0.0000000000000000E+00     1.0000000000000000E+00     0.0000000000000000E+00 
    6.2499999999872928E-02     0.0000000000000000E+00     0.0000000000000000E+00 
    1.2499999999977310E-01     0.0000000000000000E+00     0.0000000000000000E+00 
    1.8749999999959341E-01     0.0000000000000000E+00     0.0000000000000000E+00 
    2.4999999999941089E-01     0.0000000000000000E+00     0.0000000000000000E+00 
    3.1249999999922851E-01     0.0000000000000000E+00     0.0000000000000000E+00 
    3.7499999999904610E-01     0.0000000000000000E+00     0.0000000000000000E+00 
    4.3749999999886358E-01     0.0000000000000000E+00     0.0000000000000000E+00 
    4.9999999999869210E-01     0.0000000000000000E+00     0.0000000000000000E+00 
    5.6249999999884603E-01     0.0000000000000000E+00     0.0000000000000000E+00 
    6.2499999999901090E-01     0.0000000000000000E+00     0.0000000000000000E+00 
    6.8749999999917577E-01     0.0000000000000000E+00     0.0000000000000000E+00 
    7.4999999999934064E-01     0.0000000000000000E+00     0.0000000000000000E+00 
    8.1249999999950551E-01     0.0000000000000000E+00     0.0000000000000000E+00 
    8.7499999999967026E-01     0.0000000000000000E+00     0.0000000000000000E+00 
    9.3749999999983513E-01     0.0000000000000000E+00     0.0000000000000000E+00 
    1.0000000000000000E+00     6.2499999999872928E-02     0.0000000000000000E+00 
    1.0000000000000000E+00     1.2499999999977310E-01     0.0000000000000000E+00 
    1.0000000000000000E+00     1.8749999999959341E-01     0.0000000000000000E+00 
    1.0000000000000000E+00     2.4999999999941089E-01     0.0000000000000000E+00 
    1.0000000000000000E+00     3.1249999999922851E-01     0.0000000000000000E+00 
    1.0000000000000000E+00     3.7499999999904610E-01     0.0000000000000000E+00 
    1.0000000000000000E+00     4.3749999999886358E-01     0.0000000000000000E+00 
    1.0000000000000000E+00     4.9999999999869210E-01     0.0000000000000000E+00 
    1.0000000000000000E+00     5.6249999999884603E-01     0.0000000000000000E+00 
    1.0000000000000000E+00     6.2499999999901090E-01     0.0000000000000000E+00 
    1.0000000000000000E+00     6.8749999999917577E-01     0.0000000000000000E+00 
    1.0000000000000000E+00     7.4999999999934064E-01     0.0000000000000000E+00 
    1.0000000000000000E+00     8.1249999999950551E-01     0.0000000000000000E+00 
    1.0000000000000000E+00     8.7499999999967026E-01     0.0000000000000000E+00 
    1.0000000000000000E+00     9.3749999999983513E-01     0.0000000000000000E+00 
    9.3749999999973976E-01     1.0000000000000000E+00     0.0000000000000000E+00 
    8.7499999999950118E-01     1.0000000000000000E+00     0.0000000000000000E+00 
    8.1249999999991318E-01     1.0000000000000000E+00     0.0000000000000000E+00 
    7.5000000000034706E-01     1.0000000000000000E+00     0.0000000000000000E+00 
    6.8750000000078049E-01     1.0000000000000000E+00     0.0000000000000000E+00 
    6.2500000000121403E-01     1.0000000000000000E+00     0.0000000000000000E+00 
    5.6250000000164757E-01     1.0000000000000000E+00     0.0000000000000000E+00 
    5.0000000000205946E-01     1.0000000000000000E+00     0.0000000000000000E+00 
    4.3750000000182099E-01     1.0000000000000000E+00     0.0000000000000000E+00 
    3.7500000000156092E-01     1.0000000000000000E+00     0.0000000000000000E+00 
    3.1250000000130068E-01     1.0000000000000000E+00     0.0000000000000000E+00 
    2.5000000000104050E-01     1.0000000000000000E+00     0.0000000000000000E+00 
    1.8750000000078040E-01     1.0000000000000000E+00     0.0000000000000000E+00 
    1.2500000000052031E-01     1.0000000000000000E+00     0.0000000000000000E+00 
    6.2500000000260125E-02     1.0000000000000000E+00     0.0000000000000000E+00 
    0.0000000000000000E+00     9.3749999999973976E-01     0.0000000000000000E+00 
    0.0000000000000000E+00     8.7499999999950118E-01     0.0000000000000000E+00 
    0.0000000000000000E+00     8.1249999999991318E-01     0.0000000000000000E+00 
    0.0000000000000000E+00     7.5000000000034706E-01     0.0000000000000000E+00 
    0.0000000000000000E+00     6.8750000000078049E-01     0.0000000000000000E+00 
    0.0000000000000000E+00     6.2500000000121403E-01     0.0000000000000000E+00 
    0.0000000000000000E+00     5.6250000000164757E-01     0.0000000000000000E+00 
    0.0000000000000000E+00     5.0000000000205946E-01     0.0000000000000000E+00 
    0.0000000000000000E+00     4.3750000000182099E-01     0.0000000000000000E+00 
    0.0000000000000000E+00     3.7500000000156092E-01     0.0000000000000000E+00 
    0.0000000000000000E+00     3.1250000000130068E-01     0.0000000000000000E+00 
    0.0000000000000000E+00     2.5000000000104050E-01     0.0000000000000000E+00 
    0.0000000000000000E+00     1.8750000000078040E-01     0.0000000000000000E+00 
    0.0000000000000000E+00     1.2500000000052031E-01     0.0000000000000000E+00 
    0.0000000000000000E+00     6.2500000000260125E-02     0.0000000000000000E+00 
    6.2499999999897131E-02     6.2500000000235922E-02     0.0000000000000000E+00 
    6.2499999999921327E-02     1.2500000000047351E-01     0.0000000000000000E+00 
    6.2499999999945530E-02     1.8750000000070621E-01     0.0000000000000000E+00 
    6.2499999999969733E-02     2.5000000000093858E-01     0.0000000000000000E+00 
    6.2499999999993928E-02     3.1250000000117117E-01     0.0000000000000000E+00 
    6.2500000000018124E-02     3.7500000000140382E-01     0.0000000000000000E+00 
    6.2500000000042327E-02     4.3750000000163619E-01     0.0000000000000000E+00 
    6.2500000000066530E-02     5.0000000000184897E-01     0.0000000000000000E+00 
    6.2500000000090733E-02     5.6250000000147260E-01     0.0000000000000000E+00 
    6.2500000000114922E-02     6.2500000000107636E-01     0.0000000000000000E+00 
    6.2500000000139125E-02     6.8750000000068034E-01     0.0000000000000000E+00 
    6.2500000000163328E-02     7.5000000000028411E-01     0.0000000000000000E+00 
    6.2500000000187531E-02     8.1249999999988787E-01     0.0000000000000000E+00 
    6.2500000000211720E-02     8.7499999999951172E-01     0.0000000000000000E+00 
    6.2500000000235922E-02     9.3749999999974565E-01     0.0000000000000000E+00 
    1.2499999999981980E-01     6.2500000000211733E-02     0.0000000000000000E+00 
    1.2499999999986650E-01     1.2500000000042691E-01     0.0000000000000000E+00 
    1.2499999999991319E-01     1.8750000000063199E-01     0.0000000000000000E+00 
    1.2499999999995989E-01     2.5000000000083678E-01     0.0000000000000000E+00 
    1.2500000000000661E-01     3.1250000000104172E-01     0.0000000000000000E+00 
    1.2500000000005329E-01     3.7500000000124661E-01     0.0000000000000000E+00 
    1.2500000000010000E-01     4.3750000000145117E-01     0.0000000000000000E+00 
    1.2500000000014669E-01     5.0000000000163858E-01     0.0000000000000000E+00 
    1.2500000000019340E-01     5.6250000000129741E-01     0.0000000000000000E+00 
    1.2500000000024011E-01     6.2500000000093847E-01     0.0000000000000000E+00 
    1.2500000000028680E-01     6.8750000000057998E-01     0.0000000000000000E+00 
    1.2500000000033351E-01     7.5000000000022127E-01     0.0000000000000000E+00 
    1.2500000000038020E-01     8.1249999999986211E-01     0.0000000000000000E+00 
    1.2500000000042691E-01     8.7499999999952238E-01     0.0000000000000000E+00 
    1.2500000000047359E-01     9.3749999999975164E-01     0.0000000000000000E+00 
    1.8749999999966760E-01     6.2500000000187531E-02     0.0000000000000000E+00 
    1.8749999999974179E-01     1.2500000000038020E-01     0.0000000000000000E+00 
    1.8749999999981601E-01     1.8750000000055780E-01     0.0000000000000000E+00 
    1.8749999999989009E-01     2.5000000000073502E-01     0.0000000000000000E+00 
    1.8749999999996431E-01     3.1250000000091221E-01     0.0000000000000000E+00 
    1.8750000000003850E-01     3.7500000000108941E-01     0.0000000000000000E+00 
    1.8750000000011269E-01     4.3750000000126649E-01     0.0000000000000000E+00 
    1.8750000000018691E-01     5.0000000000142808E-01     0.0000000000000000E+00 
    1.8750000000026110E-01     5.6250000000112244E-01     0.0000000000000000E+00 
    1.8750000000033529E-01     6.2500000000080080E-01     0.0000000000000000E+00 
    1.8750000000040951E-01     6.8750000000047962E-01     0.0000000000000000E+00 
    1.8750000000048361E-01     7.5000000000015843E-01     0.0000000000000000E+00 
    1.8750000000055780E-01     8.1249999999983680E-01     0.0000000000000000E+00 
    1.8750000000063199E-01     8.7499999999953304E-01     0.0000000000000000E+00 
    1.8750000000070621E-01     9.3749999999975764E-01     0.0000000000000000E+00 
    2.4999999999951281E-01     6.2500000000163314E-02     0.0000000000000000E+00 
    2.4999999999961461E-01     1.2500000000033351E-01     0.0000000000000000E+00 
    2.4999999999971650E-01     1.8750000000048361E-01     0.0000000000000000E+00 
    2.4999999999981831E-01     2.5000000000063310E-01     0.0000000000000000E+00 
    2.4999999999992020E-01     3.1250000000078260E-01     0.0000000000000000E+00 
    2.5000000000002198E-01     3.7500000000093209E-01     0.0000000000000000E+00 
    2.5000000000012390E-01     4.3750000000108180E-01     0.0000000000000000E+00 
    2.5000000000022571E-01     5.0000000000121769E-01     0.0000000000000000E+00 
    2.5000000000032763E-01     5.6250000000094724E-01     0.0000000000000000E+00 
    2.5000000000042938E-01     6.2500000000066314E-01     0.0000000000000000E+00 
    2.5000000000053119E-01     6.8750000000037925E-01     0.0000000000000000E+00 
[...]
CELL_DATA 256 
SCALARS Pressure double 1 
LOOKUP_TABLE default 

    1.1910197946226080E+00 
    1.1258987454023577E+00 
    1.0725768304652057E+00 
    1.0134905675286516E+00 
    9.3480412636046495E-01 
    8.4824631354031432E-01 
    7.7425801762770829E-01 
    7.0312176051402886E-01 
    6.3439958403325925E-01 
    5.6825637355443892E-01 
    5.0535239580339231E-01 
    4.4712353533033444E-01 
    3.9621134274535408E-01 
    3.5628190953418182E-01 
    3.3077613017717922E-01 
    3.2044644263991839E-01 
    1.1768034103084943E+00 
    1.1281904101925269E+00 
    1.0765854107210306E+00 
    1.0185912418477072E+00 
    9.4138376045926808E-01 
    8.5563522387796043E-01 
    7.8128715775282875E-01 
    7.0994779817806675E-01 
    6.4097175131799600E-01 
    5.7446368200521569E-01 
    5.1101233329978490E-01 
    4.5194408729194357E-01 
    3.9980997089857073E-01 
    3.5832858742483054E-01 
    3.3127193203492089E-01 
    3.2001544975337287E-01 
    1.1644339907816688E+00 
    1.1271874328858500E+00 
    1.0787583533960536E+00 
    1.0218751264253336E+00 
    9.4622465140017231E-01 
    8.6237212460798529E-01 
    7.8806333678234020E-01 
    7.1662504890787815E-01 
    6.4741565657527367E-01 
    5.8049051074364444E-01 
    5.1636458254502393E-01 
    4.5624603697945709E-01 
    4.0259890472170656E-01 
    3.5925175124096359E-01 
    3.3046400649599622E-01 
    3.1842763485233627E-01 
    1.1525092851247747E+00 
    1.1236691417281284E+00 
    1.0790966812340770E+00 
    1.0234218666997013E+00 
    9.4952437785254384E-01 
    8.6847177842246293E-01 
    7.9454836366295689E-01 
    7.2314753047921465E-01 
    6.5374637814752834E-01 
    5.8637793290657714E-01 
    5.2148026824231342E-01 
    4.6012676831949645E-01 
    4.0467670306351911E-01 
    3.5909468252284271E-01 
    3.2827307841412023E-01 
    3.1546173076548734E-01 
    1.1409932331648587E+00 
    1.1184240720002285E+00 
    1.0778251930339642E+00 
    1.0234264489851228E+00 
    9.5155446763534246E-01 
    8.7395256845365199E-01 
    8.0072741059916075E-01 
    7.2951416539735336E-01 
    6.5998085589541255E-01 
    5.9216789376956580E-01 
    5.2643299289729650E-01 
    4.6369150991406632E-01 
    4.0615591775513438E-01 
    3.5791311905122158E-01 
    3.2461606448210345E-01 
    3.1088816199571140E-01 
    1.1304221356563937E+00 
    1.1123596119426353E+00 
    1.0751315617570574E+00 
    1.0219544166734083E+00 
    9.5269936722277260E-01 
    8.7882184316180623E-01 
    8.0660425270862046E-01 
    7.3573087251062141E-01 
    6.6613737525900363E-01 
    5.9790252300082736E-01 
    5.3129797651761557E-01 
    4.6705413418568503E-01 
    4.0716845682950481E-01 
    3.5578530574380574E-01 
    3.1941027159299346E-01 
    3.0444913614910923E-01 
    1.1209216813266558E+00 
    1.1058930266475508E+00 
    1.0710405827125964E+00 
    1.0192105623299557E+00 
    9.5350008418933985E-01 
    8.8313372540447332E-01 
    8.1219839255937742E-01 
    7.4181100693954083E-01 
    6.7223817725252999E-01 
    6.0362320324793139E-01 
    5.3615209850721135E-01 
    4.7033684610092774E-01 
    4.0787085243298332E-01 
    3.5282533649030273E-01 
    3.1258298639004173E-01 
    2.9584764701452698E-01 
    1.1116406544041790E+00 
    1.0984090689566259E+00 
    1.0654439831950986E+00 
    1.0160383900567307E+00 
    9.5443532370367845E-01 
    8.8703786270807361E-01 
    8.1755257068072418E-01 
    7.4777570470533783E-01 
    6.7830575316772801E-01 
    6.0936963400039201E-01 
    5.4106980696106932E-01 
    4.7366883614948113E-01 
    4.0844763827687136E-01 
    3.4919685873311013E-01 
    3.0408232854217504E-01 
    2.8472157891585265E-01 
    1.1016985872535958E+00 
    1.0899454052885922E+00 
    1.0594180429158859E+00 
    1.0133900429184475E+00 
    9.5553864993579329E-01 
    8.9071230071067220E-01 
    8.2272753335022097E-01 
    7.5365330728806135E-01 
    6.8436444924475326E-01 
    6.1517869551518789E-01 
    5.4612158627768470E-01 
    4.7718251665078065E-01 
    4.0911363657836303E-01 
    3.4513298073022869E-01 
    2.9390206369178484E-01 
    2.7061704538498499E-01 
    1.0930551218308462E+00 
    1.0824771555153179E+00 
    1.0545833208032251E+00 
    1.0115994989973651E+00 
    9.5675397823914010E-01 
    8.9429362019835223E-01 
    8.2779378653950264E-01 
    7.5947828334194667E-01 
    6.9043858900542598E-01 
    6.2108309414757401E-01 
    5.5137002060255702E-01 
    4.8100793015771709E-01 
    4.1011214785372485E-01 
    3.4095796425061592E-01 
    2.8212076699290833E-01 
    2.5294435924786562E-01 
    1.0866373087098138E+00 
    1.0767639222134635E+00 
    1.0508725872284939E+00 
    1.0104340383392829E+00 
    9.5821317169255438E-01 
    8.9789677474819474E-01 
    8.3282237945338167E-01 
    7.6528903291204942E-01 
    6.9655324134430097E-01 
    6.2711006372040989E-01 
    5.5686735271102916E-01 
    4.8526472926014147E-01 
    4.1170768087705045E-01 
    3.3711157360224819E-01 
    2.6897251817483286E-01 
    2.3092459507504787E-01 
    1.0817905627470445E+00 
    1.0724097174487082E+00 
    1.0481956008348579E+00 
    1.0099603372259345E+00 
    9.6002463560761908E-01 
    9.0162537341622251E-01 
    8.3788392669195977E-01 
    7.7112553650684912E-01 
    7.0273175225772377E-01 
    6.3328045232309682E-01 
    5.6265108373759787E-01 
    4.9005197539476941E-01 
    4.1416813769283073E-01 
    3.3416548613470637E-01 
    2.5496154254103170E-01 
    2.0350334786695445E-01 
    1.0783237362246962E+00 
    1.0693394374153700E+00 
    1.0465597998696778E+00 
    1.0102347025084477E+00 
    9.6228088223076425E-01 
    9.0557258141541896E-01 
    8.4304611973290700E-01 
    7.7702825302903766E-01 
    7.0899635973160613E-01 
    6.3960829098678862E-01 
    5.6874203831843606E-01 
    4.9543667237507466E-01 
    4.1773563780802592E-01 
    3.3282309570539753E-01 
    2.4105946460875829E-01 
    1.6922696497296891E-01 
    1.0760641107934921E+00 
    1.0674743104911339E+00 
    1.0459647644892467E+00 
    1.0113059348787887E+00 
    9.6506295891393257E-01 
    9.0982265687403208E-01 
    8.4837356660862673E-01 
    7.8303704768675564E-01 
    7.1536735550943553E-01 
    6.4610095178325855E-01 
    5.7514313019702357E-01 
    5.0144389464338213E-01 
    4.2258323979105683E-01 
    3.3387037772451872E-01 
    2.2903400185534364E-01 
    1.2605337218858151E-01 
    1.0748476381969607E+00 
    1.0667353775927388E+00 
    1.0464054418167541E+00 
    1.0132172954686516E+00 
    9.6844303747863192E-01 
    9.1445230909376085E-01 
    8.5392735423744415E-01 
    7.8919064449263854E-01 
    7.2186326022335978E-01 
    6.5275999176475330E-01 
    5.8184069312857634E-01 
    5.0805192730293203E-01 
    4.2876342952969021E-01 
    3.3802236321747448E-01 
    2.2200220158791756E-01 
    7.1064042905433861E-02 
    1.0745098469144050E+00 
    1.0670453201615233E+00 
    1.0478752599390571E+00 
    1.0160090115457732E+00 
    9.7248707772900067E-01 
    9.1953233150087454E-01 
    8.5976509771744303E-01 
    7.9552616620622429E-01 
    7.2850088182776895E-01 
    6.5958232789551297E-01 
    5.8880779703286157E-01 
    5.1519655190423153E-01 
    4.3617036065753584E-01 
    3.4555381810399233E-01 
    2.2535838653908927E-01 
    0.0000000000000000E+00 

SCALARS Saturarion double 1 
LOOKUP_TABLE default 

    9.9999875515048298E-01 
    8.8365904483633950E-01 
    7.4313466792308747E-01 
    5.6711655316426335E-01 
    2.2155425505581317E-01 
    1.3033242910888448E-04 
    1.0000000021109505E-06 
    1.0000000000000002E-06 
    9.9999999999999995E-07 
    9.9999999999999995E-07 
    9.9999999999999995E-07 
    9.9999999999999995E-07 
    9.9999999999999995E-07 
    9.9999999999999995E-07 
    9.9999999999999995E-07 
    9.9999999999999995E-07 
    9.3401735022593380E-01 
    8.3689763272564266E-01 
    7.1480341484181920E-01 
    5.4553290311175950E-01 
    2.0405214429495541E-01 
    6.2016418269907178E-05 
    1.0000444698706527E-06 
    1.0000000000367008E-06 
    9.9999999999999995E-07 
    9.9999999999999995E-07 
    9.9999999999999995E-07 
    9.9999999999999995E-07 
    9.9999999999999995E-07 
    9.9999999999999995E-07 
    9.9999999999999995E-07 
    9.9999999999999995E-07 
    8.2023729454390015E-01 
    7.5829205764750751E-01 
    6.6312551113099738E-01 
    5.1933636504263170E-01 
    1.6902777860036536E-01 
    3.6184245072461353E-05 
    1.0001719188496056E-06 
    1.0000000001451986E-06 
    9.9999999999999995E-07 
    9.9999999999999995E-07 
    9.9999999999999995E-07 
    9.9999999999999995E-07 
    9.9999999999999995E-07 
    9.9999999999999995E-07 
    9.9999999999999995E-07 
    9.9999999999999995E-07 
    7.0596531908372917E-01 
    6.7010371466424545E-01 
    6.0862878381814944E-01 
    4.9090878402391019E-01 
    1.2127858996470806E-01 
    4.6986777753410835E-05 
    1.0004158419773358E-06 
    1.0000000001359320E-06 
    9.9999999999999995E-07 
    9.9999999999999995E-07 
    9.9999999999999995E-07 
    9.9999999999999995E-07 
    9.9999999999999995E-07 
    9.9999999999999995E-07 
    9.9999999999999995E-07 
    9.9999999999999995E-07 
    6.2830816183400406E-01 
    6.0805608774643349E-01 
    5.6197592844828514E-01 
    4.3591860059112675E-01 
    5.9778113731820716E-02 
    6.4918708203654850E-05 
    1.0004187580812513E-06 
    1.0000000000102025E-06 
    9.9999999999999995E-07 
    9.9999999999999995E-07 
    9.9999999999999995E-07 
    9.9999999999999995E-07 
    9.9999999999999995E-07 
    9.9999999999999995E-07 
    9.9999999999999995E-07 
    9.9999999999999995E-07 
    5.7457670494115021E-01 
    5.5973204957101108E-01 
    5.1365278918300394E-01 
    3.2359980861076670E-01 
    1.0557452578416400E-02 
    5.1168012089165278E-06 
    1.0000020057177199E-06 
    1.0000000000000006E-06 
    9.9999999999999995E-07 
    9.9999999999999995E-07 
    9.9999999999999995E-07 
    9.9999999999999995E-07 
    9.9999999999999995E-07 
    9.9999999999999995E-07 
    9.9999999999999995E-07 
    9.9999999999999995E-07 
    5.2856920140078378E-01 
    5.1044154523030216E-01 
    4.4249211928098803E-01 
    1.5136814740957885E-01 
    2.3081732161849065E-04 
    1.0148550163926071E-06 
    1.0000000000400904E-06 
    9.9999999999999995E-07 
    9.9999999999999995E-07 
    9.9999999999999995E-07 
    9.9999999999999995E-07 
    9.9999999999999995E-07 
    9.9999999999999995E-07 
    9.9999999999999995E-07 
    9.9999999999999995E-07 
    9.9999999999999995E-07 
    4.4141230673855297E-01 
    4.0595121627863384E-01 
    2.2730561804434890E-01 
    1.0654122254958971E-02 
    3.6278015322829186E-06 
    1.0000007339072072E-06 
    1.0000000000000010E-06 
    9.9999999999999995E-07 
    9.9999999999999995E-07 
    9.9999999999999995E-07 
    9.9999999999999995E-07 
    9.9999999999999995E-07 
    9.9999999999999995E-07 
    9.9999999999999995E-07 
    9.9999999999999995E-07 
    9.9999999999999995E-07 
    1.2174419692127364E-01 
    7.3288826776572807E-02 
    5.2691003259163136E-03 
    6.5951258429041332E-06 
    1.0000044556036212E-06 
    1.0000000000002085E-06 
    9.9999999999999995E-07 
    9.9999999999999995E-07 
    9.9999999999999995E-07 
    9.9999999999999995E-07 
    9.9999999999999995E-07 
    9.9999999999999995E-07 
    9.9999999999999995E-07 
    9.9999999999999995E-07 
    9.9999999999999995E-07 
    9.9999999999999995E-07 
    1.0095474166123814E-06 
    4.9559957307460785E-05 
    2.0028596320770495E-06 
    1.0000010859756989E-06 
    1.0000000000003339E-06 
    9.9999999999999995E-07 
    9.9999999999999995E-07 
    9.9999999999999995E-07 
    9.9999999999999995E-07 
    9.9999999999999995E-07 
    9.9999999999999995E-07 
    9.9999999999999995E-07 
    9.9999999999999995E-07 
    9.9999999999999995E-07 
    9.9999999999999995E-07 
    9.9999999999999995E-07 
    1.0000000090324923E-06 
    1.0001279250900491E-06 
    1.0000002384417632E-06 
    1.0000000000000684E-06 
    9.9999999999999995E-07 
    9.9999999999999995E-07 
    9.9999999999999995E-07 
    9.9999999999999995E-07 
    9.9999999999999995E-07 
    9.9999999999999995E-07 
    9.9999999999999995E-07 
    9.9999999999999995E-07 
    9.9999999999999995E-07 
    9.9999999999999995E-07 
    9.9999999999999995E-07 
    9.9999999999999995E-07 
    9.9999999999999995E-07 
    1.0000000000107609E-06 
    1.0000000000000052E-06 
    9.9999999999999995E-07 
    9.9999999999999995E-07 
    9.9999999999999995E-07 
    9.9999999999999995E-07 
    9.9999999999999995E-07 
    9.9999999999999995E-07 
    9.9999999999999995E-07 
    9.9999999999999995E-07 
    9.9999999999999995E-07 
    9.9999999999999995E-07 
    9.9999999999999995E-07 
    9.9999999999999995E-07 
    9.9999999999999995E-07 
    9.9999999999999995E-07 
    9.9999999999999995E-07 
    9.9999999999999995E-07 
    9.9999999999999995E-07 
    9.9999999999999995E-07 
    9.9999999999999995E-07 
    9.9999999999999995E-07 
    9.9999999999999995E-07 
    9.9999999999999995E-07 
    9.9999999999999995E-07 
    9.9999999999999995E-07 
    9.9999999999999995E-07 
    9.9999999999999995E-07 
    9.9999999999999995E-07 
    9.9999999999999995E-07 
    9.9999999999999995E-07 
    9.9999999999999995E-07 
    9.9999999999999995E-07 
    9.9999999999999995E-07 
    9.9999999999999995E-07 
    9.9999999999999995E-07 
    9.9999999999999995E-07 
    9.9999999999999995E-07 
    9.9999999999999995E-07 
    9.9999999999999995E-07 
    9.9999999999999995E-07 
    9.9999999999999995E-07 
    9.9999999999999995E-07 
    9.9999999999999995E-07 
    9.9999999999999995E-07 
    9.9999999999999995E-07 
    9.9999999999999995E-07 
    9.9999999999999995E-07 
    9.9999999999999995E-07 
    9.9999999999999995E-07 
    9.9999999999999995E-07 
    9.9999999999999995E-07 
    9.9999999999999995E-07 
    9.9999999999999995E-07 
    9.9999999999999995E-07 
    9.9999999999999995E-07 
    9.9999999999999995E-07 
    9.9999999999999995E-07 
    9.9999999999999995E-07 
    9.9999999999999995E-07 
    9.9999999999999995E-07 
    9.9999999999999995E-07 
    9.9999999999999995E-07 
    9.9999999999999995E-07 
    9.9999999999999995E-07 
    9.9999999999999995E-07 
    9.9999999999999995E-07 
    9.9999999999999995E-07 
    9.9999999999999995E-07 
    9.9999999999999995E-07 
    9.9999999999999995E-07 
    9.9999999999999995E-07 
    9.9999999999999995E-07 
    9.9999999999999995E-07 
    9.9999999999999995E-07 
    9.9999999999999995E-07 
    9.9999999999999995E-07 
    9.9999999999999995E-07 
    1.0000000903926350E-06 
