# vtk DataFile Version 2.0
Pressure Field Data 
ASCII 
DATASET UNSTRUCTURED_GRID 

POINTS 289 double 

    0.0000000000000000E+00     0.0000000000000000E+00     0.0000000000000000E+00 
    1.0000000000000000E+00     0.0000000000000000E+00     0.0000000000000000E+00 
    1.0000000000000000E+00     1.0000000000000000E+00     0.0000000000000000E+00 
    0.0000000000000000E+00     1.0000000000000000E+00     0.0000000000000000E+00 
    6.2499999999872928E-02     0.0000000000000000E+00     0.0000000000000000E+00 
    1.2499999999977310E-01     0.0000000000000000E+00     0.0000000000000000E+00 
    1.8749999999959341E-01     0.0000000000000000E+00     0.0000000000000000E+00 
    2.4999999999941089E-01     0.0000000000000000E+00     0.0000000000000000E+00 
    3.1249999999922851E-01     0.0000000000000000E+00     0.0000000000000000E+00 
    3.7499999999904610E-01     0.0000000000000000E+00     0.0000000000000000E+00 
    4.3749999999886358E-01     0.0000000000000000E+00     0.0000000000000000E+00 
    4.9999999999869210E-01     0.0000000000000000E+00     0.0000000000000000E+00 
    5.6249999999884603E-01     0.0000000000000000E+00     0.0000000000000000E+00 
    6.2499999999901090E-01     0.0000000000000000E+00     0.0000000000000000E+00 
    6.8749999999917577E-01     0.0000000000000000E+00     0.0000000000000000E+00 
    7.4999999999934064E-01     0.0000000000000000E+00     0.0000000000000000E+00 
    8.1249999999950551E-01     0.0000000000000000E+00     0.0000000000000000E+00 
    8.7499999999967026E-01     0.0000000000000000E+00     0.0000000000000000E+00 
    9.3749999999983513E-01     0.0000000000000000E+00     0.0000000000000000E+00 
    1.0000000000000000E+00     6.2499999999872928E-02     0.0000000000000000E+00 
    1.0000000000000000E+00     1.2499999999977310E-01     0.0000000000000000E+00 
    1.0000000000000000E+00     1.8749999999959341E-01     0.0000000000000000E+00 
    1.0000000000000000E+00     2.4999999999941089E-01     0.0000000000000000E+00 
    1.0000000000000000E+00     3.1249999999922851E-01     0.0000000000000000E+00 
    1.0000000000000000E+00     3.7499999999904610E-01     0.0000000000000000E+00 
    1.0000000000000000E+00     4.3749999999886358E-01     0.0000000000000000E+00 
    1.0000000000000000E+00     4.9999999999869210E-01     0.0000000000000000E+00 
    1.0000000000000000E+00     5.6249999999884603E-01     0.0000000000000000E+00 
    1.0000000000000000E+00     6.2499999999901090E-01     0.0000000000000000E+00 
    1.0000000000000000E+00     6.8749999999917577E-01     0.0000000000000000E+00 
    1.0000000000000000E+00     7.4999999999934064E-01     0.0000000000000000E+00 
    1.0000000000000000E+00     8.1249999999950551E-01     0.0000000000000000E+00 
    1.0000000000000000E+00     8.7499999999967026E-01     0.0000000000000000E+00 
    1.0000000000000000E+00     9.3749999999983513E-01     0.0000000000000000E+00 
    9.3749999999973976E-01     1.0000000000000000E+00     0.0000000000000000E+00 
    8.7499999999950118E-01     1.0000000000000000E+00     0.0000000000000000E+00 
    8.1249999999991318E-01     1.0000000000000000E+00     0.0000000000000000E+00 
    7.5000000000034706E-01     1.0000000000000000E+00     0.0000000000000000E+00 
    6.8750000000078049E-01     1.0000000000000000E+00     0.0000000000000000E+00 
    6.2500000000121403E-01     1.0000000000000000E+00     0.0000000000000000E+00 
    5.6250000000164757E-01     1.0000000000000000E+00     0.0000000000000000E+00 
    5.0000000000205946E-01     1.0000000000000000E+00     0.0000000000000000E+00 
    4.3750000000182099E-01     1.0000000000000000E+00     0.0000000000000000E+00 
    3.7500000000156092E-01     1.0000000000000000E+00     0.0000000000000000E+00 
    3.1250000000130068E-01     1.0000000000000000E+00     0.0000000000000000E+00 
    2.5000000000104050E-01     1.0000000000000000E+00     0.0000000000000000E+00 
    1.8750000000078040E-01     1.0000000000000000E+00     0.0000000000000000E+00 
    1.2500000000052031E-01     1.0000000000000000E+00     0.0000000000000000E+00 
    6.2500000000260125E-02     1.0000000000000000E+00     0.0000000000000000E+00 
    0.0000000000000000E+00     9.3749999999973976E-01     0.0000000000000000E+00 
    0.0000000000000000E+00     8.7499999999950118E-01     0.0000000000000000E+00 
    0.0000000000000000E+00     8.1249999999991318E-01     0.0000000000000000E+00 
    0.0000000000000000E+00     7.5000000000034706E-01     0.0000000000000000E+00 
    0.0000000000000000E+00     6.8750000000078049E-01     0.0000000000000000E+00 
    0.0000000000000000E+00     6.2500000000121403E-01     0.0000000000000000E+00 
    0.0000000000000000E+00     5.6250000000164757E-01     0.0000000000000000E+00 
    0.0000000000000000E+00     5.0000000000205946E-01     0.0000000000000000E+00 
    0.0000000000000000E+00     4.3750000000182099E-01     0.0000000000000000E+00 
    0.0000000000000000E+00     3.7500000000156092E-01     0.0000000000000000E+00 
    0.0000000000000000E+00     3.1250000000130068E-01     0.0000000000000000E+00 
    0.0000000000000000E+00     2.5000000000104050E-01     0.0000000000000000E+00 
    0.0000000000000000E+00     1.8750000000078040E-01     0.0000000000000000E+00 
    0.0000000000000000E+00     1.2500000000052031E-01     0.0000000000000000E+00 
    0.0000000000000000E+00     6.2500000000260125E-02     0.0000000000000000E+00 
    6.2499999999897131E-02     6.2500000000235922E-02     0.0000000000000000E+00 
    6.2499999999921327E-02     1.2500000000047351E-01     0.0000000000000000E+00 
    6.2499999999945530E-02     1.8750000000070621E-01     0.0000000000000000E+00 
    6.2499999999969733E-02     2.5000000000093858E-01     0.0000000000000000E+00 
    6.2499999999993928E-02     3.1250000000117117E-01     0.0000000000000000E+00 
    6.2500000000018124E-02     3.7500000000140382E-01     0.0000000000000000E+00 
    6.2500000000042327E-02     4.3750000000163619E-01     0.0000000000000000E+00 
    6.2500000000066530E-02     5.0000000000184897E-01     0.0000000000000000E+00 
    6.2500000000090733E-02     5.6250000000147260E-01     0.0000000000000000E+00 
    6.2500000000114922E-02     6.2500000000107636E-01     0.0000000000000000E+00 
    6.2500000000139125E-02     6.8750000000068034E-01     0.0000000000000000E+00 
    6.2500000000163328E-02     7.5000000000028411E-01     0.0000000000000000E+00 
    6.2500000000187531E-02     8.1249999999988787E-01     0.0000000000000000E+00 
    6.2500000000211720E-02     8.7499999999951172E-01     0.0000000000000000E+00 
    6.2500000000235922E-02     9.3749999999974565E-01     0.0000000000000000E+00 
    1.2499999999981980E-01     6.2500000000211733E-02     0.0000000000000000E+00 
    1.2499999999986650E-01     1.2500000000042691E-01     0.0000000000000000E+00 
    1.2499999999991319E-01     1.8750000000063199E-01     0.0000000000000000E+00 
    1.2499999999995989E-01     2.5000000000083678E-01     0.0000000000000000E+00 
    1.2500000000000661E-01     3.1250000000104172E-01     0.0000000000000000E+00 
    1.2500000000005329E-01     3.7500000000124661E-01     0.0000000000000000E+00 
    1.2500000000010000E-01     4.3750000000145117E-01     0.0000000000000000E+00 
    1.2500000000014669E-01     5.0000000000163858E-01     0.0000000000000000E+00 
    1.2500000000019340E-01     5.6250000000129741E-01     0.0000000000000000E+00 
    1.2500000000024011E-01     6.2500000000093847E-01     0.0000000000000000E+00 
    1.2500000000028680E-01     6.8750000000057998E-01     0.0000000000000000E+00 
    1.2500000000033351E-01     7.5000000000022127E-01     0.0000000000000000E+00 
    1.2500000000038020E-01     8.1249999999986211E-01     0.0000000000000000E+00 
    1.2500000000042691E-01     8.7499999999952238E-01     0.0000000000000000E+00 
    1.2500000000047359E-01     9.3749999999975164E-01     0.0000000000000000E+00 
    1.8749999999966760E-01     6.2500000000187531E-02     0.0000000000000000E+00 
    1.8749999999974179E-01     1.2500000000038020E-01     0.0000000000000000E+00 
    1.8749999999981601E-01     1.8750000000055780E-01     0.0000000000000000E+00 
    1.8749999999989009E-01     2.5000000000073502E-01     0.0000000000000000E+00 
    1.8749999999996431E-01     3.1250000000091221E-01     0.0000000000000000E+00 
    1.8750000000003850E-01     3.7500000000108941E-01     0.0000000000000000E+00 
    1.8750000000011269E-01     4.3750000000126649E-01     0.0000000000000000E+00 
    1.8750000000018691E-01     5.0000000000142808E-01     0.0000000000000000E+00 
    1.8750000000026110E-01     5.6250000000112244E-01     0.0000000000000000E+00 
    1.8750000000033529E-01     6.2500000000080080E-01     0.0000000000000000E+00 
    1.8750000000040951E-01     6.8750000000047962E-01     0.0000000000000000E+00 
    1.8750000000048361E-01     7.5000000000015843E-01     0.0000000000000000E+00 
    1.8750000000055780E-01     8.1249999999983680E-01     0.0000000000000000E+00 
    1.8750000000063199E-01     8.7499999999953304E-01     0.0000000000000000E+00 
    1.8750000000070621E-01     9.3749999999975764E-01     0.0000000000000000E+00 
    2.4999999999951281E-01     6.2500000000163314E-02     0.0000000000000000E+00 
    2.4999999999961461E-01     1.2500000000033351E-01     0.0000000000000000E+00 
    2.4999999999971650E-01     1.8750000000048361E-01     0.0000000000000000E+00 
    2.4999999999981831E-01     2.5000000000063310E-01     0.0000000000000000E+00 
    2.4999999999992020E-01     3.1250000000078260E-01     0.0000000000000000E+00 
    2.5000000000002198E-01     3.7500000000093209E-01     0.0000000000000000E+00 
    2.5000000000012390E-01     4.3750000000108180E-01     0.0000000000000000E+00 
    2.5000000000022571E-01     5.0000000000121769E-01     0.0000000000000000E+00 
    2.5000000000032763E-01     5.6250000000094724E-01     0.0000000000000000E+00 
    2.5000000000042938E-01     6.2500000000066314E-01     0.0000000000000000E+00 
    2.5000000000053119E-01     6.8750000000037925E-01     0.0000000000000000E+00 
[...]
CELL_DATA 256 
SCALARS Pressure double 1 
LOOKUP_TABLE default 

    1.0350868205030910E+00 
    9.7951021816767792E-01 
    9.3910728688723388E-01 
    8.9899108621827828E-01 
    8.5586390770871268E-01 
    8.0942720103737598E-01 
    7.5991713241237702E-01 
    7.0731549563211704E-01 
    6.4970914133564339E-01 
    5.7988171454677417E-01 
    5.0831533344796742E-01 
    4.4897602363801137E-01 
    3.9741143784257738E-01 
    3.5710795679565244E-01 
    3.3139683437651790E-01 
    3.2098337798947479E-01 
    1.0211738666575290E+00 
    9.8133587820604418E-01 
    9.4225751476665187E-01 
    9.0258450173881255E-01 
    8.5991816661068154E-01 
    8.1388613672373922E-01 
    7.6471672441127192E-01 
    7.1247754194110235E-01 
    6.5538606412681988E-01 
    5.8614174101687333E-01 
    5.1422697588701072E-01 
    4.5384688446792987E-01 
    4.0103286548401207E-01 
    3.5916733572550097E-01 
    3.3189823121563278E-01 
    3.2055247974612289E-01 
    1.0103007059128843E+00 
    9.8077151768461401E-01 
    9.4440904768659784E-01 
    9.0557195497010434E-01 
    8.6350988358618741E-01 
    8.1797550952803388E-01 
    7.6919592026584505E-01 
    7.1728772414864461E-01 
    6.6045401982492280E-01 
    5.9161561741944158E-01 
    5.1960650726303359E-01 
    4.5814201537306459E-01 
    4.0381165259710461E-01 
    3.6008487502417580E-01 
    3.3108646865503860E-01 
    3.1896035601846173E-01 
    1.0013225593258801E+00 
    9.7879955977023025E-01 
    9.4558340892971449E-01 
    9.0796630972757764E-01 
    8.6665133581097231E-01 
    8.2170193603676633E-01 
    7.7336948779327330E-01 
    7.2177406729175753E-01 
    6.6495462634105373E-01 
    5.9639888630176530E-01 
    5.2454187016520937E-01 
    4.6193836161913010E-01 
    4.0584109664096851E-01 
    3.5990154692486021E-01 
    3.2888077668915827E-01 
    3.1598430509395281E-01 
    9.9360655867984249E-01 
    9.7596920745361193E-01 
    9.4590212399387430E-01 
    9.0980934353189236E-01 
    8.6938896549809164E-01 
    8.2510113010636565E-01 
    7.7726623112228288E-01 
    7.2597807341938769E-01 
    6.6892059724848862E-01 
    6.0056490226330361E-01 
    5.2913998541055585E-01 
    4.6533296210363129E-01 
    4.0722960575303019E-01 
    3.5867131343152453E-01 
    3.2519695430627088E-01 
    3.1139364446396722E-01 
    9.8693011973245248E-01 
    9.7272259953475182E-01 
    9.4557014496927017E-01 
    9.1118222380652247E-01 
    8.7179003619535611E-01 
    8.2822306131464740E-01 
    7.8091777643491234E-01 
    7.2992798981331186E-01 
    6.7238336007435073E-01 
    6.0419362695758827E-01 
    5.3351076526529539E-01 
    4.6843987853096880E-01 
    4.0810716372359318E-01 
    3.5647147182637318E-01 
    3.1995168150241682E-01 
    3.0492989650276570E-01 
    9.8114982404789441E-01 
    9.6937007494258931E-01 
    9.4480148583646184E-01 
    9.1218321170560501E-01 
    8.7392081939777566E-01 
    8.3112244230447585E-01 
    7.8435445787418989E-01 
    7.3359112121711234E-01 
    6.7539637542406039E-01 
    6.0744722027505771E-01 
    5.3773538007381816E-01 
    4.7138502284626549E-01 
    4.0863085664839160E-01 
    3.5341630510366900E-01 
    3.1307221495388909E-01 
    2.9629562087948086E-01 
    9.7616533929795823E-01 
    9.6612243219113081E-01 
    9.4379070949614852E-01 
    9.1291881481388715E-01 
    8.7584822183049638E-01 
    8.3385698538851394E-01 
    7.8760976244060366E-01 
    7.3683232651001029E-01 
    6.7799207412930840E-01 
    6.1059489123120825E-01 
    5.4185509740459237E-01 
    4.7430090805381298E-01 
    4.0898765107418084E-01 
    3.4967066485956860E-01 
    3.0450721517782103E-01 
    2.8512878737384550E-01 
    9.7192036978960783E-01 
    9.6313461830648894E-01 
    9.4271312945360830E-01 
    9.1350368753429367E-01 
    8.7764340490519011E-01 
    8.3647799746229257E-01 
    7.9066889817745323E-01 
    7.3951508627969131E-01 
    6.8027880290111897E-01 
    6.1397008942716602E-01 
    5.4593726387146080E-01 
    4.7732623230423055E-01 
    4.0939692389194654E-01 
    3.4547013758149553E-01 
    2.9425177431412236E-01 
    2.7097606141464764E-01 
    9.6839979741689852E-01 
    9.6053328393509507E-01 
    9.4172221009164880E-01 
    9.1405319061699131E-01 
    8.7936925662930787E-01 
    8.3896763049231582E-01 
    7.9331891297472501E-01 
    7.4163998058965042E-01 
    6.8263336537595909E-01 
    6.1776201552703514E-01 
    5.5011616631640703E-01 
    4.8060646763168696E-01 
    4.1010904271241094E-01 
    3.4114270984758538E-01 
    2.8238657804938155E-01 
    2.5324914393500830E-01 
    9.6553192753531381E-01 
    9.5836207519572636E-01 
    9.4090629862790609E-01 
    9.1462009821926948E-01 
    8.8094512260713620E-01 
    8.4105509688534530E-01 
    7.9539671884134266E-01 
    7.4363800047966144E-01 
    6.8551917044216504E-01 
    6.2187986832939801E-01 
    5.5452120697316931E-01 
    4.8428477554299465E-01 
    4.1139833134705539E-01 
    3.3713312100142917E-01 
    2.6914854949316747E-01 
    2.3117101001411502E-01 
    9.6287883107646932E-01 
    9.5633054232797909E-01 
    9.4002398181172953E-01 
    9.1490081237038423E-01 
    8.8209359553227185E-01 
    8.4267471092034130E-01 
    7.9738491824855529E-01 
    7.4619914184896641E-01 
    6.8902321248431730E-01 
    6.2625772950884007E-01 
    5.5923777332815450E-01 
    4.8848630040412733E-01 
    4.1354475269717872E-01 
    3.3401919028848209E-01 
    2.5504546095045633E-01 
    2.0368982766641483E-01 
    9.6050916954129506E-01 
    9.5435773215165220E-01 
    9.3904474445795527E-01 
    9.1498955005668825E-01 
    8.8314415331109375E-01 
    8.4451670868792217E-01 
    7.9992795601963051E-01 
    7.4942979189636916E-01 
    6.9296792104788008E-01 
    6.3095432461832845E-01 
    5.6432443888417905E-01 
    4.9330380237134969E-01 
    4.1680394846852564E-01 
    3.3251140593059864E-01 
    2.4105304738657440E-01 
    1.6935503530897281E-01 
    9.5894720321640281E-01 
    9.5308227223286479E-01 
    9.3861706885166574E-01 
    9.1559539964081205E-01 
    8.8475465799911857E-01 
    8.4697648492357758E-01 
    8.0303369051062656E-01 
    7.5313861338658505E-01 
    6.9734342499204505E-01 
    6.3600899592330695E-01 
    5.6981772686613474E-01 
    4.9878700475416604E-01 
    4.2136322080321847E-01 
    3.3340350406885128E-01 
    2.2894354825192867E-01 
    1.2612814562250410E-01 
    9.5811768219312810E-01 
    9.5260068981609880E-01 
    9.3893825137730147E-01 
    9.1684340725774194E-01 
    8.8689298210838341E-01 
    8.4990167854447451E-01 
    8.0661187472776186E-01 
    7.5732340596598324E-01 
    7.0215751159248652E-01 
    6.4144666732886191E-01 
    5.7573354266228371E-01 
    5.0493744508082883E-01 
    4.2728946295773501E-01 
    3.3741863104217029E-01 
    2.2183870892825225E-01 
    7.1094644066389961E-02 
    9.5788761256930788E-01 
    9.5281682104776488E-01 
    9.3993305305564145E-01 
    9.1869715541419139E-01 
    8.8956561677429036E-01 
    8.5331037127365417E-01 
    8.1066648488890847E-01 
    7.6198411187177073E-01 
    7.0741827992211892E-01 
    6.4728324437551299E-01 
    5.8207125537203452E-01 
    5.1171266543087324E-01 
    4.3449097917821633E-01 
    3.4483971864609203E-01 
    2.2513742291220504E-01 
    0.0000000000000000E+00 

SCALARS Saturarion double 1 
LOOKUP_TABLE default 

    1.0000000000001494E+00 
    9.4520601088447154E-01 
    8.6266111675355295E-01 
    7.6166363492910250E-01 
    6.8612724532584579E-01 
    6.3093610434701797E-01 
    5.8416221691978432E-01 
    5.3798220882524805E-01 
    4.6971911309470049E-01 
    2.2267417865056671E-01 
    2.8736695571491069E-04 
    1.0000000008448205E-06 
    9.9999999999999974E-07 
    9.9999999999999995E-07 
    9.9999999999999995E-07 
    9.9999999999999995E-07 
    9.7456535526684418E-01 
    9.2350219749288631E-01 
    8.3849026561527329E-01 
    7.5197690839712650E-01 
    6.8060148386844110E-01 
    6.2532234383263829E-01 
    5.7954960533430566E-01 
    5.3447571863460286E-01 
    4.6579719766865657E-01 
    2.1106159955470377E-01 
    1.6932536775666047E-04 
    1.0000210589643018E-06 
    1.0000000000020991E-06 
    9.9999999999999995E-07 
    9.9999999999999995E-07 
    9.9999999999999995E-07 
    9.3327305780165015E-01 
    8.8912909063504386E-01 
    8.0682252453170666E-01 
    7.3361715309655195E-01 
    6.6887133543513544E-01 
    6.1481400570283828E-01 
    5.7100884913816363E-01 
    5.2788153447216313E-01 
    4.5892810746830609E-01 
    1.9564177060998469E-01 
    7.4215825955288085E-05 
    1.0000199967801252E-06 
    1.0000000000059567E-06 
    9.9999999999999995E-07 
    9.9999999999999995E-07 
    9.9999999999999995E-07 
    8.6798393253445238E-01 
    8.3456308520879907E-01 
    7.6610096269193328E-01 
    7.0470825269369430E-01 
    6.5157281819903312E-01 
    6.0475400492706488E-01 
    5.6410699807612819E-01 
    5.2276479216516736E-01 
    4.5286794045167467E-01 
    1.8396742792183188E-01 
    3.2614201448688788E-05 
    1.0000155517005966E-06 
    1.0000000000018482E-06 
    9.9999999999999995E-07 
    9.9999999999999995E-07 
    9.9999999999999995E-07 
    8.0623242148326035E-01 
    7.7917461512224595E-01 
    7.2545979641920266E-01 
    6.7390465618775819E-01 
    6.3033825488374984E-01 
    5.9138424210298346E-01 
    5.5474446758361839E-01 
    5.1519815875185937E-01 
    4.4329844462734075E-01 
    1.5990383455026730E-01 
    2.0903435739512502E-05 
    1.0000675165212307E-06 
    1.0000000000614903E-06 
    9.9999999999999995E-07 
    9.9999999999999995E-07 
    9.9999999999999995E-07 
    7.4804595562594423E-01 
    7.2841924766855759E-01 
    6.8697802548836728E-01 
    6.4366611004316021E-01 
    6.0694846380832057E-01 
    5.7427292146844966E-01 
    5.4151491974922550E-01 
    5.0362636277328821E-01 
    4.2272352082286901E-01 
    1.1510187431942095E-01 
    4.7804093866043178E-05 
    1.0003689153812601E-06 
    1.0000000001049416E-06 
    9.9999999999999995E-07 
    9.9999999999999995E-07 
    9.9999999999999995E-07 
    6.9312173623167139E-01 
    6.8039850757156262E-01 
    6.4952260376539617E-01 
    6.1376327040621104E-01 
    5.8205207340494969E-01 
    5.5431420486531746E-01 
    5.2616460751455685E-01 
    4.8666568852012382E-01 
    3.7980304731690462E-01 
    5.0524524880066715E-02 
    5.2744253172005070E-05 
    1.0004238319843657E-06 
    9.9999999999999974E-07 
    9.9999999999999995E-07 
    9.9999999999999995E-07 
    9.9999999999999995E-07 
    6.4080520640274674E-01 
    6.3434455058731243E-01 
    6.1356837994713442E-01 
    5.8482466925524024E-01 
    5.5657249290054833E-01 
    5.3238749860293977E-01 
    5.0764427692014180E-01 
    4.6412716619457911E-01 
    2.8851805611476916E-01 
    7.8728645356363168E-03 
    3.3488406689643667E-06 
    1.0000010168057255E-06 
    1.0000000000000002E-06 
    9.9999999999999995E-07 
    9.9999999999999995E-07 
    9.9999999999999995E-07 
    5.9270682851431278E-01 
    5.9118453835494833E-01 
    5.7843805641341417E-01 
    5.5605287519665547E-01 
    5.3213483971678022E-01 
    5.1006382915801263E-01 
    4.8309291946771199E-01 
    4.1467155404871325E-01 
    1.4385497080944110E-01 
    3.0313157024946521E-04 
    1.0422675906303239E-06 
    1.0000000002629522E-06 
    1.0000000000000002E-06 
    9.9999999999999995E-07 
    9.9999999999999995E-07 
    9.9999999999999995E-07 
    5.5076074317056711E-01 
    5.5227749277055305E-01 
    5.4406682321823574E-01 
    5.2729626535368368E-01 
    5.0724472233527218E-01 
    4.8079040097407466E-01 
    4.2981821845191798E-01 
    2.5169422703107625E-01 
    1.4997623527200282E-02 
    1.0844095189054638E-05 
    1.0000098393462147E-06 
    1.0000000000000146E-06 
    9.9999999999999995E-07 
    9.9999999999999995E-07 
    9.9999999999999995E-07 
    9.9999999999999995E-07 
    5.0219759408847886E-01 
    5.0646362388551158E-01 
    5.0209318833194805E-01 
    4.9015997024023328E-01 
    4.5959770126484256E-01 
    3.9461716643951306E-01 
    2.2498561531436043E-01 
    2.7014709309462429E-02 
    3.8457345619555227E-05 
    1.0001426546465937E-06 
    1.0000000000012478E-06 
    9.9999999999999995E-07 
    9.9999999999999995E-07 
    9.9999999999999995E-07 
    9.9999999999999995E-07 
    9.9999999999999995E-07 
    3.5234800303196118E-01 
    3.9313268606188506E-01 
    3.9825234596898235E-01 
    3.5491073076348806E-01 
    2.3524938768054462E-01 
    8.8655381232459668E-02 
    3.9792260542629654E-03 
    1.6823536551778811E-05 
    1.0000842680451209E-06 
    1.0000000000183657E-06 
    9.9999999999999995E-07 
    9.9999999999999995E-07 
    9.9999999999999995E-07 
    9.9999999999999995E-07 
    9.9999999999999995E-07 
    9.9999999999999995E-07 
    1.4646560294118791E-02 
    5.8632241512046331E-02 
    5.9100236167025151E-02 
    2.2085167088189056E-02 
    1.6912290938234816E-03 
    1.4376232950062787E-04 
    1.2294256720643851E-06 
    1.0000104405021880E-06 
    1.0000000000033959E-06 
    9.9999999999999995E-07 
    9.9999999999999995E-07 
    9.9999999999999995E-07 
    9.9999999999999995E-07 
    9.9999999999999995E-07 
    9.9999999999999995E-07 
    9.9999999999999995E-07 
    1.0000435731846144E-06 
    1.6890606022073039E-05 
    7.2606729111494872E-06 
    8.5874749551545609E-06 
    1.0623097739046051E-06 
    1.0021945207533794E-06 
    1.0000000198259343E-06 
    1.0000000000000101E-06 
    9.9999999999999995E-07 
    9.9999999999999995E-07 
    9.9999999999999995E-07 
    9.9999999999999995E-07 
    9.9999999999999995E-07 
    9.9999999999999995E-07 
    9.9999999999999995E-07 
    9.9999999999999995E-07 
    1.0000000000052509E-06 
    1.0000078685705905E-06 
    1.0000058776445880E-06 
    1.0000031338809384E-06 
    1.0000000066334701E-06 
    1.0000000000000038E-06 
    1.0000000000000004E-06 
    9.9999999999999995E-07 
    9.9999999999999995E-07 
    9.9999999999999995E-07 
    9.9999999999999995E-07 
    9.9999999999999995E-07 
    9.9999999999999995E-07 
    9.9999999999999995E-07 
    9.9999999999999995E-07 
    9.9999999999999995E-07 
    9.9999999999999995E-07 
    1.0000000000002308E-06 
    9.9999999999999995E-07 
    1.0000000000000012E-06 
    9.9999999999999995E-07 
    9.9999999999999995E-07 
    9.9999999999999995E-07 
    9.9999999999999995E-07 
    9.9999999999999995E-07 
    9.9999999999999995E-07 
    9.9999999999999995E-07 
    9.9999999999999995E-07 
    9.9999999999999995E-07 
    9.9999999999999995E-07 
    9.9999999999999995E-07 
    1.0000002920497127E-06 
