# vtk DataFile Version 2.0
Pressure Field Data 
ASCII 
DATASET UNSTRUCTURED_GRID 

POINTS 289 double 

    0.0000000000000000E+00     0.0000000000000000E+00     0.0000000000000000E+00 
    1.0000000000000000E+00     0.0000000000000000E+00     0.0000000000000000E+00 
    1.0000000000000000E+00     1.0000000000000000E+00     0.0000000000000000E+00 
    0.0000000000000000E+00     1.0000000000000000E+00     0.0000000000000000E+00 
    6.2499999999872928E-02     0.0000000000000000E+00     0.0000000000000000E+00 
    1.2499999999977310E-01     0.0000000000000000E+00     0.0000000000000000E+00 
    1.8749999999959341E-01     0.0000000000000000E+00     0.0000000000000000E+00 
    2.4999999999941089E-01     0.0000000000000000E+00     0.0000000000000000E+00 
    3.1249999999922851E-01     0.0000000000000000E+00     0.0000000000000000E+00 
    3.7499999999904610E-01     0.0000000000000000E+00     0.0000000000000000E+00 
    4.3749999999886358E-01     0.0000000000000000E+00     0.0000000000000000E+00 
    4.9999999999869210E-01     0.0000000000000000E+00     0.0000000000000000E+00 
    5.6249999999884603E-01     0.0000000000000000E+00     0.0000000000000000E+00 
    6.2499999999901090E-01     0.0000000000000000E+00     0.0000000000000000E+00 
    6.8749999999917577E-01     0.0000000000000000E+00     0.0000000000000000E+00 
    7.4999999999934064E-01     0.0000000000000000E+00     0.0000000000000000E+00 
    8.1249999999950551E-01     0.0000000000000000E+00     0.0000000000000000E+00 
    8.7499999999967026E-01     0.0000000000000000E+00     0.0000000000000000E+00 
    9.3749999999983513E-01     0.0000000000000000E+00     0.0000000000000000E+00 
    1.0000000000000000E+00     6.2499999999872928E-02     0.0000000000000000E+00 
    1.0000000000000000E+00     1.2499999999977310E-01     0.0000000000000000E+00 
    1.0000000000000000E+00     1.8749999999959341E-01     0.0000000000000000E+00 
    1.0000000000000000E+00     2.4999999999941089E-01     0.0000000000000000E+00 
    1.0000000000000000E+00     3.1249999999922851E-01     0.0000000000000000E+00 
    1.0000000000000000E+00     3.7499999999904610E-01     0.0000000000000000E+00 
    1.0000000000000000E+00     4.3749999999886358E-01     0.0000000000000000E+00 
    1.0000000000000000E+00     4.9999999999869210E-01     0.0000000000000000E+00 
    1.0000000000000000E+00     5.6249999999884603E-01     0.0000000000000000E+00 
    1.0000000000000000E+00     6.2499999999901090E-01     0.0000000000000000E+00 
    1.0000000000000000E+00     6.8749999999917577E-01     0.0000000000000000E+00 
    1.0000000000000000E+00     7.4999999999934064E-01     0.0000000000000000E+00 
    1.0000000000000000E+00     8.1249999999950551E-01     0.0000000000000000E+00 
    1.0000000000000000E+00     8.7499999999967026E-01     0.0000000000000000E+00 
    1.0000000000000000E+00     9.3749999999983513E-01     0.0000000000000000E+00 
    9.3749999999973976E-01     1.0000000000000000E+00     0.0000000000000000E+00 
    8.7499999999950118E-01     1.0000000000000000E+00     0.0000000000000000E+00 
    8.1249999999991318E-01     1.0000000000000000E+00     0.0000000000000000E+00 
    7.5000000000034706E-01     1.0000000000000000E+00     0.0000000000000000E+00 
    6.8750000000078049E-01     1.0000000000000000E+00     0.0000000000000000E+00 
    6.2500000000121403E-01     1.0000000000000000E+00     0.0000000000000000E+00 
    5.6250000000164757E-01     1.0000000000000000E+00     0.0000000000000000E+00 
    5.0000000000205946E-01     1.0000000000000000E+00     0.0000000000000000E+00 
    4.3750000000182099E-01     1.0000000000000000E+00     0.0000000000000000E+00 
    3.7500000000156092E-01     1.0000000000000000E+00     0.0000000000000000E+00 
    3.1250000000130068E-01     1.0000000000000000E+00     0.0000000000000000E+00 
    2.5000000000104050E-01     1.0000000000000000E+00     0.0000000000000000E+00 
    1.8750000000078040E-01     1.0000000000000000E+00     0.0000000000000000E+00 
    1.2500000000052031E-01     1.0000000000000000E+00     0.0000000000000000E+00 
    6.2500000000260125E-02     1.0000000000000000E+00     0.0000000000000000E+00 
    0.0000000000000000E+00     9.3749999999973976E-01     0.0000000000000000E+00 
    0.0000000000000000E+00     8.7499999999950118E-01     0.0000000000000000E+00 
    0.0000000000000000E+00     8.1249999999991318E-01     0.0000000000000000E+00 
    0.0000000000000000E+00     7.5000000000034706E-01     0.0000000000000000E+00 
    0.0000000000000000E+00     6.8750000000078049E-01     0.0000000000000000E+00 
    0.0000000000000000E+00     6.2500000000121403E-01     0.0000000000000000E+00 
    0.0000000000000000E+00     5.6250000000164757E-01     0.0000000000000000E+00 
    0.0000000000000000E+00     5.0000000000205946E-01     0.0000000000000000E+00 
    0.0000000000000000E+00     4.3750000000182099E-01     0.0000000000000000E+00 
    0.0000000000000000E+00     3.7500000000156092E-01     0.0000000000000000E+00 
    0.0000000000000000E+00     3.1250000000130068E-01     0.0000000000000000E+00 
    0.0000000000000000E+00     2.5000000000104050E-01     0.0000000000000000E+00 
    0.0000000000000000E+00     1.8750000000078040E-01     0.0000000000000000E+00 
    0.0000000000000000E+00     1.2500000000052031E-01     0.0000000000000000E+00 
    0.0000000000000000E+00     6.2500000000260125E-02     0.0000000000000000E+00 
    6.2499999999897131E-02     6.2500000000235922E-02     0.0000000000000000E+00 
    6.2499999999921327E-02     1.2500000000047351E-01     0.0000000000000000E+00 
    6.2499999999945530E-02     1.8750000000070621E-01     0.0000000000000000E+00 
    6.2499999999969733E-02     2.5000000000093858E-01     0.0000000000000000E+00 
    6.2499999999993928E-02     3.1250000000117117E-01     0.0000000000000000E+00 
    6.2500000000018124E-02     3.7500000000140382E-01     0.0000000000000000E+00 
    6.2500000000042327E-02     4.3750000000163619E-01     0.0000000000000000E+00 
    6.2500000000066530E-02     5.0000000000184897E-01     0.0000000000000000E+00 
    6.2500000000090733E-02     5.6250000000147260E-01     0.0000000000000000E+00 
    6.2500000000114922E-02     6.2500000000107636E-01     0.0000000000000000E+00 
    6.2500000000139125E-02     6.8750000000068034E-01     0.0000000000000000E+00 
    6.2500000000163328E-02     7.5000000000028411E-01     0.0000000000000000E+00 
    6.2500000000187531E-02     8.1249999999988787E-01     0.0000000000000000E+00 
    6.2500000000211720E-02     8.7499999999951172E-01     0.0000000000000000E+00 
    6.2500000000235922E-02     9.3749999999974565E-01     0.0000000000000000E+00 
    1.2499999999981980E-01     6.2500000000211733E-02     0.0000000000000000E+00 
    1.2499999999986650E-01     1.2500000000042691E-01     0.0000000000000000E+00 
    1.2499999999991319E-01     1.8750000000063199E-01     0.0000000000000000E+00 
    1.2499999999995989E-01     2.5000000000083678E-01     0.0000000000000000E+00 
    1.2500000000000661E-01     3.1250000000104172E-01     0.0000000000000000E+00 
    1.2500000000005329E-01     3.7500000000124661E-01     0.0000000000000000E+00 
    1.2500000000010000E-01     4.3750000000145117E-01     0.0000000000000000E+00 
    1.2500000000014669E-01     5.0000000000163858E-01     0.0000000000000000E+00 
    1.2500000000019340E-01     5.6250000000129741E-01     0.0000000000000000E+00 
    1.2500000000024011E-01     6.2500000000093847E-01     0.0000000000000000E+00 
    1.2500000000028680E-01     6.8750000000057998E-01     0.0000000000000000E+00 
    1.2500000000033351E-01     7.5000000000022127E-01     0.0000000000000000E+00 
    1.2500000000038020E-01     8.1249999999986211E-01     0.0000000000000000E+00 
    1.2500000000042691E-01     8.7499999999952238E-01     0.0000000000000000E+00 
    1.2500000000047359E-01     9.3749999999975164E-01     0.0000000000000000E+00 
    1.8749999999966760E-01     6.2500000000187531E-02     0.0000000000000000E+00 
    1.8749999999974179E-01     1.2500000000038020E-01     0.0000000000000000E+00 
    1.8749999999981601E-01     1.8750000000055780E-01     0.0000000000000000E+00 
    1.8749999999989009E-01     2.5000000000073502E-01     0.0000000000000000E+00 
    1.8749999999996431E-01     3.1250000000091221E-01     0.0000000000000000E+00 
    1.8750000000003850E-01     3.7500000000108941E-01     0.0000000000000000E+00 
    1.8750000000011269E-01     4.3750000000126649E-01     0.0000000000000000E+00 
    1.8750000000018691E-01     5.0000000000142808E-01     0.0000000000000000E+00 
    1.8750000000026110E-01     5.6250000000112244E-01     0.0000000000000000E+00 
    1.8750000000033529E-01     6.2500000000080080E-01     0.0000000000000000E+00 
    1.8750000000040951E-01     6.8750000000047962E-01     0.0000000000000000E+00 
    1.8750000000048361E-01     7.5000000000015843E-01     0.0000000000000000E+00 
    1.8750000000055780E-01     8.1249999999983680E-01     0.0000000000000000E+00 
    1.8750000000063199E-01     8.7499999999953304E-01     0.0000000000000000E+00 
    1.8750000000070621E-01     9.3749999999975764E-01     0.0000000000000000E+00 
    2.4999999999951281E-01     6.2500000000163314E-02     0.0000000000000000E+00 
    2.4999999999961461E-01     1.2500000000033351E-01     0.0000000000000000E+00 
    2.4999999999971650E-01     1.8750000000048361E-01     0.0000000000000000E+00 
    2.4999999999981831E-01     2.5000000000063310E-01     0.0000000000000000E+00 
    2.4999999999992020E-01     3.1250000000078260E-01     0.0000000000000000E+00 
    2.5000000000002198E-01     3.7500000000093209E-01     0.0000000000000000E+00 
    2.5000000000012390E-01     4.3750000000108180E-01     0.0000000000000000E+00 
    2.5000000000022571E-01     5.0000000000121769E-01     0.0000000000000000E+00 
    2.5000000000032763E-01     5.6250000000094724E-01     0.0000000000000000E+00 
    2.5000000000042938E-01     6.2500000000066314E-01     0.0000000000000000E+00 
    2.5000000000053119E-01     6.8750000000037925E-01     0.0000000000000000E+00 
[...]
CELL_DATA 256 
SCALARS Pressure double 1 
LOOKUP_TABLE default 

    9.5238910132215227E-01 
    8.9889834220910836E-01 
    8.6151644640410130E-01 
    8.2534683698409850E-01 
    7.8707141838818717E-01 
    7.4606305440424925E-01 
    7.0244341089725904E-01 
    6.5669122596673912E-01 
    6.0936867451195265E-01 
    5.6105611629800256E-01 
    5.1201332852564141E-01 
    4.6010059042189688E-01 
    4.0511044245907768E-01 
    3.6078259062204965E-01 
    3.3443941417848866E-01 
    3.2384962570678155E-01 
    9.3847310069319956E-01 
    9.0054725938156088E-01 
    8.6442484659644836E-01 
    8.2862364435848168E-01 
    7.9070573619480489E-01 
    7.5003458491878860E-01 
    7.0668419574593266E-01 
    6.6111571606718167E-01 
    6.1388810527917059E-01 
    5.6558085411917736E-01 
    5.1650455733638201E-01 
    4.6454731822122369E-01 
    4.0886375510265660E-01 
    3.6290992294887742E-01 
    3.3493764222300582E-01 
    3.2340305279311682E-01 
    9.2771374411761465E-01 
    8.9991997341350316E-01 
    8.6644517882290750E-01 
    8.3141766826879682E-01 
    7.9398787266544180E-01 
    7.5372403145415412E-01 
    7.1068775623790481E-01 
    6.6532067522346727E-01 
    6.1817013889734096E-01 
    5.6979369785837897E-01 
    5.2049994323497395E-01 
    4.6819519492290940E-01 
    4.1151408111948584E-01 
    3.6373999758548853E-01 
    3.3406811628927907E-01 
    3.2176256937313114E-01 
    9.1903575554379913E-01 
    8.9803518335630905E-01 
    8.6760544048674815E-01 
    8.3372663438935857E-01 
    7.9693028596877413E-01 
    7.5713795834952302E-01 
    7.1445978210673255E-01 
    6.6932114040512503E-01 
    6.2224345166353112E-01 
    5.7374234239716082E-01 
    5.2407720899439714E-01 
    4.7113221924686105E-01 
    4.1316115804258974E-01 
    3.6332060246342185E-01 
    3.3174059179469861E-01 
    3.1870024749712661E-01 
    9.1178634060532560E-01 
    8.9545416013241796E-01 
    8.6802678775161679E-01 
    8.3556936105071355E-01 
    7.9955757455678123E-01 
    7.6030352365748188E-01 
    7.1802356599362749E-01 
    6.7314111124875442E-01 
    6.2614120071156376E-01 
    5.7748103854397526E-01 
    5.2732802266018997E-01 
    4.7343986751065614E-01 
    4.1389520857855022E-01 
    3.6172212754682753E-01 
    3.2786875978769431E-01 
    3.1398228556720148E-01 
    9.0566065056874301E-01 
    8.9256627423206247E-01 
    8.6788182495865318E-01 
    8.3699750745117640E-01 
    8.0190547875437923E-01 
    7.6325956771816883E-01 
    7.2141425132763393E-01 
    6.7681021286707665E-01 
    6.2989594279124872E-01 
    5.8105878780119624E-01 
    5.3033819170167273E-01 
    4.7519584275701993E-01 
    4.1381708691679442E-01 
    3.5905406976368315E-01 
    3.2237383408164799E-01 
    3.0735001304939236E-01 
    9.0046315541325672E-01 
    8.8963671690190205E-01 
    8.6735613170490178E-01 
    8.3808895600518662E-01 
    8.0401624650959291E-01 
    7.6604615928057751E-01 
    7.2466945205955591E-01 
    6.8036301110210629E-01 
    6.3354495714740677E-01 
    5.8452304107771824E-01 
    5.3318202426719530E-01 
    4.7649413569690702E-01 
    4.1307474913403414E-01 
    3.5547101140357518E-01 
    3.1519283844571827E-01 
    2.9850887651402108E-01 
    8.9605583599739258E-01 
    8.8683666462264377E-01 
    8.6661488414204935E-01 
    8.3893112519968838E-01 
    8.0593835188250795E-01 
    7.6870161425224026E-01 
    7.2782806765004593E-01 
    6.8383981598958588E-01 
    6.3713032015271431E-01 
    5.8792400264940148E-01 
    5.3590186417639396E-01 
    4.7744398035269009E-01 
    4.1189077115588557E-01 
    3.5117575839770976E-01 
    3.0628735628360781E-01 
    2.8710238931355681E-01 
    8.9233865923534639E-01 
    8.8427375696351973E-01 
    8.6579763789311692E-01 
    8.3961674694448574E-01 
    8.0772607644330052E-01 
    7.7126401062493311E-01 
    7.3092801404664798E-01 
    6.8728390645804438E-01 
    6.4069589737611099E-01 
    5.9130328662310339E-01 
    5.3843199170962475E-01 
    4.7810746427802087E-01 
    4.1057188821559987E-01 
    3.4641948736420958E-01 
    2.9566504717683945E-01 
    2.7268480038554727E-01 
    8.8924979500649848E-01 
    8.8202605431888670E-01 
    8.6502466737407324E-01 
    8.4024011754003669E-01 
    8.0944240237837450E-01 
    7.7377711672132532E-01 
    7.3400606214400044E-01 
    6.9073181332859779E-01 
    6.4426630800068752E-01 
    5.9462489965549781E-01 
    5.4060757628047884E-01 
    4.7860252808202691E-01 
    4.0956268503419035E-01 
    3.4149993626397129E-01 
    2.8341543418366022E-01 
    2.5467634288233293E-01 
    8.8676576085455572E-01 
    8.8016777100429444E-01 
    8.6440721085136607E-01 
    8.4089693468892501E-01 
    8.1115968605816180E-01 
    7.7628883887917310E-01 
    7.3708183743997979E-01 
    6.9417384314323660E-01 
    6.4773856245298955E-01 
    5.9762828571575188E-01 
    5.4243685547237741E-01 
    4.7949799958358369E-01 
    4.0944273403404302E-01 
    3.3684321104521792E-01 
    2.6978229166199258E-01 
    2.3230910312646666E-01 
    8.8484014962594837E-01 
    8.7873594171135494E-01 
    8.6402336386038137E-01 
    8.4166033172476207E-01 
    8.1292507863281205E-01 
    7.7877380444147504E-01 
    7.4001083522680577E-01 
    6.9737982687541333E-01 
    6.5090867740363778E-01 
    6.0033413539098535E-01 
    5.4458319132595612E-01 
    4.8146163316071311E-01 
    4.1045352829095438E-01 
    3.3307319306047911E-01 
    2.5528490089095390E-01 
    2.0454154530965232E-01 
    8.8318180852170791E-01 
    8.7755732084540194E-01 
    8.6377455328835029E-01 
    8.4240690432097209E-01 
    8.1454939000671378E-01 
    7.8104002000081463E-01 
    7.4266740886010818E-01 
    7.0032773867696740E-01 
    6.5405266211532020E-01 
    6.0345090430563997E-01 
    5.4766196093552766E-01 
    4.8457562462352222E-01 
    4.1264872558856164E-01 
    3.3093718720770904E-01 
    2.4091431713541589E-01 
    1.6993494590616809E-01 
    8.8181841153729201E-01 
    8.7653674197957621E-01 
    8.6357312195934122E-01 
    8.4310899529220307E-01 
    8.1606139572267122E-01 
    7.8324203061972064E-01 
    7.4543849686463504E-01 
    7.0353059285319919E-01 
    6.5762251172588693E-01 
    6.0726287400557033E-01 
    5.5157865095476355E-01 
    4.8862532532633807E-01 
    4.1625586421144750E-01 
    3.3125443798743359E-01 
    2.2845908923299355E-01 
    1.2646423663130701E-01 
    8.8106782830779651E-01 
    8.7608817013489038E-01 
    8.6382850706570646E-01 
    8.4419555637851451E-01 
    8.1793166186229216E-01 
    7.8581791132751033E-01 
    7.4862832149501690E-01 
    7.0715862314486277E-01 
    6.6159899191324634E-01 
    6.1156434661358761E-01 
    5.5617611942461753E-01 
    4.9359718979676381E-01 
    4.2137206973239560E-01 
    3.3477183821858686E-01 
    2.2105682641342408E-01 
    7.1229660023641075E-02 
    8.8086205404138174E-01 
    8.7628694913300131E-01 
    8.6472798259091710E-01 
    8.4585422240767649E-01 
    8.2028750305810338E-01 
    7.8879369049739412E-01 
    7.5214525256740783E-01 
    7.1111666379020677E-01 
    6.6595364444393979E-01 
    6.1633057085038656E-01 
    5.6140526230098242E-01 
    4.9943385161345566E-01 
    4.2792730014645436E-01 
    3.4179359176424484E-01 
    2.2412084278428979E-01 
    0.0000000000000000E+00 

SCALARS Saturarion double 1 
LOOKUP_TABLE default 

    1.0000000000000542E+00 
    9.5725175908400872E-01 
    8.8758620970074864E-01 
    8.0345316776889819E-01 
    7.3421968791525993E-01 
    6.8062796943660320E-01 
    6.3795465149529640E-01 
    6.0132246274628309E-01 
    5.6788540588266512E-01 
    5.3590308674101650E-01 
    4.9829685305873161E-01 
    4.1076717745980718E-01 
    8.7222469733681640E-02 
    1.0000000075800984E-06 
    1.0000000000000042E-06 
    9.9999999999999995E-07 
    9.8139739194429965E-01 
    9.4108995147854946E-01 
    8.6835797943846060E-01 
    7.9328326761781010E-01 
    7.2934655844521523E-01 
    6.7682777458364174E-01 
    6.3401372608968476E-01 
    5.9770602026269271E-01 
    5.6516455837614998E-01 
    5.3398476634538383E-01 
    4.9711427233695921E-01 
    4.1171107110922811E-01 
    9.2927661686453028E-02 
    1.0011815632165336E-06 
    1.0000000002520416E-06 
    9.9999999999999995E-07 
    9.5196640449557024E-01 
    9.1443329879961632E-01 
    8.4318513714716758E-01 
    7.7570636381105118E-01 
    7.1871901602134902E-01 
    6.6866934712932269E-01 
    6.2629833730411766E-01 
    5.9073738161040679E-01 
    5.5972992748195616E-01 
    5.3004803253529331E-01 
    4.9482748481052269E-01 
    4.1304886171985361E-01 
    9.9620010634129119E-02 
    1.0492026048270652E-06 
    1.0000000269348411E-06 
    9.9999999999999995E-07 
    9.0150923672496230E-01 
    8.7284483884824926E-01 
    8.1170353886303326E-01 
    7.5076368054308495E-01 
    7.0063343053952953E-01 
    6.5685372599544711E-01 
    6.1809732633002956E-01 
    5.8464771349202382E-01 
    5.5493574897354503E-01 
    5.2670637710172186E-01 
    4.9349672623249535E-01 
    4.1631478668928051E-01 
    1.1135866551039331E-01 
    2.4302445856205879E-06 
    1.0000006873644476E-06 
    1.0000000000000612E-06 
    8.4998699467517491E-01 
    8.2591903019878665E-01 
    7.7506111758806007E-01 
    7.2264163356802213E-01 
    6.7834850908919953E-01 
    6.4055547240580035E-01 
    6.0716728185080404E-01 
    5.7701872602021376E-01 
    5.4930116758194669E-01 
    5.2235882990322802E-01 
    4.9056702378825606E-01 
    4.1782613757996029E-01 
    1.2066088550299028E-01 
    1.8405659193724503E-06 
    1.0000007297095038E-06 
    1.0000000000000040E-06 
    7.9863381627379615E-01 
    7.8005522457315313E-01 
    7.3936282280494992E-01 
    6.9449945656028678E-01 
    6.5488808100703777E-01 
    6.2154169342883614E-01 
    5.9231279662384595E-01 
    5.6559029911784575E-01 
    5.4048432064334750E-01 
    5.1562609428811634E-01 
    4.8484642378143694E-01 
    4.1407149854408659E-01 
    1.1893209993406401E-01 
    9.1011875955501168E-06 
    1.0000118179142217E-06 
    1.0000000000032824E-06 
    7.4799060917596838E-01 
    7.3531715779573203E-01 
    7.0383199982367917E-01 
    6.6561949008805066E-01 
    6.3068083795369423E-01 
    6.0104582330893452E-01 
    5.7550658264574861E-01 
    5.5200533622020598E-01 
    5.2942600097673487E-01 
    5.0654284555068219E-01 
    4.7724893578195687E-01 
    4.0358466304907969E-01 
    1.0181887520704110E-01 
    2.0048675171737009E-05 
    1.0000469262756444E-06 
    1.0000000000113762E-06 
    6.9763112077443834E-01 
    6.9055070762221538E-01 
    6.6790772145522803E-01 
    6.3666951538091454E-01 
    6.0593642637202993E-01 
    5.7894977587181595E-01 
    5.5589860227471222E-01 
    5.3603583530049004E-01 
    5.1688402758038110E-01 
    4.9598113335895644E-01 
    4.6709158940200324E-01 
    3.8237291474358515E-01 
    6.9627289190119193E-02 
    3.2554668624609137E-05 
    1.0001051360105718E-06 
    1.0000000000085452E-06 
    6.4768220492931905E-01 
    6.4526775809319892E-01 
    6.3045611976128768E-01 
    6.0654670366633023E-01 
    5.8054955530394370E-01 
    5.5599240316450438E-01 
    5.3525141066159143E-01 
    5.1796644430610805E-01 
    5.0154156750866785E-01 
    4.8229744132242414E-01 
    4.4983569215156088E-01 
    3.2551091554833417E-01 
    2.3944267058095568E-02 
    1.9781683232775924E-05 
    1.0000343352278357E-06 
    1.0000000000000004E-06 
    5.9949358076616877E-01 
    6.0079653974344616E-01 
    5.9272516761064387E-01 
    5.7510572475922717E-01 
    5.5408954129865484E-01 
    5.3327119484898056E-01 
    5.1462813088080350E-01 
    4.9799115762756302E-01 
    4.8128282295751856E-01 
    4.5768474078481836E-01 
    4.0148291600640618E-01 
    1.8101430910197250E-01 
    1.1049516369905303E-03 
    1.0640876174159677E-06 
    1.0000000054311968E-06 
    1.0000000000000002E-06 
    5.5595163568074857E-01 
    5.5969685593861074E-01 
    5.5620030189769665E-01 
    5.4281015515756137E-01 
    5.2680731024896754E-01 
    5.0993505813111117E-01 
    4.9128209387583410E-01 
    4.6994339474247904E-01 
    4.4139263256850336E-01 
    3.7974752180250615E-01 
    2.1536871394262919E-01 
    1.7742884326997641E-02 
    1.2762261361194015E-05 
    1.0000137273656382E-06 
    1.0000000000000167E-06 
    9.9999999999999995E-07 
    5.0663650939596994E-01 
    5.1421552556280692E-01 
    5.1426799315889837E-01 
    5.0497243112239165E-01 
    4.9081877471767477E-01 
    4.6828618508714964E-01 
    4.2399055252086115E-01 
    3.4929602398740384E-01 
    2.2975265285567334E-01 
    8.8707417040931949E-02 
    4.1083267210663393E-03 
    1.0372487289088673E-05 
    1.0000243545753850E-06 
    1.0000000000032759E-06 
    9.9999999999999995E-07 
    9.9999999999999995E-07 
    3.5256580077591132E-01 
    4.0126574266061465E-01 
    4.2158802614867830E-01 
    4.0558946753732061E-01 
    3.5488444316702522E-01 
    2.4352460972626550E-01 
    1.1171854307136482E-01 
    1.9617714847256509E-02 
    1.1102368208714606E-03 
    1.3677285719866476E-04 
    1.2602450270399242E-06 
    1.0000032090475521E-06 
    1.0000000000003612E-06 
    9.9999999999999995E-07 
    9.9999999999999995E-07 
    9.9999999999999995E-07 
    1.2867778136718596E-02 
    6.8599398384771429E-02 
    8.7684220637928328E-02 
    5.4416917479445437E-02 
    2.2307689947096955E-02 
    1.6969250352281684E-03 
    3.6183678007056669E-05 
    6.9108230552217137E-06 
    1.0177925205713999E-06 
    1.0016989037950050E-06 
    1.0000000181129605E-06 
    1.0000000000000499E-06 
    9.9999999999999995E-07 
    9.9999999999999995E-07 
    9.9999999999999995E-07 
    9.9999999999999995E-07 
    1.0001472326288334E-06 
    3.7274596749559424E-05 
    1.3357538781897682E-06 
    1.7543351497695589E-05 
    6.3413629046793552E-06 
    1.0405624517452364E-06 
    1.0001633506119426E-06 
    1.0000014734606425E-06 
    1.0000000013729343E-06 
    1.0000000000000014E-06 
    1.0000000000000006E-06 
    9.9999999999999995E-07 
    9.9999999999999995E-07 
    9.9999999999999995E-07 
    9.9999999999999995E-07 
    9.9999999999999995E-07 
    1.0000000000117765E-06 
    1.0000291172828876E-06 
    1.0000001454500806E-06 
    1.0000052746431668E-06 
    1.0000014181922854E-06 
    1.0000000021146973E-06 
    1.0000000000000016E-06 
    9.9999999999999995E-07 
    9.9999999999999995E-07 
    9.9999999999999995E-07 
    9.9999999999999995E-07 
    9.9999999999999995E-07 
    9.9999999999999995E-07 
    9.9999999999999995E-07 
    9.9999999999999995E-07 
    1.0000004192376113E-06 
