# vtk DataFile Version 2.0
Pressure Field Data 
ASCII 
DATASET UNSTRUCTURED_GRID 

POINTS 289 double 

    0.0000000000000000E+00     0.0000000000000000E+00     0.0000000000000000E+00 
    1.0000000000000000E+00     0.0000000000000000E+00     0.0000000000000000E+00 
    1.0000000000000000E+00     1.0000000000000000E+00     0.0000000000000000E+00 
    0.0000000000000000E+00     1.0000000000000000E+00     0.0000000000000000E+00 
    6.2499999999872928E-02     0.0000000000000000E+00     0.0000000000000000E+00 
    1.2499999999977310E-01     0.0000000000000000E+00     0.0000000000000000E+00 
    1.8749999999959341E-01     0.0000000000000000E+00     0.0000000000000000E+00 
    2.4999999999941089E-01     0.0000000000000000E+00     0.0000000000000000E+00 
    3.1249999999922851E-01     0.0000000000000000E+00     0.0000000000000000E+00 
    3.7499999999904610E-01     0.0000000000000000E+00     0.0000000000000000E+00 
    4.3749999999886358E-01     0.0000000000000000E+00     0.0000000000000000E+00 
    4.9999999999869210E-01     0.0000000000000000E+00     0.0000000000000000E+00 
    5.6249999999884603E-01     0.0000000000000000E+00     0.0000000000000000E+00 
    6.2499999999901090E-01     0.0000000000000000E+00     0.0000000000000000E+00 
    6.8749999999917577E-01     0.0000000000000000E+00     0.0000000000000000E+00 
    7.4999999999934064E-01     0.0000000000000000E+00     0.0000000000000000E+00 
    8.1249999999950551E-01     0.0000000000000000E+00     0.0000000000000000E+00 
    8.7499999999967026E-01     0.0000000000000000E+00     0.0000000000000000E+00 
    9.3749999999983513E-01     0.0000000000000000E+00     0.0000000000000000E+00 
    1.0000000000000000E+00     6.2499999999872928E-02     0.0000000000000000E+00 
    1.0000000000000000E+00     1.2499999999977310E-01     0.0000000000000000E+00 
    1.0000000000000000E+00     1.8749999999959341E-01     0.0000000000000000E+00 
    1.0000000000000000E+00     2.4999999999941089E-01     0.0000000000000000E+00 
    1.0000000000000000E+00     3.1249999999922851E-01     0.0000000000000000E+00 
    1.0000000000000000E+00     3.7499999999904610E-01     0.0000000000000000E+00 
    1.0000000000000000E+00     4.3749999999886358E-01     0.0000000000000000E+00 
    1.0000000000000000E+00     4.9999999999869210E-01     0.0000000000000000E+00 
    1.0000000000000000E+00     5.6249999999884603E-01     0.0000000000000000E+00 
    1.0000000000000000E+00     6.2499999999901090E-01     0.0000000000000000E+00 
    1.0000000000000000E+00     6.8749999999917577E-01     0.0000000000000000E+00 
    1.0000000000000000E+00     7.4999999999934064E-01     0.0000000000000000E+00 
    1.0000000000000000E+00     8.1249999999950551E-01     0.0000000000000000E+00 
    1.0000000000000000E+00     8.7499999999967026E-01     0.0000000000000000E+00 
    1.0000000000000000E+00     9.3749999999983513E-01     0.0000000000000000E+00 
    9.3749999999973976E-01     1.0000000000000000E+00     0.0000000000000000E+00 
    8.7499999999950118E-01     1.0000000000000000E+00     0.0000000000000000E+00 
    8.1249999999991318E-01     1.0000000000000000E+00     0.0000000000000000E+00 
    7.5000000000034706E-01     1.0000000000000000E+00     0.0000000000000000E+00 
    6.8750000000078049E-01     1.0000000000000000E+00     0.0000000000000000E+00 
    6.2500000000121403E-01     1.0000000000000000E+00     0.0000000000000000E+00 
    5.6250000000164757E-01     1.0000000000000000E+00     0.0000000000000000E+00 
    5.0000000000205946E-01     1.0000000000000000E+00     0.0000000000000000E+00 
    4.3750000000182099E-01     1.0000000000000000E+00     0.0000000000000000E+00 
    3.7500000000156092E-01     1.0000000000000000E+00     0.0000000000000000E+00 
    3.1250000000130068E-01     1.0000000000000000E+00     0.0000000000000000E+00 
    2.5000000000104050E-01     1.0000000000000000E+00     0.0000000000000000E+00 
    1.8750000000078040E-01     1.0000000000000000E+00     0.0000000000000000E+00 
    1.2500000000052031E-01     1.0000000000000000E+00     0.0000000000000000E+00 
    6.2500000000260125E-02     1.0000000000000000E+00     0.0000000000000000E+00 
    0.0000000000000000E+00     9.3749999999973976E-01     0.0000000000000000E+00 
    0.0000000000000000E+00     8.7499999999950118E-01     0.0000000000000000E+00 
    0.0000000000000000E+00     8.1249999999991318E-01     0.0000000000000000E+00 
    0.0000000000000000E+00     7.5000000000034706E-01     0.0000000000000000E+00 
    0.0000000000000000E+00     6.8750000000078049E-01     0.0000000000000000E+00 
    0.0000000000000000E+00     6.2500000000121403E-01     0.0000000000000000E+00 
    0.0000000000000000E+00     5.6250000000164757E-01     0.0000000000000000E+00 
    0.0000000000000000E+00     5.0000000000205946E-01     0.0000000000000000E+00 
    0.0000000000000000E+00     4.3750000000182099E-01     0.0000000000000000E+00 
    0.0000000000000000E+00     3.7500000000156092E-01     0.0000000000000000E+00 
    0.0000000000000000E+00     3.1250000000130068E-01     0.0000000000000000E+00 
    0.0000000000000000E+00     2.5000000000104050E-01     0.0000000000000000E+00 
    0.0000000000000000E+00     1.8750000000078040E-01     0.0000000000000000E+00 
    0.0000000000000000E+00     1.2500000000052031E-01     0.0000000000000000E+00 
    0.0000000000000000E+00     6.2500000000260125E-02     0.0000000000000000E+00 
    6.2499999999897131E-02     6.2500000000235922E-02     0.0000000000000000E+00 
    6.2499999999921327E-02     1.2500000000047351E-01     0.0000000000000000E+00 
    6.2499999999945530E-02     1.8750000000070621E-01     0.0000000000000000E+00 
    6.2499999999969733E-02     2.5000000000093858E-01     0.0000000000000000E+00 
    6.2499999999993928E-02     3.1250000000117117E-01     0.0000000000000000E+00 
    6.2500000000018124E-02     3.7500000000140382E-01     0.0000000000000000E+00 
    6.2500000000042327E-02     4.3750000000163619E-01     0.0000000000000000E+00 
    6.2500000000066530E-02     5.0000000000184897E-01     0.0000000000000000E+00 
    6.2500000000090733E-02     5.6250000000147260E-01     0.0000000000000000E+00 
    6.2500000000114922E-02     6.2500000000107636E-01     0.0000000000000000E+00 
    6.2500000000139125E-02     6.8750000000068034E-01     0.0000000000000000E+00 
    6.2500000000163328E-02     7.5000000000028411E-01     0.0000000000000000E+00 
    6.2500000000187531E-02     8.1249999999988787E-01     0.0000000000000000E+00 
    6.2500000000211720E-02     8.7499999999951172E-01     0.0000000000000000E+00 
    6.2500000000235922E-02     9.3749999999974565E-01     0.0000000000000000E+00 
    1.2499999999981980E-01     6.2500000000211733E-02     0.0000000000000000E+00 
    1.2499999999986650E-01     1.2500000000042691E-01     0.0000000000000000E+00 
    1.2499999999991319E-01     1.8750000000063199E-01     0.0000000000000000E+00 
    1.2499999999995989E-01     2.5000000000083678E-01     0.0000000000000000E+00 
    1.2500000000000661E-01     3.1250000000104172E-01     0.0000000000000000E+00 
    1.2500000000005329E-01     3.7500000000124661E-01     0.0000000000000000E+00 
    1.2500000000010000E-01     4.3750000000145117E-01     0.0000000000000000E+00 
    1.2500000000014669E-01     5.0000000000163858E-01     0.0000000000000000E+00 
    1.2500000000019340E-01     5.6250000000129741E-01     0.0000000000000000E+00 
    1.2500000000024011E-01     6.2500000000093847E-01     0.0000000000000000E+00 
    1.2500000000028680E-01     6.8750000000057998E-01     0.0000000000000000E+00 
    1.2500000000033351E-01     7.5000000000022127E-01     0.0000000000000000E+00 
    1.2500000000038020E-01     8.1249999999986211E-01     0.0000000000000000E+00 
    1.2500000000042691E-01     8.7499999999952238E-01     0.0000000000000000E+00 
    1.2500000000047359E-01     9.3749999999975164E-01     0.0000000000000000E+00 
    1.8749999999966760E-01     6.2500000000187531E-02     0.0000000000000000E+00 
    1.8749999999974179E-01     1.2500000000038020E-01     0.0000000000000000E+00 
    1.8749999999981601E-01     1.8750000000055780E-01     0.0000000000000000E+00 
    1.8749999999989009E-01     2.5000000000073502E-01     0.0000000000000000E+00 
    1.8749999999996431E-01     3.1250000000091221E-01     0.0000000000000000E+00 
    1.8750000000003850E-01     3.7500000000108941E-01     0.0000000000000000E+00 
    1.8750000000011269E-01     4.3750000000126649E-01     0.0000000000000000E+00 
    1.8750000000018691E-01     5.0000000000142808E-01     0.0000000000000000E+00 
    1.8750000000026110E-01     5.6250000000112244E-01     0.0000000000000000E+00 
    1.8750000000033529E-01     6.2500000000080080E-01     0.0000000000000000E+00 
    1.8750000000040951E-01     6.8750000000047962E-01     0.0000000000000000E+00 
    1.8750000000048361E-01     7.5000000000015843E-01     0.0000000000000000E+00 
    1.8750000000055780E-01     8.1249999999983680E-01     0.0000000000000000E+00 
    1.8750000000063199E-01     8.7499999999953304E-01     0.0000000000000000E+00 
    1.8750000000070621E-01     9.3749999999975764E-01     0.0000000000000000E+00 
    2.4999999999951281E-01     6.2500000000163314E-02     0.0000000000000000E+00 
    2.4999999999961461E-01     1.2500000000033351E-01     0.0000000000000000E+00 
    2.4999999999971650E-01     1.8750000000048361E-01     0.0000000000000000E+00 
    2.4999999999981831E-01     2.5000000000063310E-01     0.0000000000000000E+00 
    2.4999999999992020E-01     3.1250000000078260E-01     0.0000000000000000E+00 
    2.5000000000002198E-01     3.7500000000093209E-01     0.0000000000000000E+00 
    2.5000000000012390E-01     4.3750000000108180E-01     0.0000000000000000E+00 
    2.5000000000022571E-01     5.0000000000121769E-01     0.0000000000000000E+00 
    2.5000000000032763E-01     5.6250000000094724E-01     0.0000000000000000E+00 
    2.5000000000042938E-01     6.2500000000066314E-01     0.0000000000000000E+00 
    2.5000000000053119E-01     6.8750000000037925E-01     0.0000000000000000E+00 
[...]
CELL_DATA 256 
SCALARS Pressure double 1 
LOOKUP_TABLE default 

    9.6336834457689269E-01 
    9.0964437529083519E-01 
    8.7191765005472599E-01 
    8.3530189512511577E-01 
    7.9649018412689865E-01 
    7.5488778442318449E-01 
    7.1063968741855033E-01 
    6.6421891227410523E-01 
    6.1615334644187603E-01 
    5.6689983891934170E-01 
    5.1610774412429650E-01 
    4.5892249017815384E-01 
    4.0204097006133538E-01 
    3.6015086273371527E-01 
    3.3391473691156714E-01 
    3.2335201956711646E-01 
    9.4945447285205187E-01 
    9.1131475541182527E-01 
    8.7485538548329866E-01 
    8.3861531525874766E-01 
    8.0017089554868714E-01 
    7.5891243010416887E-01 
    7.1493741430309421E-01 
    6.6870629312335328E-01 
    6.2075045025257825E-01 
    5.7154712521924400E-01 
    5.2085665182732288E-01 
    4.6365913370876743E-01 
    4.0577903487207001E-01 
    3.6223713228674204E-01 
    3.3441262782828246E-01 
    3.2290854978185646E-01 
    9.3868678070002487E-01 
    9.1069781525065219E-01 
    8.7689450405825242E-01 
    8.4143421518691819E-01 
    8.0348832411967419E-01 
    7.6264592982204704E-01 
    7.1898996494293976E-01 
    6.7296582845590891E-01 
    6.2509962823411502E-01 
    5.7586160337930936E-01 
    5.2504925674315472E-01 
    4.6751689555391829E-01 
    4.0845309716700146E-01 
    3.6309284528183350E-01 
    3.3355423991083916E-01 
    3.2127742823834587E-01 
    9.2998238327488669E-01 
    9.0880879883837584E-01 
    8.7806224522943932E-01 
    8.4375797736172620E-01 
    8.0645510365722883E-01 
    7.6609431133218164E-01 
    7.2280369151261470E-01 
    6.7701359670095040E-01 
    6.2922932041404733E-01 
    5.7988957640300720E-01 
    5.2877420358979188E-01 
    4.7061727827362193E-01 
    4.1016263380870532E-01 
    3.6274852437858529E-01 
    3.3125311132548180E-01 
    3.1823197045159507E-01 
    9.2268964186812763E-01 
    9.0620727520279465E-01 
    8.7847933160679270E-01 
    8.4560722537641453E-01 
    8.0909803756452203E-01 
    7.6928584949710888E-01 
    7.2640254147371563E-01 
    6.8087429377291708E-01 
    6.3317315496748805E-01 
    5.8368440150543943E-01 
    5.3212417131675493E-01 
    4.7306843156488287E-01 
    4.1100854890381711E-01 
    3.6125676340230584E-01 
    3.2742221812770478E-01 
    3.1353894762265416E-01 
    9.1651161591925578E-01 
    9.0328734402024258E-01 
    8.7832113231800080E-01 
    8.4703608427458166E-01 
    8.1145603309730074E-01 
    7.7226152198180364E-01 
    7.2982202002055929E-01 
    6.8457751938976963E-01 
    6.3696415066968626E-01 
    5.8729298696301924E-01 
    5.3515699768454572E-01 
    4.7495289548094710E-01 
    4.1110966709446134E-01 
    3.5870337865615431E-01 
    3.2197890844791782E-01 
    3.0693917076641775E-01 
    9.1125795254518571E-01 
    9.0031865930853872E-01 
    8.7777612887972245E-01 
    8.4812436452295192E-01 
    8.1357370252881145E-01 
    7.7506361731277329E-01 
    7.3310077595243406E-01 
    6.8815788896360086E-01 
    6.4064014150835369E-01 
    5.9076243413085339E-01 
    5.3788542017767493E-01 
    4.7634357113909859E-01 
    4.1064905194091345E-01 
    3.5521563634172582E-01 
    3.1485446250674287E-01 
    2.9813664678118190E-01 
    9.0679402945877130E-01 
    8.9747576258096506E-01 
    8.7701215955684020E-01 
    8.4896150813619475E-01 
    8.1550105219952185E-01 
    7.7773237554159436E-01 
    7.3628019227742691E-01 
    6.9165664225584045E-01 
    6.4424321713315136E-01 
    5.9414536529196771E-01 
    5.4028404972668276E-01 
    4.7731970045810573E-01 
    4.0990233202985804E-01 
    3.5097232674059514E-01 
    3.0600454797171822E-01 
    2.8677289889523133E-01 
    9.0302301015869502E-01 
    8.9486972827831035E-01 
    8.7617213514982806E-01 
    8.4964287807303862E-01 
    8.1729365667689458E-01 
    7.8030774722757634E-01 
    7.3940168006223206E-01 
    6.9511814501992941E-01 
    6.4781288928156389E-01 
    5.9745663460547371E-01 
    5.4232281856228071E-01 
    4.7804155803168530E-01 
    4.0924595196344948E-01 
    3.4623014233139598E-01 
    2.9543391237599159E-01 
    2.7240023549299924E-01 
    8.9988795299374025E-01 
    8.9258338983677299E-01 
    8.7538048072027264E-01 
    8.5026609707418144E-01 
    8.1901626238681946E-01 
    7.8283457989903038E-01 
    7.4250361296306633E-01 
    6.9857488202536344E-01 
    6.5135164966161763E-01 
    6.0053450168070643E-01 
    5.4401523099537363E-01 
    4.7891041403066226E-01 
    4.0907494006079814E-01 
    3.4135041666915755E-01 
    2.8323565281852248E-01 
    2.5443774332377000E-01 
    8.9736934688596504E-01 
    8.9069459214975488E-01 
    8.7475104815903226E-01 
    8.5093013092965297E-01 
    8.2074138918036488E-01 
    7.8535570844156211E-01 
    7.4559868094756954E-01 
    7.0197849740819018E-01 
    6.5465452833839455E-01 
    6.0316671826030310E-01 
    5.4568221585136856E-01 
    4.8046639525998969E-01 
    4.0958780436591918E-01 
    3.3680247212072451E-01 
    2.6965993414370731E-01 
    2.3211707531768214E-01 
    8.9540547953119898E-01 
    8.8922754711600249E-01 
    8.7435329933614114E-01 
    8.5170194802592780E-01 
    8.2249791824255380E-01 
    7.8779159625072348E-01 
    7.4848558297043521E-01 
    7.0509113407082413E-01 
    6.5759228008403692E-01 
    6.0570210152652137E-01 
    5.4806272313728932E-01 
    4.8301993427328610E-01 
    4.1093131958436102E-01 
    3.3317115609694947E-01 
    2.5522688827730050E-01 
    2.0439613099441409E-01 
    8.9364503449492794E-01 
    8.8795155166130457E-01 
    8.7402675570442634E-01 
    8.5239756166599889E-01 
    8.2407291385511239E-01 
    7.8997175602702607E-01 
    7.5107253961981435E-01 
    7.0801357939702403E-01 
    6.6068841450122018E-01 
    6.0886327799856688E-01 
    5.5139933097609506E-01 
    4.8648564490735774E-01 
    4.1340574195671831E-01 
    3.3117512064925958E-01 
    2.4092352304969417E-01 
    1.6983475784577312E-01 
    8.9222154056508729E-01 
    8.8686879764559690E-01 
    8.7377349207735078E-01 
    8.5306125640778985E-01 
    8.2557528790253609E-01 
    7.9218233450641384E-01 
    7.5385003692493058E-01 
    7.1126220154354514E-01 
    6.6432614343763063E-01 
    6.1273415425440581E-01 
    5.5546758944643160E-01 
    4.9081124499167644E-01 
    4.1724597025329530E-01 
    3.3162197568303819E-01 
    2.2853309027038748E-01 
    1.2640553494040618E-01 
    8.9146783074787828E-01 
    8.8642973337974418E-01 
    8.7404683128425054E-01 
    8.5417328722091412E-01 
    8.2749439136372072E-01 
    7.9482451070171789E-01 
    7.5707700177323178E-01 
    7.1492050753978253E-01 
    6.6837238586603676E-01 
    6.1712100008942949E-01 
    5.6021089521921807E-01 
    4.9600160722942110E-01 
    4.2254996422093333E-01 
    3.3525067091000293E-01 
    2.2118811198533855E-01 
    7.1205680426015230E-02 
    8.9125961410934162E-01 
    8.8663135378782554E-01 
    8.7495384960003653E-01 
    8.5584905675374412E-01 
    8.2988549415118407E-01 
    7.9785387740123104E-01 
    7.6064476618323562E-01 
    7.1893582327641714E-01 
    6.7281467708057296E-01 
    6.2199657409016618E-01 
    5.6558660935329841E-01 
    5.0201388552839765E-01 
    4.2924935874794540E-01 
    3.4235967596059919E-01 
    2.2429745229270126E-01 
    0.0000000000000000E+00 

SCALARS Saturarion double 1 
LOOKUP_TABLE default 

    1.0000000000000595E+00 
    9.5597212440854806E-01 
    8.8482942596990422E-01 
    7.9886929695041842E-01 
    7.2867507581471480E-01 
    6.7483504739004496E-01 
    6.3193933837973748E-01 
    5.9485592284357180E-01 
    5.6079726253270401E-01 
    5.2728584305924098E-01 
    4.8164709390663990E-01 
    3.3844981626773490E-01 
    1.4472075635393765E-02 
    1.0000000018344785E-06 
    1.0000000000000004E-06 
    9.9999999999999995E-07 
    9.8069489256111275E-01 
    9.3922191401694632E-01 
    8.6501067889817784E-01 
    7.8870330984633097E-01 
    7.2381839352078392E-01 
    6.7087481901534618E-01 
    6.2784031012449071E-01 
    5.9121493027681515E-01 
    5.5810953056844503E-01 
    5.2535653940113880E-01 
    4.8042187662328451E-01 
    3.3993662191282276E-01 
    1.6124644917479728E-02 
    1.0005799913453109E-06 
    1.0000000000659252E-06 
    9.9999999999999995E-07 
    9.5008168561177453E-01 
    9.1174127616907652E-01 
    8.3913693443570758E-01 
    7.7099660474691356E-01 
    7.1316202491443581E-01 
    6.6247014586596797E-01 
    6.1989765917903517E-01 
    5.8424486573273748E-01 
    5.5277370695600681E-01 
    5.2145340905657100E-01 
    4.7829683755991864E-01 
    3.4239362088457448E-01 
    1.8131123197238839E-02 
    1.0007146154007069E-06 
    1.0000000001047066E-06 
    9.9999999999999995E-07 
    8.9795563357460040E-01 
    8.6877269181754846E-01 
    8.0662458521883584E-01 
    7.4545903751236886E-01 
    6.9503963287414461E-01 
    6.5079782188474367E-01 
    6.1183147374688795E-01 
    5.7827927209153074E-01 
    5.4812680096768851E-01 
    5.1834987918014852E-01 
    4.7731573522839599E-01 
    3.4911620090909884E-01 
    2.3096026745765830E-02 
    1.1927600014586138E-06 
    1.0000000414943312E-06 
    9.9999999999999995E-07 
    8.4524042271548305E-01 
    8.2078090930552405E-01 
    7.6940340080266589E-01 
    7.1695297655579360E-01 
    6.7269103905127714E-01 
    6.3479729698267007E-01 
    6.0121120700749764E-01 
    5.7079107214803015E-01 
    5.4254417049059989E-01 
    5.1395242363441718E-01 
    4.7434972487932253E-01 
    3.5049157119411761E-01 
    2.4958291909216439E-02 
    1.1890866130189640E-06 
    1.0000000329425423E-06 
    1.0000000000000033E-06 
    7.9301151485659516E-01 
    7.7425376051899764E-01 
    7.3335893571058774E-01 
    6.8850647171689983E-01 
    6.4910911157954032E-01 
    6.1594582266242037E-01 
    5.8661261851383328E-01 
    5.5953802521079399E-01 
    5.3386821554388764E-01 
    5.0716932154720240E-01 
    4.6778890149598124E-01 
    3.3898554752764964E-01 
    2.0129238138225602E-02 
    2.6342117552640914E-06 
    1.0000002470748168E-06 
    1.0000000000000249E-06 
    7.4176997896008912E-01 
    7.2904896557622134E-01 
    6.9751104561272614E-01 
    6.5941289411823500E-01 
    6.2478459837670741E-01 
    5.9544013150447184E-01 
    5.6998055573237971E-01 
    5.4620748996085722E-01 
    5.2286085061659737E-01 
    4.9781468271576845E-01 
    4.5858104287238749E-01 
    3.1094308265747089E-01 
    1.0311290142194106E-02 
    2.2940900578040909E-06 
    1.0000003881980072E-06 
    9.9999999999999995E-07 
    6.9102302626354251E-01 
    6.8396580376789984E-01 
    6.6141104048296828E-01 
    6.3040503225351907E-01 
    5.9994962465093105E-01 
    5.7322907558872538E-01 
    5.5048546179859326E-01 
    5.3062930952202281E-01 
    5.1055871540231834E-01 
    4.8679227488523669E-01 
    4.4455178629290970E-01 
    2.5835952284579067E-01 
    2.9300819139253796E-03 
    1.2349349178952958E-06 
    1.0000000489266499E-06 
    9.9999999999999995E-07 
    6.4097291197601458E-01 
    6.3862097146943009E-01 
    6.2402156233910089E-01 
    6.0038216380841836E-01 
    5.7456852022181037E-01 
    5.5034235016744337E-01 
    5.3010739800648199E-01 
    5.1282141109162460E-01 
    4.9510928761977846E-01 
    4.7098974557418000E-01 
    4.1265345040515822E-01 
    1.5891454307154143E-01 
    2.5898831720824907E-04 
    1.0126412517089065E-06 
    1.0000000004848043E-06 
    9.9999999999999995E-07 
    5.9325182530633502E-01 
    5.9459592891130020E-01 
    5.8671609356819943E-01 
    5.6921841246504379E-01 
    5.4836879558869989E-01 
    5.2795061810375599E-01 
    5.0942606034398630E-01 
    4.9215976457126365E-01 
    4.7247468211814747E-01 
    4.3677257051567553E-01 
    3.0739479259045177E-01 
    3.4193090050091690E-02 
    5.8237573744776215E-05 
    1.0003644259729527E-06 
    1.0000000000000038E-06 
    9.9999999999999995E-07 
    5.5050628084168296E-01 
    5.5424317190684258E-01 
    5.5052934070246085E-01 
    5.3707788950893476E-01 
    5.2145075270505514E-01 
    5.0400793408633326E-01 
    4.8404770059874525E-01 
    4.5985057774500232E-01 
    4.1449453610356979E-01 
    2.9405949821209770E-01 
    7.9365062598470135E-02 
    3.6931362596000743E-04 
    1.0275120818193221E-06 
    1.0000000001921121E-06 
    9.9999999999999995E-07 
    9.9999999999999995E-07 
    4.9764961469219127E-01 
    5.0597276540440583E-01 
    5.0661066561918588E-01 
    4.9726459974370779E-01 
    4.8179564634618871E-01 
    4.5332107821637574E-01 
    3.8936127451124203E-01 
    2.8875492610420656E-01 
    1.5848300043232921E-01 
    2.3096256804487174E-02 
    2.1926334385959055E-04 
    1.0253315462399509E-06 
    1.0000000133811709E-06 
    1.0000000000000019E-06 
    9.9999999999999995E-07 
    9.9999999999999995E-07 
    3.0981102632368268E-01 
    3.7521346945056377E-01 
    3.9804524826161070E-01 
    3.7050085421939605E-01 
    3.0554222995087987E-01 
    1.8660288313040302E-01 
    5.6142755806745270E-02 
    5.1297009776934965E-03 
    1.3488893587037284E-04 
    1.3560702671385613E-05 
    1.0040532112950737E-06 
    1.0000000027255677E-06 
    1.0000000000000012E-06 
    9.9999999999999995E-07 
    9.9999999999999995E-07 
    9.9999999999999995E-07 
    3.7620878443717235E-03 
    4.0880027899574629E-02 
    5.3423686981787538E-02 
    2.4156041760874589E-02 
    6.9222524817806027E-03 
    2.5249875184861270E-04 
    2.4682107488809796E-05 
    1.4376558687117912E-06 
    1.0018788648759967E-06 
    1.0000064670536572E-06 
    1.0000000000032864E-06 
    1.0000000000000002E-06 
    9.9999999999999995E-07 
    9.9999999999999995E-07 
    9.9999999999999995E-07 
    9.9999999999999995E-07 
    1.0000180865317835E-06 
    1.4854123950456758E-05 
    1.2494666606056849E-06 
    6.2017154417672321E-06 
    1.7108361215287682E-06 
    1.0030810883692858E-06 
    1.0000275519228397E-06 
    1.0000000388398299E-06 
    1.0000000000127652E-06 
    9.9999999999999995E-07 
    9.9999999999999995E-07 
    9.9999999999999995E-07 
    9.9999999999999995E-07 
    9.9999999999999995E-07 
    9.9999999999999995E-07 
    9.9999999999999995E-07 
    1.0000000000010655E-06 
    1.0000034363090291E-06 
    1.0000000673315963E-06 
    1.0000004457981619E-06 
    1.0000000666091060E-06 
    1.0000000000520516E-06 
    9.9999999999999995E-07 
    9.9999999999999995E-07 
    9.9999999999999995E-07 
    9.9999999999999995E-07 
    9.9999999999999995E-07 
    9.9999999999999995E-07 
    9.9999999999999995E-07 
    9.9999999999999995E-07 
    9.9999999999999995E-07 
    1.0000004018917574E-06 
