# vtk DataFile Version 2.0
Pressure Field Data 
ASCII 
DATASET UNSTRUCTURED_GRID 

POINTS 289 double 

    0.0000000000000000E+00     0.0000000000000000E+00     0.0000000000000000E+00 
    1.0000000000000000E+00     0.0000000000000000E+00     0.0000000000000000E+00 
    1.0000000000000000E+00     1.0000000000000000E+00     0.0000000000000000E+00 
    0.0000000000000000E+00     1.0000000000000000E+00     0.0000000000000000E+00 
    6.2499999999872928E-02     0.0000000000000000E+00     0.0000000000000000E+00 
    1.2499999999977310E-01     0.0000000000000000E+00     0.0000000000000000E+00 
    1.8749999999959341E-01     0.0000000000000000E+00     0.0000000000000000E+00 
    2.4999999999941089E-01     0.0000000000000000E+00     0.0000000000000000E+00 
    3.1249999999922851E-01     0.0000000000000000E+00     0.0000000000000000E+00 
    3.7499999999904610E-01     0.0000000000000000E+00     0.0000000000000000E+00 
    4.3749999999886358E-01     0.0000000000000000E+00     0.0000000000000000E+00 
    4.9999999999869210E-01     0.0000000000000000E+00     0.0000000000000000E+00 
    5.6249999999884603E-01     0.0000000000000000E+00     0.0000000000000000E+00 
    6.2499999999901090E-01     0.0000000000000000E+00     0.0000000000000000E+00 
    6.8749999999917577E-01     0.0000000000000000E+00     0.0000000000000000E+00 
    7.4999999999934064E-01     0.0000000000000000E+00     0.0000000000000000E+00 
    8.1249999999950551E-01     0.0000000000000000E+00     0.0000000000000000E+00 
    8.7499999999967026E-01     0.0000000000000000E+00     0.0000000000000000E+00 
    9.3749999999983513E-01     0.0000000000000000E+00     0.0000000000000000E+00 
    1.0000000000000000E+00     6.2499999999872928E-02     0.0000000000000000E+00 
    1.0000000000000000E+00     1.2499999999977310E-01     0.0000000000000000E+00 
    1.0000000000000000E+00     1.8749999999959341E-01     0.0000000000000000E+00 
    1.0000000000000000E+00     2.4999999999941089E-01     0.0000000000000000E+00 
    1.0000000000000000E+00     3.1249999999922851E-01     0.0000000000000000E+00 
    1.0000000000000000E+00     3.7499999999904610E-01     0.0000000000000000E+00 
    1.0000000000000000E+00     4.3749999999886358E-01     0.0000000000000000E+00 
    1.0000000000000000E+00     4.9999999999869210E-01     0.0000000000000000E+00 
    1.0000000000000000E+00     5.6249999999884603E-01     0.0000000000000000E+00 
    1.0000000000000000E+00     6.2499999999901090E-01     0.0000000000000000E+00 
    1.0000000000000000E+00     6.8749999999917577E-01     0.0000000000000000E+00 
    1.0000000000000000E+00     7.4999999999934064E-01     0.0000000000000000E+00 
    1.0000000000000000E+00     8.1249999999950551E-01     0.0000000000000000E+00 
    1.0000000000000000E+00     8.7499999999967026E-01     0.0000000000000000E+00 
    1.0000000000000000E+00     9.3749999999983513E-01     0.0000000000000000E+00 
    9.3749999999973976E-01     1.0000000000000000E+00     0.0000000000000000E+00 
    8.7499999999950118E-01     1.0000000000000000E+00     0.0000000000000000E+00 
    8.1249999999991318E-01     1.0000000000000000E+00     0.0000000000000000E+00 
    7.5000000000034706E-01     1.0000000000000000E+00     0.0000000000000000E+00 
    6.8750000000078049E-01     1.0000000000000000E+00     0.0000000000000000E+00 
    6.2500000000121403E-01     1.0000000000000000E+00     0.0000000000000000E+00 
    5.6250000000164757E-01     1.0000000000000000E+00     0.0000000000000000E+00 
    5.0000000000205946E-01     1.0000000000000000E+00     0.0000000000000000E+00 
    4.3750000000182099E-01     1.0000000000000000E+00     0.0000000000000000E+00 
    3.7500000000156092E-01     1.0000000000000000E+00     0.0000000000000000E+00 
    3.1250000000130068E-01     1.0000000000000000E+00     0.0000000000000000E+00 
    2.5000000000104050E-01     1.0000000000000000E+00     0.0000000000000000E+00 
    1.8750000000078040E-01     1.0000000000000000E+00     0.0000000000000000E+00 
    1.2500000000052031E-01     1.0000000000000000E+00     0.0000000000000000E+00 
    6.2500000000260125E-02     1.0000000000000000E+00     0.0000000000000000E+00 
    0.0000000000000000E+00     9.3749999999973976E-01     0.0000000000000000E+00 
    0.0000000000000000E+00     8.7499999999950118E-01     0.0000000000000000E+00 
    0.0000000000000000E+00     8.1249999999991318E-01     0.0000000000000000E+00 
    0.0000000000000000E+00     7.5000000000034706E-01     0.0000000000000000E+00 
    0.0000000000000000E+00     6.8750000000078049E-01     0.0000000000000000E+00 
    0.0000000000000000E+00     6.2500000000121403E-01     0.0000000000000000E+00 
    0.0000000000000000E+00     5.6250000000164757E-01     0.0000000000000000E+00 
    0.0000000000000000E+00     5.0000000000205946E-01     0.0000000000000000E+00 
    0.0000000000000000E+00     4.3750000000182099E-01     0.0000000000000000E+00 
    0.0000000000000000E+00     3.7500000000156092E-01     0.0000000000000000E+00 
    0.0000000000000000E+00     3.1250000000130068E-01     0.0000000000000000E+00 
    0.0000000000000000E+00     2.5000000000104050E-01     0.0000000000000000E+00 
    0.0000000000000000E+00     1.8750000000078040E-01     0.0000000000000000E+00 
    0.0000000000000000E+00     1.2500000000052031E-01     0.0000000000000000E+00 
    0.0000000000000000E+00     6.2500000000260125E-02     0.0000000000000000E+00 
    6.2499999999897131E-02     6.2500000000235922E-02     0.0000000000000000E+00 
    6.2499999999921327E-02     1.2500000000047351E-01     0.0000000000000000E+00 
    6.2499999999945530E-02     1.8750000000070621E-01     0.0000000000000000E+00 
    6.2499999999969733E-02     2.5000000000093858E-01     0.0000000000000000E+00 
    6.2499999999993928E-02     3.1250000000117117E-01     0.0000000000000000E+00 
    6.2500000000018124E-02     3.7500000000140382E-01     0.0000000000000000E+00 
    6.2500000000042327E-02     4.3750000000163619E-01     0.0000000000000000E+00 
    6.2500000000066530E-02     5.0000000000184897E-01     0.0000000000000000E+00 
    6.2500000000090733E-02     5.6250000000147260E-01     0.0000000000000000E+00 
    6.2500000000114922E-02     6.2500000000107636E-01     0.0000000000000000E+00 
    6.2500000000139125E-02     6.8750000000068034E-01     0.0000000000000000E+00 
    6.2500000000163328E-02     7.5000000000028411E-01     0.0000000000000000E+00 
    6.2500000000187531E-02     8.1249999999988787E-01     0.0000000000000000E+00 
    6.2500000000211720E-02     8.7499999999951172E-01     0.0000000000000000E+00 
    6.2500000000235922E-02     9.3749999999974565E-01     0.0000000000000000E+00 
    1.2499999999981980E-01     6.2500000000211733E-02     0.0000000000000000E+00 
    1.2499999999986650E-01     1.2500000000042691E-01     0.0000000000000000E+00 
    1.2499999999991319E-01     1.8750000000063199E-01     0.0000000000000000E+00 
    1.2499999999995989E-01     2.5000000000083678E-01     0.0000000000000000E+00 
    1.2500000000000661E-01     3.1250000000104172E-01     0.0000000000000000E+00 
    1.2500000000005329E-01     3.7500000000124661E-01     0.0000000000000000E+00 
    1.2500000000010000E-01     4.3750000000145117E-01     0.0000000000000000E+00 
    1.2500000000014669E-01     5.0000000000163858E-01     0.0000000000000000E+00 
    1.2500000000019340E-01     5.6250000000129741E-01     0.0000000000000000E+00 
    1.2500000000024011E-01     6.2500000000093847E-01     0.0000000000000000E+00 
    1.2500000000028680E-01     6.8750000000057998E-01     0.0000000000000000E+00 
    1.2500000000033351E-01     7.5000000000022127E-01     0.0000000000000000E+00 
    1.2500000000038020E-01     8.1249999999986211E-01     0.0000000000000000E+00 
    1.2500000000042691E-01     8.7499999999952238E-01     0.0000000000000000E+00 
    1.2500000000047359E-01     9.3749999999975164E-01     0.0000000000000000E+00 
    1.8749999999966760E-01     6.2500000000187531E-02     0.0000000000000000E+00 
    1.8749999999974179E-01     1.2500000000038020E-01     0.0000000000000000E+00 
    1.8749999999981601E-01     1.8750000000055780E-01     0.0000000000000000E+00 
    1.8749999999989009E-01     2.5000000000073502E-01     0.0000000000000000E+00 
    1.8749999999996431E-01     3.1250000000091221E-01     0.0000000000000000E+00 
    1.8750000000003850E-01     3.7500000000108941E-01     0.0000000000000000E+00 
    1.8750000000011269E-01     4.3750000000126649E-01     0.0000000000000000E+00 
    1.8750000000018691E-01     5.0000000000142808E-01     0.0000000000000000E+00 
    1.8750000000026110E-01     5.6250000000112244E-01     0.0000000000000000E+00 
    1.8750000000033529E-01     6.2500000000080080E-01     0.0000000000000000E+00 
    1.8750000000040951E-01     6.8750000000047962E-01     0.0000000000000000E+00 
    1.8750000000048361E-01     7.5000000000015843E-01     0.0000000000000000E+00 
    1.8750000000055780E-01     8.1249999999983680E-01     0.0000000000000000E+00 
    1.8750000000063199E-01     8.7499999999953304E-01     0.0000000000000000E+00 
    1.8750000000070621E-01     9.3749999999975764E-01     0.0000000000000000E+00 
    2.4999999999951281E-01     6.2500000000163314E-02     0.0000000000000000E+00 
    2.4999999999961461E-01     1.2500000000033351E-01     0.0000000000000000E+00 
    2.4999999999971650E-01     1.8750000000048361E-01     0.0000000000000000E+00 
    2.4999999999981831E-01     2.5000000000063310E-01     0.0000000000000000E+00 
    2.4999999999992020E-01     3.1250000000078260E-01     0.0000000000000000E+00 
    2.5000000000002198E-01     3.7500000000093209E-01     0.0000000000000000E+00 
    2.5000000000012390E-01     4.3750000000108180E-01     0.0000000000000000E+00 
    2.5000000000022571E-01     5.0000000000121769E-01     0.0000000000000000E+00 
    2.5000000000032763E-01     5.6250000000094724E-01     0.0000000000000000E+00 
    2.5000000000042938E-01     6.2500000000066314E-01     0.0000000000000000E+00 
    2.5000000000053119E-01     6.8750000000037925E-01     0.0000000000000000E+00 
[...]
CELL_DATA 256 
SCALARS Pressure double 1 
LOOKUP_TABLE default 

    7.1430403315588453E-01 
    6.6417943733536422E-01 
    6.3195075705692316E-01 
    6.0257346091031383E-01 
    5.7259213806723430E-01 
    5.4113703420150938E-01 
    5.0802133346755984E-01 
    4.7346700971236855E-01 
    4.3789179061831052E-01 
    4.0187493965729676E-01 
    3.6622375743727453E-01 
    3.3222346211415321E-01 
    3.0190581273801137E-01 
    2.7795054247975859E-01 
    2.6243697198764421E-01 
    2.5481761524634033E-01 
    7.0032877099183422E-01 
    6.6548894536794134E-01 
    6.3437783481867127E-01 
    6.0524618279707099E-01 
    5.7547566694711161E-01 
    5.4421999445325164E-01 
    5.1127651832318555E-01 
    4.7684365511517190E-01 
    4.4131486458106034E-01 
    4.0523822640598645E-01 
    3.6937243777298651E-01 
    3.3493124374817790E-01 
    3.0389169208040562E-01 
    2.7898765098968503E-01 
    2.6258065567544930E-01 
    2.5438339650679531E-01 
    6.8960699741041931E-01 
    6.6465630322146263E-01 
    6.3604565381669143E-01 
    6.0757617212568238E-01 
    5.7815062603032918E-01 
    5.4714887289413761E-01 
    5.1440334662179166E-01 
    4.8009974770321451E-01 
    4.4460286752987982E-01 
    4.0841790177655574E-01 
    3.7224326989874013E-01 
    3.3720874006874463E-01 
    3.0523630690359482E-01 
    2.7914833026727731E-01 
    2.6169438971976283E-01 
    2.5296243722068434E-01 
    6.8117806490686916E-01 
    6.6273805439025779E-01 
    6.3699499946320559E-01 
    6.0954275137852021E-01 
    5.8061285994572021E-01 
    5.4993007120444437E-01 
    5.1741129802981434E-01 
    4.8324674634885068E-01 
    4.4777370611223211E-01 
    4.1144608475473488E-01 
    3.7488814068837856E-01 
    3.3912622293989975E-01 
    3.0601051838622306E-01 
    2.7846580641236945E-01 
    2.5972623010680712E-01 
    2.5040457606955613E-01 
    6.7439559029409779E-01 
    6.6032394074089362E-01 
    6.3735919945684161E-01 
    6.1115565698384189E-01 
    5.8286157757737733E-01 
    5.5256933043911838E-01 
    5.2031202007047028E-01 
    4.8630060523982171E-01 
    4.5085016155693275E-01 
    4.1435915462731104E-01 
    3.7736356618624373E-01 
    3.4076169908325432E-01 
    3.0629721607400118E-01 
    2.7698382534659760E-01 
    2.5662427401236415E-01 
    2.4655587259221962E-01 
    6.6886414752307932E-01 
    6.5776027030150874E-01 
    6.3729046733091910E-01 
    6.1244960825714323E-01 
    5.8490383956947489E-01 
    5.5507186622740923E-01 
    5.2311662773522516E-01 
    4.8927932672584012E-01 
    4.5385875696524208E-01 
    4.1719769740709256E-01 
    3.7973067467001148E-01 
    3.4220100986512203E-01 
    3.0619342092668994E-01 
    2.7476199292123948E-01 
    2.5233475529164129E-01 
    2.4123219947325283E-01 
    6.6432467256233607E-01 
    6.5525915719431593E-01 
    6.3693899351203065E-01 
    6.1348110378848886E-01 
    5.8676062350940916E-01 
    5.5744865155360057E-01 
    5.2583531439267805E-01 
    4.9219949392336931E-01 
    4.5682694273476027E-01 
    4.2000412869738590E-01 
    3.8205515472759738E-01 
    3.4353873827815840E-01 
    3.0581379671266828E-01 
    2.7188444527944888E-01 
    2.4681204176430133E-01 
    2.3422297789441790E-01 
    6.6059445872232103E-01 
    6.5294658110445902E-01 
    6.3643741507501117E-01 
    6.1431763203069367E-01 
    5.8846430166244901E-01 
    5.5971725641741810E-01 
    5.2848069951832077E-01 
    4.9507532785859160E-01 
    4.5977759138734542E-01 
    4.2281814592779204E-01 
    3.8440357600483560E-01 
    3.4487889578687098E-01 
    3.0529567844075350E-01 
    2.6847033544224580E-01 
    2.4003158873179245E-01 
    2.2528427286418246E-01 
    6.5754069068844945E-01 
    6.5089309952947205E-01 
    6.3589380986627664E-01 
    6.1502838649382185E-01 
    5.9005224742862838E-01 
    5.6189926318320305E-01 
    5.3106733217031044E-01 
    4.9791993922490935E-01 
    4.6272881607571931E-01 
    4.2567225791601049E-01 
    3.8683775663645564E-01 
    3.4633074453758972E-01 
    3.0480242220246301E-01 
    2.6468566922503789E-01 
    2.3199566873020810E-01 
    2.1410629515731683E-01 
    6.5506663936024812E-01 
    6.4913693222471058E-01 
    6.3539215539117655E-01 
    6.1567830045511907E-01 
    5.9156492606394273E-01 
    5.6401942722235354E-01 
    5.3361230832432194E-01 
    5.0074710351018203E-01 
    4.6569556793204697E-01 
    4.2859132852798248E-01 
    3.8941008753678225E-01 
    3.4800265009068987E-01 
    3.0452269196149945E-01 
    2.6075984161403226E-01 
    2.2275487252732187E-01 
    2.0027307333485450E-01 
    6.5310064484552299E-01 
    6.4769865944056271E-01 
    6.3499835093114576E-01 
    6.1632744663394823E-01 
    5.9304523293908085E-01 
    5.6610729417564210E-01 
    5.3613593950087357E-01 
    5.0357273677739189E-01 
    4.6869343196390367E-01 
    4.3159639901076219E-01 
    3.9216421929401574E-01 
    3.4999754274473793E-01 
    3.0466872842305365E-01 
    2.5700532357377909E-01 
    2.1245728567867517E-01 
    1.8324148603146095E-01 
    6.5158770480777761E-01 
    6.4658951699099498E-01 
    6.3476647245044471E-01 
    6.1703284538053471E-01 
    5.9453987848150636E-01 
    5.6819824484681669E-01 
    5.3866415881011243E-01 
    5.0641663973006212E-01 
    4.7174054711083130E-01 
    4.3470767862949933E-01 
    3.9513517388106983E-01 
    3.5240634275023996E-01 
    3.0547024870803796E-01 
    2.5383247755263877E-01 
    2.0140198635433160E-01 
    1.6225039807162250E-01 
    6.5049369141129088E-01 
    6.4582422505522674E-01 
    6.3474811112812091E-01 
    6.1785316268795920E-01 
    5.9610027258325204E-01 
    5.7033317913502368E-01 
    5.4122797189710381E-01 
    5.0930242962146555E-01 
    4.7485570090136836E-01 
    4.3794029439998688E-01 
    3.9834389224650890E-01 
    3.5529344127255730E-01 
    3.0714884974597462E-01 
    2.5178351093890505E-01 
    1.9021862827599917E-01 
    1.3619609298801419E-01 
    6.4977987258843661E-01 
    6.4541147026825763E-01 
    6.3498827810340874E-01 
    6.1884300212246635E-01 
    5.9777496945489028E-01 
    5.7254823145833678E-01 
    5.4385176061240881E-01 
    5.1223861932654102E-01 
    4.7802066835212076E-01 
    4.4125042958710003E-01 
    4.0172882303054663E-01 
    3.5860274169815576E-01 
    3.0978294203206475E-01 
    2.5139555783946760E-01 
    1.8003802350167425E-01 
    1.0339575644320888E-01 
    6.4928051876623438E-01 
    6.4522686324773981E-01 
    6.3541772535876229E-01 
    6.1995730333797205E-01 
    5.9951294880665651E-01 
    5.7479202078906677E-01 
    5.4648584957506241E-01 
    5.1517493345279697E-01 
    4.8117594042618606E-01 
    4.4457468781153225E-01 
    4.0521207432229883E-01 
    3.6221827267026380E-01 
    3.1326648425323173E-01 
    2.5298858808455610E-01 
    1.7250886969312415E-01 
    6.0687000729998511E-02 
    6.4910147135412111E-01 
    6.4537890682350996E-01 
    6.3613813773251804E-01 
    6.2128145418253100E-01 
    6.0137942222755203E-01 
    5.7712062694319277E-01 
    5.4919471817907639E-01 
    5.1819156872207028E-01 
    4.8444450347817980E-01 
    4.4807452383720958E-01 
    4.0895694622961948E-01 
    3.6627358829092072E-01 
    3.1780764578566367E-01 
    2.5753199815080080E-01 
    1.7195183683194959E-01 
    0.0000000000000000E+00 

SCALARS Saturarion double 1 
LOOKUP_TABLE default 

    1.0000000000000004E+00 
    9.7528063860007130E-01 
    9.3041286155666059E-01 
    8.7154961342783721E-01 
    8.2203102199078504E-01 
    7.7867576994992704E-01 
    7.4130392899692998E-01 
    7.0913820042898867E-01 
    6.8094536158323571E-01 
    6.5547147419778706E-01 
    6.3141877223455867E-01 
    6.0733916599161353E-01 
    5.8116348814456920E-01 
    5.5003870009282108E-01 
    4.8612741446306595E-01 
    1.7015931848614674E-01 
    9.9057610084064740E-01 
    9.6715848528427772E-01 
    9.2016499714905109E-01 
    8.6420002186173028E-01 
    8.1663406038839137E-01 
    7.7505314804627190E-01 
    7.3874830145728232E-01 
    7.0706452708240941E-01 
    6.7916284754278122E-01 
    6.5399085200386087E-01 
    6.3050949228968634E-01 
    6.0736279809220173E-01 
    5.8233898716548327E-01 
    5.5217271233028542E-01 
    4.9169323395975789E-01 
    2.0359423618477210E-01 
    9.7571397977418284E-01 
    9.5236436769166721E-01 
    9.0527925781702068E-01 
    8.5129345886484886E-01 
    8.0605623065873688E-01 
    7.6742870280953568E-01 
    7.3338084902123757E-01 
    7.0281316485724910E-01 
    6.7534369177425513E-01 
    6.5046673984654302E-01 
    6.2760499043632256E-01 
    6.0566209885933375E-01 
    5.8257845390162755E-01 
    5.5465047849697868E-01 
    4.9926834478472087E-01 
    2.3548193037750501E-01 
    9.4975506214734395E-01 
    9.3016335577668785E-01 
    8.8719787786676574E-01 
    8.3740266234429295E-01 
    7.9308699279447747E-01 
    7.5607849733168742E-01 
    7.2414553774815316E-01 
    6.9566891370581496E-01 
    6.6973404611488863E-01 
    6.4609664358538343E-01 
    6.2422890653614194E-01 
    6.0342462187381185E-01 
    5.8209307574213409E-01 
    5.5672708063070286E-01 
    5.0678740475185635E-01 
    2.6650250955823757E-01 
    9.1824259337027292E-01 
    9.0114903355692821E-01 
    8.6307582573115016E-01 
    8.1830782014875647E-01 
    7.7643619647816409E-01 
    7.4073243284299628E-01 
    7.1056046526475225E-01 
    6.8429595082495409E-01 
    6.6082047910921959E-01 
    6.3950006243763147E-01 
    6.1981676542398234E-01 
    6.0093201933065465E-01 
    5.8138001999653877E-01 
    5.5826570547753029E-01 
    5.1392554065344798E-01 
    2.9105228410362366E-01 
    8.8350083846068839E-01 
    8.6935419540565440E-01 
    8.3639853822495447E-01 
    7.9621818167552927E-01 
    7.5777502019680920E-01 
    7.2398744856030317E-01 
    6.9485842226816330E-01 
    6.7001861439105226E-01 
    6.4860902119628361E-01 
    6.2977902443470912E-01 
    6.1282011899441735E-01 
    5.9692290077047649E-01 
    5.8022044759892100E-01 
    5.5946583165987140E-01 
    5.2012240164413071E-01 
    3.1264516965365363E-01 
    8.4622555572729941E-01 
    8.3559978471985608E-01 
    8.0815493858296295E-01 
    7.7267984003091206E-01 
    7.3789388400253597E-01 
    7.0657670176039900E-01 
    6.7915583709237426E-01 
    6.5524782734294640E-01 
    6.3488236599726777E-01 
    6.1772756178481869E-01 
    6.0324772188154774E-01 
    5.9050155639787172E-01 
    5.7764770633133777E-01 
    5.6043022745395144E-01 
    5.2575491425598142E-01 
    3.3354353037611112E-01 
    8.0625381067138535E-01 
    7.9958493706596423E-01 
    7.7837882334714492E-01 
    7.4808340899200665E-01 
    7.1661981458225887E-01 
    6.8764970537512959E-01 
    6.6187103502161804E-01 
    6.3944356543011982E-01 
    6.2019535356504507E-01 
    6.0420797244961144E-01 
    5.9143017045504764E-01 
    5.8154746706827121E-01 
    5.7281333356918340E-01 
    5.6051779088959230E-01 
    5.3127803737781176E-01 
    3.5451376733904660E-01 
    7.6382748907511389E-01 
    7.6093877621014272E-01 
    7.4572156025038128E-01 
    7.2090347181389480E-01 
    6.9332676379774782E-01 
    6.6681110729222504E-01 
    6.4289705445723178E-01 
    6.2177774827791132E-01 
    6.0350952414604486E-01 
    5.8833992965791027E-01 
    5.7689113694214444E-01 
    5.6955136315408261E-01 
    5.6515453398984850E-01 
    5.5875660281719275E-01 
    5.3600511392833483E-01 
    3.7416627431737237E-01 
    7.1895066876883462E-01 
    7.1954554458184816E-01 
    7.0984162420181629E-01 
    6.9017452779256672E-01 
    6.6678156790183074E-01 
    6.4330870735648704E-01 
    6.2139463029650943E-01 
    6.0192290102474733E-01 
    5.8490568110251728E-01 
    5.7053852098084390E-01 
    5.5969189398157715E-01 
    5.5392725239397345E-01 
    5.5364919476986518E-01 
    5.5420970309462436E-01 
    5.3956660569334558E-01 
    3.9324761223818494E-01 
    6.7127491113781046E-01 
    6.7505200537901544E-01 
    6.7042244523701600E-01 
    6.5554068174313929E-01 
    6.3640178868814923E-01 
    6.1658255550871155E-01 
    5.9769898587979708E-01 
    5.8011532939993826E-01 
    5.6450799394695261E-01 
    5.5136747487060123E-01 
    5.4139226244978245E-01 
    5.3602811882442558E-01 
    5.3775989548127701E-01 
    5.4543682363591572E-01 
    5.4086315501849835E-01 
    4.1240330587979546E-01 
    6.1988746784685389E-01 
    6.2655963436335749E-01 
    6.2702423590668377E-01 
    6.1709032727084778E-01 
    6.0215664251791656E-01 
    5.8592269975319589E-01 
    5.7002574244490445E-01 
    5.5519312233124862E-01 
    5.4189774376028277E-01 
    5.3074710516860435E-01 
    5.2216150131713379E-01 
    5.1738235096806562E-01 
    5.1910033959739965E-01 
    5.3102478563344013E-01 
    5.3676733328248472E-01 
    4.3069766335112158E-01 
    5.6794893447960360E-01 
    5.7618556754263051E-01 
    5.8057625537813085E-01 
    5.7551881363909474E-01 
    5.6502071611247651E-01 
    5.5203815921369082E-01 
    5.3900873865630894E-01 
    5.2657982428743499E-01 
    5.1495308247701710E-01 
    5.0433824662398608E-01 
    4.9672819624649511E-01 
    4.9399470026982467E-01 
    4.9739120505043743E-01 
    5.1117853621065679E-01 
    5.2904663358308246E-01 
    4.4647081813662831E-01 
    5.0131445127530438E-01 
    5.1590728079530468E-01 
    5.2479654626176209E-01 
    5.2553372355186601E-01 
    5.1749697938729100E-01 
    5.0613874041622253E-01 
    4.9273004662429182E-01 
    4.8015793279596924E-01 
    4.6199882148482063E-01 
    4.3654936784313136E-01 
    4.1702622046041099E-01 
    4.0797271067549545E-01 
    4.2149393627330051E-01 
    4.6575213986879516E-01 
    5.1126812553366263E-01 
    4.5755844669005780E-01 
    2.2109716979036023E-01 
    3.0525287497097298E-01 
    3.5468966044358463E-01 
    3.6332282983417302E-01 
    3.4459619223393473E-01 
    2.9434877951252525E-01 
    2.6262416021450025E-01 
    2.0981515603017084E-01 
    1.7023049890297351E-01 
    1.1316226121853236E-01 
    6.4955078093152416E-02 
    6.8054887061930913E-02 
    1.0844259789932001E-01 
    2.5604165056420036E-01 
    4.4818899878400387E-01 
    4.5967420762977262E-01 
    9.9035976602758667E-06 
    4.1593938819698218E-03 
    1.0339372413918028E-02 
    9.5663178078652378E-03 
    9.0290732737182394E-03 
    9.3368421258517424E-04 
    7.7113303948620133E-04 
    2.3993024305931276E-05 
    4.1603506800310798E-05 
    1.2822604182141719E-05 
    5.7964489331469844E-06 
    7.2363139071781728E-06 
    1.0375055997205779E-04 
    6.6137066645917439E-02 
    2.7479787718304949E-01 
    4.1061887284158566E-01 
