# vtk DataFile Version 2.0
Pressure Field Data 
ASCII 
DATASET UNSTRUCTURED_GRID 

POINTS 289 double 

    0.0000000000000000E+00     0.0000000000000000E+00     0.0000000000000000E+00 
    1.0000000000000000E+00     0.0000000000000000E+00     0.0000000000000000E+00 
    1.0000000000000000E+00     1.0000000000000000E+00     0.0000000000000000E+00 
    0.0000000000000000E+00     1.0000000000000000E+00     0.0000000000000000E+00 
    6.2499999999872928E-02     0.0000000000000000E+00     0.0000000000000000E+00 
    1.2499999999977310E-01     0.0000000000000000E+00     0.0000000000000000E+00 
    1.8749999999959341E-01     0.0000000000000000E+00     0.0000000000000000E+00 
    2.4999999999941089E-01     0.0000000000000000E+00     0.0000000000000000E+00 
    3.1249999999922851E-01     0.0000000000000000E+00     0.0000000000000000E+00 
    3.7499999999904610E-01     0.0000000000000000E+00     0.0000000000000000E+00 
    4.3749999999886358E-01     0.0000000000000000E+00     0.0000000000000000E+00 
    4.9999999999869210E-01     0.0000000000000000E+00     0.0000000000000000E+00 
    5.6249999999884603E-01     0.0000000000000000E+00     0.0000000000000000E+00 
    6.2499999999901090E-01     0.0000000000000000E+00     0.0000000000000000E+00 
    6.8749999999917577E-01     0.0000000000000000E+00     0.0000000000000000E+00 
    7.4999999999934064E-01     0.0000000000000000E+00     0.0000000000000000E+00 
    8.1249999999950551E-01     0.0000000000000000E+00     0.0000000000000000E+00 
    8.7499999999967026E-01     0.0000000000000000E+00     0.0000000000000000E+00 
    9.3749999999983513E-01     0.0000000000000000E+00     0.0000000000000000E+00 
    1.0000000000000000E+00     6.2499999999872928E-02     0.0000000000000000E+00 
    1.0000000000000000E+00     1.2499999999977310E-01     0.0000000000000000E+00 
    1.0000000000000000E+00     1.8749999999959341E-01     0.0000000000000000E+00 
    1.0000000000000000E+00     2.4999999999941089E-01     0.0000000000000000E+00 
    1.0000000000000000E+00     3.1249999999922851E-01     0.0000000000000000E+00 
    1.0000000000000000E+00     3.7499999999904610E-01     0.0000000000000000E+00 
    1.0000000000000000E+00     4.3749999999886358E-01     0.0000000000000000E+00 
    1.0000000000000000E+00     4.9999999999869210E-01     0.0000000000000000E+00 
    1.0000000000000000E+00     5.6249999999884603E-01     0.0000000000000000E+00 
    1.0000000000000000E+00     6.2499999999901090E-01     0.0000000000000000E+00 
    1.0000000000000000E+00     6.8749999999917577E-01     0.0000000000000000E+00 
    1.0000000000000000E+00     7.4999999999934064E-01     0.0000000000000000E+00 
    1.0000000000000000E+00     8.1249999999950551E-01     0.0000000000000000E+00 
    1.0000000000000000E+00     8.7499999999967026E-01     0.0000000000000000E+00 
    1.0000000000000000E+00     9.3749999999983513E-01     0.0000000000000000E+00 
    9.3749999999973976E-01     1.0000000000000000E+00     0.0000000000000000E+00 
    8.7499999999950118E-01     1.0000000000000000E+00     0.0000000000000000E+00 
    8.1249999999991318E-01     1.0000000000000000E+00     0.0000000000000000E+00 
    7.5000000000034706E-01     1.0000000000000000E+00     0.0000000000000000E+00 
    6.8750000000078049E-01     1.0000000000000000E+00     0.0000000000000000E+00 
    6.2500000000121403E-01     1.0000000000000000E+00     0.0000000000000000E+00 
    5.6250000000164757E-01     1.0000000000000000E+00     0.0000000000000000E+00 
    5.0000000000205946E-01     1.0000000000000000E+00     0.0000000000000000E+00 
    4.3750000000182099E-01     1.0000000000000000E+00     0.0000000000000000E+00 
    3.7500000000156092E-01     1.0000000000000000E+00     0.0000000000000000E+00 
    3.1250000000130068E-01     1.0000000000000000E+00     0.0000000000000000E+00 
    2.5000000000104050E-01     1.0000000000000000E+00     0.0000000000000000E+00 
    1.8750000000078040E-01     1.0000000000000000E+00     0.0000000000000000E+00 
    1.2500000000052031E-01     1.0000000000000000E+00     0.0000000000000000E+00 
    6.2500000000260125E-02     1.0000000000000000E+00     0.0000000000000000E+00 
    0.0000000000000000E+00     9.3749999999973976E-01     0.0000000000000000E+00 
    0.0000000000000000E+00     8.7499999999950118E-01     0.0000000000000000E+00 
    0.0000000000000000E+00     8.1249999999991318E-01     0.0000000000000000E+00 
    0.0000000000000000E+00     7.5000000000034706E-01     0.0000000000000000E+00 
    0.0000000000000000E+00     6.8750000000078049E-01     0.0000000000000000E+00 
    0.0000000000000000E+00     6.2500000000121403E-01     0.0000000000000000E+00 
    0.0000000000000000E+00     5.6250000000164757E-01     0.0000000000000000E+00 
    0.0000000000000000E+00     5.0000000000205946E-01     0.0000000000000000E+00 
    0.0000000000000000E+00     4.3750000000182099E-01     0.0000000000000000E+00 
    0.0000000000000000E+00     3.7500000000156092E-01     0.0000000000000000E+00 
    0.0000000000000000E+00     3.1250000000130068E-01     0.0000000000000000E+00 
    0.0000000000000000E+00     2.5000000000104050E-01     0.0000000000000000E+00 
    0.0000000000000000E+00     1.8750000000078040E-01     0.0000000000000000E+00 
    0.0000000000000000E+00     1.2500000000052031E-01     0.0000000000000000E+00 
    0.0000000000000000E+00     6.2500000000260125E-02     0.0000000000000000E+00 
    6.2499999999897131E-02     6.2500000000235922E-02     0.0000000000000000E+00 
    6.2499999999921327E-02     1.2500000000047351E-01     0.0000000000000000E+00 
    6.2499999999945530E-02     1.8750000000070621E-01     0.0000000000000000E+00 
    6.2499999999969733E-02     2.5000000000093858E-01     0.0000000000000000E+00 
    6.2499999999993928E-02     3.1250000000117117E-01     0.0000000000000000E+00 
    6.2500000000018124E-02     3.7500000000140382E-01     0.0000000000000000E+00 
    6.2500000000042327E-02     4.3750000000163619E-01     0.0000000000000000E+00 
    6.2500000000066530E-02     5.0000000000184897E-01     0.0000000000000000E+00 
    6.2500000000090733E-02     5.6250000000147260E-01     0.0000000000000000E+00 
    6.2500000000114922E-02     6.2500000000107636E-01     0.0000000000000000E+00 
    6.2500000000139125E-02     6.8750000000068034E-01     0.0000000000000000E+00 
    6.2500000000163328E-02     7.5000000000028411E-01     0.0000000000000000E+00 
    6.2500000000187531E-02     8.1249999999988787E-01     0.0000000000000000E+00 
    6.2500000000211720E-02     8.7499999999951172E-01     0.0000000000000000E+00 
    6.2500000000235922E-02     9.3749999999974565E-01     0.0000000000000000E+00 
    1.2499999999981980E-01     6.2500000000211733E-02     0.0000000000000000E+00 
    1.2499999999986650E-01     1.2500000000042691E-01     0.0000000000000000E+00 
    1.2499999999991319E-01     1.8750000000063199E-01     0.0000000000000000E+00 
    1.2499999999995989E-01     2.5000000000083678E-01     0.0000000000000000E+00 
    1.2500000000000661E-01     3.1250000000104172E-01     0.0000000000000000E+00 
    1.2500000000005329E-01     3.7500000000124661E-01     0.0000000000000000E+00 
    1.2500000000010000E-01     4.3750000000145117E-01     0.0000000000000000E+00 
    1.2500000000014669E-01     5.0000000000163858E-01     0.0000000000000000E+00 
    1.2500000000019340E-01     5.6250000000129741E-01     0.0000000000000000E+00 
    1.2500000000024011E-01     6.2500000000093847E-01     0.0000000000000000E+00 
    1.2500000000028680E-01     6.8750000000057998E-01     0.0000000000000000E+00 
    1.2500000000033351E-01     7.5000000000022127E-01     0.0000000000000000E+00 
    1.2500000000038020E-01     8.1249999999986211E-01     0.0000000000000000E+00 
    1.2500000000042691E-01     8.7499999999952238E-01     0.0000000000000000E+00 
    1.2500000000047359E-01     9.3749999999975164E-01     0.0000000000000000E+00 
    1.8749999999966760E-01     6.2500000000187531E-02     0.0000000000000000E+00 
    1.8749999999974179E-01     1.2500000000038020E-01     0.0000000000000000E+00 
    1.8749999999981601E-01     1.8750000000055780E-01     0.0000000000000000E+00 
    1.8749999999989009E-01     2.5000000000073502E-01     0.0000000000000000E+00 
    1.8749999999996431E-01     3.1250000000091221E-01     0.0000000000000000E+00 
    1.8750000000003850E-01     3.7500000000108941E-01     0.0000000000000000E+00 
    1.8750000000011269E-01     4.3750000000126649E-01     0.0000000000000000E+00 
    1.8750000000018691E-01     5.0000000000142808E-01     0.0000000000000000E+00 
    1.8750000000026110E-01     5.6250000000112244E-01     0.0000000000000000E+00 
    1.8750000000033529E-01     6.2500000000080080E-01     0.0000000000000000E+00 
    1.8750000000040951E-01     6.8750000000047962E-01     0.0000000000000000E+00 
    1.8750000000048361E-01     7.5000000000015843E-01     0.0000000000000000E+00 
    1.8750000000055780E-01     8.1249999999983680E-01     0.0000000000000000E+00 
    1.8750000000063199E-01     8.7499999999953304E-01     0.0000000000000000E+00 
    1.8750000000070621E-01     9.3749999999975764E-01     0.0000000000000000E+00 
    2.4999999999951281E-01     6.2500000000163314E-02     0.0000000000000000E+00 
    2.4999999999961461E-01     1.2500000000033351E-01     0.0000000000000000E+00 
    2.4999999999971650E-01     1.8750000000048361E-01     0.0000000000000000E+00 
    2.4999999999981831E-01     2.5000000000063310E-01     0.0000000000000000E+00 
    2.4999999999992020E-01     3.1250000000078260E-01     0.0000000000000000E+00 
    2.5000000000002198E-01     3.7500000000093209E-01     0.0000000000000000E+00 
    2.5000000000012390E-01     4.3750000000108180E-01     0.0000000000000000E+00 
    2.5000000000022571E-01     5.0000000000121769E-01     0.0000000000000000E+00 
    2.5000000000032763E-01     5.6250000000094724E-01     0.0000000000000000E+00 
    2.5000000000042938E-01     6.2500000000066314E-01     0.0000000000000000E+00 
    2.5000000000053119E-01     6.8750000000037925E-01     0.0000000000000000E+00 
[...]
CELL_DATA 256 
SCALARS Pressure double 1 
LOOKUP_TABLE default 

    8.9228106774383309E-01 
    8.4001179777928003E-01 
    8.0445996344788029E-01 
    7.7067495381715911E-01 
    7.3528822370375879E-01 
    6.9754218129540757E-01 
    6.5742543588542923E-01 
    6.1539133692213066E-01 
    5.7207665474627678E-01 
    5.2824967929468514E-01 
    4.8487573887419760E-01 
    4.4337986249186528E-01 
    4.0532790968782711E-01 
    3.6926497051956314E-01 
    3.4190556989145726E-01 
    3.3105442780044469E-01 
    8.7835072383226231E-01 
    8.4154454378007426E-01 
    8.0720708993705015E-01 
    7.7375012723756931E-01 
    7.3866790028972562E-01 
    7.0121634598896154E-01 
    6.6134320862642926E-01 
    6.1946779115087458E-01 
    5.7620545085096098E-01 
    5.3229957647032189E-01 
    4.8866981187138125E-01 
    4.4668703390823555E-01 
    4.0799132726748122E-01 
    3.7119443803985569E-01 
    3.4247843711885412E-01 
    3.3060843935814194E-01 
    8.6762397317071160E-01 
    8.4085615763870625E-01 
    8.0911843831937635E-01 
    7.7640004380725169E-01 
    7.4175139907446053E-01 
    7.0465562082496036E-01 
    6.6506432224534429E-01 
    6.2336322018630608E-01 
    5.8013639339317591E-01 
    5.3608806371783169E-01 
    4.9207837924179842E-01 
    4.4939858243926822E-01 
    4.0973134258955785E-01 
    3.7195468738603887E-01 
    3.4173054258950758E-01 
    3.2895569307734668E-01 
    8.5906796389982065E-01 
    8.3898189147931146E-01 
    8.1022653246862575E-01 
    7.7861418075903843E-01 
    7.4454783348345144E-01 
    7.0786964203223113E-01 
    6.6859472155686317E-01 
    6.2708782357308201E-01 
    5.8389358924270063E-01 
    5.3966077497883647E-01 
    4.9517055469693622E-01 
    4.5160466264351934E-01 
    4.1065245414301449E-01 
    3.7160868402009550E-01 
    3.3958774014413406E-01 
    3.2585738485713117E-01 
    8.5202642469872625E-01 
    8.3649304747033648E-01 
    8.1065651328603949E-01 
    7.8040472602208288E-01 
    7.4707043471923085E-01 
    7.1087865176434284E-01 
    6.7195489704625233E-01 
    6.3066290295977367E-01 
    5.8750684177625934E-01 
    5.4306718258685172E-01 
    4.9802308737474615E-01 
    4.5340972341321495E-01 
    4.1087559454917538E-01 
    3.7020909349046788E-01 
    3.3594564665303644E-01 
    3.2105443723978533E-01 
    8.4615572516355153E-01 
    8.3375758712601766E-01 
    8.1056971464634675E-01 
    7.8181367738086971E-01 
    7.4933998641923694E-01 
    7.1370766748572612E-01 
    6.7517534508128008E-01 
    6.3411926971860244E-01 
    5.9100958161781836E-01 
    5.4635619111384814E-01 
    5.0071275866238152E-01 
    4.5492527922806686E-01 
    4.1052763806804415E-01 
    3.6779601448564048E-01 
    3.3067237383001208E-01 
    3.1424985616618140E-01 
    8.4123527229538908E-01 
    8.3101862082468692E-01 
    8.1013745868192411E-01 
    7.8291067316557172E-01 
    7.5138741027928768E-01 
    7.1638299581466658E-01 
    6.7828603282317312E-01 
    6.3749109865515929E-01 
    5.9444055069024448E-01 
    5.4957828357781480E-01 
    5.0331856200415226E-01 
    4.5627009977452809E-01 
    4.0975003926971054E-01 
    3.6442895921358237E-01 
    3.2364312966472342E-01 
    3.0510807260093226E-01 
    8.3710970800361473E-01 
    8.2843001493004331E-01 
    8.0951299166123569E-01 
    7.8377539853099576E-01 
    7.5325282194069698E-01 
    7.1893192836405317E-01 
    6.8131523249576509E-01 
    6.4081172638904782E-01 
    5.9783996151904040E-01 
    5.5278788236972343E-01 
    5.0592384477177499E-01 
    4.5757577691569662E-01 
    4.0871685782298095E-01 
    3.6021811582202801E-01 
    3.1477038709157507E-01 
    2.9324213488343986E-01 
    8.3366590098807458E-01 
    8.2608424735462593E-01 
    8.0882235496958477E-01 
    7.8449043823094167E-01 
    7.5498267687036891E-01 
    7.2138256616293661E-01 
    6.8428750069400024E-01 
    6.4411173275697453E-01 
    6.0124824083832018E-01 
    5.5604021230054879E-01 
    5.0861422562585656E-01 
    4.5898466869636706E-01 
    4.0763874864113936E-01 
    3.5533594792837797E-01 
    3.0401140739002480E-01 
    2.7818921717215911E-01 
    8.3082361526710391E-01 
    8.2403898957466637E-01 
    8.0816790740269351E-01 
    7.8513771488392148E-01 
    7.5663022656933510E-01 
    7.2376638086751188E-01 
    6.8722866755708767E-01 
    6.4742171710551133E-01 
    6.0470356543735482E-01 
    5.5938644327929687E-01 
    5.1146986270617822E-01 
    4.6064043974676755E-01 
    4.0675609742937363E-01 
    3.5003660602847392E-01 
    2.9141173493368661E-01 
    2.5937648331213881E-01 
    8.2853403028475225E-01 
    8.2234081019446148E-01 
    8.0764080921835657E-01 
    7.8580075632837820E-01 
    7.5825669030255205E-01 
    7.2612431229947194E-01 
    6.9016970986621884E-01 
    6.5077020077117387E-01 
    6.0823318759489231E-01 
    5.6285965992539699E-01 
    5.1454814152998196E-01 
    4.6266290282976552E-01 
    4.0631702814869686E-01 
    3.4468513485436308E-01 
    2.7719520139438902E-01 
    2.3608002599389458E-01 
    8.2677578226506987E-01 
    8.2103971820537203E-01 
    8.0732859469370588E-01 
    7.8656384817345060E-01 
    7.5992991480609473E-01 
    7.2850258829760639E-01 
    6.9313729712221250E-01 
    6.5415914972159517E-01 
    6.1180234354092677E-01 
    5.6638635536053428E-01 
    5.1776128594137560E-01 
    4.6500746432616508E-01 
    4.0641144435767579E-01 
    3.3961362381828619E-01 
    2.6173989221339589E-01 
    2.0728005704962396E-01 
    8.2546768787497093E-01 
    8.2012762044003451E-01 
    8.0727481972659798E-01 
    7.8747932656010677E-01 
    7.6168451818420924E-01 
    7.3088661481172257E-01 
    6.9600004465588750E-01 
    6.5740076570905570E-01 
    6.1523098824621514E-01 
    5.6980139491489101E-01 
    5.2095021648304851E-01 
    4.6747887701217072E-01 
    4.0674545957849706E-01 
    3.3451486688834731E-01 
    2.4502606788386780E-01 
    1.7120220621427998E-01 
    8.2432593301850976E-01 
    8.1935907639674033E-01 
    8.0729782628734037E-01 
    7.8838974679610452E-01 
    7.6337612708193803E-01 
    7.3316256451880146E-01 
    6.9866937046240007E-01 
    6.6043845040389826E-01 
    6.1862009585959921E-01 
    5.7337417886904651E-01 
    5.2450837998868205E-01 
    4.7066466105040933E-01 
    4.0855405597971983E-01 
    3.3196294173031915E-01 
    2.3029345285197531E-01 
    1.2639284334128748E-01 
    8.2358004804030438E-01 
    8.1891786675649092E-01 
    8.0755597723945871E-01 
    7.8943202888283825E-01 
    7.6514431266128702E-01 
    7.3553739226194459E-01 
    7.0150895855873507E-01 
    6.6368996622499454E-01 
    6.2229696795581313E-01 
    5.7736921053170931E-01 
    5.2868327154437300E-01 
    4.7485849637716904E-01 
    4.1242863102878446E-01 
    3.3392679249425555E-01 
    2.2221063051290307E-01 
    7.1095504988657826E-02 
    8.2338754320074270E-01 
    8.1910798109579552E-01 
    8.0839161960505890E-01 
    7.9096039805783669E-01 
    7.6732479593226033E-01 
    7.3828966870776191E-01 
    7.0473342372151715E-01 
    6.6730639999772556E-01 
    6.2627314134202783E-01 
    5.8168898372875344E-01 
    5.3332572109792931E-01 
    4.7987091388963748E-01 
    4.1795083281243856E-01 
    3.3992681546800818E-01 
    2.2491132081103918E-01 
    0.0000000000000000E+00 

SCALARS Saturarion double 1 
LOOKUP_TABLE default 

    1.0000000000000069E+00 
    9.6367371820549874E-01 
    9.0192039353381026E-01 
    8.2690067004131373E-01 
    7.6352062065767057E-01 
    7.1197505850235443E-01 
    6.7033862665527633E-01 
    6.3541129692399811E-01 
    6.0432552425600405E-01 
    5.7537840542507557E-01 
    5.4761740699052597E-01 
    5.1921815061910381E-01 
    4.7322390432681699E-01 
    2.7536426775476824E-01 
    1.1884845464428320E-03 
    1.0000000095215602E-06 
    9.8482870097799780E-01 
    9.5044513169669387E-01 
    8.8581672282339319E-01 
    8.1705467173126700E-01 
    7.5836760240524481E-01 
    7.0866578615274523E-01 
    6.6725041495766368E-01 
    6.3226271143702018E-01 
    6.0160253907600914E-01 
    5.7343991823936380E-01 
    5.4656901347541209E-01 
    5.1904679930321951E-01 
    4.7477775845693787E-01 
    2.9718577093522203E-01 
    3.2777609973599531E-03 
    1.0140725074202805E-06 
    9.6098410989928118E-01 
    9.2797309117937166E-01 
    8.6420571633571386E-01 
    8.0044659145090313E-01 
    7.4764629600248400E-01 
    7.0135827096974690E-01 
    6.6089764552869945E-01 
    6.2596848165560548E-01 
    5.9590749568780954E-01 
    5.6908620372214835E-01 
    5.4383725261327964E-01 
    5.1788730437360997E-01 
    4.7750477469515196E-01 
    3.2178396118860292E-01 
    8.3446217851335294E-03 
    1.1246088437834591E-06 
    9.1926988277687671E-01 
    8.9327636606806027E-01 
    8.3783030166895400E-01 
    7.7905642935030983E-01 
    7.3032423424415382E-01 
    6.8905737451356097E-01 
    6.5212832515039587E-01 
    6.1939569930716898E-01 
    5.9057480585352418E-01 
    5.6489607691104493E-01 
    5.4088338241960188E-01 
    5.1665154118926371E-01 
    4.7996184597050007E-01 
    3.4837245994306815E-01 
    2.1330721179016795E-02 
    2.4723808344982396E-06 
    8.7403198840824359E-01 
    8.5217626640781341E-01 
    8.0478418124623685E-01 
    7.5330498136790935E-01 
    7.0903273484321816E-01 
    6.7184269093318216E-01 
    6.3948917680919604E-01 
    6.1053018687343130E-01 
    5.8432250598347080E-01 
    5.6035766767235018E-01 
    5.3787783250862287E-01 
    5.1551460111090863E-01 
    4.8245057044365475E-01 
    3.7088588568440933E-01 
    4.0521557552934233E-02 
    5.0426847953589311E-06 
    8.2771012644917541E-01 
    8.1029323166151068E-01 
    7.7122802872772689E-01 
    7.2684236798542701E-01 
    6.8673578934792845E-01 
    6.5256067981201060E-01 
    6.2336774150828289E-01 
    5.9789346356815010E-01 
    5.7469709389576584E-01 
    5.5306683775274201E-01 
    5.3260888633652703E-01 
    5.1241409159554629E-01 
    4.8399242343592469E-01 
    3.8837508927493153E-01 
    6.6188373428970743E-02 
    1.0728322864400615E-05 
    7.8065236490226508E-01 
    7.6839500312861597E-01 
    7.3757633069755679E-01 
    6.9943962980235774E-01 
    6.6351392958755473E-01 
    6.3244283215556352E-01 
    6.0609001228646497E-01 
    5.8308060527273964E-01 
    5.6247220906157569E-01 
    5.4342510986971149E-01 
    5.2555099346642997E-01 
    5.0772703953053178E-01 
    4.8379419446805055E-01 
    4.0374770021091488E-01 
    9.4575418967478453E-02 
    1.0654352373097279E-05 
    7.3283720409936537E-01 
    7.2574407256952156E-01 
    7.0309737259882410E-01 
    6.7131026930717708E-01 
    6.3937817988875045E-01 
    6.1109505811685816E-01 
    5.8669762333337017E-01 
    5.6592945713706622E-01 
    5.4801134444586641E-01 
    5.3185678626646216E-01 
    5.1645776873264670E-01 
    5.0137211414411642E-01 
    4.8165424880019908E-01 
    4.1687934150410727E-01 
    1.2700422236915990E-01 
    2.2699484244855298E-05 
    6.8428417549318510E-01 
    6.8164132064785554E-01 
    6.6622101542843104E-01 
    6.4120549461494492E-01 
    6.1411860191932588E-01 
    5.8849686765023579E-01 
    5.6564332677529494E-01 
    5.4633559760241479E-01 
    5.3075485971941072E-01 
    5.1751891422832819E-01 
    5.0533877863875409E-01 
    4.9322434893549527E-01 
    4.7786427113869401E-01 
    4.2604739114427553E-01 
    1.6200760022693358E-01 
    1.0006851508906430E-04 
    6.3525450283818641E-01 
    6.3635834040532380E-01 
    6.2733519587717035E-01 
    6.0868099248187846E-01 
    5.8682315526887607E-01 
    5.6471708361707662E-01 
    5.4389345753523444E-01 
    5.2627700502103814E-01 
    5.1236771800608860E-01 
    5.0072101458518670E-01 
    4.9046840773650990E-01 
    4.8156481735095624E-01 
    4.7065741555843937E-01 
    4.3088805521554935E-01 
    1.9997264966842304E-01 
    3.7940072391170457E-04 
    5.8741211311106434E-01 
    5.9131147660818351E-01 
    5.8781618052707785E-01 
    5.7482643751940743E-01 
    5.5768492601814379E-01 
    5.3996503988264766E-01 
    5.2283067085271517E-01 
    5.0633018325420454E-01 
    4.9148938510834778E-01 
    4.7874958239086701E-01 
    4.6872080839162544E-01 
    4.6137063381254340E-01 
    4.5568953724143019E-01 
    4.2944009542837780E-01 
    2.4519152099651470E-01 
    1.6436828501858788E-03 
    5.4301400470818817E-01 
    5.4886048426577727E-01 
    5.4919318238344905E-01 
    5.4001478650134760E-01 
    5.2633218379040736E-01 
    5.1248383754796867E-01 
    4.9703285675252012E-01 
    4.7737085115843625E-01 
    4.5388124399476670E-01 
    4.2519458716986103E-01 
    3.9659877730987536E-01 
    3.8729029077134958E-01 
    4.0178310804149076E-01 
    4.0501340298381583E-01 
    2.8107146551101186E-01 
    6.6054374367167570E-03 
    4.7225258910294804E-01 
    4.8678508575885188E-01 
    4.9537774333121853E-01 
    4.9198192334749608E-01 
    4.7812676406293336E-01 
    4.5924793313903495E-01 
    4.2193950900822746E-01 
    3.1090414985542875E-01 
    2.2010083390028026E-01 
    1.4073857851111726E-01 
    7.4510121035627291E-02 
    8.1672679020943814E-02 
    1.4772280479849476E-01 
    2.5788731941397897E-01 
    2.4108238146068603E-01 
    1.0167902469865682E-02 
    1.7603120526688371E-01 
    2.6817989108418766E-01 
    3.1562734648869506E-01 
    3.0329638581341689E-01 
    2.4768767689772223E-01 
    1.7993620706745894E-01 
    9.5192950934792464E-02 
    8.3128630612711273E-03 
    5.4678830193150300E-04 
    7.0085181771739198E-05 
    9.7287883738209113E-06 
    4.0932786289723221E-06 
    1.0314317441099126E-04 
    6.1224505435615705E-03 
    3.0170054881673260E-02 
    2.5947865334721856E-04 
    1.1871739040108520E-06 
    2.2025539864912818E-03 
    5.3657233546882330E-03 
    2.7875972031308487E-03 
    9.0044610284097603E-04 
    9.5131726419432305E-05 
    4.6641808649670374E-05 
    1.5697553920617868E-06 
    1.0049031859473533E-06 
    1.0008988208174486E-06 
    1.0000097712975461E-06 
    1.0000054811110630E-06 
    1.0002163760717404E-06 
    1.5222946438625038E-06 
    1.5834657640798953E-05 
    1.0229597546234896E-06 
    1.0000000017983259E-06 
    1.0652295854327756E-06 
    1.0457040246272535E-06 
    1.0442302934018345E-06 
    1.0090331567121184E-06 
    1.0007206114410174E-06 
    1.0001162808364803E-06 
    1.0000000196163627E-06 
    1.0000000002774555E-06 
    1.0000000000003034E-06 
    9.9999999999999995E-07 
    1.0000000000000717E-06 
    1.0000000000218238E-06 
    1.0000000595233277E-06 
    1.0000083822661137E-06 
    1.0000005275823270E-06 
