# vtk DataFile Version 2.0
Pressure Field Data 
ASCII 
DATASET UNSTRUCTURED_GRID 

POINTS 289 double 

    0.0000000000000000E+00     0.0000000000000000E+00     0.0000000000000000E+00 
    1.0000000000000000E+00     0.0000000000000000E+00     0.0000000000000000E+00 
    1.0000000000000000E+00     1.0000000000000000E+00     0.0000000000000000E+00 
    0.0000000000000000E+00     1.0000000000000000E+00     0.0000000000000000E+00 
    6.2499999999872928E-02     0.0000000000000000E+00     0.0000000000000000E+00 
    1.2499999999977310E-01     0.0000000000000000E+00     0.0000000000000000E+00 
    1.8749999999959341E-01     0.0000000000000000E+00     0.0000000000000000E+00 
    2.4999999999941089E-01     0.0000000000000000E+00     0.0000000000000000E+00 
    3.1249999999922851E-01     0.0000000000000000E+00     0.0000000000000000E+00 
    3.7499999999904610E-01     0.0000000000000000E+00     0.0000000000000000E+00 
    4.3749999999886358E-01     0.0000000000000000E+00     0.0000000000000000E+00 
    4.9999999999869210E-01     0.0000000000000000E+00     0.0000000000000000E+00 
    5.6249999999884603E-01     0.0000000000000000E+00     0.0000000000000000E+00 
    6.2499999999901090E-01     0.0000000000000000E+00     0.0000000000000000E+00 
    6.8749999999917577E-01     0.0000000000000000E+00     0.0000000000000000E+00 
    7.4999999999934064E-01     0.0000000000000000E+00     0.0000000000000000E+00 
    8.1249999999950551E-01     0.0000000000000000E+00     0.0000000000000000E+00 
    8.7499999999967026E-01     0.0000000000000000E+00     0.0000000000000000E+00 
    9.3749999999983513E-01     0.0000000000000000E+00     0.0000000000000000E+00 
    1.0000000000000000E+00     6.2499999999872928E-02     0.0000000000000000E+00 
    1.0000000000000000E+00     1.2499999999977310E-01     0.0000000000000000E+00 
    1.0000000000000000E+00     1.8749999999959341E-01     0.0000000000000000E+00 
    1.0000000000000000E+00     2.4999999999941089E-01     0.0000000000000000E+00 
    1.0000000000000000E+00     3.1249999999922851E-01     0.0000000000000000E+00 
    1.0000000000000000E+00     3.7499999999904610E-01     0.0000000000000000E+00 
    1.0000000000000000E+00     4.3749999999886358E-01     0.0000000000000000E+00 
    1.0000000000000000E+00     4.9999999999869210E-01     0.0000000000000000E+00 
    1.0000000000000000E+00     5.6249999999884603E-01     0.0000000000000000E+00 
    1.0000000000000000E+00     6.2499999999901090E-01     0.0000000000000000E+00 
    1.0000000000000000E+00     6.8749999999917577E-01     0.0000000000000000E+00 
    1.0000000000000000E+00     7.4999999999934064E-01     0.0000000000000000E+00 
    1.0000000000000000E+00     8.1249999999950551E-01     0.0000000000000000E+00 
    1.0000000000000000E+00     8.7499999999967026E-01     0.0000000000000000E+00 
    1.0000000000000000E+00     9.3749999999983513E-01     0.0000000000000000E+00 
    9.3749999999973976E-01     1.0000000000000000E+00     0.0000000000000000E+00 
    8.7499999999950118E-01     1.0000000000000000E+00     0.0000000000000000E+00 
    8.1249999999991318E-01     1.0000000000000000E+00     0.0000000000000000E+00 
    7.5000000000034706E-01     1.0000000000000000E+00     0.0000000000000000E+00 
    6.8750000000078049E-01     1.0000000000000000E+00     0.0000000000000000E+00 
    6.2500000000121403E-01     1.0000000000000000E+00     0.0000000000000000E+00 
    5.6250000000164757E-01     1.0000000000000000E+00     0.0000000000000000E+00 
    5.0000000000205946E-01     1.0000000000000000E+00     0.0000000000000000E+00 
    4.3750000000182099E-01     1.0000000000000000E+00     0.0000000000000000E+00 
    3.7500000000156092E-01     1.0000000000000000E+00     0.0000000000000000E+00 
    3.1250000000130068E-01     1.0000000000000000E+00     0.0000000000000000E+00 
    2.5000000000104050E-01     1.0000000000000000E+00     0.0000000000000000E+00 
    1.8750000000078040E-01     1.0000000000000000E+00     0.0000000000000000E+00 
    1.2500000000052031E-01     1.0000000000000000E+00     0.0000000000000000E+00 
    6.2500000000260125E-02     1.0000000000000000E+00     0.0000000000000000E+00 
    0.0000000000000000E+00     9.3749999999973976E-01     0.0000000000000000E+00 
    0.0000000000000000E+00     8.7499999999950118E-01     0.0000000000000000E+00 
    0.0000000000000000E+00     8.1249999999991318E-01     0.0000000000000000E+00 
    0.0000000000000000E+00     7.5000000000034706E-01     0.0000000000000000E+00 
    0.0000000000000000E+00     6.8750000000078049E-01     0.0000000000000000E+00 
    0.0000000000000000E+00     6.2500000000121403E-01     0.0000000000000000E+00 
    0.0000000000000000E+00     5.6250000000164757E-01     0.0000000000000000E+00 
    0.0000000000000000E+00     5.0000000000205946E-01     0.0000000000000000E+00 
    0.0000000000000000E+00     4.3750000000182099E-01     0.0000000000000000E+00 
    0.0000000000000000E+00     3.7500000000156092E-01     0.0000000000000000E+00 
    0.0000000000000000E+00     3.1250000000130068E-01     0.0000000000000000E+00 
    0.0000000000000000E+00     2.5000000000104050E-01     0.0000000000000000E+00 
    0.0000000000000000E+00     1.8750000000078040E-01     0.0000000000000000E+00 
    0.0000000000000000E+00     1.2500000000052031E-01     0.0000000000000000E+00 
    0.0000000000000000E+00     6.2500000000260125E-02     0.0000000000000000E+00 
    6.2499999999897131E-02     6.2500000000235922E-02     0.0000000000000000E+00 
    6.2499999999921327E-02     1.2500000000047351E-01     0.0000000000000000E+00 
    6.2499999999945530E-02     1.8750000000070621E-01     0.0000000000000000E+00 
    6.2499999999969733E-02     2.5000000000093858E-01     0.0000000000000000E+00 
    6.2499999999993928E-02     3.1250000000117117E-01     0.0000000000000000E+00 
    6.2500000000018124E-02     3.7500000000140382E-01     0.0000000000000000E+00 
    6.2500000000042327E-02     4.3750000000163619E-01     0.0000000000000000E+00 
    6.2500000000066530E-02     5.0000000000184897E-01     0.0000000000000000E+00 
    6.2500000000090733E-02     5.6250000000147260E-01     0.0000000000000000E+00 
    6.2500000000114922E-02     6.2500000000107636E-01     0.0000000000000000E+00 
    6.2500000000139125E-02     6.8750000000068034E-01     0.0000000000000000E+00 
    6.2500000000163328E-02     7.5000000000028411E-01     0.0000000000000000E+00 
    6.2500000000187531E-02     8.1249999999988787E-01     0.0000000000000000E+00 
    6.2500000000211720E-02     8.7499999999951172E-01     0.0000000000000000E+00 
    6.2500000000235922E-02     9.3749999999974565E-01     0.0000000000000000E+00 
    1.2499999999981980E-01     6.2500000000211733E-02     0.0000000000000000E+00 
    1.2499999999986650E-01     1.2500000000042691E-01     0.0000000000000000E+00 
    1.2499999999991319E-01     1.8750000000063199E-01     0.0000000000000000E+00 
    1.2499999999995989E-01     2.5000000000083678E-01     0.0000000000000000E+00 
    1.2500000000000661E-01     3.1250000000104172E-01     0.0000000000000000E+00 
    1.2500000000005329E-01     3.7500000000124661E-01     0.0000000000000000E+00 
    1.2500000000010000E-01     4.3750000000145117E-01     0.0000000000000000E+00 
    1.2500000000014669E-01     5.0000000000163858E-01     0.0000000000000000E+00 
    1.2500000000019340E-01     5.6250000000129741E-01     0.0000000000000000E+00 
    1.2500000000024011E-01     6.2500000000093847E-01     0.0000000000000000E+00 
    1.2500000000028680E-01     6.8750000000057998E-01     0.0000000000000000E+00 
    1.2500000000033351E-01     7.5000000000022127E-01     0.0000000000000000E+00 
    1.2500000000038020E-01     8.1249999999986211E-01     0.0000000000000000E+00 
    1.2500000000042691E-01     8.7499999999952238E-01     0.0000000000000000E+00 
    1.2500000000047359E-01     9.3749999999975164E-01     0.0000000000000000E+00 
    1.8749999999966760E-01     6.2500000000187531E-02     0.0000000000000000E+00 
    1.8749999999974179E-01     1.2500000000038020E-01     0.0000000000000000E+00 
    1.8749999999981601E-01     1.8750000000055780E-01     0.0000000000000000E+00 
    1.8749999999989009E-01     2.5000000000073502E-01     0.0000000000000000E+00 
    1.8749999999996431E-01     3.1250000000091221E-01     0.0000000000000000E+00 
    1.8750000000003850E-01     3.7500000000108941E-01     0.0000000000000000E+00 
    1.8750000000011269E-01     4.3750000000126649E-01     0.0000000000000000E+00 
    1.8750000000018691E-01     5.0000000000142808E-01     0.0000000000000000E+00 
    1.8750000000026110E-01     5.6250000000112244E-01     0.0000000000000000E+00 
    1.8750000000033529E-01     6.2500000000080080E-01     0.0000000000000000E+00 
    1.8750000000040951E-01     6.8750000000047962E-01     0.0000000000000000E+00 
    1.8750000000048361E-01     7.5000000000015843E-01     0.0000000000000000E+00 
    1.8750000000055780E-01     8.1249999999983680E-01     0.0000000000000000E+00 
    1.8750000000063199E-01     8.7499999999953304E-01     0.0000000000000000E+00 
    1.8750000000070621E-01     9.3749999999975764E-01     0.0000000000000000E+00 
    2.4999999999951281E-01     6.2500000000163314E-02     0.0000000000000000E+00 
    2.4999999999961461E-01     1.2500000000033351E-01     0.0000000000000000E+00 
    2.4999999999971650E-01     1.8750000000048361E-01     0.0000000000000000E+00 
    2.4999999999981831E-01     2.5000000000063310E-01     0.0000000000000000E+00 
    2.4999999999992020E-01     3.1250000000078260E-01     0.0000000000000000E+00 
    2.5000000000002198E-01     3.7500000000093209E-01     0.0000000000000000E+00 
    2.5000000000012390E-01     4.3750000000108180E-01     0.0000000000000000E+00 
    2.5000000000022571E-01     5.0000000000121769E-01     0.0000000000000000E+00 
    2.5000000000032763E-01     5.6250000000094724E-01     0.0000000000000000E+00 
    2.5000000000042938E-01     6.2500000000066314E-01     0.0000000000000000E+00 
    2.5000000000053119E-01     6.8750000000037925E-01     0.0000000000000000E+00 
[...]
CELL_DATA 256 
SCALARS Pressure double 1 
LOOKUP_TABLE default 

    6.9819495250164532E-01 
    6.4826312111466877E-01 
    6.1633910424735794E-01 
    5.8736791248208908E-01 
    5.5788186203553247E-01 
    5.2699845431944714E-01 
    4.9451718678105994E-01 
    4.6064386825020848E-01 
    4.2578020581046511E-01 
    3.9048898792557557E-01 
    3.5555895355991179E-01 
    3.2224670953774637E-01 
    2.9253405150645062E-01 
    2.6902055997110103E-01 
    2.5385884700544331E-01 
    2.4643305654362635E-01 
    6.8421408764988167E-01 
    6.4955125548245785E-01 
    6.1873523422683341E-01 
    5.9000178305593831E-01 
    5.6071912758724785E-01 
    5.3002792643879926E-01 
    4.9771260666674505E-01 
    4.6395633248131896E-01 
    4.2913713377594637E-01 
    3.9378709185616262E-01 
    3.5864725658594920E-01 
    3.2490450603964066E-01 
    2.9448754161660445E-01 
    2.7004552412174732E-01 
    2.5399875524026783E-01 
    2.4600652923818761E-01 
    6.7348920893824760E-01 
    6.4870298869476062E-01 
    6.2037785396848588E-01 
    5.9229891138946411E-01 
    5.6335440633671441E-01 
    5.3291011235591979E-01 
    5.0078603939739996E-01 
    4.6715401364549514E-01 
    4.3236461195012593E-01 
    3.9690799576393693E-01 
    3.6146628539778297E-01 
    3.2714458845473948E-01 
    2.9581809427485983E-01 
    2.7022091005167537E-01 
    2.5313964119072224E-01 
    2.4462581384453394E-01 
    6.6506528955285271E-01 
    6.4677626762458107E-01 
    6.2130845207728080E-01 
    5.9423815100938759E-01 
    5.6578234721216147E-01 
    5.3565051587773138E-01 
    5.0374679402052824E-01 
    4.7024864861624993E-01 
    4.3548071404526073E-01 
    3.9988329724118243E-01 
    3.6406639768418092E-01 
    3.2903496200786098E-01 
    2.9659454043879124E-01 
    2.6957917696827405E-01 
    2.5123365807144116E-01 
    2.4214932462479777E-01 
    6.5829795773004995E-01 
    6.4436238146473834E-01 
    6.2166090455305978E-01 
    5.9582936856383495E-01 
    5.6800150532888172E-01 
    5.3825373952853273E-01 
    5.0660555359829751E-01 
    4.7325563921555286E-01 
    4.3850785510694273E-01 
    4.0274865888457961E-01 
    3.6650247953259663E-01 
    3.3065099854477809E-01 
    2.9689704439143555E-01 
    2.6816218018066335E-01 
    2.4823042619234886E-01 
    2.3842827031787731E-01 
    6.5278844262687352E-01 
    6.4180661653189663E-01 
    6.2158712469260691E-01 
    5.9710708751659258E-01 
    5.7001843232428062E-01 
    5.4072399018695461E-01 
    5.0937207242334537E-01 
    4.7619160418631001E-01 
    4.4147141397432432E-01 
    4.0554361605527067E-01 
    3.6883411666211940E-01 
    3.3207592655906942E-01 
    2.9681938812879333E-01 
    2.6602722764428416E-01 
    2.4407754717168864E-01 
    2.3328407536626186E-01 
    6.4827446391863686E-01 
    6.3931887462829307E-01 
    6.2123591341118534E-01 
    5.9812672111454523E-01 
    5.7185335753654210E-01 
    5.4307159728251087E-01 
    5.1205557615964581E-01 
    4.7907165509618616E-01 
    4.4439723019173583E-01 
    4.0830914416095437E-01 
    3.7112539901012226E-01 
    3.3340187840282426E-01 
    2.9647264971022014E-01 
    2.6325540538266945E-01 
    2.3873083015411331E-01 
    2.2651375644516142E-01 
    6.4457124998169024E-01 
    6.3702300580039672E-01 
    6.2073816747332922E-01 
    5.9895447086966924E-01 
    5.7353787339565454E-01 
    5.4531372902173603E-01 
    5.1466817814954191E-01 
    4.8190897913842823E-01 
    4.4730673101637752E-01 
    4.1108329955940875E-01 
    3.7344092114926786E-01 
    3.3473017688458545E-01 
    2.9599016796624222E-01 
    2.5996151229201969E-01 
    2.3216531107120178E-01 
    2.1788061986689825E-01 
    6.4154428840218392E-01 
    6.3498768498456848E-01 
    6.2020038142996237E-01 
    5.9965833265004653E-01 
    5.7510849428925737E-01 
    5.4747150157436808E-01 
    5.1722414427959795E-01 
    4.8471616344172413E-01 
    4.5021721999819309E-01 
    4.1389732043816180E-01 
    3.7584020796051210E-01 
    3.3616669622554618E-01 
    2.9553048941668408E-01 
    2.5630581153348997E-01 
    2.2438197933209603E-01 
    2.0708416677315170E-01 
    6.3909553374394767E-01 
    6.3324959475363962E-01 
    6.1970521636500653E-01 
    6.0030204938065967E-01 
    5.7660452498622894E-01 
    5.4956896401077393E-01 
    5.1974031802946374E-01 
    4.8750670677745717E-01 
    4.5314342194320983E-01 
    4.1677554192298427E-01 
    3.7837343150714753E-01 
    3.3781556907776755E-01 
    2.9527625440778887E-01 
    2.5251001529122069E-01 
    2.1542863428410175E-01 
    1.9372176730108748E-01 
    6.3715230947681256E-01 
    6.3182798497885806E-01 
    6.1931730252259864E-01 
    6.0094428377715492E-01 
    5.7806718217421427E-01 
    5.5163456366817543E-01 
    5.2223666924354228E-01 
    4.9029606370233642E-01 
    4.5610061389027229E-01 
    4.1973887188610431E-01 
    3.8108216980925352E-01 
    3.3977457421271368E-01 
    2.9543176596324539E-01 
    2.4887589162321339E-01 
    2.0544685429713172E-01 
    1.7726664793062499E-01 
    6.3565818291375598E-01 
    6.3073235226701896E-01 
    6.1908902351549544E-01 
    6.0164000600420997E-01 
    5.7954052805214440E-01 
    5.5370201720920076E-01 
    5.2473870689260871E-01 
    4.9310297998222652E-01 
    4.5910577513495077E-01 
    4.2280752871850841E-01 
    3.8400022252063543E-01 
    3.4212991746436683E-01 
    2.9621726763850370E-01 
    2.4579976283229935E-01 
    1.9472394834457651E-01 
    1.5697651188835790E-01 
    6.3457563545097062E-01 
    6.2997342605168560E-01 
    6.1906855266032734E-01 
    6.0244466523527374E-01 
    5.8107233904048328E-01 
    5.5581036875472223E-01 
    5.2727758744971964E-01 
    4.9595017773210254E-01 
    4.6217726285485350E-01 
    4.2599924232095848E-01 
    3.8715027000438546E-01 
    3.4494447558134350E-01 
    2.9784652262117084E-01 
    2.4380734995884457E-01 
    1.8387002119448498E-01 
    1.3177367422055217E-01 
    6.3387275523020525E-01 
    6.2956383159862572E-01 
    6.1930274662319684E-01 
    6.0341355323252921E-01 
    5.8271013613752332E-01 
    5.5799684265406124E-01 
    5.2988245421838454E-01 
    4.9885372588049037E-01 
    4.6531196862217211E-01 
    4.2929521694863704E-01 
    3.9050309632731028E-01 
    3.4819835371756891E-01 
    3.0043298639728355E-01 
    2.4346663171148750E-01 
    1.7403060604934795E-01 
    1.0004608566037965E-01 
    6.3339619792778346E-01 
    6.2940244734679429E-01 
    6.1974777171615913E-01 
    6.0452379398969236E-01 
    5.8442123587520112E-01 
    5.6021506559962375E-01 
    5.3250453092216821E-01 
    5.0176721463803653E-01 
    4.6845019590130399E-01 
    4.3261744946027203E-01 
    3.9395948683056231E-01 
    3.5173519778544221E-01 
    3.0382368113720754E-01 
    2.4503909865679835E-01 
    1.6681914742059784E-01 
    5.8770146866761866E-02 
    6.3322531297557316E-01 
    6.2956442451172945E-01 
    6.2047260422889383E-01 
    6.0583671617859591E-01 
    5.8625591569805724E-01 
    5.6249868667202574E-01 
    5.3517317634921602E-01 
    5.0474141753323898E-01 
    4.7167254257444446E-01 
    4.3606947085549852E-01 
    3.9764914572193621E-01 
    3.5570252962866039E-01 
    3.0825366189781334E-01 
    2.4939221595237970E-01 
    1.6620106565938356E-01 
    0.0000000000000000E+00 

SCALARS Saturarion double 1 
LOOKUP_TABLE default 

    1.0000000000000007E+00 
    9.7628802051243324E-01 
    9.3306958268940343E-01 
    8.7564032139883141E-01 
    8.2743558547024965E-01 
    7.8507534354412123E-01 
    7.4834264955187568E-01 
    7.1657233551592125E-01 
    6.8864785935149664E-01 
    6.6341158318117999E-01 
    6.3964255250889046E-01 
    6.1593675176558138E-01 
    5.9020872338272423E-01 
    5.5920164922345461E-01 
    5.0225547044660412E-01 
    2.1436028335786569E-01 
    9.9104325752348688E-01 
    9.6858880915014223E-01 
    9.2331050512838320E-01 
    8.6862425046545533E-01 
    8.2211253116836813E-01 
    7.8140676577105062E-01 
    7.4575179085269072E-01 
    7.1452017123659295E-01 
    6.8693405122865747E-01 
    6.6201028489315183E-01 
    6.3878149462877354E-01 
    6.1596131964599221E-01 
    5.9136338291850810E-01 
    5.6133635470285215E-01 
    5.0742556832477070E-01 
    2.4497481907096424E-01 
    9.7690490778229444E-01 
    9.5445795670528044E-01 
    9.0902774168745848E-01 
    8.5618111750563197E-01 
    8.1167426113232832E-01 
    7.7371737656344552E-01 
    7.4031722557545221E-01 
    7.1031006728531387E-01 
    6.8326910943050612E-01 
    6.5869000200530070E-01 
    6.3603182389222834E-01 
    6.1429588027801685E-01 
    5.9154844019107367E-01 
    5.6381276609969710E-01 
    5.1422252408347691E-01 
    2.7293364286380861E-01 
    9.5222958108133560E-01 
    9.3333962876564303E-01 
    8.9161454228386039E-01 
    8.4290799211013934E-01 
    7.9923788725476741E-01 
    7.6264180546474303E-01 
    7.3112997068465635E-01 
    7.0312099205086109E-01 
    6.7763025040114377E-01 
    6.5434419781436615E-01 
    6.3272140678140520E-01 
    6.1209289067488060E-01 
    5.9099881113385766E-01 
    5.6584533181398555E-01 
    5.2087421968678693E-01 
    2.9995343813152953E-01 
    9.2207659067843661E-01 
    9.0547130734888726E-01 
    8.6835185169742490E-01 
    8.2451674163186461E-01 
    7.8316659930776777E-01 
    7.4770162304475074E-01 
    7.1771703583907875E-01 
    6.9170105604217536E-01 
    6.6852805938583548E-01 
    6.4752197883102802E-01 
    6.2813656105548221E-01 
    6.0951522588274631E-01 
    5.9022163302684572E-01 
    5.6732710535788644E-01 
    5.2703560142977179E-01 
    3.2181154978089987E-01 
    8.8850611831593851E-01 
    8.7471048186327061E-01 
    8.4248818763850797E-01 
    8.0297908566087828E-01 
    7.6491296977067602E-01 
    7.3131095602222584E-01 
    7.0229384754845947E-01 
    6.7753369385308604E-01 
    6.5621687294324982E-01 
    6.3754587716213984E-01 
    6.2084412210351725E-01 
    6.0527929102590350E-01 
    5.8893397359576927E-01 
    5.6847037466777361E-01 
    5.3252105303386033E-01 
    3.4127955491824497E-01 
    8.5230533329266456E-01 
    8.4189045707767918E-01 
    8.1492355528411953E-01 
    7.7989303449412983E-01 
    7.4538094407884348E-01 
    7.1422811793224861E-01 
    6.8689060372799260E-01 
    6.6298901435734914E-01 
    6.4257887830130489E-01 
    6.2540591650741473E-01 
    6.1103320972255581E-01 
    5.9858328667862393E-01 
    5.8616135286436799E-01 
    5.6934156892497612E-01 
    5.3747325228638598E-01 
    3.6021157138841225E-01 
    8.1328699647291958E-01 
    8.0669236148111745E-01 
    7.8572795560909692E-01 
    7.5570954026304871E-01 
    7.2445887199105097E-01 
    6.9562036431555641E-01 
    6.6988672364652901E-01 
    6.4742506427642055E-01 
    6.2809009043866582E-01 
    6.1199287650772849E-01 
    5.9914704225750370E-01 
    5.8938712866114662E-01 
    5.8106956152954992E-01 
    5.6928238282044374E-01 
    5.4236603697211472E-01 
    3.7924693511623414E-01 
    7.7165815520652425E-01 
    7.6875836166636324E-01 
    7.5362265147284735E-01 
    7.2894381169548539E-01 
    7.0149609405374247E-01 
    6.7504652582063052E-01 
    6.5113303943392031E-01 
    6.2998032180142227E-01 
    6.1165720703551507E-01 
    5.9638055764633113E-01 
    5.8475048799028673E-01 
    5.7728079297391022E-01 
    5.7311408378933115E-01 
    5.6730876822480691E-01 
    5.4650673304551622E-01 
    3.9721177495075066E-01 
    7.2744575445522297E-01 
    7.2798181345477342E-01 
    7.1825710492514938E-01 
    6.9861814314507620E-01 
    6.7524505927704370E-01 
    6.5174003035171446E-01 
    6.2976366087353564E-01 
    6.1025866184647126E-01 
    5.9324634607742921E-01 
    5.7883793041159759E-01 
    5.6779021948465691E-01 
    5.6171215976638522E-01 
    5.6135654406570390E-01 
    5.6245269409952536E-01 
    5.4952176947031695E-01 
    4.1472639774535169E-01 
    6.8029579685651420E-01 
    6.8400129123450604E-01 
    6.7928606044716033E-01 
    6.6432463451192580E-01 
    6.4507273308940394E-01 
    6.2509227029002734E-01 
    6.0606765609391045E-01 
    5.8842865880658513E-01 
    5.7281445847401469E-01 
    5.5962469965750483E-01 
    5.4947273350987413E-01 
    5.4378167150104240E-01 
    5.4526364453536602E-01 
    5.5327887457400360E-01 
    5.5022982132449172E-01 
    4.3235395366508206E-01 
    6.2906414357282459E-01 
    6.3574665416130871E-01 
    6.3610868061254355E-01 
    6.2596115769120064E-01 
    6.1072758935707017E-01 
    5.9420676295431973E-01 
    5.7816084722373606E-01 
    5.6325656356000176E-01 
    5.4981113069856957E-01 
    5.3848448494344203E-01 
    5.2982448123830228E-01 
    5.2492760420474482E-01 
    5.2642482143173697E-01 
    5.3843044467286472E-01 
    5.4557090949447618E-01 
    4.4898188719435173E-01 
    5.7606944285345374E-01 
    5.8451687421734855E-01 
    5.8893483230402255E-01 
    5.8368961102464345E-01 
    5.7297296013985854E-01 
    5.5987653813057792E-01 
    5.4681209610577552E-01 
    5.3433074116493762E-01 
    5.2282952278907557E-01 
    5.1264091264857159E-01 
    5.0514572828840709E-01 
    5.0192249474028705E-01 
    5.0490477448719240E-01 
    5.1833333128217873E-01 
    5.3736742583132069E-01 
    4.6313255931351810E-01 
    5.1401742558998598E-01 
    5.2738897558162867E-01 
    5.3526538160599546E-01 
    5.3516675449010376E-01 
    5.2715081670596264E-01 
    5.1590633345389225E-01 
    5.0297797025286550E-01 
    4.9141629242128210E-01 
    4.7788579351281696E-01 
    4.5879735139775923E-01 
    4.4429727067891367E-01 
    4.4021110714131750E-01 
    4.4859558473156391E-01 
    4.8107794467421588E-01 
    5.2097807482563119E-01 
    4.7297721777203350E-01 
    2.6574690730525213E-01 
    3.4651048486696212E-01 
    3.8955964033480422E-01 
    3.9828481904595442E-01 
    3.8304485173408459E-01 
    3.4734866031970874E-01 
    2.9759672465260939E-01 
    2.4685066518093873E-01 
    2.2128791703204778E-01 
    1.6910572091624099E-01 
    1.3786179958820691E-01 
    1.1987267587164586E-01 
    1.5545081997762758E-01 
    2.9868737411202839E-01 
    4.6038150166672304E-01 
    4.7398019056521468E-01 
    1.7894193587299971E-04 
    1.1558190414044257E-02 
    2.4780471372166574E-02 
    2.4832229515668228E-02 
    2.0431830184307890E-02 
    5.0616772215131270E-03 
    2.6128949303843977E-03 
    1.2358587854588256E-04 
    2.1422718033349477E-04 
    1.3194118304583145E-05 
    1.6699400207736065E-05 
    1.2761557507780557E-05 
    2.7169749467057550E-04 
    8.6272366220629074E-02 
    2.8726494135335762E-01 
    4.2376447354232638E-01 
