# vtk DataFile Version 2.0
Pressure Field Data 
ASCII 
DATASET UNSTRUCTURED_GRID 

POINTS 289 double 

    0.0000000000000000E+00     0.0000000000000000E+00     0.0000000000000000E+00 
    1.0000000000000000E+00     0.0000000000000000E+00     0.0000000000000000E+00 
    1.0000000000000000E+00     1.0000000000000000E+00     0.0000000000000000E+00 
    0.0000000000000000E+00     1.0000000000000000E+00     0.0000000000000000E+00 
    6.2499999999872928E-02     0.0000000000000000E+00     0.0000000000000000E+00 
    1.2499999999977310E-01     0.0000000000000000E+00     0.0000000000000000E+00 
    1.8749999999959341E-01     0.0000000000000000E+00     0.0000000000000000E+00 
    2.4999999999941089E-01     0.0000000000000000E+00     0.0000000000000000E+00 
    3.1249999999922851E-01     0.0000000000000000E+00     0.0000000000000000E+00 
    3.7499999999904610E-01     0.0000000000000000E+00     0.0000000000000000E+00 
    4.3749999999886358E-01     0.0000000000000000E+00     0.0000000000000000E+00 
    4.9999999999869210E-01     0.0000000000000000E+00     0.0000000000000000E+00 
    5.6249999999884603E-01     0.0000000000000000E+00     0.0000000000000000E+00 
    6.2499999999901090E-01     0.0000000000000000E+00     0.0000000000000000E+00 
    6.8749999999917577E-01     0.0000000000000000E+00     0.0000000000000000E+00 
    7.4999999999934064E-01     0.0000000000000000E+00     0.0000000000000000E+00 
    8.1249999999950551E-01     0.0000000000000000E+00     0.0000000000000000E+00 
    8.7499999999967026E-01     0.0000000000000000E+00     0.0000000000000000E+00 
    9.3749999999983513E-01     0.0000000000000000E+00     0.0000000000000000E+00 
    1.0000000000000000E+00     6.2499999999872928E-02     0.0000000000000000E+00 
    1.0000000000000000E+00     1.2499999999977310E-01     0.0000000000000000E+00 
    1.0000000000000000E+00     1.8749999999959341E-01     0.0000000000000000E+00 
    1.0000000000000000E+00     2.4999999999941089E-01     0.0000000000000000E+00 
    1.0000000000000000E+00     3.1249999999922851E-01     0.0000000000000000E+00 
    1.0000000000000000E+00     3.7499999999904610E-01     0.0000000000000000E+00 
    1.0000000000000000E+00     4.3749999999886358E-01     0.0000000000000000E+00 
    1.0000000000000000E+00     4.9999999999869210E-01     0.0000000000000000E+00 
    1.0000000000000000E+00     5.6249999999884603E-01     0.0000000000000000E+00 
    1.0000000000000000E+00     6.2499999999901090E-01     0.0000000000000000E+00 
    1.0000000000000000E+00     6.8749999999917577E-01     0.0000000000000000E+00 
    1.0000000000000000E+00     7.4999999999934064E-01     0.0000000000000000E+00 
    1.0000000000000000E+00     8.1249999999950551E-01     0.0000000000000000E+00 
    1.0000000000000000E+00     8.7499999999967026E-01     0.0000000000000000E+00 
    1.0000000000000000E+00     9.3749999999983513E-01     0.0000000000000000E+00 
    9.3749999999973976E-01     1.0000000000000000E+00     0.0000000000000000E+00 
    8.7499999999950118E-01     1.0000000000000000E+00     0.0000000000000000E+00 
    8.1249999999991318E-01     1.0000000000000000E+00     0.0000000000000000E+00 
    7.5000000000034706E-01     1.0000000000000000E+00     0.0000000000000000E+00 
    6.8750000000078049E-01     1.0000000000000000E+00     0.0000000000000000E+00 
    6.2500000000121403E-01     1.0000000000000000E+00     0.0000000000000000E+00 
    5.6250000000164757E-01     1.0000000000000000E+00     0.0000000000000000E+00 
    5.0000000000205946E-01     1.0000000000000000E+00     0.0000000000000000E+00 
    4.3750000000182099E-01     1.0000000000000000E+00     0.0000000000000000E+00 
    3.7500000000156092E-01     1.0000000000000000E+00     0.0000000000000000E+00 
    3.1250000000130068E-01     1.0000000000000000E+00     0.0000000000000000E+00 
    2.5000000000104050E-01     1.0000000000000000E+00     0.0000000000000000E+00 
    1.8750000000078040E-01     1.0000000000000000E+00     0.0000000000000000E+00 
    1.2500000000052031E-01     1.0000000000000000E+00     0.0000000000000000E+00 
    6.2500000000260125E-02     1.0000000000000000E+00     0.0000000000000000E+00 
    0.0000000000000000E+00     9.3749999999973976E-01     0.0000000000000000E+00 
    0.0000000000000000E+00     8.7499999999950118E-01     0.0000000000000000E+00 
    0.0000000000000000E+00     8.1249999999991318E-01     0.0000000000000000E+00 
    0.0000000000000000E+00     7.5000000000034706E-01     0.0000000000000000E+00 
    0.0000000000000000E+00     6.8750000000078049E-01     0.0000000000000000E+00 
    0.0000000000000000E+00     6.2500000000121403E-01     0.0000000000000000E+00 
    0.0000000000000000E+00     5.6250000000164757E-01     0.0000000000000000E+00 
    0.0000000000000000E+00     5.0000000000205946E-01     0.0000000000000000E+00 
    0.0000000000000000E+00     4.3750000000182099E-01     0.0000000000000000E+00 
    0.0000000000000000E+00     3.7500000000156092E-01     0.0000000000000000E+00 
    0.0000000000000000E+00     3.1250000000130068E-01     0.0000000000000000E+00 
    0.0000000000000000E+00     2.5000000000104050E-01     0.0000000000000000E+00 
    0.0000000000000000E+00     1.8750000000078040E-01     0.0000000000000000E+00 
    0.0000000000000000E+00     1.2500000000052031E-01     0.0000000000000000E+00 
    0.0000000000000000E+00     6.2500000000260125E-02     0.0000000000000000E+00 
    6.2499999999897131E-02     6.2500000000235922E-02     0.0000000000000000E+00 
    6.2499999999921327E-02     1.2500000000047351E-01     0.0000000000000000E+00 
    6.2499999999945530E-02     1.8750000000070621E-01     0.0000000000000000E+00 
    6.2499999999969733E-02     2.5000000000093858E-01     0.0000000000000000E+00 
    6.2499999999993928E-02     3.1250000000117117E-01     0.0000000000000000E+00 
    6.2500000000018124E-02     3.7500000000140382E-01     0.0000000000000000E+00 
    6.2500000000042327E-02     4.3750000000163619E-01     0.0000000000000000E+00 
    6.2500000000066530E-02     5.0000000000184897E-01     0.0000000000000000E+00 
    6.2500000000090733E-02     5.6250000000147260E-01     0.0000000000000000E+00 
    6.2500000000114922E-02     6.2500000000107636E-01     0.0000000000000000E+00 
    6.2500000000139125E-02     6.8750000000068034E-01     0.0000000000000000E+00 
    6.2500000000163328E-02     7.5000000000028411E-01     0.0000000000000000E+00 
    6.2500000000187531E-02     8.1249999999988787E-01     0.0000000000000000E+00 
    6.2500000000211720E-02     8.7499999999951172E-01     0.0000000000000000E+00 
    6.2500000000235922E-02     9.3749999999974565E-01     0.0000000000000000E+00 
    1.2499999999981980E-01     6.2500000000211733E-02     0.0000000000000000E+00 
    1.2499999999986650E-01     1.2500000000042691E-01     0.0000000000000000E+00 
    1.2499999999991319E-01     1.8750000000063199E-01     0.0000000000000000E+00 
    1.2499999999995989E-01     2.5000000000083678E-01     0.0000000000000000E+00 
    1.2500000000000661E-01     3.1250000000104172E-01     0.0000000000000000E+00 
    1.2500000000005329E-01     3.7500000000124661E-01     0.0000000000000000E+00 
    1.2500000000010000E-01     4.3750000000145117E-01     0.0000000000000000E+00 
    1.2500000000014669E-01     5.0000000000163858E-01     0.0000000000000000E+00 
    1.2500000000019340E-01     5.6250000000129741E-01     0.0000000000000000E+00 
    1.2500000000024011E-01     6.2500000000093847E-01     0.0000000000000000E+00 
    1.2500000000028680E-01     6.8750000000057998E-01     0.0000000000000000E+00 
    1.2500000000033351E-01     7.5000000000022127E-01     0.0000000000000000E+00 
    1.2500000000038020E-01     8.1249999999986211E-01     0.0000000000000000E+00 
    1.2500000000042691E-01     8.7499999999952238E-01     0.0000000000000000E+00 
    1.2500000000047359E-01     9.3749999999975164E-01     0.0000000000000000E+00 
    1.8749999999966760E-01     6.2500000000187531E-02     0.0000000000000000E+00 
    1.8749999999974179E-01     1.2500000000038020E-01     0.0000000000000000E+00 
    1.8749999999981601E-01     1.8750000000055780E-01     0.0000000000000000E+00 
    1.8749999999989009E-01     2.5000000000073502E-01     0.0000000000000000E+00 
    1.8749999999996431E-01     3.1250000000091221E-01     0.0000000000000000E+00 
    1.8750000000003850E-01     3.7500000000108941E-01     0.0000000000000000E+00 
    1.8750000000011269E-01     4.3750000000126649E-01     0.0000000000000000E+00 
    1.8750000000018691E-01     5.0000000000142808E-01     0.0000000000000000E+00 
    1.8750000000026110E-01     5.6250000000112244E-01     0.0000000000000000E+00 
    1.8750000000033529E-01     6.2500000000080080E-01     0.0000000000000000E+00 
    1.8750000000040951E-01     6.8750000000047962E-01     0.0000000000000000E+00 
    1.8750000000048361E-01     7.5000000000015843E-01     0.0000000000000000E+00 
    1.8750000000055780E-01     8.1249999999983680E-01     0.0000000000000000E+00 
    1.8750000000063199E-01     8.7499999999953304E-01     0.0000000000000000E+00 
    1.8750000000070621E-01     9.3749999999975764E-01     0.0000000000000000E+00 
    2.4999999999951281E-01     6.2500000000163314E-02     0.0000000000000000E+00 
    2.4999999999961461E-01     1.2500000000033351E-01     0.0000000000000000E+00 
    2.4999999999971650E-01     1.8750000000048361E-01     0.0000000000000000E+00 
    2.4999999999981831E-01     2.5000000000063310E-01     0.0000000000000000E+00 
    2.4999999999992020E-01     3.1250000000078260E-01     0.0000000000000000E+00 
    2.5000000000002198E-01     3.7500000000093209E-01     0.0000000000000000E+00 
    2.5000000000012390E-01     4.3750000000108180E-01     0.0000000000000000E+00 
    2.5000000000022571E-01     5.0000000000121769E-01     0.0000000000000000E+00 
    2.5000000000032763E-01     5.6250000000094724E-01     0.0000000000000000E+00 
    2.5000000000042938E-01     6.2500000000066314E-01     0.0000000000000000E+00 
    2.5000000000053119E-01     6.8750000000037925E-01     0.0000000000000000E+00 
[...]
CELL_DATA 256 
SCALARS Pressure double 1 
LOOKUP_TABLE default 

    7.0212844573927924E-01 
    6.5214948482814206E-01 
    6.2015087219749920E-01 
    5.9108014667849196E-01 
    5.6147259402260608E-01 
    5.3044880217146606E-01 
    4.9781150398102059E-01 
    4.6377030353684962E-01 
    4.2873067822212518E-01 
    3.9325939433119494E-01 
    3.5814981594629031E-01 
    3.2466573540543076E-01 
    2.9480138140634238E-01 
    2.7117632970402344E-01 
    2.5593031919488668E-01 
    2.4845614545286832E-01 
    6.8814896662083391E-01 
    6.5344286476976332E-01 
    6.2255461335009177E-01 
    5.9372359155295162E-01 
    5.6432126333249777E-01 
    5.3349145484152638E-01 
    5.0102166871508691E-01 
    4.6709864902851000E-01 
    4.3210404103760153E-01 
    3.9657376945380901E-01 
    3.6125326541319397E-01 
    3.2733613937787781E-01 
    2.9676310112419352E-01 
    2.7220427771366662E-01 
    2.5607063557985466E-01 
    2.4802711773788624E-01 
    6.7742488092632813E-01 
    6.5259845493178525E-01 
    6.2420346105839963E-01 
    5.9602886562184543E-01 
    5.6696638032811186E-01 
    5.3638519518854888E-01 
    5.0410831233268971E-01 
    4.7031081990207568E-01 
    4.3534660164270994E-01 
    3.9970940659010007E-01 
    3.6408538491155656E-01 
    3.2958579169386171E-01 
    2.9809739280618669E-01 
    2.7237606151082455E-01 
    2.5520419242380299E-01 
    2.4663567494558442E-01 
    6.6899980043309248E-01 
    6.5067386273449468E-01 
    6.2513873061816183E-01 
    5.9797492984422818E-01 
    5.6940288292542540E-01 
    5.3913575364452770E-01 
    5.0708079744872914E-01 
    4.7341849360538557E-01 
    4.3847639244466141E-01 
    4.0269802029843277E-01 
    3.6669689592280591E-01 
    3.3148326237460679E-01 
    2.9887361050362166E-01 
    2.7172433808376661E-01 
    2.5328227912557849E-01 
    2.4413845868361600E-01 
    6.6222884429070217E-01 
    6.4825999697890557E-01 
    6.2549416561151150E-01 
    5.9957161760740663E-01 
    5.7162947881161974E-01 
    5.4174800680135560E-01 
    5.0995004600342186E-01 
    4.7643721397151634E-01 
    4.4151592199034329E-01 
    4.0557544361308906E-01 
    3.6914307433890747E-01 
    3.3310457867536630E-01 
    2.9917261695982145E-01 
    2.7029141613356361E-01 
    2.5025418288980483E-01 
    2.4038553082128797E-01 
    6.5671403176309073E-01 
    6.4570237644543005E-01 
    6.2542174428500918E-01 
    6.0085349661343801E-01 
    5.7365283869259520E-01 
    5.4422639858287258E-01 
    5.1272613631413910E-01 
    4.7938393755236269E-01 
    4.4449085694147977E-01 
    4.0838147648267004E-01 
    3.7148388538164934E-01 
    3.3453362518461316E-01 
    2.9908902520435837E-01 
    2.6813520165099641E-01 
    2.4606723506376571E-01 
    2.3519700683220665E-01 
    6.5219386234836874E-01 
    6.4321142935223918E-01 
    6.2507059368852280E-01 
    6.0187624250049943E-01 
    5.7549338037158138E-01 
    5.4658141285687523E-01 
    5.1541851671807704E-01 
    4.8227412506559197E-01 
    4.4742743455191142E-01 
    4.1115745904769524E-01 
    3.7378381929121668E-01 
    3.3586316057404436E-01 
    2.9873483707873144E-01 
    2.6533752720272702E-01 
    2.4067687022068335E-01 
    2.2836810551125647E-01 
    6.4848406072106290E-01 
    6.4091151146599523E-01 
    6.2457202419054447E-01 
    6.0270637418982065E-01 
    5.7718290010392959E-01 
    5.4883031913320146E-01 
    5.1803941159910982E-01 
    4.8512120252044527E-01 
    4.5034743299164515E-01 
    4.1394185300294939E-01 
    3.7610795260128616E-01 
    3.3719519597348724E-01 
    2.9824443480828461E-01 
    2.6201424235723969E-01 
    2.3405813443127702E-01 
    2.1966036278074505E-01 
    6.4545052274498182E-01 
    6.3887174390808621E-01 
    6.2403290669600997E-01 
    6.0341218359154625E-01 
    5.7875813739052495E-01 
    5.5099435375094308E-01 
    5.2060314854587098E-01 
    4.8793787783162273E-01 
    4.5326835309171026E-01 
    4.1676619938895720E-01 
    3.7851633776421689E-01 
    3.3863645544402154E-01 
    2.9777764127443934E-01 
    2.5832700052180629E-01 
    2.2621225649266688E-01 
    2.0877106382577112E-01 
    6.4299552438328966E-01 
    6.3712917154091531E-01 
    6.2353620795438847E-01 
    6.0405770307513207E-01 
    5.8025869881114456E-01 
    5.5309774918558907E-01 
    5.2312662799114418E-01 
    4.9073771642330227E-01 
    4.5620498278314225E-01 
    4.1965494843850087E-01 
    3.8105960251877163E-01 
    3.4029209241059466E-01 
    2.9751872840570703E-01 
    2.5449937110983623E-01 
    2.1718754290855055E-01 
    1.9529433005786143E-01 
    6.4104663690054531E-01 
    6.3570334816976737E-01 
    6.2314683873196697E-01 
    6.0470192857256422E-01 
    5.8172623595086881E-01 
    5.5516923973042298E-01 
    5.2562989506452340E-01 
    4.9353627820109280E-01 
    4.5917268465564226E-01 
    4.2262903434994481E-01 
    3.8377968536753088E-01 
    3.4226106432101877E-01 
    2.9767419125793937E-01 
    2.5083574150314986E-01 
    2.0712690962706254E-01 
    1.7869949603327967E-01 
    6.3954775872487046E-01 
    6.3460414718169877E-01 
    6.2291753551784412E-01 
    6.0540029736654932E-01 
    5.8320549511285613E-01 
    5.5724298836073172E-01 
    5.2813854744870103E-01 
    4.9635253354096887E-01 
    4.6218873298696495E-01 
    4.2570873512671598E-01 
    3.8671053979787168E-01 
    3.4463060149732005E-01 
    2.9846703976297656E-01 
    2.4773598727305618E-01 
    1.9632011141377570E-01 
    1.5823973914694978E-01 
    6.3846220810714749E-01 
    6.3384321341388539E-01 
    6.2289722432896466E-01 
    6.0620900863179705E-01 
    5.8474522827787856E-01 
    5.5935858438037522E-01 
    5.3068369596905740E-01 
    4.9920940680491999E-01 
    4.6527168961351800E-01 
    4.2891135507211209E-01 
    3.8987424466517667E-01 
    3.4746368937636063E-01 
    3.0011364746051800E-01 
    2.4573017069040670E-01 
    1.8538135148480223E-01 
    1.3283104377847010E-01 
    6.3775671393110922E-01 
    6.3343240606755713E-01 
    6.2313237840275271E-01 
    6.0718323547150577E-01 
    5.8639341631596675E-01 
    5.6155321141379089E-01 
    5.3329345612699108E-01 
    5.0212154602147563E-01 
    4.6841549147703210E-01 
    4.3221335580654691E-01 
    3.9323484586378110E-01 
    3.5073193634418531E-01 
    3.0272000402198240E-01 
    2.4537864036043669E-01 
    1.7545047953198567E-01 
    1.0084331238220463E-01 
    6.3727421386558847E-01 
    6.3326486081836664E-01 
    6.2357323108999851E-01 
    6.0829472595774092E-01 
    5.8811227295748503E-01 
    5.6377903272677610E-01 
    5.3591895222168107E-01 
    5.0504151299035138E-01 
    4.7155983443772070E-01 
    4.3553873368235180E-01 
    3.9669756694950298E-01 
    3.5428591527132169E-01 
    3.0613680875895061E-01 
    2.4695018058709484E-01 
    1.6814537170546331E-01 
    5.9220343796441623E-02 
    6.3710101060732982E-01 
    6.3342403436640893E-01 
    6.2429669444878777E-01 
    6.0961035661224050E-01 
    5.8995500041933557E-01 
    5.6607438767017182E-01 
    5.3859819376562035E-01 
    5.0802658666341682E-01 
    4.7479403863542569E-01 
    4.3900325260208500E-01 
    4.0040126069120835E-01 
    3.5827294406420096E-01 
    3.1059354184059429E-01 
    2.5134836881394529E-01 
    1.6753027044184615E-01 
    0.0000000000000000E+00 

SCALARS Saturarion double 1 
LOOKUP_TABLE default 

    1.0000000000000007E+00 
    9.7604225649606924E-01 
    9.3241854219128062E-01 
    8.7463789312018259E-01 
    8.2611182025332730E-01 
    7.8350503868330601E-01 
    7.4661169120326598E-01 
    7.1474088036824857E-01 
    6.8674846498841091E-01 
    6.6145382837655964E-01 
    6.3761701363585011E-01 
    6.1382162488103709E-01 
    5.8798150259670512E-01 
    5.5693541509323996E-01 
    4.9845104839609111E-01 
    2.0373113008219371E-01 
    9.9092979553737637E-01 
    9.6824025522885881E-01 
    9.2254082189900222E-01 
    8.6753903766763474E-01 
    8.2076860728923373E-01 
    7.7984704802119120E-01 
    7.4403027130315869E-01 
    7.1268493120608789E-01 
    6.8501913496153821E-01 
    6.6003351389442133E-01 
    6.3674360810260278E-01 
    6.1384535500543147E-01 
    5.8914172526500908E-01 
    5.5906936870700052E-01 
    5.0372615932275333E-01 
    2.3516689078988026E-01 
    9.7661563830671028E-01 
    9.5394774848431774E-01 
    9.0811074394139812E-01 
    8.5498074044538830E-01 
    8.1029327862245693E-01 
    7.7217256811203572E-01 
    7.3861378768002695E-01 
    7.0846789517558739E-01 
    6.8131929191399032E-01 
    6.5666413137408852E-01 
    6.3395404184307880E-01 
    6.1216802622996103E-01 
    5.8933918653539075E-01 
    5.6154696662766768E-01 
    5.1069236482514047E-01 
    2.6406356796366615E-01 
    9.5162886411810499E-01 
    9.3256559164128505E-01 
    8.9053477898823619E-01 
    8.4155818648812164E-01 
    7.9772561504000783E-01 
    7.6102663569680917E-01 
    7.2941229967947008E-01 
    7.0128930006066048E-01 
    6.7568830124177626E-01 
    6.5231298661146253E-01 
    6.3062676049006727E-01 
    6.0995385568762539E-01 
    5.8880317428511630E-01 
    5.6359121093766706E-01 
    5.1752525949479966E-01 
    2.9200754258942974E-01 
    9.2114229724065499E-01 
    9.0441596891984677E-01 
    8.6706171241471863E-01 
    8.2299415331542147E-01 
    7.8151063969128387E-01 
    7.4598377622279555E-01 
    7.1595293604936261E-01 
    6.8987685469074334E-01 
    6.6662969918704618E-01 
    6.4554519887758677E-01 
    6.2608449322471360E-01 
    6.0739668918127288E-01 
    5.8804036458618680E-01 
    5.6508732301200537E-01 
    5.2390297347107373E-01 
    3.1450222131409927E-01 
    8.8728282226969435E-01 
    8.7340059196668496E-01 
    8.4099659105427482E-01 
    8.0131846831861830E-01 
    7.6315545096239257E-01 
    7.2950523092315889E-01 
    7.0045897719159811E-01 
    6.7567801779585157E-01 
    6.5433806163318531E-01 
    6.3562876081995445E-01 
    6.1886474629290178E-01 
    6.0321802971623240E-01 
    5.8678455318475109E-01 
    5.6624490497879620E-01 
    5.2955942470694672E-01 
    3.3447423728450210E-01 
    8.5081658602439081E-01 
    8.4034910160215448E-01 
    8.1326234734761371E-01 
    7.7811904822495859E-01 
    7.4353703685578743E-01 
    7.1234189008881965E-01 
    6.8498122837340791E-01 
    6.6107497422829009E-01 
    6.4067399787315604E-01 
    6.2350612783364934E-01 
    6.0911016199167600E-01 
    5.9659070558939231E-01 
    5.8406314890385824E-01 
    5.6713999228452139E-01 
    5.3465754797009313E-01 
    3.5386940432520358E-01 
    8.1156071494024740E-01 
    8.0494722394924434E-01 
    7.8392144000764785E-01 
    7.5383255839693120E-01 
    7.2252783920032315E-01 
    6.9365501315318356E-01 
    6.6790732998960667E-01 
    6.4545097544914765E-01 
    6.2613500311022174E-01 
    6.1006358108448389E-01 
    5.9723582391877750E-01 
    5.8745111575105236E-01 
    5.7903594535488279E-01 
    5.6711925584668188E-01 
    5.3969321755747424E-01 
    3.7335843748029363E-01 
    7.6973219431311357E-01 
    7.6683491167439821E-01 
    7.5167789582771383E-01 
    7.2696318997117304E-01 
    6.9948218820145081E-01 
    6.7301439313914746E-01 
    6.4909847386314801E-01 
    6.2795219690074644E-01 
    6.0964121184649411E-01 
    5.9438812069403058E-01 
    5.8279937141835125E-01 
    5.7536422755389460E-01 
    5.7115038343632563E-01 
    5.6520069810788232E-01 
    5.4396422183303417E-01 
    3.9171691807574877E-01 
    7.2535262667000611E-01 
    7.2590328457421827E-01 
    7.1618293113876785E-01 
    6.9653547980381847E-01 
    6.7315567542583998E-01 
    6.4965695421470526E-01 
    6.2769474830168204E-01 
    6.0819803294042507E-01 
    5.9118458024917864E-01 
    5.7678183203761246E-01 
    5.6577401744375555E-01 
    5.5976959099912116E-01 
    5.5944475991884812E-01 
    5.6042107214862902E-01 
    5.4710404308924776E-01 
    4.0959616608947441E-01 
    6.7806814253825620E-01 
    6.8179203072692196E-01 
    6.7709729276843089E-01 
    6.6215298714109250E-01 
    6.4292623162338003E-01 
    6.2298492545498585E-01 
    6.0399600047929158E-01 
    5.8637163473788945E-01 
    5.7075820754191919E-01 
    5.5757444087317476E-01 
    5.4745312144282021E-01 
    5.4183293956780765E-01 
    5.4338519235695415E-01 
    5.5133984480251419E-01 
    5.4794909191521590E-01 
    4.2758020062412166E-01 
    6.2678349059137661E-01 
    6.3346677907746296E-01 
    6.3385452591259539E-01 
    6.2375531502208781E-01 
    6.0859286975991322E-01 
    5.9214889699093365E-01 
    5.7614681639088483E-01 
    5.6125721271868623E-01 
    5.4784154762143211E-01 
    5.3655751356481396E-01 
    5.2791433535497856E-01 
    5.2303683930373845E-01 
    5.2458581668497739E-01 
    5.3658941305223773E-01 
    5.4342220138290764E-01 
    4.4459644849584123E-01 
    5.7403739938628195E-01 
    5.8243078013340899E-01 
    5.8684194380832677E-01 
    5.8164528658121584E-01 
    5.7098828449754480E-01 
    5.5793539859134933E-01 
    5.4488954433041925E-01 
    5.3241927646426279E-01 
    5.2090584378551641E-01 
    5.1063498305227861E-01 
    5.0308362952558994E-01 
    4.9994763258639396E-01 
    5.0304100968312870E-01 
    5.1654771425716317E-01 
    5.3532645405688017E-01 
    4.5912597290976126E-01 
    5.1101246756413832E-01 
    5.2466746097077621E-01 
    5.3273058312203803E-01 
    5.3283003585820155E-01 
    5.2479767554948265E-01 
    5.1355103086957321E-01 
    5.0053935750195810E-01 
    4.8880845512777876E-01 
    4.7442221405482321E-01 
    4.5396393979035310E-01 
    4.3863372748337509E-01 
    4.3354316100041268E-01 
    4.4248553185545203E-01 
    4.7718628360230381E-01 
    5.1851503537523091E-01 
    4.6924613485103023E-01 
    2.5449657457839325E-01 
    3.3688514041585899E-01 
    3.8179639988654646E-01 
    3.9035865176930823E-01 
    3.7404404653816320E-01 
    3.3410503508512768E-01 
    2.8854596838628088E-01 
    2.3779277035711507E-01 
    2.1006225647081053E-01 
    1.5684196231028996E-01 
    1.1952225262107288E-01 
    1.0536225526985395E-01 
    1.4257508303261046E-01 
    2.8464070724560980E-01 
    4.5752777425829877E-01 
    4.7047676234365537E-01 
    1.0058114481655020E-04 
    9.2155063051140747E-03 
    2.0582077485618730E-02 
    2.0216880808915136E-02 
    1.7108866768082473E-02 
    3.4902180688529197E-03 
    1.9557112169497838E-03 
    7.7144517566039972E-05 
    1.4951658358289101E-04 
    1.2958306280347564E-05 
    9.1585196867247410E-06 
    1.0003778518721172E-05 
    1.9536535011620697E-04 
    8.1534732073895527E-02 
    2.8477444553298370E-01 
    4.2071560303174876E-01 
