# vtk DataFile Version 2.0
Pressure Field Data 
ASCII 
DATASET UNSTRUCTURED_GRID 

POINTS 289 double 

    0.0000000000000000E+00     0.0000000000000000E+00     0.0000000000000000E+00 
    1.0000000000000000E+00     0.0000000000000000E+00     0.0000000000000000E+00 
    1.0000000000000000E+00     1.0000000000000000E+00     0.0000000000000000E+00 
    0.0000000000000000E+00     1.0000000000000000E+00     0.0000000000000000E+00 
    6.2499999999872928E-02     0.0000000000000000E+00     0.0000000000000000E+00 
    1.2499999999977310E-01     0.0000000000000000E+00     0.0000000000000000E+00 
    1.8749999999959341E-01     0.0000000000000000E+00     0.0000000000000000E+00 
    2.4999999999941089E-01     0.0000000000000000E+00     0.0000000000000000E+00 
    3.1249999999922851E-01     0.0000000000000000E+00     0.0000000000000000E+00 
    3.7499999999904610E-01     0.0000000000000000E+00     0.0000000000000000E+00 
    4.3749999999886358E-01     0.0000000000000000E+00     0.0000000000000000E+00 
    4.9999999999869210E-01     0.0000000000000000E+00     0.0000000000000000E+00 
    5.6249999999884603E-01     0.0000000000000000E+00     0.0000000000000000E+00 
    6.2499999999901090E-01     0.0000000000000000E+00     0.0000000000000000E+00 
    6.8749999999917577E-01     0.0000000000000000E+00     0.0000000000000000E+00 
    7.4999999999934064E-01     0.0000000000000000E+00     0.0000000000000000E+00 
    8.1249999999950551E-01     0.0000000000000000E+00     0.0000000000000000E+00 
    8.7499999999967026E-01     0.0000000000000000E+00     0.0000000000000000E+00 
    9.3749999999983513E-01     0.0000000000000000E+00     0.0000000000000000E+00 
    1.0000000000000000E+00     6.2499999999872928E-02     0.0000000000000000E+00 
    1.0000000000000000E+00     1.2499999999977310E-01     0.0000000000000000E+00 
    1.0000000000000000E+00     1.8749999999959341E-01     0.0000000000000000E+00 
    1.0000000000000000E+00     2.4999999999941089E-01     0.0000000000000000E+00 
    1.0000000000000000E+00     3.1249999999922851E-01     0.0000000000000000E+00 
    1.0000000000000000E+00     3.7499999999904610E-01     0.0000000000000000E+00 
    1.0000000000000000E+00     4.3749999999886358E-01     0.0000000000000000E+00 
    1.0000000000000000E+00     4.9999999999869210E-01     0.0000000000000000E+00 
    1.0000000000000000E+00     5.6249999999884603E-01     0.0000000000000000E+00 
    1.0000000000000000E+00     6.2499999999901090E-01     0.0000000000000000E+00 
    1.0000000000000000E+00     6.8749999999917577E-01     0.0000000000000000E+00 
    1.0000000000000000E+00     7.4999999999934064E-01     0.0000000000000000E+00 
    1.0000000000000000E+00     8.1249999999950551E-01     0.0000000000000000E+00 
    1.0000000000000000E+00     8.7499999999967026E-01     0.0000000000000000E+00 
    1.0000000000000000E+00     9.3749999999983513E-01     0.0000000000000000E+00 
    9.3749999999973976E-01     1.0000000000000000E+00     0.0000000000000000E+00 
    8.7499999999950118E-01     1.0000000000000000E+00     0.0000000000000000E+00 
    8.1249999999991318E-01     1.0000000000000000E+00     0.0000000000000000E+00 
    7.5000000000034706E-01     1.0000000000000000E+00     0.0000000000000000E+00 
    6.8750000000078049E-01     1.0000000000000000E+00     0.0000000000000000E+00 
    6.2500000000121403E-01     1.0000000000000000E+00     0.0000000000000000E+00 
    5.6250000000164757E-01     1.0000000000000000E+00     0.0000000000000000E+00 
    5.0000000000205946E-01     1.0000000000000000E+00     0.0000000000000000E+00 
    4.3750000000182099E-01     1.0000000000000000E+00     0.0000000000000000E+00 
    3.7500000000156092E-01     1.0000000000000000E+00     0.0000000000000000E+00 
    3.1250000000130068E-01     1.0000000000000000E+00     0.0000000000000000E+00 
    2.5000000000104050E-01     1.0000000000000000E+00     0.0000000000000000E+00 
    1.8750000000078040E-01     1.0000000000000000E+00     0.0000000000000000E+00 
    1.2500000000052031E-01     1.0000000000000000E+00     0.0000000000000000E+00 
    6.2500000000260125E-02     1.0000000000000000E+00     0.0000000000000000E+00 
    0.0000000000000000E+00     9.3749999999973976E-01     0.0000000000000000E+00 
    0.0000000000000000E+00     8.7499999999950118E-01     0.0000000000000000E+00 
    0.0000000000000000E+00     8.1249999999991318E-01     0.0000000000000000E+00 
    0.0000000000000000E+00     7.5000000000034706E-01     0.0000000000000000E+00 
    0.0000000000000000E+00     6.8750000000078049E-01     0.0000000000000000E+00 
    0.0000000000000000E+00     6.2500000000121403E-01     0.0000000000000000E+00 
    0.0000000000000000E+00     5.6250000000164757E-01     0.0000000000000000E+00 
    0.0000000000000000E+00     5.0000000000205946E-01     0.0000000000000000E+00 
    0.0000000000000000E+00     4.3750000000182099E-01     0.0000000000000000E+00 
    0.0000000000000000E+00     3.7500000000156092E-01     0.0000000000000000E+00 
    0.0000000000000000E+00     3.1250000000130068E-01     0.0000000000000000E+00 
    0.0000000000000000E+00     2.5000000000104050E-01     0.0000000000000000E+00 
    0.0000000000000000E+00     1.8750000000078040E-01     0.0000000000000000E+00 
    0.0000000000000000E+00     1.2500000000052031E-01     0.0000000000000000E+00 
    0.0000000000000000E+00     6.2500000000260125E-02     0.0000000000000000E+00 
    6.2499999999897131E-02     6.2500000000235922E-02     0.0000000000000000E+00 
    6.2499999999921327E-02     1.2500000000047351E-01     0.0000000000000000E+00 
    6.2499999999945530E-02     1.8750000000070621E-01     0.0000000000000000E+00 
    6.2499999999969733E-02     2.5000000000093858E-01     0.0000000000000000E+00 
    6.2499999999993928E-02     3.1250000000117117E-01     0.0000000000000000E+00 
    6.2500000000018124E-02     3.7500000000140382E-01     0.0000000000000000E+00 
    6.2500000000042327E-02     4.3750000000163619E-01     0.0000000000000000E+00 
    6.2500000000066530E-02     5.0000000000184897E-01     0.0000000000000000E+00 
    6.2500000000090733E-02     5.6250000000147260E-01     0.0000000000000000E+00 
    6.2500000000114922E-02     6.2500000000107636E-01     0.0000000000000000E+00 
    6.2500000000139125E-02     6.8750000000068034E-01     0.0000000000000000E+00 
    6.2500000000163328E-02     7.5000000000028411E-01     0.0000000000000000E+00 
    6.2500000000187531E-02     8.1249999999988787E-01     0.0000000000000000E+00 
    6.2500000000211720E-02     8.7499999999951172E-01     0.0000000000000000E+00 
    6.2500000000235922E-02     9.3749999999974565E-01     0.0000000000000000E+00 
    1.2499999999981980E-01     6.2500000000211733E-02     0.0000000000000000E+00 
    1.2499999999986650E-01     1.2500000000042691E-01     0.0000000000000000E+00 
    1.2499999999991319E-01     1.8750000000063199E-01     0.0000000000000000E+00 
    1.2499999999995989E-01     2.5000000000083678E-01     0.0000000000000000E+00 
    1.2500000000000661E-01     3.1250000000104172E-01     0.0000000000000000E+00 
    1.2500000000005329E-01     3.7500000000124661E-01     0.0000000000000000E+00 
    1.2500000000010000E-01     4.3750000000145117E-01     0.0000000000000000E+00 
    1.2500000000014669E-01     5.0000000000163858E-01     0.0000000000000000E+00 
    1.2500000000019340E-01     5.6250000000129741E-01     0.0000000000000000E+00 
    1.2500000000024011E-01     6.2500000000093847E-01     0.0000000000000000E+00 
    1.2500000000028680E-01     6.8750000000057998E-01     0.0000000000000000E+00 
    1.2500000000033351E-01     7.5000000000022127E-01     0.0000000000000000E+00 
    1.2500000000038020E-01     8.1249999999986211E-01     0.0000000000000000E+00 
    1.2500000000042691E-01     8.7499999999952238E-01     0.0000000000000000E+00 
    1.2500000000047359E-01     9.3749999999975164E-01     0.0000000000000000E+00 
    1.8749999999966760E-01     6.2500000000187531E-02     0.0000000000000000E+00 
    1.8749999999974179E-01     1.2500000000038020E-01     0.0000000000000000E+00 
    1.8749999999981601E-01     1.8750000000055780E-01     0.0000000000000000E+00 
    1.8749999999989009E-01     2.5000000000073502E-01     0.0000000000000000E+00 
    1.8749999999996431E-01     3.1250000000091221E-01     0.0000000000000000E+00 
    1.8750000000003850E-01     3.7500000000108941E-01     0.0000000000000000E+00 
    1.8750000000011269E-01     4.3750000000126649E-01     0.0000000000000000E+00 
    1.8750000000018691E-01     5.0000000000142808E-01     0.0000000000000000E+00 
    1.8750000000026110E-01     5.6250000000112244E-01     0.0000000000000000E+00 
    1.8750000000033529E-01     6.2500000000080080E-01     0.0000000000000000E+00 
    1.8750000000040951E-01     6.8750000000047962E-01     0.0000000000000000E+00 
    1.8750000000048361E-01     7.5000000000015843E-01     0.0000000000000000E+00 
    1.8750000000055780E-01     8.1249999999983680E-01     0.0000000000000000E+00 
    1.8750000000063199E-01     8.7499999999953304E-01     0.0000000000000000E+00 
    1.8750000000070621E-01     9.3749999999975764E-01     0.0000000000000000E+00 
    2.4999999999951281E-01     6.2500000000163314E-02     0.0000000000000000E+00 
    2.4999999999961461E-01     1.2500000000033351E-01     0.0000000000000000E+00 
    2.4999999999971650E-01     1.8750000000048361E-01     0.0000000000000000E+00 
    2.4999999999981831E-01     2.5000000000063310E-01     0.0000000000000000E+00 
    2.4999999999992020E-01     3.1250000000078260E-01     0.0000000000000000E+00 
    2.5000000000002198E-01     3.7500000000093209E-01     0.0000000000000000E+00 
    2.5000000000012390E-01     4.3750000000108180E-01     0.0000000000000000E+00 
    2.5000000000022571E-01     5.0000000000121769E-01     0.0000000000000000E+00 
    2.5000000000032763E-01     5.6250000000094724E-01     0.0000000000000000E+00 
    2.5000000000042938E-01     6.2500000000066314E-01     0.0000000000000000E+00 
    2.5000000000053119E-01     6.8750000000037925E-01     0.0000000000000000E+00 
[...]
CELL_DATA 256 
SCALARS Pressure double 1 
LOOKUP_TABLE default 

    7.7186526376890507E-01 
    7.2111683761693379E-01 
    6.8790940296644720E-01 
    6.5723047225980991E-01 
    6.2565894325259097E-01 
    5.9235816486225679E-01 
    5.5718089794415027E-01 
    5.2040084756273353E-01 
    4.8249081062484889E-01 
    4.4409109753328735E-01 
    4.0607733234434784E-01 
    3.6983082543319279E-01 
    3.3755686097658827E-01 
    3.1213321877519579E-01 
    2.9490291048299461E-01 
    2.8657566613209906E-01 
    7.5790607407996646E-01 
    7.2249375773739333E-01 
    6.9043375646527549E-01 
    6.6002525076485041E-01 
    6.2868985472949501E-01 
    5.9561488805334473E-01 
    5.6063287711405541E-01 
    5.2398992526903909E-01 
    4.8613209094734205E-01 
    4.4766716731115402E-01 
    4.0942087316339976E-01 
    3.7269868047379556E-01 
    3.3964712921926260E-01 
    3.1322906899752445E-01 
    2.9511427725381623E-01 
    2.8616865457820390E-01 
    7.4718999973961220E-01 
    7.2170811744657704E-01 
    6.9217857503624314E-01 
    6.6245580652692149E-01 
    6.3148891665786688E-01 
    5.9869496772925479E-01 
    5.6393704798916522E-01 
    5.2744196552810385E-01 
    4.8962200528990180E-01 
    4.5103887597803599E-01 
    4.1245638189896777E-01 
    3.7509204938495017E-01 
    3.4103222678186018E-01 
    3.1335405732266786E-01 
    2.9421454211020087E-01 
    2.8472426083927604E-01 
    7.3873698996984760E-01 
    7.1981138824313939E-01 
    6.9318228904636059E-01 
    6.6450342040031607E-01 
    6.3405592364139673E-01 
    6.0160697959753495E-01 
    5.6710251502228026E-01 
    5.3076726811955288E-01 
    4.9297876349959213E-01 
    4.5424159720096879E-01 
    4.1524188012242841E-01 
    3.7708852127086573E-01 
    3.4178914544071715E-01 
    3.1254499931352620E-01 
    2.9212096491449757E-01 
    2.8201751772231942E-01 
    7.3189535088604685E-01 
    7.1738818030497398E-01 
    6.9357613739909574E-01 
    6.6617750274762788E-01 
    6.3639272691922866E-01 
    6.0436052750336977E-01 
    5.7014375983067478E-01 
    5.3398344328405756E-01 
    4.9622692034672450E-01 
    4.5731523333444174E-01 
    4.1784020500277402E-01 
    3.7877467366656253E-01 
    3.4200921721133887E-01 
    3.1084934736998693E-01 
    2.8875634574924308E-01 
    2.7783245475740115E-01 
    7.2628229564951075E-01 
    7.1478917951271836E-01 
    6.9351378624253213E-01 
    6.6751366422449765E-01 
    6.3850849864838144E-01 
    6.0696477995625941E-01 
    5.7307687905798821E-01 
    5.3711329441088052E-01 
    4.9939695546457430E-01 
    4.6030405234523092E-01 
    4.2031765526776538E-01 
    3.8024475437256094E-01 
    3.4179969763123302E-01 
    3.0833256074721094E-01 
    2.8405602659307244E-01 
    2.7195910308644400E-01 
    7.2164951394136589E-01 
    7.1223447111421123E-01 
    6.9315067972242006E-01 
    6.6857197481559438E-01 
    6.4042626652801193E-01 
    6.0943307835841254E-01 
    5.7591610811454574E-01 
    5.4017910794796575E-01 
    5.0252220797868896E-01 
    4.6325513636120624E-01 
    4.2274454277710088E-01 
    3.8160081288575914E-01 
    3.4128723543971817E-01 
    3.0508984585613785E-01 
    2.7797116885274648E-01 
    2.6416028826418592E-01 
    7.1782152879197714E-01 
    7.0985766362574887E-01 
    6.9262553739346688E-01 
    6.6942367839737105E-01 
    6.4218008732860765E-01 
    6.1178417600686319E-01 
    5.7867641174737017E-01 
    5.4319960370964249E-01 
    5.0563181462417850E-01 
    4.6621457582142278E-01 
    4.2519338292672043E-01 
    3.8295469468410964E-01 
    3.4062249341491346E-01 
    3.0125596516156877E-01 
    2.7047924997331718E-01 
    2.5416389782398163E-01 
    7.1467126871598530E-01 
    7.0773586455685189E-01 
    6.9205182513855523E-01 
    6.7014145866977992E-01 
    6.4380925843330916E-01 
    6.1404077881734520E-01 
    5.8137328549796519E-01 
    5.4619023184839288E-01 
    5.0874899826339415E-01 
    4.6922213355503689E-01 
    4.2773423079889489E-01 
    3.8442534076256096E-01 
    3.3998412676856515E-01 
    2.9701808606766639E-01 
    2.6159031435788427E-01 
    2.4162926277035290E-01 
    7.1210619933899888E-01 
    7.0591261651840354E-01 
    6.9151834839450022E-01 
    6.7079404209281357E-01 
    6.4535705345553118E-01 
    6.1622927712010611E-01 
    5.8402415771075900E-01 
    5.4916566197158900E-01 
    5.1189271278611814E-01 
    4.7231022810505102E-01 
    4.3042985757057456E-01 
    3.8613351692858411E-01 
    3.3957868548006581E-01 
    2.9263538755199830E-01 
    2.5137083947441585E-01 
    2.2609524167518824E-01 
    7.1005832856929496E-01 
    7.0441373702861287E-01 
    6.9109656185663582E-01 
    6.7144660671270284E-01 
    6.4687052551269864E-01 
    6.1838188311514419E-01 
    5.8665002091658591E-01 
    5.5214319434639736E-01 
    5.1508349779945350E-01 
    4.7550788657949666E-01 
    4.3333481260529316E-01 
    3.8819648634121495E-01 
    3.3963934944509944E-01 
    2.8846144669091112E-01 
    2.4000141005234910E-01 
    2.0695769922789981E-01 
    7.0847946349598256E-01 
    7.0325901411921743E-01 
    6.9084954894019979E-01 
    6.7216443924243374E-01 
    6.4840252522480724E-01 
    6.2053763811860108E-01 
    5.8927855979112831E-01 
    5.5514600589206586E-01 
    5.1834554100198060E-01 
    4.7884000026430418E-01 
    4.3648783875636171E-01 
    3.9071292246588962E-01 
    3.4041394601955283E-01 
    2.8496543905510641E-01 
    2.2785690664289593E-01 
    1.8339519618872793E-01 
    7.0734403531063106E-01 
    7.0247645621749077E-01 
    6.9084213993949817E-01 
    6.7301624361269086E-01 
    6.5000945543643340E-01 
    6.2273850449770540E-01 
    5.9193865196126483E-01 
    5.5819552061247169E-01 
    5.2169787241037469E-01 
    4.8231400500211152E-01 
    4.3988811347035822E-01 
    3.9371981693927810E-01 
    3.4210407797400910E-01 
    2.8270467504630736E-01 
    2.1560671519612307E-01 
    1.5418500115647851E-01 
    7.0656858362856245E-01 
    7.0204474142139406E-01 
    6.9110374536122499E-01 
    6.7404544102606156E-01 
    6.5172447634775621E-01 
    6.2499488042334583E-01 
    5.9460236040184378E-01 
    5.6121486444272439E-01 
    5.2502526919633163E-01 
    4.8579909669019966E-01 
    4.4336528785331319E-01 
    3.9700564740505545E-01 
    3.4462632917642305E-01 
    2.8207775574474064E-01 
    2.0424269910624568E-01 
    1.1724242684934916E-01 
    7.0601191674493258E-01 
    7.0181018848589538E-01 
    6.9150886771999298E-01 
    6.7515974844522431E-01 
    6.5347663246455800E-01 
    6.2725456245751932E-01 
    5.9723806831556325E-01 
    5.6416429854634664E-01 
    5.2827420478152631E-01 
    4.8929931883089067E-01 
    4.4703128311292478E-01 
    4.0075599516634286E-01 
    3.4822867393828749E-01 
    2.8380190890360668E-01 
    1.9562585416958705E-01 
    6.8583692153138032E-02 
    7.0582581698605873E-01 
    7.0196068677145051E-01 
    6.9224484500511485E-01 
    6.7652841329144286E-01 
    6.5542026162922606E-01 
    6.2968047646160386E-01 
    6.0005021240997491E-01 
    5.6728722115926755E-01 
    5.3169431850474624E-01 
    4.9303269853941828E-01 
    4.5107731295566456E-01 
    4.0513325040543602E-01 
    3.5306545478883405E-01 
    2.8896443339579569E-01 
    1.9558129642850131E-01 
    0.0000000000000000E+00 

SCALARS Saturarion double 1 
LOOKUP_TABLE default 

    1.0000000000000007E+00 
    9.7195183157200460E-01 
    9.2185360725040022E-01 
    8.5833685622896627E-01 
    8.0455865412106542E-01 
    7.5822618750012150E-01 
    7.1909389461313256E-01 
    6.8589230044903515E-01 
    6.5693817559803558E-01 
    6.3064466834666399E-01 
    6.0553311677532540E-01 
    5.8018785928463323E-01 
    5.5302759086443876E-01 
    5.2011748001021385E-01 
    4.1011227004079176E-01 
    3.6406763152216345E-02 
    9.8899450371809650E-01 
    9.6240445608600145E-01 
    9.0995182799408747E-01 
    8.5000556942223304E-01 
    7.9906419405688101E-01 
    7.5477606262826602E-01 
    7.1657415936670577E-01 
    6.8363772069186357E-01 
    6.5485686262287113E-01 
    6.2890925493664140E-01 
    6.0452480711262524E-01 
    5.8023836670159035E-01 
    5.5420365917334313E-01 
    5.2248350582223202E-01 
    4.2053030948092229E-01 
    5.9272041156168111E-02 
    9.7168112445033983E-01 
    9.4540944809693239E-01 
    8.9309282185902361E-01 
    8.3573255444042027E-01 
    7.8822801123388941E-01 
    7.4739140959994033E-01 
    7.1126799699059839E-01 
    6.7902099595152665E-01 
    6.5038073212037240E-01 
    6.2475657652062022E-01 
    6.0133449127116900E-01 
    5.7864356438373798E-01 
    5.5459450156392165E-01 
    5.2513300074415892E-01 
    4.3529186679197140E-01 
    9.2182423468697247E-02 
    9.4135791359278065E-01 
    9.1961788173532399E-01 
    8.7276617223811548E-01 
    8.1971606167827404E-01 
    7.7362977684439305E-01 
    7.3538717823218069E-01 
    7.0202915859634607E-01 
    6.7203839599621651E-01 
    6.4482508173108033E-01 
    6.2030128646116467E-01 
    5.9785001272812821E-01 
    5.7649102961832510E-01 
    5.5436265827179798E-01 
    5.2776445374602332E-01 
    4.4851484827511784E-01 
    1.3415459274102429E-01 
    9.0552754231161559E-01 
    8.8694173638624785E-01 
    8.4586790448525417E-01 
    7.9840534996314838E-01 
    7.5525464926222741E-01 
    7.1898282090989218E-01 
    6.8820279143384167E-01 
    6.6109714112610585E-01 
    6.3668102182350683E-01 
    6.1445659340858649E-01 
    5.9395641487670137E-01 
    5.7430061389483666E-01 
    5.5389310269011194E-01 
    5.2975138961996271E-01 
    4.6006005491020696E-01 
    1.6840346043350268E-01 
    8.6714141940320233E-01 
    8.5190333912988458E-01 
    8.1674237416321416E-01 
    7.7473254580924455E-01 
    7.3538018574106068E-01 
    7.0117992206205548E-01 
    6.7182630643763297E-01 
    6.4682343997777048E-01 
    6.2510853149947043E-01 
    6.0566681422549129E-01 
    5.8780466791677766E-01 
    5.7086862307622543E-01 
    5.5310178680425870E-01 
    5.3135490253261475E-01 
    4.7043994432437114E-01 
    1.9938957761830881E-01 
    8.2657378645815893E-01 
    8.1533496455652443E-01 
    7.8654082562871386E-01 
    7.4988835488748617E-01 
    7.1440867801968910E-01 
    6.8274099370827646E-01 
    6.5528808136510319E-01 
    6.3157675850142447E-01 
    6.1141864892754194E-01 
    5.9416878287214292E-01 
    5.7905768634879695E-01 
    5.6517714367827965E-01 
    5.5100748870329586E-01 
    5.3285394018378052E-01 
    4.7984541022093713E-01 
    2.2975160793673274E-01 
    7.8381649100026718E-01 
    7.7694804473181700E-01 
    7.5509467553007281E-01 
    7.2406246608469094E-01 
    6.9205920223120354E-01 
    6.6286965035899081E-01 
    6.3719754508757298E-01 
    6.1509691834339031E-01 
    5.9625973761666917E-01 
    5.8061590766857962E-01 
    5.6780568927737518E-01 
    5.5711707231571628E-01 
    5.4687423769622079E-01 
    5.3339691559178382E-01 
    4.8894759422046435E-01 
    2.5998097945542614E-01 
    7.3911637935984043E-01 
    7.3627371560959387E-01 
    7.2085696417089895E-01 
    6.9568544564414492E-01 
    6.6784150013958143E-01 
    6.4131518750500216E-01 
    6.1757737878264996E-01 
    5.9668646385660618E-01 
    5.7874495942054804E-01 
    5.6413831183727547E-01 
    5.5331616373689663E-01 
    5.4596994603895110E-01 
    5.4026379891068543E-01 
    5.3214889435749602E-01 
    4.9693439809600343E-01 
    2.8733223040388928E-01 
    6.9241549048294992E-01 
    6.9318668824686169E-01 
    6.8356304303363991E-01 
    6.6388185236391961E-01 
    6.4058066036934469E-01 
    6.1738413818861615E-01 
    5.9574960872886196E-01 
    5.7639726558673643E-01 
    5.5956126898872294E-01 
    5.4586238559922529E-01 
    5.3610323089781942E-01 
    5.3105212946445068E-01 
    5.3008615421224237E-01 
    5.2850004811358953E-01 
    5.0351400173909699E-01 
    3.1327524745073992E-01 
    6.4351672060738063E-01 
    6.4747146326106242E-01 
    6.4310286764816649E-01 
    6.2858102031835306E-01 
    6.0996065438935043E-01 
    5.9071700849100617E-01 
    5.7223732751682688E-01 
    5.5490880993767466E-01 
    5.3970166477061265E-01 
    5.2729174429905201E-01 
    5.1828608011436794E-01 
    5.1376015925711149E-01 
    5.1557749456078561E-01 
    5.2121787157495358E-01 
    5.0781673705549524E-01 
    3.3886037219153797E-01 
    5.9284615716492717E-01 
    5.9930380787507709E-01 
    5.9998103211348708E-01 
    5.9079926290995166E-01 
    5.7667412668296258E-01 
    5.6088875436140795E-01 
    5.4537760217727660E-01 
    5.3135527057275822E-01 
    5.1887413825641815E-01 
    5.0778486263603440E-01 
    4.9890350475424267E-01 
    4.9422666398636306E-01 
    4.9695234909426972E-01 
    5.0860638923557244E-01 
    5.0844580879196122E-01 
    3.6370485060960861E-01 
    5.4382867954592107E-01 
    5.5201180464093125E-01 
    5.5621041469527077E-01 
    5.5134464705065089E-01 
    5.4084069009836855E-01 
    5.2738182441035875E-01 
    5.1406469325553250E-01 
    5.0153745106937586E-01 
    4.8860742865987700E-01 
    4.7710437413952289E-01 
    4.6648021913120341E-01 
    4.5988564489607031E-01 
    4.6490179034365203E-01 
    4.8553193302464848E-01 
    5.0079117973607856E-01 
    3.8590430275690818E-01 
    4.4954656713896574E-01 
    4.7231311497747719E-01 
    4.8822706392374954E-01 
    4.9074850950001647E-01 
    4.8269413332465982E-01 
    4.6728455642913908E-01 
    4.4468762313364296E-01 
    4.0905336398034281E-01 
    3.4832549825744724E-01 
    2.6380863254666298E-01 
    2.3486799926949964E-01 
    2.4132496210680493E-01 
    3.0074869484772299E-01 
    4.0474407508719712E-01 
    4.7386825732118704E-01 
    4.0088300215339034E-01 
    9.6153710339694803E-02 
    1.7428739294332057E-01 
    2.1319191456759806E-01 
    2.2634885413176253E-01 
    2.1321039256344207E-01 
    1.6707788442242483E-01 
    1.0576833969472366E-01 
    3.7772726163240365E-02 
    1.4572300161889729E-02 
    2.4934029212499275E-03 
    3.5716485283747228E-04 
    2.6513849756725112E-04 
    2.0725923560169571E-02 
    1.4658679624946425E-01 
    3.8553586834004083E-01 
    4.0457708158380423E-01 
    1.0007946557725372E-06 
    9.9279601091424799E-05 
    1.2606714789800867E-04 
    2.0517324002800718E-05 
    1.9813495644645425E-04 
    2.0241297635035983E-05 
    1.0491285930808505E-05 
    3.8221300516815897E-06 
    1.5383578194521400E-06 
    1.0579671927717483E-06 
    1.0009379179429438E-06 
    1.0013144456805465E-06 
    3.5097106603233219E-05 
    1.0436987589499841E-02 
    2.2438814704981552E-01 
    3.5984289869408170E-01 
