# vtk DataFile Version 2.0
Pressure Field Data 
ASCII 
DATASET UNSTRUCTURED_GRID 

POINTS 289 double 

    0.0000000000000000E+00     0.0000000000000000E+00     0.0000000000000000E+00 
    1.0000000000000000E+00     0.0000000000000000E+00     0.0000000000000000E+00 
    1.0000000000000000E+00     1.0000000000000000E+00     0.0000000000000000E+00 
    0.0000000000000000E+00     1.0000000000000000E+00     0.0000000000000000E+00 
    6.2499999999872928E-02     0.0000000000000000E+00     0.0000000000000000E+00 
    1.2499999999977310E-01     0.0000000000000000E+00     0.0000000000000000E+00 
    1.8749999999959341E-01     0.0000000000000000E+00     0.0000000000000000E+00 
    2.4999999999941089E-01     0.0000000000000000E+00     0.0000000000000000E+00 
    3.1249999999922851E-01     0.0000000000000000E+00     0.0000000000000000E+00 
    3.7499999999904610E-01     0.0000000000000000E+00     0.0000000000000000E+00 
    4.3749999999886358E-01     0.0000000000000000E+00     0.0000000000000000E+00 
    4.9999999999869210E-01     0.0000000000000000E+00     0.0000000000000000E+00 
    5.6249999999884603E-01     0.0000000000000000E+00     0.0000000000000000E+00 
    6.2499999999901090E-01     0.0000000000000000E+00     0.0000000000000000E+00 
    6.8749999999917577E-01     0.0000000000000000E+00     0.0000000000000000E+00 
    7.4999999999934064E-01     0.0000000000000000E+00     0.0000000000000000E+00 
    8.1249999999950551E-01     0.0000000000000000E+00     0.0000000000000000E+00 
    8.7499999999967026E-01     0.0000000000000000E+00     0.0000000000000000E+00 
    9.3749999999983513E-01     0.0000000000000000E+00     0.0000000000000000E+00 
    1.0000000000000000E+00     6.2499999999872928E-02     0.0000000000000000E+00 
    1.0000000000000000E+00     1.2499999999977310E-01     0.0000000000000000E+00 
    1.0000000000000000E+00     1.8749999999959341E-01     0.0000000000000000E+00 
    1.0000000000000000E+00     2.4999999999941089E-01     0.0000000000000000E+00 
    1.0000000000000000E+00     3.1249999999922851E-01     0.0000000000000000E+00 
    1.0000000000000000E+00     3.7499999999904610E-01     0.0000000000000000E+00 
    1.0000000000000000E+00     4.3749999999886358E-01     0.0000000000000000E+00 
    1.0000000000000000E+00     4.9999999999869210E-01     0.0000000000000000E+00 
    1.0000000000000000E+00     5.6249999999884603E-01     0.0000000000000000E+00 
    1.0000000000000000E+00     6.2499999999901090E-01     0.0000000000000000E+00 
    1.0000000000000000E+00     6.8749999999917577E-01     0.0000000000000000E+00 
    1.0000000000000000E+00     7.4999999999934064E-01     0.0000000000000000E+00 
    1.0000000000000000E+00     8.1249999999950551E-01     0.0000000000000000E+00 
    1.0000000000000000E+00     8.7499999999967026E-01     0.0000000000000000E+00 
    1.0000000000000000E+00     9.3749999999983513E-01     0.0000000000000000E+00 
    9.3749999999973976E-01     1.0000000000000000E+00     0.0000000000000000E+00 
    8.7499999999950118E-01     1.0000000000000000E+00     0.0000000000000000E+00 
    8.1249999999991318E-01     1.0000000000000000E+00     0.0000000000000000E+00 
    7.5000000000034706E-01     1.0000000000000000E+00     0.0000000000000000E+00 
    6.8750000000078049E-01     1.0000000000000000E+00     0.0000000000000000E+00 
    6.2500000000121403E-01     1.0000000000000000E+00     0.0000000000000000E+00 
    5.6250000000164757E-01     1.0000000000000000E+00     0.0000000000000000E+00 
    5.0000000000205946E-01     1.0000000000000000E+00     0.0000000000000000E+00 
    4.3750000000182099E-01     1.0000000000000000E+00     0.0000000000000000E+00 
    3.7500000000156092E-01     1.0000000000000000E+00     0.0000000000000000E+00 
    3.1250000000130068E-01     1.0000000000000000E+00     0.0000000000000000E+00 
    2.5000000000104050E-01     1.0000000000000000E+00     0.0000000000000000E+00 
    1.8750000000078040E-01     1.0000000000000000E+00     0.0000000000000000E+00 
    1.2500000000052031E-01     1.0000000000000000E+00     0.0000000000000000E+00 
    6.2500000000260125E-02     1.0000000000000000E+00     0.0000000000000000E+00 
    0.0000000000000000E+00     9.3749999999973976E-01     0.0000000000000000E+00 
    0.0000000000000000E+00     8.7499999999950118E-01     0.0000000000000000E+00 
    0.0000000000000000E+00     8.1249999999991318E-01     0.0000000000000000E+00 
    0.0000000000000000E+00     7.5000000000034706E-01     0.0000000000000000E+00 
    0.0000000000000000E+00     6.8750000000078049E-01     0.0000000000000000E+00 
    0.0000000000000000E+00     6.2500000000121403E-01     0.0000000000000000E+00 
    0.0000000000000000E+00     5.6250000000164757E-01     0.0000000000000000E+00 
    0.0000000000000000E+00     5.0000000000205946E-01     0.0000000000000000E+00 
    0.0000000000000000E+00     4.3750000000182099E-01     0.0000000000000000E+00 
    0.0000000000000000E+00     3.7500000000156092E-01     0.0000000000000000E+00 
    0.0000000000000000E+00     3.1250000000130068E-01     0.0000000000000000E+00 
    0.0000000000000000E+00     2.5000000000104050E-01     0.0000000000000000E+00 
    0.0000000000000000E+00     1.8750000000078040E-01     0.0000000000000000E+00 
    0.0000000000000000E+00     1.2500000000052031E-01     0.0000000000000000E+00 
    0.0000000000000000E+00     6.2500000000260125E-02     0.0000000000000000E+00 
    6.2499999999897131E-02     6.2500000000235922E-02     0.0000000000000000E+00 
    6.2499999999921327E-02     1.2500000000047351E-01     0.0000000000000000E+00 
    6.2499999999945530E-02     1.8750000000070621E-01     0.0000000000000000E+00 
    6.2499999999969733E-02     2.5000000000093858E-01     0.0000000000000000E+00 
    6.2499999999993928E-02     3.1250000000117117E-01     0.0000000000000000E+00 
    6.2500000000018124E-02     3.7500000000140382E-01     0.0000000000000000E+00 
    6.2500000000042327E-02     4.3750000000163619E-01     0.0000000000000000E+00 
    6.2500000000066530E-02     5.0000000000184897E-01     0.0000000000000000E+00 
    6.2500000000090733E-02     5.6250000000147260E-01     0.0000000000000000E+00 
    6.2500000000114922E-02     6.2500000000107636E-01     0.0000000000000000E+00 
    6.2500000000139125E-02     6.8750000000068034E-01     0.0000000000000000E+00 
    6.2500000000163328E-02     7.5000000000028411E-01     0.0000000000000000E+00 
    6.2500000000187531E-02     8.1249999999988787E-01     0.0000000000000000E+00 
    6.2500000000211720E-02     8.7499999999951172E-01     0.0000000000000000E+00 
    6.2500000000235922E-02     9.3749999999974565E-01     0.0000000000000000E+00 
    1.2499999999981980E-01     6.2500000000211733E-02     0.0000000000000000E+00 
    1.2499999999986650E-01     1.2500000000042691E-01     0.0000000000000000E+00 
    1.2499999999991319E-01     1.8750000000063199E-01     0.0000000000000000E+00 
    1.2499999999995989E-01     2.5000000000083678E-01     0.0000000000000000E+00 
    1.2500000000000661E-01     3.1250000000104172E-01     0.0000000000000000E+00 
    1.2500000000005329E-01     3.7500000000124661E-01     0.0000000000000000E+00 
    1.2500000000010000E-01     4.3750000000145117E-01     0.0000000000000000E+00 
    1.2500000000014669E-01     5.0000000000163858E-01     0.0000000000000000E+00 
    1.2500000000019340E-01     5.6250000000129741E-01     0.0000000000000000E+00 
    1.2500000000024011E-01     6.2500000000093847E-01     0.0000000000000000E+00 
    1.2500000000028680E-01     6.8750000000057998E-01     0.0000000000000000E+00 
    1.2500000000033351E-01     7.5000000000022127E-01     0.0000000000000000E+00 
    1.2500000000038020E-01     8.1249999999986211E-01     0.0000000000000000E+00 
    1.2500000000042691E-01     8.7499999999952238E-01     0.0000000000000000E+00 
    1.2500000000047359E-01     9.3749999999975164E-01     0.0000000000000000E+00 
    1.8749999999966760E-01     6.2500000000187531E-02     0.0000000000000000E+00 
    1.8749999999974179E-01     1.2500000000038020E-01     0.0000000000000000E+00 
    1.8749999999981601E-01     1.8750000000055780E-01     0.0000000000000000E+00 
    1.8749999999989009E-01     2.5000000000073502E-01     0.0000000000000000E+00 
    1.8749999999996431E-01     3.1250000000091221E-01     0.0000000000000000E+00 
    1.8750000000003850E-01     3.7500000000108941E-01     0.0000000000000000E+00 
    1.8750000000011269E-01     4.3750000000126649E-01     0.0000000000000000E+00 
    1.8750000000018691E-01     5.0000000000142808E-01     0.0000000000000000E+00 
    1.8750000000026110E-01     5.6250000000112244E-01     0.0000000000000000E+00 
    1.8750000000033529E-01     6.2500000000080080E-01     0.0000000000000000E+00 
    1.8750000000040951E-01     6.8750000000047962E-01     0.0000000000000000E+00 
    1.8750000000048361E-01     7.5000000000015843E-01     0.0000000000000000E+00 
    1.8750000000055780E-01     8.1249999999983680E-01     0.0000000000000000E+00 
    1.8750000000063199E-01     8.7499999999953304E-01     0.0000000000000000E+00 
    1.8750000000070621E-01     9.3749999999975764E-01     0.0000000000000000E+00 
    2.4999999999951281E-01     6.2500000000163314E-02     0.0000000000000000E+00 
    2.4999999999961461E-01     1.2500000000033351E-01     0.0000000000000000E+00 
    2.4999999999971650E-01     1.8750000000048361E-01     0.0000000000000000E+00 
    2.4999999999981831E-01     2.5000000000063310E-01     0.0000000000000000E+00 
    2.4999999999992020E-01     3.1250000000078260E-01     0.0000000000000000E+00 
    2.5000000000002198E-01     3.7500000000093209E-01     0.0000000000000000E+00 
    2.5000000000012390E-01     4.3750000000108180E-01     0.0000000000000000E+00 
    2.5000000000022571E-01     5.0000000000121769E-01     0.0000000000000000E+00 
    2.5000000000032763E-01     5.6250000000094724E-01     0.0000000000000000E+00 
    2.5000000000042938E-01     6.2500000000066314E-01     0.0000000000000000E+00 
    2.5000000000053119E-01     6.8750000000037925E-01     0.0000000000000000E+00 
[...]
CELL_DATA 256 
SCALARS Pressure double 1 
LOOKUP_TABLE default 

    6.3609315932464860E-01 
    5.8688260949445981E-01 
    5.5610668823640064E-01 
    5.2867445364396382E-01 
    5.0107884721206475E-01 
    4.7239922814981683E-01 
    4.4239763023292467E-01 
    4.1122656392384810E-01 
    3.7922752316954711E-01 
    3.4689508341060749E-01 
    3.1493168725947113E-01 
    2.8446060667261941E-01 
    2.5725628948848078E-01 
    2.3563081604989303E-01 
    2.2169355854406300E-01 
    2.1504531848984643E-01 
    6.2209067649038763E-01 
    5.8808969603010908E-01 
    5.5838396651213540E-01 
    5.3115680050678160E-01 
    5.0373384360472484E-01 
    4.7521663005374504E-01 
    4.4535414927215677E-01 
    4.1427961024222365E-01 
    3.8231345597231553E-01 
    3.4992258034184315E-01 
    3.1776677483232396E-01 
    2.8690679530370800E-01 
    2.5906890685941802E-01 
    2.3660520190162582E-01 
    2.2184597049979671E-01 
    2.1468060979731593E-01 
    6.1135233824663227E-01 
    5.8718099024989978E-01 
    5.5992813467930447E-01 
    5.3332248424753803E-01 
    5.0620767123552290E-01 
    4.7790809272972862E-01 
    4.4820938410804423E-01 
    4.1723756574257015E-01 
    3.8528984800093891E-01 
    3.5279613219269762E-01 
    3.2036429460003929E-01 
    2.8898273347776204E-01 
    2.6032912804217573E-01 
    2.3682945878186917E-01 
    2.2111942888055061E-01 
    2.1349007108003651E-01 
    6.0294310230464931E-01 
    5.8521939737459749E-01 
    5.6078356187145761E-01 
    5.3514953802944421E-01 
    5.0849116699324537E-01 
    4.8047517423554209E-01 
    4.5097060273091288E-01 
    4.2011194667622992E-01 
    3.8817485087306514E-01 
    3.5554571554174091E-01 
    3.2276976135006658E-01 
    2.9074839354682763E-01 
    2.6109758892102025E-01 
    2.3633189116898981E-01 
    2.1947307938777894E-01 
    2.1134948526901007E-01 
    5.9622758085728811E-01 
    5.8280222028722672E-01 
    5.6108615275816542E-01 
    5.3664871965399064E-01 
    5.1058143970583625E-01 
    4.8291864683957514E-01 
    4.5364428511406168E-01 
    4.2291507729586181E-01 
    3.9098869641362327E-01 
    3.5820410842508082E-01 
    3.2503253997849352E-01 
    2.9226993053991585E-01 
    2.6144392694156737E-01 
    2.3514813825264747E-01 
    2.1686129032348508E-01 
    2.0812586846097289E-01 
    5.9079702440902626E-01 
    5.8027241224218684E-01 
    5.6098752303803434E-01 
    5.3785457729117070E-01 
    5.1248411646478909E-01 
    4.8523971651708031E-01 
    4.5623536481340604E-01 
    4.2565820368668006E-01 
    3.9375169892042666E-01 
    3.6080579315919770E-01 
    3.2720578235592318E-01 
    2.9362088946327114E-01 
    2.6144958201414192E-01 
    2.3332639389098339E-01 
    2.1323546745977293E-01 
    2.0366102568564862E-01 
    5.8637754705729572E-01 
    5.7783268790811382E-01 
    5.6063253829360560E-01 
    5.3881943161450041E-01 
    5.1421695637394671E-01 
    4.8744630741595052E-01 
    4.5874974341395752E-01 
    4.2835159383092530E-01 
    3.9648360629192170E-01 
    3.6338498910809602E-01 
    3.2934587158385681E-01 
    2.9488335572930591E-01 
    2.6121216749134363E-01 
    2.3093581054815690E-01 
    2.0855443016585887E-01 
    1.9777527641049708E-01 
    5.8277703716308793E-01 
    5.7559988757430469E-01 
    5.6014663996407876E-01 
    5.3960528533280361E-01 
    5.1580862851817144E-01 
    4.8955350710039419E-01 
    4.6119735967509939E-01 
    4.3100529890137002E-01 
    3.9920103628677511E-01 
    3.6597295658216461E-01 
    3.3150844076748920E-01 
    2.9614721530602672E-01 
    2.6085015644774351E-01 
    2.2807590715177073E-01 
    2.0279293396690901E-01 
    1.9025729391101451E-01 
    5.7985512941958983E-01 
    5.7363650319092474E-01 
    5.5963112332145415E-01 
    5.4027627565226422E-01 
    5.1729287529221335E-01 
    4.9158003294103281E-01 
    4.6359020075118301E-01 
    4.3362980142036056E-01 
    4.0191865915837854E-01 
    3.6859624957187698E-01 
    3.3374428284360008E-01 
    2.9750486879716909E-01 
    2.6050431555104553E-01 
    2.2488806024510422E-01 
    1.9594885560025899E-01 
    1.8083954699380544E-01 
    5.7750875798816359E-01 
    5.7197399747613675E-01 
    5.5916445553389971E-01 
    5.4089282813460160E-01 
    5.1870594974321271E-01 
    4.9354663431419238E-01 
    4.6594187677112453E-01 
    4.3623645366437291E-01 
    4.0465010071005542E-01 
    3.7127742310161743E-01 
    3.3609710707348012E-01 
    2.9904589722817554E-01 
    2.6033511702989715E-01 
    2.2156841063519672E-01 
    1.8806112894780300E-01 
    1.6916677500236910E-01 
    5.7566132198574438E-01 
    5.7062742539641886E-01 
    5.5880767382027763E-01 
    5.4151028672465529E-01 
    5.2008529128821790E-01 
    4.9547703296692042E-01 
    4.6826759206572116E-01 
    4.3883751748970640E-01 
    4.0740939448944652E-01 
    3.7403702392381144E-01 
    3.3860432447069955E-01 
    3.0085349559050806E-01 
    2.6051929752758202E-01 
    2.1837697633688058E-01 
    1.7924013509671499E-01 
    1.5476625044171360E-01 
    5.7425246898063620E-01 
    5.6960232766748575E-01 
    5.5860940501880463E-01 
    5.4217950752043687E-01 
    5.2146966094513536E-01 
    4.9739800150958008E-01 
    4.7058561376462044E-01 
    4.4144651775522703E-01 
    4.1021050429598133E-01 
    3.7689418516713286E-01 
    3.4129656611972503E-01 
    3.0300018227262110E-01 
    2.6124389302172640E-01 
    2.1566821852706239E-01 
    1.6975594856722900E-01 
    1.3698303434748096E-01 
    5.7323416660611770E-01 
    5.6889989125539175E-01 
    5.5860967993562927E-01 
    5.4294804224166515E-01 
    5.2289871501913443E-01 
    4.9933932498011124E-01 
    4.7291755265784802E-01 
    4.4407915901520684E-01 
    4.1306794295059091E-01 
    3.7986734676695916E-01 
    3.4419780291541024E-01 
    3.0554174446929816E-01 
    2.6269031478319366E-01 
    2.1390528340933609E-01 
    1.6016486724671838E-01 
    1.1487267588936736E-01 
    5.7257646808100937E-01 
    5.6853067927827450E-01 
    5.5885147494303711E-01 
    5.4386708496952718E-01 
    5.2441758100971092E-01 
    5.0133571381356967E-01 
    4.7528833237079166E-01 
    4.4675077917946487E-01 
    4.1599327963165100E-01 
    3.8297165304509084E-01 
    3.4732025997123328E-01 
    3.0850561019751821E-01 
    2.6500448550753047E-01 
    2.1364192621526473E-01 
    1.5152323394108372E-01 
    8.7024868011636405E-02 
    5.7220208346659041E-01 
    5.6846310307736814E-01 
    5.5934607013693449E-01 
    5.4496507874547051E-01 
    5.2605230294935301E-01 
    5.0339994925789222E-01 
    4.7769601726360617E-01 
    4.4944180555506041E-01 
    4.1893755451818371E-01 
    3.8614274805537691E-01 
    3.5059713745962906E-01 
    3.1180964836793612E-01 
    2.6815669056525482E-01 
    2.1526260744413914E-01 
    1.4554581259954116E-01 
    5.1068598709662613E-02 
    5.7207649647252956E-01 
    5.6866592711449859E-01 
    5.6007530976016073E-01 
    5.4623954074908820E-01 
    5.2780807512039640E-01 
    5.0554329207851845E-01 
    4.8015119687219093E-01 
    4.5216228457910490E-01 
    4.2188992184191954E-01 
    3.8935038807376937E-01 
    3.5404344878689298E-01 
    3.1550643245870474E-01 
    2.7219444288405698E-01 
    2.1903229275088529E-01 
    1.4506198214752775E-01 
    0.0000000000000000E+00 

SCALARS Saturarion double 1 
LOOKUP_TABLE default 

    1.0000000000000002E+00 
    9.8006316370261126E-01 
    9.4331011111708984E-01 
    8.9145840018500488E-01 
    8.4823961933879999E-01 
    8.0993600904655128E-01 
    7.7604594222244216E-01 
    7.4616757020285551E-01 
    7.1954062227366333E-01 
    6.9531198432503005E-01 
    6.7253341966579328E-01 
    6.5004995451577341E-01 
    6.2600841373088456E-01 
    5.9667877682512938E-01 
    5.5378995614122939E-01 
    3.5582064644387668E-01 
    9.9274309915614312E-01 
    9.7390728121272363E-01 
    9.3531508319223622E-01 
    8.8581127021164729E-01 
    8.4341806526737684E-01 
    8.0619992784386074E-01 
    7.7327726026532562E-01 
    7.4406923943193892E-01 
    7.1795298310058198E-01 
    6.9414034406221736E-01 
    6.7187396139174793E-01 
    6.5013341510865397E-01 
    6.2707658209650408E-01 
    5.9875122132297409E-01 
    5.5723190739212380E-01 
    3.7383215147093157E-01 
    9.8124229572962907E-01 
    9.6224240543411321E-01 
    9.2330650448131335E-01 
    8.7529949994245804E-01 
    8.3382774625792899E-01 
    7.9843078689657210E-01 
    7.6749213898976343E-01 
    7.3973422986857329E-01 
    7.1456299718918570E-01 
    6.9141814164701676E-01 
    6.6978429749900315E-01 
    6.4886683651034016E-01 
    6.2722542176076279E-01 
    6.0107866434631418E-01 
    5.6223914839202793E-01 
    3.9082731976887791E-01 
    9.6120603454814280E-01 
    9.4513385580439702E-01 
    9.0839677671721553E-01 
    8.6421732980461952E-01 
    8.2347314839710783E-01 
    7.8870728176812976E-01 
    7.5878854886403069E-01 
    7.3248834235200533E-01 
    7.0876346244141220E-01 
    6.8707068715147490E-01 
    6.6672309311982025E-01 
    6.4699933180781100E-01 
    6.2671223150911193E-01 
    6.0285581816763012E-01 
    5.6717162001653798E-01 
    4.0757509388630314E-01 
    9.3628471666063573E-01 
    9.2172624415217908E-01 
    8.8842401774408741E-01 
    8.4854346733351982E-01 
    8.0977713939329410E-01 
    7.7564287159846190E-01 
    7.4647984452982019E-01 
    7.2133668954695829E-01 
    6.9926597754503539E-01 
    6.7953204457320959E-01 
    6.6147984412129490E-01 
    6.4411041256156398E-01 
    6.2585603621549313E-01 
    6.0409385374217317E-01 
    5.7154903603058349E-01 
    4.2194551449737028E-01 
    9.0743818409314314E-01 
    8.9507159136373993E-01 
    8.6587214835457726E-01 
    8.2940836964691922E-01 
    7.9330306812284213E-01 
    7.6075359989860059E-01 
    7.3235221484213708E-01 
    7.0801244647819483E-01 
    6.8709725445833592E-01 
    6.6898521139056522E-01 
    6.5317849149906693E-01 
    6.3890991805242980E-01 
    6.2404831916244163E-01 
    6.0498200106358802E-01 
    5.7524763324051364E-01 
    4.3513496948626573E-01 
    8.7558639160453844E-01 
    8.6608010338360120E-01 
    8.4124247615893233E-01 
    8.0835893410755655E-01 
    7.7526144359464511E-01 
    7.4497847449659416E-01 
    7.1819018339255403E-01 
    6.9458482658537113E-01 
    6.7422218462565386E-01 
    6.5700418526167914E-01 
    6.4280523268065914E-01 
    6.3116060376050931E-01 
    6.2032753931578100E-01 
    6.0538873266257975E-01 
    5.7881458616433101E-01 
    4.4818773826068037E-01 
    8.4061421412117965E-01 
    8.3438927922527839E-01 
    8.1461196557526483E-01 
    7.8599134451493857E-01 
    7.5582025644773954E-01 
    7.2770889118827953E-01 
    7.0240281506575075E-01 
    6.8008037487414197E-01 
    6.6066216677965595E-01 
    6.4431231312484893E-01 
    6.3114579895890044E-01 
    6.2140301375721241E-01 
    6.1417545555068431E-01 
    6.0454956602467103E-01 
    5.8239759894799503E-01 
    4.6142217837551552E-01 
    8.0250200408326700E-01 
    7.9959426020476987E-01 
    7.8495331694769355E-01 
    7.6105788234692295E-01 
    7.3434216585568723E-01 
    7.0839261029412237E-01 
    6.8469402069167995E-01 
    6.6355815609791802E-01 
    6.4515767896666298E-01 
    6.2968868394396482E-01 
    6.1761513533789369E-01 
    6.0951997004192549E-01 
    6.0544391397755926E-01 
    6.0154712258432697E-01 
    5.8545176223015039E-01 
    4.7425519076725187E-01 
    7.6128830303531003E-01 
    7.6158847163222920E-01 
    7.5190669325945692E-01 
    7.3259812882708841E-01 
    7.0957653550617394E-01 
    6.8622463534850187E-01 
    6.6414838766257533E-01 
    6.4445503890432443E-01 
    6.2739203458935655E-01 
    6.1304088522426603E-01 
    6.0181297310058091E-01 
    5.9495010918214364E-01 
    5.9362943337162566E-01 
    5.9559647468939125E-01 
    5.8704498633595514E-01 
    4.8704694733843279E-01 
    7.1667339495173221E-01 
    7.2002446912546358E-01 
    7.1507513442597836E-01 
    7.0009112122570705E-01 
    6.8079635577226316E-01 
    6.6053146811941443E-01 
    6.4097193454625767E-01 
    6.2283080676003266E-01 
    6.0702981807861445E-01 
    5.9395124552888878E-01 
    5.8390334433169089E-01 
    5.7785279951550816E-01 
    5.7819218952240026E-01 
    5.8566202877616524E-01 
    5.8463600054309817E-01 
    5.0036345785813674E-01 
    6.6724089269704834E-01 
    6.7363215197320903E-01 
    6.7360705814926425E-01 
    6.6308286997971755E-01 
    6.4729546427950324E-01 
    6.2989068724128350E-01 
    6.1277363627113579E-01 
    5.9701452104661190E-01 
    5.8311559157392623E-01 
    5.7161749144902441E-01 
    5.6299137774810426E-01 
    5.5825529238173854E-01 
    5.5953566857998449E-01 
    5.7063967822274608E-01 
    5.8076723697751553E-01 
    5.1217711381757558E-01 
    6.1211936748636719E-01 
    6.2110834342709509E-01 
    6.2562424865908550E-01 
    6.1972293523488031E-01 
    6.0811758064533539E-01 
    5.9408923856424023E-01 
    5.8005422481886915E-01 
    5.6659592273262427E-01 
    5.5442592281466163E-01 
    5.4441468354979095E-01 
    5.3760235095946951E-01 
    5.3454634607644036E-01 
    5.3730204018816841E-01 
    5.5032929195703972E-01 
    5.7205826835621243E-01 
    5.2178622935945240E-01 
    5.5486310617124257E-01 
    5.6521801691415530E-01 
    5.7295705239383021E-01 
    5.7132050286283165E-01 
    5.6387016208864882E-01 
    5.5317840790554351E-01 
    5.4137938988717438E-01 
    5.2955333963970308E-01 
    5.1751905964409184E-01 
    5.0794028161826865E-01 
    5.0181128417193366E-01 
    4.9994681067169988E-01 
    5.0562755672356530E-01 
    5.2327464200081086E-01 
    5.5803172103151333E-01 
    5.2826143750714183E-01 
    4.2665877921267081E-01 
    4.5314040130677014E-01 
    4.7434133551319646E-01 
    4.8141474195543044E-01 
    4.7821157123999064E-01 
    4.6735425284816284E-01 
    4.5124428892169860E-01 
    4.3216597068408757E-01 
    4.0785501303723914E-01 
    3.6180671871504383E-01 
    3.2262658630983360E-01 
    3.4210313051641644E-01 
    3.7465692112399390E-01 
    4.3439568246495991E-01 
    5.1611613484069263E-01 
    5.2868151289947862E-01 
    3.6258716279636227E-02 
    9.9595939916313159E-02 
    1.2186303257891198E-01 
    1.4804703165269831E-01 
    1.1079231615102891E-01 
    1.0724262958779043E-01 
    6.3513543716489249E-02 
    4.8081020443275412E-02 
    2.1287231720160681E-02 
    6.3515532795373076E-03 
    6.7818692132111426E-03 
    9.6420848017389465E-03 
    3.6615156258582436E-02 
    1.9021098742481218E-01 
    3.4669626938624143E-01 
    4.7746690194688596E-01 
