# vtk DataFile Version 2.0
Pressure Field Data 
ASCII 
DATASET UNSTRUCTURED_GRID 

POINTS 289 double 

    0.0000000000000000E+00     0.0000000000000000E+00     0.0000000000000000E+00 
    1.0000000000000000E+00     0.0000000000000000E+00     0.0000000000000000E+00 
    1.0000000000000000E+00     1.0000000000000000E+00     0.0000000000000000E+00 
    0.0000000000000000E+00     1.0000000000000000E+00     0.0000000000000000E+00 
    6.2499999999872928E-02     0.0000000000000000E+00     0.0000000000000000E+00 
    1.2499999999977310E-01     0.0000000000000000E+00     0.0000000000000000E+00 
    1.8749999999959341E-01     0.0000000000000000E+00     0.0000000000000000E+00 
    2.4999999999941089E-01     0.0000000000000000E+00     0.0000000000000000E+00 
    3.1249999999922851E-01     0.0000000000000000E+00     0.0000000000000000E+00 
    3.7499999999904610E-01     0.0000000000000000E+00     0.0000000000000000E+00 
    4.3749999999886358E-01     0.0000000000000000E+00     0.0000000000000000E+00 
    4.9999999999869210E-01     0.0000000000000000E+00     0.0000000000000000E+00 
    5.6249999999884603E-01     0.0000000000000000E+00     0.0000000000000000E+00 
    6.2499999999901090E-01     0.0000000000000000E+00     0.0000000000000000E+00 
    6.8749999999917577E-01     0.0000000000000000E+00     0.0000000000000000E+00 
    7.4999999999934064E-01     0.0000000000000000E+00     0.0000000000000000E+00 
    8.1249999999950551E-01     0.0000000000000000E+00     0.0000000000000000E+00 
    8.7499999999967026E-01     0.0000000000000000E+00     0.0000000000000000E+00 
    9.3749999999983513E-01     0.0000000000000000E+00     0.0000000000000000E+00 
    1.0000000000000000E+00     6.2499999999872928E-02     0.0000000000000000E+00 
    1.0000000000000000E+00     1.2499999999977310E-01     0.0000000000000000E+00 
    1.0000000000000000E+00     1.8749999999959341E-01     0.0000000000000000E+00 
    1.0000000000000000E+00     2.4999999999941089E-01     0.0000000000000000E+00 
    1.0000000000000000E+00     3.1249999999922851E-01     0.0000000000000000E+00 
    1.0000000000000000E+00     3.7499999999904610E-01     0.0000000000000000E+00 
    1.0000000000000000E+00     4.3749999999886358E-01     0.0000000000000000E+00 
    1.0000000000000000E+00     4.9999999999869210E-01     0.0000000000000000E+00 
    1.0000000000000000E+00     5.6249999999884603E-01     0.0000000000000000E+00 
    1.0000000000000000E+00     6.2499999999901090E-01     0.0000000000000000E+00 
    1.0000000000000000E+00     6.8749999999917577E-01     0.0000000000000000E+00 
    1.0000000000000000E+00     7.4999999999934064E-01     0.0000000000000000E+00 
    1.0000000000000000E+00     8.1249999999950551E-01     0.0000000000000000E+00 
    1.0000000000000000E+00     8.7499999999967026E-01     0.0000000000000000E+00 
    1.0000000000000000E+00     9.3749999999983513E-01     0.0000000000000000E+00 
    9.3749999999973976E-01     1.0000000000000000E+00     0.0000000000000000E+00 
    8.7499999999950118E-01     1.0000000000000000E+00     0.0000000000000000E+00 
    8.1249999999991318E-01     1.0000000000000000E+00     0.0000000000000000E+00 
    7.5000000000034706E-01     1.0000000000000000E+00     0.0000000000000000E+00 
    6.8750000000078049E-01     1.0000000000000000E+00     0.0000000000000000E+00 
    6.2500000000121403E-01     1.0000000000000000E+00     0.0000000000000000E+00 
    5.6250000000164757E-01     1.0000000000000000E+00     0.0000000000000000E+00 
    5.0000000000205946E-01     1.0000000000000000E+00     0.0000000000000000E+00 
    4.3750000000182099E-01     1.0000000000000000E+00     0.0000000000000000E+00 
    3.7500000000156092E-01     1.0000000000000000E+00     0.0000000000000000E+00 
    3.1250000000130068E-01     1.0000000000000000E+00     0.0000000000000000E+00 
    2.5000000000104050E-01     1.0000000000000000E+00     0.0000000000000000E+00 
    1.8750000000078040E-01     1.0000000000000000E+00     0.0000000000000000E+00 
    1.2500000000052031E-01     1.0000000000000000E+00     0.0000000000000000E+00 
    6.2500000000260125E-02     1.0000000000000000E+00     0.0000000000000000E+00 
    0.0000000000000000E+00     9.3749999999973976E-01     0.0000000000000000E+00 
    0.0000000000000000E+00     8.7499999999950118E-01     0.0000000000000000E+00 
    0.0000000000000000E+00     8.1249999999991318E-01     0.0000000000000000E+00 
    0.0000000000000000E+00     7.5000000000034706E-01     0.0000000000000000E+00 
    0.0000000000000000E+00     6.8750000000078049E-01     0.0000000000000000E+00 
    0.0000000000000000E+00     6.2500000000121403E-01     0.0000000000000000E+00 
    0.0000000000000000E+00     5.6250000000164757E-01     0.0000000000000000E+00 
    0.0000000000000000E+00     5.0000000000205946E-01     0.0000000000000000E+00 
    0.0000000000000000E+00     4.3750000000182099E-01     0.0000000000000000E+00 
    0.0000000000000000E+00     3.7500000000156092E-01     0.0000000000000000E+00 
    0.0000000000000000E+00     3.1250000000130068E-01     0.0000000000000000E+00 
    0.0000000000000000E+00     2.5000000000104050E-01     0.0000000000000000E+00 
    0.0000000000000000E+00     1.8750000000078040E-01     0.0000000000000000E+00 
    0.0000000000000000E+00     1.2500000000052031E-01     0.0000000000000000E+00 
    0.0000000000000000E+00     6.2500000000260125E-02     0.0000000000000000E+00 
    6.2499999999897131E-02     6.2500000000235922E-02     0.0000000000000000E+00 
    6.2499999999921327E-02     1.2500000000047351E-01     0.0000000000000000E+00 
    6.2499999999945530E-02     1.8750000000070621E-01     0.0000000000000000E+00 
    6.2499999999969733E-02     2.5000000000093858E-01     0.0000000000000000E+00 
    6.2499999999993928E-02     3.1250000000117117E-01     0.0000000000000000E+00 
    6.2500000000018124E-02     3.7500000000140382E-01     0.0000000000000000E+00 
    6.2500000000042327E-02     4.3750000000163619E-01     0.0000000000000000E+00 
    6.2500000000066530E-02     5.0000000000184897E-01     0.0000000000000000E+00 
    6.2500000000090733E-02     5.6250000000147260E-01     0.0000000000000000E+00 
    6.2500000000114922E-02     6.2500000000107636E-01     0.0000000000000000E+00 
    6.2500000000139125E-02     6.8750000000068034E-01     0.0000000000000000E+00 
    6.2500000000163328E-02     7.5000000000028411E-01     0.0000000000000000E+00 
    6.2500000000187531E-02     8.1249999999988787E-01     0.0000000000000000E+00 
    6.2500000000211720E-02     8.7499999999951172E-01     0.0000000000000000E+00 
    6.2500000000235922E-02     9.3749999999974565E-01     0.0000000000000000E+00 
    1.2499999999981980E-01     6.2500000000211733E-02     0.0000000000000000E+00 
    1.2499999999986650E-01     1.2500000000042691E-01     0.0000000000000000E+00 
    1.2499999999991319E-01     1.8750000000063199E-01     0.0000000000000000E+00 
    1.2499999999995989E-01     2.5000000000083678E-01     0.0000000000000000E+00 
    1.2500000000000661E-01     3.1250000000104172E-01     0.0000000000000000E+00 
    1.2500000000005329E-01     3.7500000000124661E-01     0.0000000000000000E+00 
    1.2500000000010000E-01     4.3750000000145117E-01     0.0000000000000000E+00 
    1.2500000000014669E-01     5.0000000000163858E-01     0.0000000000000000E+00 
    1.2500000000019340E-01     5.6250000000129741E-01     0.0000000000000000E+00 
    1.2500000000024011E-01     6.2500000000093847E-01     0.0000000000000000E+00 
    1.2500000000028680E-01     6.8750000000057998E-01     0.0000000000000000E+00 
    1.2500000000033351E-01     7.5000000000022127E-01     0.0000000000000000E+00 
    1.2500000000038020E-01     8.1249999999986211E-01     0.0000000000000000E+00 
    1.2500000000042691E-01     8.7499999999952238E-01     0.0000000000000000E+00 
    1.2500000000047359E-01     9.3749999999975164E-01     0.0000000000000000E+00 
    1.8749999999966760E-01     6.2500000000187531E-02     0.0000000000000000E+00 
    1.8749999999974179E-01     1.2500000000038020E-01     0.0000000000000000E+00 
    1.8749999999981601E-01     1.8750000000055780E-01     0.0000000000000000E+00 
    1.8749999999989009E-01     2.5000000000073502E-01     0.0000000000000000E+00 
    1.8749999999996431E-01     3.1250000000091221E-01     0.0000000000000000E+00 
    1.8750000000003850E-01     3.7500000000108941E-01     0.0000000000000000E+00 
    1.8750000000011269E-01     4.3750000000126649E-01     0.0000000000000000E+00 
    1.8750000000018691E-01     5.0000000000142808E-01     0.0000000000000000E+00 
    1.8750000000026110E-01     5.6250000000112244E-01     0.0000000000000000E+00 
    1.8750000000033529E-01     6.2500000000080080E-01     0.0000000000000000E+00 
    1.8750000000040951E-01     6.8750000000047962E-01     0.0000000000000000E+00 
    1.8750000000048361E-01     7.5000000000015843E-01     0.0000000000000000E+00 
    1.8750000000055780E-01     8.1249999999983680E-01     0.0000000000000000E+00 
    1.8750000000063199E-01     8.7499999999953304E-01     0.0000000000000000E+00 
    1.8750000000070621E-01     9.3749999999975764E-01     0.0000000000000000E+00 
    2.4999999999951281E-01     6.2500000000163314E-02     0.0000000000000000E+00 
    2.4999999999961461E-01     1.2500000000033351E-01     0.0000000000000000E+00 
    2.4999999999971650E-01     1.8750000000048361E-01     0.0000000000000000E+00 
    2.4999999999981831E-01     2.5000000000063310E-01     0.0000000000000000E+00 
    2.4999999999992020E-01     3.1250000000078260E-01     0.0000000000000000E+00 
    2.5000000000002198E-01     3.7500000000093209E-01     0.0000000000000000E+00 
    2.5000000000012390E-01     4.3750000000108180E-01     0.0000000000000000E+00 
    2.5000000000022571E-01     5.0000000000121769E-01     0.0000000000000000E+00 
    2.5000000000032763E-01     5.6250000000094724E-01     0.0000000000000000E+00 
    2.5000000000042938E-01     6.2500000000066314E-01     0.0000000000000000E+00 
    2.5000000000053119E-01     6.8750000000037925E-01     0.0000000000000000E+00 
[...]
CELL_DATA 256 
SCALARS Pressure double 1 
LOOKUP_TABLE default 

    6.2598294582652847E-01 
    5.7689578274409969E-01 
    5.4631658518814141E-01 
    5.1914748226873775E-01 
    4.9187415107604299E-01 
    4.6356970578166867E-01 
    4.3399231255485837E-01 
    4.0328831277469579E-01 
    3.7178952805906224E-01 
    3.3997607782758565E-01 
    3.0853097153546610E-01 
    2.7855213179178473E-01 
    2.5178061895675496E-01 
    2.3048677168827142E-01 
    2.1674593372806139E-01 
    2.1022588376019011E-01 
    6.1197655925294647E-01 
    5.7808889982934286E-01 
    5.4857341605791998E-01 
    5.2160372994417270E-01 
    4.9449776789387806E-01 
    4.6635056940036829E-01 
    4.3690738755439296E-01 
    4.0629599479323419E-01 
    3.7482796177799643E-01 
    3.4295636441207739E-01 
    3.1132213089004568E-01 
    2.8096149660365222E-01 
    2.5356815030641244E-01 
    2.3145161152309235E-01 
    2.1690145404001512E-01 
    2.0987266645805283E-01 
    6.0123541021583238E-01 
    5.7716956476864667E-01 
    5.5010055179853068E-01 
    5.2374665039329438E-01 
    4.9694352089887195E-01 
    4.6900876104806916E-01 
    4.3972427378416284E-01 
    4.0921157637186278E-01 
    3.7776015905947374E-01 
    3.4578694712027280E-01 
    3.1388152143878884E-01 
    2.8300875279791721E-01 
    2.5481490604561491E-01 
    2.3168217860009988E-01 
    2.1619736894472746E-01 
    2.0871421928944986E-01 
    5.9282766976006152E-01 
    5.7520144283973684E-01 
    5.5094285130577170E-01 
    5.2555427121959775E-01 
    4.9920177321886661E-01 
    4.7154520403498018E-01 
    4.4244974431385531E-01 
    4.1204627092279550E-01 
    3.8060405074412568E-01 
    3.4849750407735458E-01 
    3.1625407711387182E-01 
    2.8475281472901814E-01 
    2.5558023322095297E-01 
    2.3120600817883705E-01 
    2.1459347579597715E-01 
    2.0662842189701122E-01 
    5.8611962585074306E-01 
    5.7278284716952466E-01 
    5.5123651943881535E-01 
    5.2703753203192694E-01 
    5.0126958400686161E-01 
    4.7396022774384905E-01 
    4.4508958950418814E-01 
    4.1481167426067544E-01 
    3.8337922327915880E-01 
    3.5112023821972932E-01 
    3.1848846294862726E-01 
    2.8625864832280362E-01 
    2.5593216880766612E-01 
    2.3005777448221246E-01 
    2.1204493331082871E-01 
    2.0348474595097557E-01 
    5.8070123651129202E-01 
    5.7025651151485268E-01 
    5.5113318094609420E-01 
    5.2823106824521293E-01 
    5.0315262910113567E-01 
    4.7625480262891362E-01 
    4.4764810102153185E-01 
    4.1751804759429129E-01 
    3.8610487639872826E-01 
    3.5368861065324775E-01 
    3.2063688385599720E-01 
    2.8759848408681660E-01 
    2.5595025909084290E-01 
    2.2828439872520226E-01 
    2.0850416646726919E-01 
    1.9912850547219202E-01 
    5.7629672562321510E-01 
    5.6782403948995219E-01 
    5.5077714865452976E-01 
    5.2918680843539512E-01 
    5.0486838406711099E-01 
    4.7843662852452212E-01 
    4.5013079136636786E-01 
    4.2017484837835056E-01 
    3.8879953557013924E-01 
    3.5623552122845531E-01 
    3.2275452238948460E-01 
    2.8885295763921753E-01 
    2.5572997686764254E-01 
    2.2595311718305347E-01 
    2.0393047586989874E-01 
    1.9338368928748814E-01 
    5.7271273534753619E-01 
    5.6560113546643664E-01 
    5.5029301684178489E-01 
    5.2996611046977204E-01 
    5.0644509910190649E-01 
    4.8052058882215409E-01 
    4.5254739095058616E-01 
    4.2279157114512994E-01 
    3.9147876486127092E-01 
    3.5879091477183339E-01 
    3.2489572201091527E-01 
    2.9011032068458709E-01 
    2.5538734134615554E-01 
    2.2316072154370972E-01 
    1.9829799445977506E-01 
    1.8604237938126525E-01 
    5.6980798337221439E-01 
    5.6364928875529940E-01 
    5.4978119639549383E-01 
    5.3063246445282586E-01 
    5.0791615389395883E-01 
    4.8252523662764457E-01 
    4.5490970971038480E-01 
    4.2537818653350462E-01 
    3.9415628899099892E-01 
    3.6138024396153851E-01 
    3.2711027703218931E-01 
    2.9146130402883785E-01 
    2.5506016232883433E-01 
    2.2004525822361842E-01 
    1.9160377059684452E-01 
    1.7684193139079440E-01 
    5.6747856087318871E-01 
    5.6199904286683733E-01 
    5.4931937181432566E-01 
    5.3124574069150365E-01 
    5.0931748071319527E-01 
    4.8447115434423638E-01 
    4.5723115000551257E-01 
    4.2794542352226372E-01 
    3.9684464964030042E-01 
    3.6402505730436646E-01 
    3.2944150943601147E-01 
    2.9299422977017725E-01 
    2.5490528278610158E-01 
    2.1679874424151430E-01 
    1.8388589154297480E-01 
    1.6543478242960089E-01 
    5.6564719181652157E-01 
    5.6066466320018415E-01 
    5.4896786365516781E-01 
    5.3186074945280970E-01 
    5.1068616846235071E-01 
    4.8638184734297574E-01 
    4.5952669546712105E-01 
    4.3050476365642920E-01 
    3.9955638977974917E-01 
    3.6674455197890310E-01 
    3.3192701293865362E-01 
    2.9479194306315470E-01 
    2.5509519525983021E-01 
    2.1367468524439756E-01 
    1.7525069551794123E-01 
    1.5135604769904173E-01 
    5.6425305048364760E-01 
    5.5965106101560225E-01 
    5.4877460080343454E-01 
    5.3252775961526366E-01 
    5.1206054007245305E-01 
    4.8828377703182879E-01 
    4.6181437177684620E-01 
    4.3306873394967166E-01 
    4.0230330020625826E-01 
    3.6955560247830088E-01 
    3.3459789185797745E-01 
    2.9692784534231498E-01 
    2.5581222886594079E-01 
    2.1101930147441511E-01 
    1.6596373071508616E-01 
    1.3396296267371247E-01 
    5.6324709057744804E-01 
    5.5895840179313705E-01 
    5.4877853756620332E-01 
    5.3329330769041883E-01 
    5.1347938778057367E-01 
    4.9020611059564601E-01 
    4.6411560546123354E-01 
    4.3565195806920731E-01 
    4.0509684985437161E-01 
    3.7247272865920278E-01 
    3.3747859640684169E-01 
    2.9946031584450578E-01 
    2.5723285969408705E-01 
    2.0928360430380979E-01 
    1.5657277522724122E-01 
    1.1233456995300808E-01 
    5.6259771163753580E-01 
    5.5859512183420768E-01 
    5.4902049814706433E-01 
    5.3420680452043057E-01 
    5.1498668894513244E-01 
    4.9218328001771600E-01 
    4.6645657533873314E-01 
    4.3827031901363228E-01 
    4.0794535033263418E-01 
    3.7550510444364010E-01 
    3.4058398465875128E-01 
    3.0242549012447800E-01 
    2.5950133267475578E-01 
    2.0899951114779147E-01 
    1.4809260065426730E-01 
    8.5064827855594397E-02 
    5.6223729460128191E-01 
    5.5853675292988036E-01 
    5.4951592458730159E-01 
    5.3530036474272213E-01 
    5.1661275879318758E-01 
    4.9423336494444903E-01 
    4.6884397479951334E-01 
    4.4091595557858593E-01 
    4.1081746655732865E-01 
    3.7860175833425219E-01 
    3.4384487342946668E-01 
    3.0575096477131841E-01 
    2.6260541844139040E-01 
    2.1057452411437982E-01 
    1.4226585207349829E-01 
    4.9871516959157050E-02 
    5.6211747885286745E-01 
    5.5874134809756748E-01 
    5.5023955310866934E-01 
    5.3656586266428630E-01 
    5.1835790831788653E-01 
    4.9636201289311532E-01 
    4.7128345920140574E-01 
    4.4360105154154728E-01 
    4.1371441120368496E-01 
    3.8174123944193739E-01 
    3.4723242729990811E-01 
    3.0942947919028252E-01 
    2.6657276119435380E-01 
    2.1422155986473279E-01 
    1.4181116525554424E-01 
    0.0000000000000000E+00 

SCALARS Saturarion double 1 
LOOKUP_TABLE default 

    1.0000000000000004E+00 
    9.8070647534945465E-01 
    9.4510094966471492E-01 
    8.9424537691873152E-01 
    8.5188610365066841E-01 
    8.1431810636711399E-01 
    7.8098075216962815E-01 
    7.5149304591618471E-01 
    7.2514389024981096E-01 
    7.0112396093207241E-01 
    6.7852379872884139E-01 
    6.5623014472212327E-01 
    6.3244679208957433E-01 
    6.0352181552380801E-01 
    5.6165610514741637E-01 
    3.7587192688455140E-01 
    9.9302435142920009E-01 
    9.7480616356389882E-01 
    9.3739374826913402E-01 
    8.8884553807762245E-01 
    8.4718800527743476E-01 
    8.1059666182245671E-01 
    7.7818357632130108E-01 
    7.4937146847180836E-01 
    7.2355591184564960E-01 
    6.9997395949568231E-01 
    6.7789306722240861E-01 
    6.5632835881583795E-01 
    6.3350370572434012E-01 
    6.0556739213834798E-01 
    5.6489889508318225E-01 
    3.9241605572208699E-01 
    9.8196098916217045E-01 
    9.6355745010923510E-01 
    9.2577334978473702E-01 
    8.7869055920594108E-01 
    8.3779918871831571E-01 
    8.0285570775629100E-01 
    7.7233982185493444E-01 
    7.4497999836305240E-01 
    7.2016062541938086E-01 
    6.9730803473171576E-01 
    6.7589969513335291E-01 
    6.5515117244903842E-01 
    6.3367911451098047E-01 
    6.0785467519393577E-01 
    5.6970356015610102E-01 
    4.0814693410050989E-01 
    9.6268752854603445E-01 
    9.4712056838332082E-01 
    9.1129458000436447E-01 
    8.6796287068753286E-01 
    8.2780351381548001E-01 
    7.9340985474872938E-01 
    7.6377815017582584E-01 
    7.3775910546527901E-01 
    7.1433383865571343E-01 
    6.9293976987253414E-01 
    6.7286331048464254E-01 
    6.5335233794032832E-01 
    6.3321735645417121E-01 
    6.0959515242112361E-01 
    5.7447196535893041E-01 
    4.2371013906194827E-01 
    9.3866846881905730E-01 
    9.2449799945696076E-01 
    8.9189428711857233E-01 
    8.5275774827757611E-01 
    8.1453743391031386E-01 
    7.8071864773659949E-01 
    7.5173534749957716E-01 
    7.2673671812345697E-01 
    7.0483452389862888E-01 
    6.8531229013688144E-01 
    6.6751058603490387E-01 
    6.5040468853222533E-01 
    6.3236988193230625E-01 
    6.1081088184641585E-01 
    5.7872107066745004E-01 
    4.3715240961794649E-01 
    9.1068266263779696E-01 
    8.9858275745902372E-01 
    8.6994273508153863E-01 
    8.3408318191243569E-01 
    7.9841352077742689E-01 
    7.6612084808981140E-01 
    7.3786845023265790E-01 
    7.1362034267618546E-01 
    6.9277625712079260E-01 
    6.7474885576107246E-01 
    6.5908033879197891E-01 
    6.4503773156052446E-01 
    6.3046682628494166E-01 
    6.1166706102566359E-01 
    5.8235174232562259E-01 
    4.4954604074290899E-01 
    8.7962615490441765E-01 
    8.7029370911596993E-01 
    8.4587388387352747E-01 
    8.1344212861385778E-01 
    7.8066667985193627E-01 
    7.5058917321377927E-01 
    7.2393580888960840E-01 
    7.0041838253376254E-01 
    6.8009376071807948E-01 
    6.6287817881992550E-01 
    6.4868778486591228E-01 
    6.3713638966519748E-01 
    6.2656407436846806E-01 
    6.1198622013342396E-01 
    5.8581601403981087E-01 
    4.6181565822255916E-01 
    8.4541731789341268E-01 
    8.3927239717728330E-01 
    8.1974798866471332E-01 
    7.9143528329820756E-01 
    7.6151042816131764E-01 
    7.3357294851708899E-01 
    7.0838677537928429E-01 
    6.8612912340050147E-01 
    6.6672497722046520E-01 
    6.5035128124943486E-01 
    6.3713541901023873E-01 
    6.2735326481284948E-01 
    6.2023681541044440E-01 
    6.1098641562205935E-01 
    5.8925005847516898E-01 
    4.7426002057442279E-01 
    8.0799626391745460E-01 
    8.0509492878738043E-01 
    7.9057339548218131E-01 
    7.6686267434156108E-01 
    7.4032390395670944E-01 
    7.1451547221627265E-01 
    6.9090715133978442E-01 
    6.6980728143605461E-01 
    6.5139743665162875E-01 
    6.3589491647609242E-01 
    6.2376858615152619E-01 
    6.1557925547897230E-01 
    6.1143752763799963E-01 
    6.0778783114489532E-01 
    5.9216107191670697E-01 
    4.8638265380925000E-01 
    7.6738250306330325E-01 
    7.6764217814275559E-01 
    7.5798894070806799E-01 
    7.3877465164382583E-01 
    7.1586497053298936E-01 
    6.9260831830330272E-01 
    6.7058071402475472E-01 
    6.5087738187898414E-01 
    6.3376664568698649E-01 
    6.1937615480957031E-01 
    6.0813461563936633E-01 
    6.0120978721153595E-01 
    5.9971401515632594E-01 
    6.0168151069630926E-01 
    5.9362081285289248E-01 
    4.9852238567979434E-01 
    7.2328785761458481E-01 
    7.2657000998614918E-01 
    7.2159183650921010E-01 
    7.0663737462995790E-01 
    6.8739623390045246E-01 
    6.6717526934608695E-01 
    6.4761216507085362E-01 
    6.2940479196511268E-01 
    6.1348992111044709E-01 
    6.0032494074411269E-01 
    5.9028660169505121E-01 
    5.8428314623099564E-01 
    5.8450278378449216E-01 
    5.9172829291676021E-01 
    5.9083261082452632E-01 
    5.1111648474039451E-01 
    6.7430821030875965E-01 
    6.8061456151453115E-01 
    6.8051890429836626E-01 
    6.6996977951032477E-01 
    6.5417883229138607E-01 
    6.3675838604609902E-01 
    6.1956545975278265E-01 
    6.0366063359279742E-01 
    5.8955356628541955E-01 
    5.7787350946480809E-01 
    5.6922559238084269E-01 
    5.6462740827927271E-01 
    5.6599607754340042E-01 
    5.7686928383239777E-01 
    5.8693565242841583E-01 
    5.2227770896476700E-01 
    6.1922055286832356E-01 
    6.2821850159917669E-01 
    6.3271307959394785E-01 
    6.2672042215177581E-01 
    6.1499833869770493E-01 
    6.0085114170328191E-01 
    5.8672027924034442E-01 
    5.7314588864535010E-01 
    5.6073026863420394E-01 
    5.5035395621627536E-01 
    5.4336523210284937E-01 
    5.4048852539026337E-01 
    5.4351892998888995E-01 
    5.5666805333606262E-01 
    5.7829486804160291E-01 
    5.3130364824067466E-01 
    5.6143454771692525E-01 
    5.7162678029759240E-01 
    5.7948553499462885E-01 
    5.7780363107305566E-01 
    5.7034049950134291E-01 
    5.5974044171272175E-01 
    5.4824377315170614E-01 
    5.3680765523157636E-01 
    5.2492405156160948E-01 
    5.1451581623415055E-01 
    5.0804316800134686E-01 
    5.0689010687598146E-01 
    5.1256289817120637E-01 
    5.2953445200725624E-01 
    5.6288588943196050E-01 
    5.3672085900313693E-01 
    4.4479180247427980E-01 
    4.6714612712108811E-01 
    4.8516948592039211E-01 
    4.9219386575847651E-01 
    4.8925922315436743E-01 
    4.7959474737100954E-01 
    4.6506597972391223E-01 
    4.4918259035605745E-01 
    4.3235974397232541E-01 
    4.0454566016124999E-01 
    3.7481844585883345E-01 
    3.5826360322169060E-01 
    3.8864091768802045E-01 
    4.4978828490458433E-01 
    5.2579852541750971E-01 
    5.3685364094164989E-01 
    5.3937892525375813E-02 
    1.2267199862534953E-01 
    1.4154254272412370E-01 
    1.7032648643925788E-01 
    1.3341682548931832E-01 
    1.3420603767940481E-01 
    8.5720466240632953E-02 
    7.5682290894269130E-02 
    3.4498111642170898E-02 
    1.9450290718164752E-02 
    1.3785353489363543E-02 
    1.8638450846385306E-02 
    5.5938660333064369E-02 
    2.0432405973910783E-01 
    3.5804845027840759E-01 
    4.8633437804136426E-01 
