# vtk DataFile Version 2.0
Pressure Field Data 
ASCII 
DATASET UNSTRUCTURED_GRID 

POINTS 289 double 

    0.0000000000000000E+00     0.0000000000000000E+00     0.0000000000000000E+00 
    1.0000000000000000E+00     0.0000000000000000E+00     0.0000000000000000E+00 
    1.0000000000000000E+00     1.0000000000000000E+00     0.0000000000000000E+00 
    0.0000000000000000E+00     1.0000000000000000E+00     0.0000000000000000E+00 
    6.2499999999872928E-02     0.0000000000000000E+00     0.0000000000000000E+00 
    1.2499999999977310E-01     0.0000000000000000E+00     0.0000000000000000E+00 
    1.8749999999959341E-01     0.0000000000000000E+00     0.0000000000000000E+00 
    2.4999999999941089E-01     0.0000000000000000E+00     0.0000000000000000E+00 
    3.1249999999922851E-01     0.0000000000000000E+00     0.0000000000000000E+00 
    3.7499999999904610E-01     0.0000000000000000E+00     0.0000000000000000E+00 
    4.3749999999886358E-01     0.0000000000000000E+00     0.0000000000000000E+00 
    4.9999999999869210E-01     0.0000000000000000E+00     0.0000000000000000E+00 
    5.6249999999884603E-01     0.0000000000000000E+00     0.0000000000000000E+00 
    6.2499999999901090E-01     0.0000000000000000E+00     0.0000000000000000E+00 
    6.8749999999917577E-01     0.0000000000000000E+00     0.0000000000000000E+00 
    7.4999999999934064E-01     0.0000000000000000E+00     0.0000000000000000E+00 
    8.1249999999950551E-01     0.0000000000000000E+00     0.0000000000000000E+00 
    8.7499999999967026E-01     0.0000000000000000E+00     0.0000000000000000E+00 
    9.3749999999983513E-01     0.0000000000000000E+00     0.0000000000000000E+00 
    1.0000000000000000E+00     6.2499999999872928E-02     0.0000000000000000E+00 
    1.0000000000000000E+00     1.2499999999977310E-01     0.0000000000000000E+00 
    1.0000000000000000E+00     1.8749999999959341E-01     0.0000000000000000E+00 
    1.0000000000000000E+00     2.4999999999941089E-01     0.0000000000000000E+00 
    1.0000000000000000E+00     3.1249999999922851E-01     0.0000000000000000E+00 
    1.0000000000000000E+00     3.7499999999904610E-01     0.0000000000000000E+00 
    1.0000000000000000E+00     4.3749999999886358E-01     0.0000000000000000E+00 
    1.0000000000000000E+00     4.9999999999869210E-01     0.0000000000000000E+00 
    1.0000000000000000E+00     5.6249999999884603E-01     0.0000000000000000E+00 
    1.0000000000000000E+00     6.2499999999901090E-01     0.0000000000000000E+00 
    1.0000000000000000E+00     6.8749999999917577E-01     0.0000000000000000E+00 
    1.0000000000000000E+00     7.4999999999934064E-01     0.0000000000000000E+00 
    1.0000000000000000E+00     8.1249999999950551E-01     0.0000000000000000E+00 
    1.0000000000000000E+00     8.7499999999967026E-01     0.0000000000000000E+00 
    1.0000000000000000E+00     9.3749999999983513E-01     0.0000000000000000E+00 
    9.3749999999973976E-01     1.0000000000000000E+00     0.0000000000000000E+00 
    8.7499999999950118E-01     1.0000000000000000E+00     0.0000000000000000E+00 
    8.1249999999991318E-01     1.0000000000000000E+00     0.0000000000000000E+00 
    7.5000000000034706E-01     1.0000000000000000E+00     0.0000000000000000E+00 
    6.8750000000078049E-01     1.0000000000000000E+00     0.0000000000000000E+00 
    6.2500000000121403E-01     1.0000000000000000E+00     0.0000000000000000E+00 
    5.6250000000164757E-01     1.0000000000000000E+00     0.0000000000000000E+00 
    5.0000000000205946E-01     1.0000000000000000E+00     0.0000000000000000E+00 
    4.3750000000182099E-01     1.0000000000000000E+00     0.0000000000000000E+00 
    3.7500000000156092E-01     1.0000000000000000E+00     0.0000000000000000E+00 
    3.1250000000130068E-01     1.0000000000000000E+00     0.0000000000000000E+00 
    2.5000000000104050E-01     1.0000000000000000E+00     0.0000000000000000E+00 
    1.8750000000078040E-01     1.0000000000000000E+00     0.0000000000000000E+00 
    1.2500000000052031E-01     1.0000000000000000E+00     0.0000000000000000E+00 
    6.2500000000260125E-02     1.0000000000000000E+00     0.0000000000000000E+00 
    0.0000000000000000E+00     9.3749999999973976E-01     0.0000000000000000E+00 
    0.0000000000000000E+00     8.7499999999950118E-01     0.0000000000000000E+00 
    0.0000000000000000E+00     8.1249999999991318E-01     0.0000000000000000E+00 
    0.0000000000000000E+00     7.5000000000034706E-01     0.0000000000000000E+00 
    0.0000000000000000E+00     6.8750000000078049E-01     0.0000000000000000E+00 
    0.0000000000000000E+00     6.2500000000121403E-01     0.0000000000000000E+00 
    0.0000000000000000E+00     5.6250000000164757E-01     0.0000000000000000E+00 
    0.0000000000000000E+00     5.0000000000205946E-01     0.0000000000000000E+00 
    0.0000000000000000E+00     4.3750000000182099E-01     0.0000000000000000E+00 
    0.0000000000000000E+00     3.7500000000156092E-01     0.0000000000000000E+00 
    0.0000000000000000E+00     3.1250000000130068E-01     0.0000000000000000E+00 
    0.0000000000000000E+00     2.5000000000104050E-01     0.0000000000000000E+00 
    0.0000000000000000E+00     1.8750000000078040E-01     0.0000000000000000E+00 
    0.0000000000000000E+00     1.2500000000052031E-01     0.0000000000000000E+00 
    0.0000000000000000E+00     6.2500000000260125E-02     0.0000000000000000E+00 
    6.2499999999897131E-02     6.2500000000235922E-02     0.0000000000000000E+00 
    6.2499999999921327E-02     1.2500000000047351E-01     0.0000000000000000E+00 
    6.2499999999945530E-02     1.8750000000070621E-01     0.0000000000000000E+00 
    6.2499999999969733E-02     2.5000000000093858E-01     0.0000000000000000E+00 
    6.2499999999993928E-02     3.1250000000117117E-01     0.0000000000000000E+00 
    6.2500000000018124E-02     3.7500000000140382E-01     0.0000000000000000E+00 
    6.2500000000042327E-02     4.3750000000163619E-01     0.0000000000000000E+00 
    6.2500000000066530E-02     5.0000000000184897E-01     0.0000000000000000E+00 
    6.2500000000090733E-02     5.6250000000147260E-01     0.0000000000000000E+00 
    6.2500000000114922E-02     6.2500000000107636E-01     0.0000000000000000E+00 
    6.2500000000139125E-02     6.8750000000068034E-01     0.0000000000000000E+00 
    6.2500000000163328E-02     7.5000000000028411E-01     0.0000000000000000E+00 
    6.2500000000187531E-02     8.1249999999988787E-01     0.0000000000000000E+00 
    6.2500000000211720E-02     8.7499999999951172E-01     0.0000000000000000E+00 
    6.2500000000235922E-02     9.3749999999974565E-01     0.0000000000000000E+00 
    1.2499999999981980E-01     6.2500000000211733E-02     0.0000000000000000E+00 
    1.2499999999986650E-01     1.2500000000042691E-01     0.0000000000000000E+00 
    1.2499999999991319E-01     1.8750000000063199E-01     0.0000000000000000E+00 
    1.2499999999995989E-01     2.5000000000083678E-01     0.0000000000000000E+00 
    1.2500000000000661E-01     3.1250000000104172E-01     0.0000000000000000E+00 
    1.2500000000005329E-01     3.7500000000124661E-01     0.0000000000000000E+00 
    1.2500000000010000E-01     4.3750000000145117E-01     0.0000000000000000E+00 
    1.2500000000014669E-01     5.0000000000163858E-01     0.0000000000000000E+00 
    1.2500000000019340E-01     5.6250000000129741E-01     0.0000000000000000E+00 
    1.2500000000024011E-01     6.2500000000093847E-01     0.0000000000000000E+00 
    1.2500000000028680E-01     6.8750000000057998E-01     0.0000000000000000E+00 
    1.2500000000033351E-01     7.5000000000022127E-01     0.0000000000000000E+00 
    1.2500000000038020E-01     8.1249999999986211E-01     0.0000000000000000E+00 
    1.2500000000042691E-01     8.7499999999952238E-01     0.0000000000000000E+00 
    1.2500000000047359E-01     9.3749999999975164E-01     0.0000000000000000E+00 
    1.8749999999966760E-01     6.2500000000187531E-02     0.0000000000000000E+00 
    1.8749999999974179E-01     1.2500000000038020E-01     0.0000000000000000E+00 
    1.8749999999981601E-01     1.8750000000055780E-01     0.0000000000000000E+00 
    1.8749999999989009E-01     2.5000000000073502E-01     0.0000000000000000E+00 
    1.8749999999996431E-01     3.1250000000091221E-01     0.0000000000000000E+00 
    1.8750000000003850E-01     3.7500000000108941E-01     0.0000000000000000E+00 
    1.8750000000011269E-01     4.3750000000126649E-01     0.0000000000000000E+00 
    1.8750000000018691E-01     5.0000000000142808E-01     0.0000000000000000E+00 
    1.8750000000026110E-01     5.6250000000112244E-01     0.0000000000000000E+00 
    1.8750000000033529E-01     6.2500000000080080E-01     0.0000000000000000E+00 
    1.8750000000040951E-01     6.8750000000047962E-01     0.0000000000000000E+00 
    1.8750000000048361E-01     7.5000000000015843E-01     0.0000000000000000E+00 
    1.8750000000055780E-01     8.1249999999983680E-01     0.0000000000000000E+00 
    1.8750000000063199E-01     8.7499999999953304E-01     0.0000000000000000E+00 
    1.8750000000070621E-01     9.3749999999975764E-01     0.0000000000000000E+00 
    2.4999999999951281E-01     6.2500000000163314E-02     0.0000000000000000E+00 
    2.4999999999961461E-01     1.2500000000033351E-01     0.0000000000000000E+00 
    2.4999999999971650E-01     1.8750000000048361E-01     0.0000000000000000E+00 
    2.4999999999981831E-01     2.5000000000063310E-01     0.0000000000000000E+00 
    2.4999999999992020E-01     3.1250000000078260E-01     0.0000000000000000E+00 
    2.5000000000002198E-01     3.7500000000093209E-01     0.0000000000000000E+00 
    2.5000000000012390E-01     4.3750000000108180E-01     0.0000000000000000E+00 
    2.5000000000022571E-01     5.0000000000121769E-01     0.0000000000000000E+00 
    2.5000000000032763E-01     5.6250000000094724E-01     0.0000000000000000E+00 
    2.5000000000042938E-01     6.2500000000066314E-01     0.0000000000000000E+00 
    2.5000000000053119E-01     6.8750000000037925E-01     0.0000000000000000E+00 
[...]
CELL_DATA 256 
SCALARS Pressure double 1 
LOOKUP_TABLE default 

    1.0113433579391637E+00 
    9.5642807349767012E-01 
    9.1696658460939684E-01 
    8.7808603892906112E-01 
    8.3649181478592627E-01 
    7.9176269298259028E-01 
    7.4414416411544759E-01 
    6.9397147105169310E-01 
    6.4106091522754660E-01 
    5.8269009984768083E-01 
    5.1494116313631078E-01 
    4.5016964406764143E-01 
    3.9820965175361089E-01 
    3.5767452959927348E-01 
    3.3184706805809966E-01 
    3.2139031147655966E-01 
    9.9743385666774798E-01 
    9.5820170590790033E-01 
    9.2004526575070322E-01 
    8.8158260633128815E-01 
    8.4041519472535797E-01 
    7.9606943669114349E-01 
    7.4875789172255902E-01 
    6.9885159220122794E-01 
    6.4624867835991295E-01 
    5.8824437424900755E-01 
    5.2068898805018105E-01 
    4.5519433786959573E-01 
    4.0185319206441089E-01 
    3.5974088849045693E-01 
    3.3235040786683667E-01 
    3.2095857301586322E-01 
    9.8660750929646224E-01 
    9.5762531471712642E-01 
    9.2216413634632610E-01 
    8.8451619786279945E-01 
    8.4391339986336944E-01 
    8.0003657659785588E-01 
    7.5308457167065246E-01 
    7.0345589183417490E-01 
    6.5108152863679225E-01 
    5.9314676847062520E-01 
    5.2561431693481220E-01 
    4.5952304892804868E-01 
    4.0463407299374859E-01 
    3.6065354746201561E-01 
    3.3153397550350777E-01 
    3.1936206326369687E-01 
    9.7774250370761095E-01 
    9.5569425689239074E-01 
    9.2334667501309742E-01 
    8.8689477249785675E-01 
    8.4699892505937591E-01 
    8.0366900036079425E-01 
    7.5713452353591715E-01 
    7.0780232883742111E-01 
    6.5559793421103663E-01 
    5.9747173005547416E-01 
    5.2983138616433201E-01 
    4.6324984840129668E-01 
    4.0663348936096289E-01 
    3.6045089414854559E-01 
    3.2931597299827881E-01 
    3.1637728545381394E-01 
    9.7019709242849705E-01 
    9.5296084358736899E-01 
    9.2371298299407478E-01 
    8.8875090697797610E-01 
    8.4971096258357659E-01 
    8.0699984869193297E-01 
    7.6093353440983724E-01 
    7.1191739572725277E-01 
    6.5984475331168324E-01 
    6.0128129263120689E-01 
    5.3343654083857617E-01 
    4.6649541620160939E-01 
    4.0795540796577856E-01 
    3.5918468342474569E-01 
    3.2561131027535051E-01 
    3.1177294867705918E-01 
    9.6371962247966358E-01 
    9.4984808665128517E-01 
    9.2345566725253936E-01 
    8.9015422585214055E-01 
    8.5210666734538543E-01 
    8.1007767860486490E-01 
    7.6451516250730200E-01 
    7.1582727773591504E-01 
    6.6384197344148266E-01 
    6.0463086102055286E-01 
    5.3654318217415720E-01 
    4.6939430926377163E-01 
    4.0873010084880196E-01 
    3.5693107642771016E-01 
    3.2033608280391584E-01 
    3.0529010862593770E-01 
    9.5814898873721333E-01 
    9.4665115593906390E-01 
    9.2277883599152377E-01 
    8.9119515808230909E-01 
    8.5424465090782331E-01 
    8.1295470562243233E-01 
    7.6791729570105594E-01 
    7.1955687780609889E-01 
    6.6753836872763817E-01 
    6.0756514706211318E-01 
    5.3933772005878500E-01 
    4.7206885750518135E-01 
    4.0911650816884870E-01 
    3.5380445778264724E-01 
    3.1341739525769780E-01 
    2.9663101916984996E-01 
    9.5337059512860733E-01 
    9.4356620908127320E-01 
    9.2186619997757990E-01 
    8.9197295168237190E-01 
    8.5618525629894737E-01 
    8.1568395728278775E-01 
    7.7118637712409588E-01 
    7.2313036013915111E-01 
    6.7080664930875689E-01 
    6.1011294249019599E-01 
    5.4209879667424399E-01 
    4.7463680358932986E-01 
    4.0930351956784450E-01 
    3.4997074313528487E-01 
    3.0480426004783684E-01 
    2.8543366518852770E-01 
    9.4930997756286428E-01 
    9.4073036448354053E-01 
    9.2088083147580024E-01 
    8.9259386478945923E-01 
    8.5799423250063866E-01 
    8.1831866089746175E-01 
    7.7436549696764378E-01 
    7.2651877710213020E-01 
    6.7356451624448188E-01 
    6.1242496647381184E-01 
    5.4514998274402782E-01 
    4.7725446073386957E-01 
    4.0951535890486124E-01 
    3.4566774252435462E-01 
    2.9449275778940542E-01 
    2.7124507149352567E-01 
    9.4593863989277527E-01 
    9.3825799777381558E-01 
    9.1996849458945029E-01 
    8.9316714986693202E-01 
    8.5974442024716335E-01 
    8.2089783414074380E-01 
    7.7743592688435781E-01 
    7.2951520857116969E-01 
    6.7584684116385030E-01 
    6.1487442053031371E-01 
    5.4863642552726677E-01 
    4.8011851465824690E-01 
    4.1001228393130268E-01 
    3.4122696174616834E-01 
    2.8256522095929371E-01 
    2.5347791835653422E-01 
    9.4322667817063111E-01 
    9.3622674607112122E-01 
    9.1924240857599426E-01 
    8.9378283120106705E-01 
    8.6147526049219281E-01 
    8.2334388430646499E-01 
    7.8014289821178684E-01 
    7.3197728646440174E-01 
    6.7807028782446277E-01 
    6.1788414099181610E-01 
    5.5248405908143094E-01 
    4.8340312517541367E-01 
    4.1108059967053961E-01 
    3.3709776931680185E-01 
    2.6926076367980650E-01 
    2.3135649920142645E-01 
    9.4094201011857415E-01 
    9.3453050779750035E-01 
    9.1866036783338056E-01 
    8.9432761340122302E-01 
    8.6294045758273696E-01 
    8.2539842704485056E-01 
    7.8240489059343976E-01 
    7.3436823060722800E-01 
    6.8088692161937503E-01 
    6.2153230014698546E-01 
    5.5667968103233867E-01 
    4.8724086399204686E-01 
    4.1301067609429787E-01 
    3.3386315696874069E-01 
    2.5508985941404411E-01 
    2.0383078768846433E-01 
    9.3876576763015296E-01 
    9.3278697313170955E-01 
    9.1790407519864647E-01 
    8.9462012258049173E-01 
    8.6410618667986128E-01 
    8.2728920268358419E-01 
    7.8485562490625083E-01 
    7.3731543127334187E-01 
    6.8439251991809291E-01 
    6.2564822597135117E-01 
    5.6130144018552142E-01 
    4.9172935403931212E-01 
    4.1606664015739325E-01 
    3.3223889596631873E-01 
    2.4103125071290327E-01 
    1.6945237253780424E-01 
    9.3718124898952604E-01 
    9.3146725518428919E-01 
    9.1742157247214240E-01 
    8.9516065497506814E-01 
    8.6559822277920717E-01 
    8.2962167871776771E-01 
    7.8787500963165802E-01 
    7.4082940041768441E-01 
    6.8838589571549746E-01 
    6.3022200663596561E-01 
    5.6639245612866540E-01 
    4.9692360237441929E-01 
    4.2044287255740725E-01 
    3.3302381334900094E-01 
    2.2886034907520192E-01 
    1.2618524533682932E-01 
    9.3637727995669773E-01 
    9.3100599990572430E-01 
    9.1774576234267580E-01 
    8.9639315846770518E-01 
    8.6767333829206117E-01 
    8.3242590595452315E-01 
    7.9131060522330388E-01 
    7.4479104102069116E-01 
    6.9285600229565381E-01 
    6.3525923668425877E-01 
    5.7196983355302822E-01 
    5.0282982726757086E-01 
    4.2621239798694527E-01 
    3.3694584987616860E-01 
    2.2170205763866388E-01 
    7.1117639456464626E-02 
    9.3615409181666098E-01 
    9.3121838476796226E-01 
    9.1871475213320042E-01 
    8.9819220576328995E-01 
    8.7024458085209988E-01 
    8.3568050469993549E-01 
    7.9517248121934447E-01 
    7.4919612544704861E-01 
    6.9779443320237333E-01 
    6.4076061355652691E-01 
    5.7803219878956447E-01 
    5.0940956641614332E-01 
    4.3328894714763672E-01 
    3.4429238655995592E-01 
    2.2495823242046112E-01 
    0.0000000000000000E+00 

SCALARS Saturarion double 1 
LOOKUP_TABLE default 

    1.0000000000001166E+00 
    9.4923521420043144E-01 
    8.7076634792470153E-01 
    7.7527410390745366E-01 
    7.0119164353649666E-01 
    6.4650770264787061E-01 
    6.0181101584710983E-01 
    5.6107436447773296E-01 
    5.1788099318781999E-01 
    4.3940475650772653E-01 
    1.4064421741554670E-01 
    1.0000002094870024E-06 
    1.0000000000003055E-06 
    9.9999999999999995E-07 
    9.9999999999999995E-07 
    9.9999999999999995E-07 
    9.7690344053663059E-01 
    9.2938238461656453E-01 
    8.4808167827058456E-01 
    7.6535689328165191E-01 
    6.9609272203268202E-01 
    6.4151272009011417E-01 
    5.9720247887685429E-01 
    5.5753035354388969E-01 
    5.1512074663357443E-01 
    4.3536247979446113E-01 
    1.3325051262668985E-01 
    2.0714354400343133E-06 
    1.0000007097762912E-06 
    1.0000000000003928E-06 
    9.9999999999999995E-07 
    9.9999999999999995E-07 
    9.3972087090417078E-01 
    8.9759471275059710E-01 
    8.1855877875741279E-01 
    7.4718217397620768E-01 
    6.8492844303520528E-01 
    6.3170223099988465E-01 
    5.8862524566269292E-01 
    5.5090817934830483E-01 
    5.0971229652585637E-01 
    4.2921363498895354E-01 
    1.2325370510275734E-01 
    3.5057529935329235E-06 
    1.0000021951947663E-06 
    1.0000000000005914E-06 
    9.9999999999999995E-07 
    9.9999999999999995E-07 
    8.7923470862068798E-01 
    8.4734506746080884E-01 
    7.8075561333431709E-01 
    7.1919969544228279E-01 
    6.6710608734952903E-01 
    6.2098287099382132E-01 
    5.8131349491885453E-01 
    5.4565104246044271E-01 
    5.0548757271913258E-01 
    4.2514679071060069E-01 
    1.1836729809124200E-01 
    1.9062953294174265E-06 
    1.0000016367685163E-06 
    9.9999999999999974E-07 
    9.9999999999999995E-07 
    9.9999999999999995E-07 
    8.2062186038639784E-01 
    7.9437826724572536E-01 
    7.4114766505227647E-01 
    6.8905315831461567E-01 
    6.4514873335719314E-01 
    6.0672753549732839E-01 
    5.7176805889224136E-01 
    5.3842292935260927E-01 
    4.9964182743182106E-01 
    4.1601126697977858E-01 
    1.0266349293648720E-01 
    1.1520704565041043E-05 
    1.0000173266968751E-06 
    1.0000000000078479E-06 
    9.9999999999999995E-07 
    9.9999999999999995E-07 
    7.6439504810283376E-01 
    7.4496505432058746E-01 
    7.0349737673010349E-01 
    6.5928949700052375E-01 
    6.2148758644465107E-01 
    5.8896377333623107E-01 
    5.5827126260979898E-01 
    5.2771270110081825E-01 
    4.8995819494000326E-01 
    3.9521757171060745E-01 
    7.0041160209563205E-02 
    2.9862316883665731E-05 
    1.0000676287807118E-06 
    1.0000000000089741E-06 
    9.9999999999999995E-07 
    9.9999999999999995E-07 
    7.1058279294542015E-01 
    6.9776885578212111E-01 
    6.6639158736362814E-01 
    6.2952646654904321E-01 
    5.9675560525196880E-01 
    5.6869591387230034E-01 
    5.4273711073312181E-01 
    5.1439260063672720E-01 
    4.7438581927726636E-01 
    3.4914324799106916E-01 
    2.7529185186468772E-02 
    1.8483381539633291E-05 
    1.0000380497985602E-06 
    9.9999999999999995E-07 
    9.9999999999999995E-07 
    9.9999999999999995E-07 
    6.5848366033524530E-01 
    6.5169589727782884E-01 
    6.3007505598177938E-01 
    6.0052352061380021E-01 
    5.7143838447480855E-01 
    5.4641245717307219E-01 
    5.2445197905532137E-01 
    4.9931912273684809E-01 
    4.5278771224144165E-01 
    2.5591347822361593E-01 
    3.4217985768527923E-03 
    1.4200836113962453E-06 
    1.0000001124300544E-06 
    1.0000000000000002E-06 
    9.9999999999999995E-07 
    9.9999999999999995E-07 
    6.0906072539596057E-01 
    6.0717484532339538E-01 
    5.9388437790924831E-01 
    5.7124590007865339E-01 
    5.4643521101229608E-01 
    5.2441395355993048E-01 
    5.0418740785122029E-01 
    4.7738667827282638E-01 
    4.0339175622160300E-01 
    1.2245060880887225E-01 
    2.0964546382491546E-04 
    1.0220995314303787E-06 
    1.0000000000000493E-06 
    9.9999999999999995E-07 
    9.9999999999999995E-07 
    9.9999999999999995E-07 
    5.6493328103720541E-01 
    5.6646925447718255E-01 
    5.5886983979529048E-01 
    5.4162957614652740E-01 
    5.2198341579490293E-01 
    5.0140731922119208E-01 
    4.7614650289009014E-01 
    4.2861398377559318E-01 
    2.5111486626398533E-01 
    1.2027937249724983E-02 
    7.4463230789619188E-06 
    1.0000048403878379E-06 
    1.0000000000000048E-06 
    9.9999999999999995E-07 
    9.9999999999999995E-07 
    9.9999999999999995E-07 
    5.2223463027165262E-01 
    5.2607369263477599E-01 
    5.2106664221565380E-01 
    5.0911693479943443E-01 
    4.9068049549239812E-01 
    4.6122564482537842E-01 
    3.9843607693065614E-01 
    2.2945469827264645E-01 
    3.2790107445873989E-02 
    5.5543109769621425E-05 
    1.0003191247588313E-06 
    1.0000000000008563E-06 
    9.9999999999999995E-07 
    9.9999999999999995E-07 
    9.9999999999999995E-07 
    9.9999999999999995E-07 
    4.2939106152899520E-01 
    4.4881300924802064E-01 
    4.5463169201618242E-01 
    4.3787396953244662E-01 
    3.7714576089381374E-01 
    2.4702971013383182E-01 
    1.0942854231924981E-01 
    6.1175718390943006E-03 
    2.7428180909729538E-05 
    1.0002042745818041E-06 
    1.0000000000473641E-06 
    9.9999999999999995E-07 
    9.9999999999999995E-07 
    9.9999999999999995E-07 
    9.9999999999999995E-07 
    9.9999999999999995E-07 
    9.1239539078410037E-02 
    1.6353704138905908E-01 
    1.7642131184605483E-01 
    1.2806445603051894E-01 
    4.6852629959715494E-02 
    2.6199463288958296E-03 
    1.3104439832793216E-04 
    1.5443283209753853E-06 
    1.0000274480841669E-06 
    1.0000000000092246E-06 
    9.9999999999999995E-07 
    9.9999999999999995E-07 
    9.9999999999999995E-07 
    9.9999999999999995E-07 
    9.9999999999999995E-07 
    9.9999999999999995E-07 
    1.0002988905632593E-06 
    4.5154395041014456E-05 
    1.5272374676875844E-05 
    4.6837411062010682E-05 
    4.2220832297548954E-05 
    1.1148019099173671E-06 
    1.0023952814925650E-06 
    1.0000000488114363E-06 
    1.0000000000000207E-06 
    9.9999999999999995E-07 
    9.9999999999999995E-07 
    9.9999999999999995E-07 
    9.9999999999999995E-07 
    9.9999999999999995E-07 
    9.9999999999999995E-07 
    9.9999999999999995E-07 
    1.0000000001593114E-06 
    1.0001823810330899E-06 
    1.0000670229949113E-06 
    1.0001842110220222E-06 
    1.0000994814156682E-06 
    1.0000000102492435E-06 
    1.0000000000000067E-06 
    1.0000000000000004E-06 
    9.9999999999999995E-07 
    9.9999999999999995E-07 
    9.9999999999999995E-07 
    9.9999999999999995E-07 
    9.9999999999999995E-07 
    9.9999999999999995E-07 
    9.9999999999999995E-07 
    9.9999999999999995E-07 
    9.9999999999999995E-07 
    1.0000000000179899E-06 
    1.0000000000000194E-06 
    1.0000000000113542E-06 
    9.9999999999999995E-07 
    9.9999999999999995E-07 
    9.9999999999999995E-07 
    9.9999999999999995E-07 
    9.9999999999999995E-07 
    9.9999999999999995E-07 
    9.9999999999999995E-07 
    9.9999999999999995E-07 
    9.9999999999999995E-07 
    9.9999999999999995E-07 
    9.9999999999999995E-07 
    1.0000003268757405E-06 
