# vtk DataFile Version 2.0
Pressure Field Data 
ASCII 
DATASET UNSTRUCTURED_GRID 

POINTS 289 double 

    0.0000000000000000E+00     0.0000000000000000E+00     0.0000000000000000E+00 
    1.0000000000000000E+00     0.0000000000000000E+00     0.0000000000000000E+00 
    1.0000000000000000E+00     1.0000000000000000E+00     0.0000000000000000E+00 
    0.0000000000000000E+00     1.0000000000000000E+00     0.0000000000000000E+00 
    6.2499999999872928E-02     0.0000000000000000E+00     0.0000000000000000E+00 
    1.2499999999977310E-01     0.0000000000000000E+00     0.0000000000000000E+00 
    1.8749999999959341E-01     0.0000000000000000E+00     0.0000000000000000E+00 
    2.4999999999941089E-01     0.0000000000000000E+00     0.0000000000000000E+00 
    3.1249999999922851E-01     0.0000000000000000E+00     0.0000000000000000E+00 
    3.7499999999904610E-01     0.0000000000000000E+00     0.0000000000000000E+00 
    4.3749999999886358E-01     0.0000000000000000E+00     0.0000000000000000E+00 
    4.9999999999869210E-01     0.0000000000000000E+00     0.0000000000000000E+00 
    5.6249999999884603E-01     0.0000000000000000E+00     0.0000000000000000E+00 
    6.2499999999901090E-01     0.0000000000000000E+00     0.0000000000000000E+00 
    6.8749999999917577E-01     0.0000000000000000E+00     0.0000000000000000E+00 
    7.4999999999934064E-01     0.0000000000000000E+00     0.0000000000000000E+00 
    8.1249999999950551E-01     0.0000000000000000E+00     0.0000000000000000E+00 
    8.7499999999967026E-01     0.0000000000000000E+00     0.0000000000000000E+00 
    9.3749999999983513E-01     0.0000000000000000E+00     0.0000000000000000E+00 
    1.0000000000000000E+00     6.2499999999872928E-02     0.0000000000000000E+00 
    1.0000000000000000E+00     1.2499999999977310E-01     0.0000000000000000E+00 
    1.0000000000000000E+00     1.8749999999959341E-01     0.0000000000000000E+00 
    1.0000000000000000E+00     2.4999999999941089E-01     0.0000000000000000E+00 
    1.0000000000000000E+00     3.1249999999922851E-01     0.0000000000000000E+00 
    1.0000000000000000E+00     3.7499999999904610E-01     0.0000000000000000E+00 
    1.0000000000000000E+00     4.3749999999886358E-01     0.0000000000000000E+00 
    1.0000000000000000E+00     4.9999999999869210E-01     0.0000000000000000E+00 
    1.0000000000000000E+00     5.6249999999884603E-01     0.0000000000000000E+00 
    1.0000000000000000E+00     6.2499999999901090E-01     0.0000000000000000E+00 
    1.0000000000000000E+00     6.8749999999917577E-01     0.0000000000000000E+00 
    1.0000000000000000E+00     7.4999999999934064E-01     0.0000000000000000E+00 
    1.0000000000000000E+00     8.1249999999950551E-01     0.0000000000000000E+00 
    1.0000000000000000E+00     8.7499999999967026E-01     0.0000000000000000E+00 
    1.0000000000000000E+00     9.3749999999983513E-01     0.0000000000000000E+00 
    9.3749999999973976E-01     1.0000000000000000E+00     0.0000000000000000E+00 
    8.7499999999950118E-01     1.0000000000000000E+00     0.0000000000000000E+00 
    8.1249999999991318E-01     1.0000000000000000E+00     0.0000000000000000E+00 
    7.5000000000034706E-01     1.0000000000000000E+00     0.0000000000000000E+00 
    6.8750000000078049E-01     1.0000000000000000E+00     0.0000000000000000E+00 
    6.2500000000121403E-01     1.0000000000000000E+00     0.0000000000000000E+00 
    5.6250000000164757E-01     1.0000000000000000E+00     0.0000000000000000E+00 
    5.0000000000205946E-01     1.0000000000000000E+00     0.0000000000000000E+00 
    4.3750000000182099E-01     1.0000000000000000E+00     0.0000000000000000E+00 
    3.7500000000156092E-01     1.0000000000000000E+00     0.0000000000000000E+00 
    3.1250000000130068E-01     1.0000000000000000E+00     0.0000000000000000E+00 
    2.5000000000104050E-01     1.0000000000000000E+00     0.0000000000000000E+00 
    1.8750000000078040E-01     1.0000000000000000E+00     0.0000000000000000E+00 
    1.2500000000052031E-01     1.0000000000000000E+00     0.0000000000000000E+00 
    6.2500000000260125E-02     1.0000000000000000E+00     0.0000000000000000E+00 
    0.0000000000000000E+00     9.3749999999973976E-01     0.0000000000000000E+00 
    0.0000000000000000E+00     8.7499999999950118E-01     0.0000000000000000E+00 
    0.0000000000000000E+00     8.1249999999991318E-01     0.0000000000000000E+00 
    0.0000000000000000E+00     7.5000000000034706E-01     0.0000000000000000E+00 
    0.0000000000000000E+00     6.8750000000078049E-01     0.0000000000000000E+00 
    0.0000000000000000E+00     6.2500000000121403E-01     0.0000000000000000E+00 
    0.0000000000000000E+00     5.6250000000164757E-01     0.0000000000000000E+00 
    0.0000000000000000E+00     5.0000000000205946E-01     0.0000000000000000E+00 
    0.0000000000000000E+00     4.3750000000182099E-01     0.0000000000000000E+00 
    0.0000000000000000E+00     3.7500000000156092E-01     0.0000000000000000E+00 
    0.0000000000000000E+00     3.1250000000130068E-01     0.0000000000000000E+00 
    0.0000000000000000E+00     2.5000000000104050E-01     0.0000000000000000E+00 
    0.0000000000000000E+00     1.8750000000078040E-01     0.0000000000000000E+00 
    0.0000000000000000E+00     1.2500000000052031E-01     0.0000000000000000E+00 
    0.0000000000000000E+00     6.2500000000260125E-02     0.0000000000000000E+00 
    6.2499999999897131E-02     6.2500000000235922E-02     0.0000000000000000E+00 
    6.2499999999921327E-02     1.2500000000047351E-01     0.0000000000000000E+00 
    6.2499999999945530E-02     1.8750000000070621E-01     0.0000000000000000E+00 
    6.2499999999969733E-02     2.5000000000093858E-01     0.0000000000000000E+00 
    6.2499999999993928E-02     3.1250000000117117E-01     0.0000000000000000E+00 
    6.2500000000018124E-02     3.7500000000140382E-01     0.0000000000000000E+00 
    6.2500000000042327E-02     4.3750000000163619E-01     0.0000000000000000E+00 
    6.2500000000066530E-02     5.0000000000184897E-01     0.0000000000000000E+00 
    6.2500000000090733E-02     5.6250000000147260E-01     0.0000000000000000E+00 
    6.2500000000114922E-02     6.2500000000107636E-01     0.0000000000000000E+00 
    6.2500000000139125E-02     6.8750000000068034E-01     0.0000000000000000E+00 
    6.2500000000163328E-02     7.5000000000028411E-01     0.0000000000000000E+00 
    6.2500000000187531E-02     8.1249999999988787E-01     0.0000000000000000E+00 
    6.2500000000211720E-02     8.7499999999951172E-01     0.0000000000000000E+00 
    6.2500000000235922E-02     9.3749999999974565E-01     0.0000000000000000E+00 
    1.2499999999981980E-01     6.2500000000211733E-02     0.0000000000000000E+00 
    1.2499999999986650E-01     1.2500000000042691E-01     0.0000000000000000E+00 
    1.2499999999991319E-01     1.8750000000063199E-01     0.0000000000000000E+00 
    1.2499999999995989E-01     2.5000000000083678E-01     0.0000000000000000E+00 
    1.2500000000000661E-01     3.1250000000104172E-01     0.0000000000000000E+00 
    1.2500000000005329E-01     3.7500000000124661E-01     0.0000000000000000E+00 
    1.2500000000010000E-01     4.3750000000145117E-01     0.0000000000000000E+00 
    1.2500000000014669E-01     5.0000000000163858E-01     0.0000000000000000E+00 
    1.2500000000019340E-01     5.6250000000129741E-01     0.0000000000000000E+00 
    1.2500000000024011E-01     6.2500000000093847E-01     0.0000000000000000E+00 
    1.2500000000028680E-01     6.8750000000057998E-01     0.0000000000000000E+00 
    1.2500000000033351E-01     7.5000000000022127E-01     0.0000000000000000E+00 
    1.2500000000038020E-01     8.1249999999986211E-01     0.0000000000000000E+00 
    1.2500000000042691E-01     8.7499999999952238E-01     0.0000000000000000E+00 
    1.2500000000047359E-01     9.3749999999975164E-01     0.0000000000000000E+00 
    1.8749999999966760E-01     6.2500000000187531E-02     0.0000000000000000E+00 
    1.8749999999974179E-01     1.2500000000038020E-01     0.0000000000000000E+00 
    1.8749999999981601E-01     1.8750000000055780E-01     0.0000000000000000E+00 
    1.8749999999989009E-01     2.5000000000073502E-01     0.0000000000000000E+00 
    1.8749999999996431E-01     3.1250000000091221E-01     0.0000000000000000E+00 
    1.8750000000003850E-01     3.7500000000108941E-01     0.0000000000000000E+00 
    1.8750000000011269E-01     4.3750000000126649E-01     0.0000000000000000E+00 
    1.8750000000018691E-01     5.0000000000142808E-01     0.0000000000000000E+00 
    1.8750000000026110E-01     5.6250000000112244E-01     0.0000000000000000E+00 
    1.8750000000033529E-01     6.2500000000080080E-01     0.0000000000000000E+00 
    1.8750000000040951E-01     6.8750000000047962E-01     0.0000000000000000E+00 
    1.8750000000048361E-01     7.5000000000015843E-01     0.0000000000000000E+00 
    1.8750000000055780E-01     8.1249999999983680E-01     0.0000000000000000E+00 
    1.8750000000063199E-01     8.7499999999953304E-01     0.0000000000000000E+00 
    1.8750000000070621E-01     9.3749999999975764E-01     0.0000000000000000E+00 
    2.4999999999951281E-01     6.2500000000163314E-02     0.0000000000000000E+00 
    2.4999999999961461E-01     1.2500000000033351E-01     0.0000000000000000E+00 
    2.4999999999971650E-01     1.8750000000048361E-01     0.0000000000000000E+00 
    2.4999999999981831E-01     2.5000000000063310E-01     0.0000000000000000E+00 
    2.4999999999992020E-01     3.1250000000078260E-01     0.0000000000000000E+00 
    2.5000000000002198E-01     3.7500000000093209E-01     0.0000000000000000E+00 
    2.5000000000012390E-01     4.3750000000108180E-01     0.0000000000000000E+00 
    2.5000000000022571E-01     5.0000000000121769E-01     0.0000000000000000E+00 
    2.5000000000032763E-01     5.6250000000094724E-01     0.0000000000000000E+00 
    2.5000000000042938E-01     6.2500000000066314E-01     0.0000000000000000E+00 
    2.5000000000053119E-01     6.8750000000037925E-01     0.0000000000000000E+00 
[...]
CELL_DATA 256 
SCALARS Pressure double 1 
LOOKUP_TABLE default 

    7.9885843171713788E-01 
    7.4784244595553995E-01 
    7.1421803405019801E-01 
    6.8298417234346587E-01 
    6.5072995493868091E-01 
    6.1662910607063193E-01 
    5.8055277475986167E-01 
    5.4280438605285131E-01 
    5.0388786129753127E-01 
    4.6446981673316701E-01 
    4.2544511653354605E-01 
    3.8822699262668303E-01 
    3.5510397279023570E-01 
    3.2893763010683219E-01 
    3.1038092051941485E-01 
    3.0151907041939602E-01 
    7.8490492964153757E-01 
    7.4924744178128022E-01 
    7.1678304683110150E-01 
    6.8583035246789348E-01 
    6.5382422455768130E-01 
    6.1996178928971579E-01 
    5.8409080389336154E-01 
    5.4648520735059691E-01 
    5.0762217343227978E-01 
    4.6813649647940314E-01 
    4.2887268192456496E-01 
    3.9116460419970217E-01 
    3.5724176070282182E-01 
    3.3007448592177918E-01 
    3.1064519598321721E-01 
    3.0113519692236901E-01 
    7.7418869536666068E-01 
    7.4848015561032144E-01 
    7.1855915647427904E-01 
    6.8830243366069899E-01 
    6.5667615533651669E-01 
    6.2310806954695697E-01 
    5.8747278605946485E-01 
    5.5002180095505881E-01 
    5.1119787532810657E-01 
    4.7158987598315694E-01 
    4.3197944125876409E-01 
    3.9360844108789356E-01 
    3.5864321906158492E-01 
    3.3019128505533113E-01 
    3.0977086141128241E-01 
    2.9973024679325089E-01 
    7.6572072448917683E-01 
    7.4658952841855608E-01 
    7.1958369813889822E-01 
    6.9038278689221089E-01 
    6.5928734752678209E-01 
    6.2607725157234284E-01 
    5.9070742984397384E-01 
    5.5342390925376828E-01 
    5.1463348287036903E-01 
    4.7486713928320079E-01 
    4.3482645083631072E-01 
    3.9563946766285851E-01 
    3.5938900344151165E-01 
    3.2933145112781720E-01 
    3.0767477549698874E-01 
    2.9706622843159303E-01 
    7.5884759912502942E-01 
    7.4415780509430518E-01 
    7.1998682029828132E-01 
    6.9208084149213778E-01 
    6.6166122069425859E-01 
    6.2888088137704656E-01 
    5.9381049436964672E-01 
    5.5670971641764921E-01 
    5.1795413756134234E-01 
    4.7800984455725226E-01 
    4.3747969761179895E-01 
    3.9734839063410737E-01 
    3.5957468082039690E-01 
    3.2754621207878354E-01 
    3.0426344989896736E-01 
    2.9287765665126458E-01 
    7.5319266675582563E-01 
    7.4153796707589426E-01 
    7.1992300391068897E-01 
    6.9343281213355623E-01 
    6.6380833028568331E-01 
    6.3153048724066829E-01 
    5.9680076438435958E-01 
    5.5990397675691161E-01 
    5.2119125614801876E-01 
    4.8106332346209413E-01 
    4.4000792725451293E-01 
    3.9883385446584890E-01 
    3.5931299526563626E-01 
    3.2490183238796760E-01 
    2.9944749084263317E-01 
    2.8689470065693728E-01 
    7.4851233701215758E-01 
    7.3895376411023284E-01 
    7.1955015816768431E-01 
    6.9450031874358542E-01 
    6.6575268858278192E-01 
    6.3404108359401923E-01 
    5.9969512730696672E-01 
    5.6303159813838133E-01 
    5.2437975892110411E-01 
    4.8407563795913988E-01 
    4.4248348652636132E-01 
    4.0020208770143090E-01 
    3.5873658045184881E-01 
    3.2149545254714501E-01 
    2.9316221631591660E-01 
    2.7883643095362293E-01 
    7.4463445087539526E-01 
    7.3654221166448575E-01 
    7.1900955609612993E-01 
    6.9535600566827660E-01 
    6.6752904508411026E-01 
    6.3643248498851079E-01 
    6.0251065944160576E-01 
    5.6611376510161404E-01 
    5.2755071589943292E-01 
    4.8709465659682905E-01 
    4.4498145814179080E-01 
    4.0156958557052702E-01 
    3.5800247291194082E-01 
    3.1746454025159621E-01 
    2.8537706082262071E-01 
    2.6840535817944366E-01 
    7.4143441738186855E-01 
    7.3438313464399174E-01 
    7.1841677529509596E-01 
    6.9607389404184949E-01 
    6.6917753030561555E-01 
    6.3872828283121119E-01 
    6.0526435272203261E-01 
    5.6916768901513248E-01 
    5.3072909837158566E-01 
    4.9016271865742894E-01 
    4.4757565951774503E-01 
    4.0306092382140701E-01 
    3.5729816457583552E-01 
    3.1300648817941368E-01 
    2.7610684308873901E-01 
    2.5525038664737321E-01 
    7.3882151266549101E-01 
    7.3252223533665017E-01 
    7.1786255688088518E-01 
    6.9672430702878507E-01 
    6.7074263900844688E-01 
    6.4095581966123549E-01 
    6.0797513145535065E-01 
    5.7220960490996453E-01 
    5.3393527624500237E-01 
    4.9331533389858973E-01 
    4.5033389500916665E-01 
    4.0480385127653162E-01 
    3.5684049070785900E-01 
    3.0839483216898922E-01 
    2.6542932574736017E-01 
    2.3890040436687202E-01 
    7.3672981923881420E-01 
    7.3098780710930766E-01 
    7.1742089410264520E-01 
    6.9737476714838487E-01 
    6.7227313268862554E-01 
    6.4314859921177248E-01 
    6.1066646272524638E-01 
    5.7525940836122580E-01 
    5.3719079996790364E-01 
    4.9658338281827258E-01 
    4.5331472917559756E-01 
    4.0692290141834664E-01 
    3.5687384003244543E-01 
    3.0400343147087922E-01 
    2.5354379509486069E-01 
    2.1872660459819632E-01 
    7.3511554104149612E-01 
    7.2980442798865064E-01 
    7.1715943472107113E-01 
    6.9809419914567750E-01 
    6.7382381903783539E-01 
    6.4534704758785466E-01 
    6.1337040272396759E-01 
    5.7834411454096113E-01 
    5.4051766046972360E-01 
    4.9998774774186427E-01 
    4.5655444853794597E-01 
    4.0952054989291625E-01 
    3.5765680963674418E-01 
    3.0032767743884015E-01 
    2.4085928397336312E-01 
    1.9387681880168009E-01 
    7.3395395320395884E-01 
    7.2900322792050709E-01 
    7.1714647597074710E-01 
    6.9895340964253305E-01 
    6.7545033089388185E-01 
    6.4759075868668392E-01 
    6.1611830130938117E-01 
    5.8148779373442294E-01 
    5.4392203547352569E-01 
    5.0350605697072681E-01 
    4.6001296954605814E-01 
    4.1259222556127695E-01 
    3.5934891292060017E-01 
    2.9788990082496442E-01 
    2.2803457260679760E-01 
    1.6306240475428013E-01 
    7.3313065523700283E-01 
    7.2853979156674964E-01 
    7.1739601761191796E-01 
    6.9998284810416145E-01 
    6.7716569446422792E-01 
    6.4985044162739325E-01 
    6.1883354002689184E-01 
    5.8459226272599363E-01 
    5.4729119349464650E-01 
    5.0700127553741237E-01 
    4.6350825737427320E-01 
    4.1589053944650833E-01 
    3.6180394559892159E-01 
    2.9700290264809459E-01 
    2.1592037815779849E-01 
    1.2395448841932916E-01 
    7.3254892444292041E-01 
    7.2828215014575703E-01 
    7.1778925594665699E-01 
    7.0109420993169114E-01 
    6.7891080249328584E-01 
    6.5209334765960481E-01 
    6.2148677948094422E-01 
    5.8762741290425147E-01 
    5.5063894512896150E-01 
    5.1057250520678221E-01 
    4.6723013512633166E-01 
    4.1968284301170472E-01 
    3.6544829995162709E-01 
    2.9876351815530017E-01 
    2.0672040076701609E-01 
    7.2208155580080022E-02 
    7.3236455387292787E-01 
    7.2844109426717552E-01 
    7.1854089553001033E-01 
    7.0248779930258554E-01 
    6.8088623008467808E-01 
    6.5455200747163023E-01 
    6.2434147916646421E-01 
    5.9084093063782084E-01 
    5.5418854327445932E-01 
    5.1442700765603300E-01 
    4.7137874809407931E-01 
    4.2415955963355151E-01 
    3.7040588388660239E-01 
    3.0419256840532954E-01 
    2.0700450342866727E-01 
    0.0000000000000000E+00 

SCALARS Saturarion double 1 
LOOKUP_TABLE default 

    1.0000000000000011E+00 
    9.7048692726851993E-01 
    9.1819075560416741E-01 
    8.5264684301929106E-01 
    7.9704792993428997E-01 
    7.4956283521463851E-01 
    7.0981188048145039E-01 
    6.7625314284385230E-01 
    6.4697925736086881E-01 
    6.2027417449955691E-01 
    5.9464942905174245E-01 
    5.6881578511539077E-01 
    5.4151223559897055E-01 
    5.0453245624243448E-01 
    3.4560153352054135E-01 
    6.3545282186136098E-03 
    9.8828070527397782E-01 
    9.6030056517383011E-01 
    9.0554792556703767E-01 
    8.4394856307964972E-01 
    7.9156974793354729E-01 
    7.4618269672881532E-01 
    7.0726201725144366E-01 
    6.7387187185709030E-01 
    6.4475160840865398E-01 
    6.1845142100563189E-01 
    5.9362999143157413E-01 
    5.6887350451374963E-01 
    5.4264837574560421E-01 
    5.0717271357908877E-01 
    3.6770484921996011E-01 
    1.6069990234088241E-02 
    9.6985861595649270E-01 
    9.4233448832116440E-01 
    8.8783151601455490E-01 
    8.2915502886801240E-01 
    7.8069871439477645E-01 
    7.3888888572647871E-01 
    7.0189350901876701E-01 
    6.6900129341776760E-01 
    6.3996411314106250E-01 
    6.1410151721222117E-01 
    5.9044147673323999E-01 
    5.6738661183019123E-01 
    5.4304665153594034E-01 
    5.1036565348544172E-01 
    3.8982089833992972E-01 
    3.4830519839582345E-02 
    9.3756207804924341E-01 
    9.1496200572918607E-01 
    8.6648815894293485E-01 
    8.1217549750022289E-01 
    7.6546856208655967E-01 
    7.2671322808057159E-01 
    6.9270730386899437E-01 
    6.6208995769082590E-01 
    6.3442516929126003E-01 
    6.0963162813106875E-01 
    5.8697870093574744E-01 
    5.6533347068347162E-01 
    5.4289500211307862E-01 
    5.1382514818410996E-01 
    4.1049087179634919E-01 
    6.7246936239637123E-02 
    8.9992818246323425E-01 
    8.8072878603763671E-01 
    8.3840834607740022E-01 
    7.8995780617933808E-01 
    7.4643480107818716E-01 
    7.0998171087092554E-01 
    6.7892663652345764E-01 
    6.5145297265217117E-01 
    6.2665976050981154E-01 
    6.0409574194794702E-01 
    5.8328452844705325E-01 
    5.6328715345976599E-01 
    5.4254781069479341E-01 
    5.1636613576412049E-01 
    4.2696838515904367E-01 
    1.0121340299136494E-01 
    8.6003047814463762E-01 
    8.4434724264716898E-01 
    8.0832800249082282E-01 
    7.6569176811691408E-01 
    7.2607619059219086E-01 
    6.9178027118244245E-01 
    6.6239866709611805E-01 
    6.3735186695685953E-01 
    6.1546386018604970E-01 
    5.9569043539981603E-01 
    5.7740872996202297E-01 
    5.6003014337229062E-01 
    5.4190714775302995E-01 
    5.1886775285357867E-01 
    4.4068406755432182E-01 
    1.3683433011471280E-01 
    8.1813983688064607E-01 
    8.0667097872393656E-01 
    7.7738785905912566E-01 
    7.4033942510076745E-01 
    7.0464864697940888E-01 
    6.7293756294324258E-01 
    6.4559262197682177E-01 
    6.2203441285370009E-01 
    6.0192914038445477E-01 
    5.8451282894385792E-01 
    5.6900203392153081E-01 
    5.5458430382888213E-01 
    5.3993365823316986E-01 
    5.2079802110280160E-01 
    4.5302545799904126E-01 
    1.7345549782722891E-01 
    7.7431458543326770E-01 
    7.6737899750304561E-01 
    7.4530471131501697E-01 
    7.1402334789158128E-01 
    6.8187682664653637E-01 
    6.5271941898539343E-01 
    6.2721521816545700E-01 
    6.0532664973746564E-01 
    5.8667709536755042E-01 
    5.7111804404829136E-01 
    5.5813530820325108E-01 
    5.4693244352788606E-01 
    5.3603244451002774E-01 
    5.2161116813761388E-01 
    4.6445820264509735E-01 
    2.0986243150066797E-01 
    7.2876280982811747E-01 
    7.2594717575396295E-01 
    7.1047080647610295E-01 
    6.8519830531171788E-01 
    6.5733919927947804E-01 
    6.3092582978827061E-01 
    6.0734023834334228E-01 
    5.8659134456028961E-01 
    5.6887156323525079E-01 
    5.5459637410963869E-01 
    5.4397606929872189E-01 
    5.3633185972102515E-01 
    5.2983709191423978E-01 
    5.2082877565901176E-01 
    4.7492665969669795E-01 
    2.4214383425664254E-01 
    6.8142087664986328E-01 
    6.8226486124591035E-01 
    6.7268470985664597E-01 
    6.5304710577660730E-01 
    6.2988772094527357E-01 
    6.0690880844314754E-01 
    5.8543139410062139E-01 
    5.6617066678292360E-01 
    5.4958360307194054E-01 
    5.3643408278207994E-01 
    5.2714254626124268E-01 
    5.2205951072945100E-01 
    5.2033947689550908E-01 
    5.1758359704837831E-01 
    4.8366586872540429E-01 
    2.7206031916028184E-01 
    6.3225117587442836E-01 
    6.3625760496418426E-01 
    6.3200048288903621E-01 
    6.1768946106397349E-01 
    5.9935442672135142E-01 
    5.8038476842112141E-01 
    5.6213692912291546E-01 
    5.4507071901035287E-01 
    5.3015987208406512E-01 
    5.1812158981446454E-01 
    5.0936195803758932E-01 
    5.0491672116137043E-01 
    5.0655859684370685E-01 
    5.1099298590907982E-01 
    4.9046211540866874E-01 
    3.0126262568856610E-01 
    5.8246552596252010E-01 
    5.8877802036753124E-01 
    5.8949359151981140E-01 
    5.8055950084631791E-01 
    5.6655408927857909E-01 
    5.5087281953265588E-01 
    5.3586865095317049E-01 
    5.2243996224446354E-01 
    5.0975160858889712E-01 
    4.9798261475680888E-01 
    4.8853099337425843E-01 
    4.8373255644999102E-01 
    4.8756703614943803E-01 
    4.9938426918601875E-01 
    4.9357340429790081E-01 
    3.2950284832531540E-01 
    5.3350705268519383E-01 
    5.4214307165252540E-01 
    5.4623289767626237E-01 
    5.4142830044581558E-01 
    5.3052700756305571E-01 
    5.1664850416397679E-01 
    5.0320013693324595E-01 
    4.9068403802855287E-01 
    4.7715975910291181E-01 
    4.6075695475488126E-01 
    4.4104328750965449E-01 
    4.3016411578810038E-01 
    4.3842464606381892E-01 
    4.6978839232105823E-01 
    4.8645112649844530E-01 
    3.5520717061560009E-01 
    4.1895209594455995E-01 
    4.4975275441309437E-01 
    4.6985376264120043E-01 
    4.7263156911446719E-01 
    4.6335741501545991E-01 
    4.4055983809407329E-01 
    4.0051518945446396E-01 
    3.3838302396193248E-01 
    2.7287158877144763E-01 
    1.9213037141058276E-01 
    1.4772186428399081E-01 
    1.3636897535665396E-01 
    1.9827381238077355E-01 
    3.5869300099921708E-01 
    4.5275158066645754E-01 
    3.7181417138420580E-01 
    5.1994345611654225E-02 
    1.2874387830501227E-01 
    1.6037513070205317E-01 
    1.7416603148201543E-01 
    1.5303532148696539E-01 
    1.0087795028055288E-01 
    3.5185180714041954E-02 
    6.3259471472888991E-03 
    2.1299025593719883E-03 
    1.2353902908249649E-04 
    2.0594231053709917E-05 
    8.9370939343058218E-06 
    6.4120851409090740E-03 
    9.9804846722450435E-02 
    3.5641620625428816E-01 
    3.7628202191508997E-01 
    1.0006690951348513E-06 
    6.9111295599816471E-05 
    1.7156973491418075E-05 
    3.5704125352835464E-06 
    3.2545489077257162E-05 
    1.6439241719241129E-05 
    5.6195243450809440E-06 
    1.2292347003290193E-06 
    1.0105758015929537E-06 
    1.0001959814120935E-06 
    1.0000159970359469E-06 
    1.0000060267227271E-06 
    3.4342270976959934E-06 
    4.3542025732149483E-03 
    2.0905932331941449E-01 
    3.3630822832424601E-01 
