# vtk DataFile Version 2.0
Pressure Field Data 
ASCII 
DATASET UNSTRUCTURED_GRID 

POINTS 289 double 

    0.0000000000000000E+00     0.0000000000000000E+00     0.0000000000000000E+00 
    1.0000000000000000E+00     0.0000000000000000E+00     0.0000000000000000E+00 
    1.0000000000000000E+00     1.0000000000000000E+00     0.0000000000000000E+00 
    0.0000000000000000E+00     1.0000000000000000E+00     0.0000000000000000E+00 
    6.2499999999872928E-02     0.0000000000000000E+00     0.0000000000000000E+00 
    1.2499999999977310E-01     0.0000000000000000E+00     0.0000000000000000E+00 
    1.8749999999959341E-01     0.0000000000000000E+00     0.0000000000000000E+00 
    2.4999999999941089E-01     0.0000000000000000E+00     0.0000000000000000E+00 
    3.1249999999922851E-01     0.0000000000000000E+00     0.0000000000000000E+00 
    3.7499999999904610E-01     0.0000000000000000E+00     0.0000000000000000E+00 
    4.3749999999886358E-01     0.0000000000000000E+00     0.0000000000000000E+00 
    4.9999999999869210E-01     0.0000000000000000E+00     0.0000000000000000E+00 
    5.6249999999884603E-01     0.0000000000000000E+00     0.0000000000000000E+00 
    6.2499999999901090E-01     0.0000000000000000E+00     0.0000000000000000E+00 
    6.8749999999917577E-01     0.0000000000000000E+00     0.0000000000000000E+00 
    7.4999999999934064E-01     0.0000000000000000E+00     0.0000000000000000E+00 
    8.1249999999950551E-01     0.0000000000000000E+00     0.0000000000000000E+00 
    8.7499999999967026E-01     0.0000000000000000E+00     0.0000000000000000E+00 
    9.3749999999983513E-01     0.0000000000000000E+00     0.0000000000000000E+00 
    1.0000000000000000E+00     6.2499999999872928E-02     0.0000000000000000E+00 
    1.0000000000000000E+00     1.2499999999977310E-01     0.0000000000000000E+00 
    1.0000000000000000E+00     1.8749999999959341E-01     0.0000000000000000E+00 
    1.0000000000000000E+00     2.4999999999941089E-01     0.0000000000000000E+00 
    1.0000000000000000E+00     3.1249999999922851E-01     0.0000000000000000E+00 
    1.0000000000000000E+00     3.7499999999904610E-01     0.0000000000000000E+00 
    1.0000000000000000E+00     4.3749999999886358E-01     0.0000000000000000E+00 
    1.0000000000000000E+00     4.9999999999869210E-01     0.0000000000000000E+00 
    1.0000000000000000E+00     5.6249999999884603E-01     0.0000000000000000E+00 
    1.0000000000000000E+00     6.2499999999901090E-01     0.0000000000000000E+00 
    1.0000000000000000E+00     6.8749999999917577E-01     0.0000000000000000E+00 
    1.0000000000000000E+00     7.4999999999934064E-01     0.0000000000000000E+00 
    1.0000000000000000E+00     8.1249999999950551E-01     0.0000000000000000E+00 
    1.0000000000000000E+00     8.7499999999967026E-01     0.0000000000000000E+00 
    1.0000000000000000E+00     9.3749999999983513E-01     0.0000000000000000E+00 
    9.3749999999973976E-01     1.0000000000000000E+00     0.0000000000000000E+00 
    8.7499999999950118E-01     1.0000000000000000E+00     0.0000000000000000E+00 
    8.1249999999991318E-01     1.0000000000000000E+00     0.0000000000000000E+00 
    7.5000000000034706E-01     1.0000000000000000E+00     0.0000000000000000E+00 
    6.8750000000078049E-01     1.0000000000000000E+00     0.0000000000000000E+00 
    6.2500000000121403E-01     1.0000000000000000E+00     0.0000000000000000E+00 
    5.6250000000164757E-01     1.0000000000000000E+00     0.0000000000000000E+00 
    5.0000000000205946E-01     1.0000000000000000E+00     0.0000000000000000E+00 
    4.3750000000182099E-01     1.0000000000000000E+00     0.0000000000000000E+00 
    3.7500000000156092E-01     1.0000000000000000E+00     0.0000000000000000E+00 
    3.1250000000130068E-01     1.0000000000000000E+00     0.0000000000000000E+00 
    2.5000000000104050E-01     1.0000000000000000E+00     0.0000000000000000E+00 
    1.8750000000078040E-01     1.0000000000000000E+00     0.0000000000000000E+00 
    1.2500000000052031E-01     1.0000000000000000E+00     0.0000000000000000E+00 
    6.2500000000260125E-02     1.0000000000000000E+00     0.0000000000000000E+00 
    0.0000000000000000E+00     9.3749999999973976E-01     0.0000000000000000E+00 
    0.0000000000000000E+00     8.7499999999950118E-01     0.0000000000000000E+00 
    0.0000000000000000E+00     8.1249999999991318E-01     0.0000000000000000E+00 
    0.0000000000000000E+00     7.5000000000034706E-01     0.0000000000000000E+00 
    0.0000000000000000E+00     6.8750000000078049E-01     0.0000000000000000E+00 
    0.0000000000000000E+00     6.2500000000121403E-01     0.0000000000000000E+00 
    0.0000000000000000E+00     5.6250000000164757E-01     0.0000000000000000E+00 
    0.0000000000000000E+00     5.0000000000205946E-01     0.0000000000000000E+00 
    0.0000000000000000E+00     4.3750000000182099E-01     0.0000000000000000E+00 
    0.0000000000000000E+00     3.7500000000156092E-01     0.0000000000000000E+00 
    0.0000000000000000E+00     3.1250000000130068E-01     0.0000000000000000E+00 
    0.0000000000000000E+00     2.5000000000104050E-01     0.0000000000000000E+00 
    0.0000000000000000E+00     1.8750000000078040E-01     0.0000000000000000E+00 
    0.0000000000000000E+00     1.2500000000052031E-01     0.0000000000000000E+00 
    0.0000000000000000E+00     6.2500000000260125E-02     0.0000000000000000E+00 
    6.2499999999897131E-02     6.2500000000235922E-02     0.0000000000000000E+00 
    6.2499999999921327E-02     1.2500000000047351E-01     0.0000000000000000E+00 
    6.2499999999945530E-02     1.8750000000070621E-01     0.0000000000000000E+00 
    6.2499999999969733E-02     2.5000000000093858E-01     0.0000000000000000E+00 
    6.2499999999993928E-02     3.1250000000117117E-01     0.0000000000000000E+00 
    6.2500000000018124E-02     3.7500000000140382E-01     0.0000000000000000E+00 
    6.2500000000042327E-02     4.3750000000163619E-01     0.0000000000000000E+00 
    6.2500000000066530E-02     5.0000000000184897E-01     0.0000000000000000E+00 
    6.2500000000090733E-02     5.6250000000147260E-01     0.0000000000000000E+00 
    6.2500000000114922E-02     6.2500000000107636E-01     0.0000000000000000E+00 
    6.2500000000139125E-02     6.8750000000068034E-01     0.0000000000000000E+00 
    6.2500000000163328E-02     7.5000000000028411E-01     0.0000000000000000E+00 
    6.2500000000187531E-02     8.1249999999988787E-01     0.0000000000000000E+00 
    6.2500000000211720E-02     8.7499999999951172E-01     0.0000000000000000E+00 
    6.2500000000235922E-02     9.3749999999974565E-01     0.0000000000000000E+00 
    1.2499999999981980E-01     6.2500000000211733E-02     0.0000000000000000E+00 
    1.2499999999986650E-01     1.2500000000042691E-01     0.0000000000000000E+00 
    1.2499999999991319E-01     1.8750000000063199E-01     0.0000000000000000E+00 
    1.2499999999995989E-01     2.5000000000083678E-01     0.0000000000000000E+00 
    1.2500000000000661E-01     3.1250000000104172E-01     0.0000000000000000E+00 
    1.2500000000005329E-01     3.7500000000124661E-01     0.0000000000000000E+00 
    1.2500000000010000E-01     4.3750000000145117E-01     0.0000000000000000E+00 
    1.2500000000014669E-01     5.0000000000163858E-01     0.0000000000000000E+00 
    1.2500000000019340E-01     5.6250000000129741E-01     0.0000000000000000E+00 
    1.2500000000024011E-01     6.2500000000093847E-01     0.0000000000000000E+00 
    1.2500000000028680E-01     6.8750000000057998E-01     0.0000000000000000E+00 
    1.2500000000033351E-01     7.5000000000022127E-01     0.0000000000000000E+00 
    1.2500000000038020E-01     8.1249999999986211E-01     0.0000000000000000E+00 
    1.2500000000042691E-01     8.7499999999952238E-01     0.0000000000000000E+00 
    1.2500000000047359E-01     9.3749999999975164E-01     0.0000000000000000E+00 
    1.8749999999966760E-01     6.2500000000187531E-02     0.0000000000000000E+00 
    1.8749999999974179E-01     1.2500000000038020E-01     0.0000000000000000E+00 
    1.8749999999981601E-01     1.8750000000055780E-01     0.0000000000000000E+00 
    1.8749999999989009E-01     2.5000000000073502E-01     0.0000000000000000E+00 
    1.8749999999996431E-01     3.1250000000091221E-01     0.0000000000000000E+00 
    1.8750000000003850E-01     3.7500000000108941E-01     0.0000000000000000E+00 
    1.8750000000011269E-01     4.3750000000126649E-01     0.0000000000000000E+00 
    1.8750000000018691E-01     5.0000000000142808E-01     0.0000000000000000E+00 
    1.8750000000026110E-01     5.6250000000112244E-01     0.0000000000000000E+00 
    1.8750000000033529E-01     6.2500000000080080E-01     0.0000000000000000E+00 
    1.8750000000040951E-01     6.8750000000047962E-01     0.0000000000000000E+00 
    1.8750000000048361E-01     7.5000000000015843E-01     0.0000000000000000E+00 
    1.8750000000055780E-01     8.1249999999983680E-01     0.0000000000000000E+00 
    1.8750000000063199E-01     8.7499999999953304E-01     0.0000000000000000E+00 
    1.8750000000070621E-01     9.3749999999975764E-01     0.0000000000000000E+00 
    2.4999999999951281E-01     6.2500000000163314E-02     0.0000000000000000E+00 
    2.4999999999961461E-01     1.2500000000033351E-01     0.0000000000000000E+00 
    2.4999999999971650E-01     1.8750000000048361E-01     0.0000000000000000E+00 
    2.4999999999981831E-01     2.5000000000063310E-01     0.0000000000000000E+00 
    2.4999999999992020E-01     3.1250000000078260E-01     0.0000000000000000E+00 
    2.5000000000002198E-01     3.7500000000093209E-01     0.0000000000000000E+00 
    2.5000000000012390E-01     4.3750000000108180E-01     0.0000000000000000E+00 
    2.5000000000022571E-01     5.0000000000121769E-01     0.0000000000000000E+00 
    2.5000000000032763E-01     5.6250000000094724E-01     0.0000000000000000E+00 
    2.5000000000042938E-01     6.2500000000066314E-01     0.0000000000000000E+00 
    2.5000000000053119E-01     6.8750000000037925E-01     0.0000000000000000E+00 
[...]
CELL_DATA 256 
SCALARS Pressure double 1 
LOOKUP_TABLE default 

    7.7847739114785997E-01 
    7.2766330577676952E-01 
    6.9435335166819645E-01 
    6.6353789611004321E-01 
    6.3179850389831660E-01 
    5.9830110636193889E-01 
    5.6290259692886069E-01 
    5.2588318553186741E-01 
    4.8772271597885969E-01 
    4.4906812468450391E-01 
    4.1080061684040547E-01 
    3.7431038079951234E-01 
    3.4182389296961285E-01 
    3.1622542816342936E-01 
    2.9871294692711997E-01 
    2.9027712384493959E-01 
    7.6451964637299807E-01 
    7.2904715459347169E-01 
    6.9688774332356407E-01 
    6.6634535751742130E-01 
    6.3484500750710127E-01 
    6.0157652693185171E-01 
    5.6637587190221161E-01 
    5.2949515511737866E-01 
    4.9138736868582861E-01 
    4.5266702146692839E-01 
    4.1416527818444382E-01 
    3.7719568960179278E-01 
    3.4392578464316809E-01 
    3.1733021828415364E-01 
    2.9893659006339418E-01 
    2.8987628176868258E-01 
    7.5380365003670058E-01 
    7.2826609915477569E-01 
    6.9864032581386193E-01 
    6.6878619410880524E-01 
    6.3765710222154759E-01 
    6.0467292574391618E-01 
    5.6969937316043129E-01 
    5.3296843006510108E-01 
    4.9489898614385230E-01 
    4.5605942627882612E-01 
    4.1721875962469901E-01 
    3.7960170203755245E-01 
    3.4531497320834253E-01 
    3.1745264306319937E-01 
    2.9804286004310421E-01 
    2.8844124251417536E-01 
    7.4534718046463089E-01 
    7.2637100805394228E-01 
    6.9964926396122018E-01 
    6.7084193852464924E-01 
    6.4023501632132640E-01 
    6.0759906028193522E-01 
    5.7288211349205509E-01 
    5.3631317707754811E-01 
    4.9827584873668740E-01 
    4.5928115545438009E-01 
    4.2001984911733659E-01 
    3.8160684796560218E-01 
    3.4606925262212435E-01 
    3.1663067498053787E-01 
    2.9594636562167093E-01 
    2.8573923374947369E-01 
    7.3849808615505685E-01 
    7.2394591786023355E-01 
    7.0004553778823542E-01 
    6.7252199154983017E-01 
    6.4258095357765088E-01 
    6.1036498472574785E-01 
    5.7593888227237033E-01 
    5.3954716749225351E-01 
    5.0154267612580095E-01 
    4.6237252938771140E-01 
    4.2263217974003819E-01 
    3.8329871487608758E-01 
    3.4628090684016988E-01 
    3.1491237643451658E-01 
    2.9256524485978447E-01 
    2.8154076022795249E-01 
    7.3287505378671969E-01 
    7.2134205524401740E-01 
    6.9998300172615557E-01 
    6.7386209591579460E-01 
    6.4470438725212542E-01 
    6.1298039159609596E-01 
    5.7888640480399467E-01 
    5.4269372090024270E-01 
    5.0473024366673291E-01 
    4.6537812275364293E-01 
    4.2512268739967207E-01 
    3.8477261514017147E-01 
    3.4605837102309894E-01 
    3.1236337719011148E-01 
    2.8783045649808858E-01 
    2.7562625237437932E-01 
    7.2823092857597094E-01 
    7.1878039427396712E-01 
    6.9961769713778676E-01 
    6.7492270219927020E-01 
    6.4662856551075543E-01 
    6.1545896495959107E-01 
    5.8173950731557700E-01 
    5.4577580312519025E-01 
    5.0787236583867235E-01 
    4.6834532888011920E-01 
    4.2756223864514126E-01 
    3.8613162303477938E-01 
    3.4552976719245526E-01 
    3.0907969663320572E-01 
    2.8169127060617988E-01 
    2.6775262665267646E-01 
    7.2439103819173933E-01 
    7.1639537703268708E-01 
    6.9908898056727786E-01 
    6.7577541184337653E-01 
    6.4838769937618868E-01 
    6.1781964445170834E-01 
    5.8451358889038019E-01 
    5.4881276549805724E-01 
    5.1099873386188777E-01 
    4.7132073085041321E-01 
    4.3002405783062114E-01 
    3.8748872831144360E-01 
    3.4484725138029620E-01 
    3.0519697803365892E-01 
    2.7412424697677834E-01 
    2.5764360291882876E-01 
    7.2122892194765753E-01 
    7.1426478793868253E-01 
    6.9851085340300967E-01 
    6.7649324887527373E-01 
    6.5002127485802297E-01 
    6.2008527540543912E-01 
    5.8722440827157962E-01 
    5.5182052171528584E-01 
    5.1413306448759033E-01 
    4.7434473045281383E-01 
    4.3257923094453249E-01 
    3.8896430769043194E-01 
    3.4419128908128488E-01 
    3.0090488031562990E-01 
    2.6514130690397697E-01 
    2.4495631887466918E-01 
    7.1865248642899504E-01 
    7.1243270670303904E-01 
    6.9797260869814315E-01 
    6.7714534154892192E-01 
    6.5157285594163572E-01 
    6.2228239328546209E-01 
    5.8988960264404611E-01 
    5.5481416576497167E-01 
    5.1729473056249908E-01 
    4.7745044681270610E-01 
    4.3529190925041056E-01 
    3.9068100397517591E-01 
    3.4377060099309259E-01 
    2.9646598876855657E-01 
    2.5481125959407641E-01 
    2.2922520676086777E-01 
    7.1659420944956176E-01 
    7.1092553859927377E-01 
    6.9754631881401929E-01 
    6.7779745286989368E-01 
    6.5308992616446770E-01 
    6.2444341415155646E-01 
    5.9253049450138129E-01 
    5.5781170652374101E-01 
    5.2050470921352987E-01 
    4.8066732093766812E-01 
    4.3821788587097099E-01 
    3.9275823478886324E-01 
    3.4382066213025697E-01 
    2.9223812093448176E-01 
    2.4331808962757009E-01 
    2.0983809903520945E-01 
    7.1500689242708593E-01 
    7.0976418230363247E-01 
    6.9729616523254678E-01 
    6.7851580709950399E-01 
    6.5462589445159325E-01 
    6.2660757976774295E-01 
    5.9517537259580078E-01 
    5.6083749305956754E-01 
    5.2378719625963521E-01 
    4.8401931349510757E-01 
    4.4139572739209026E-01 
    3.9529624638412553E-01 
    3.4459118787819332E-01 
    2.8869637070556203E-01 
    2.3104604878067495E-01 
    1.8596695716605294E-01 
    7.1386541858356045E-01 
    7.0897764497594895E-01 
    6.9728802808025681E-01 
    6.7936983900800663E-01 
    6.5623725111187181E-01 
    6.2881626184351058E-01 
    5.9785301445705774E-01 
    5.6391399453236102E-01 
    5.2715991007119911E-01 
    4.8750823417193873E-01 
    4.4481736369605240E-01 
    3.9832555601714925E-01 
    3.4627538635231403E-01 
    2.8639184533053558E-01 
    2.1866541490779290E-01 
    1.5637488386087953E-01 
    7.1307947466041055E-01 
    7.0853959673968103E-01 
    6.9754810857060523E-01 
    6.8040043470321143E-01 
    6.5795353619240549E-01 
    6.3107218493661710E-01 
    6.0052387279091179E-01 
    5.6695531641961183E-01 
    5.3050696675505626E-01 
    4.9100102550378483E-01 
    4.4830340698275395E-01 
    4.0161426980743087E-01 
    3.4877132723643745E-01 
    2.8570925822153043E-01 
    2.0714853696094568E-01 
    1.1892273419848715E-01 
    7.1251690322517269E-01 
    7.0829977185692006E-01 
    6.9795073781505212E-01 
    6.8151456014269740E-01 
    6.5970498271544520E-01 
    6.3332737137114425E-01 
    6.0315890849560772E-01 
    5.6992075106712115E-01 
    5.3378366632553254E-01 
    4.9452337692469384E-01 
    4.5198308143257476E-01 
    4.0537104776442034E-01 
    3.5238195522143695E-01 
    2.8744182301385696E-01 
    1.9839661098497588E-01 
    6.9513170986686149E-02 
    7.1233110970838132E-01 
    7.0845205236691500E-01 
    6.9869026131512091E-01 
    6.8288911244824713E-01 
    6.6165654790088313E-01 
    6.3576157150388346E-01 
    6.0597983165657854E-01 
    5.7306065656816041E-01 
    5.3723380381796981E-01 
    4.9828958553626357E-01 
    4.5605526432332200E-01 
    4.0977404916944754E-01 
    3.5725448251417968E-01 
    2.9267255810454929E-01 
    1.9841639069575603E-01 
    0.0000000000000000E+00 

SCALARS Saturarion double 1 
LOOKUP_TABLE default 

    1.0000000000000007E+00 
    9.7159310536708032E-01 
    9.2095090524099954E-01 
    8.5693721578868098E-01 
    8.0270958629332845E-01 
    7.5608581065662084E-01 
    7.1679372789063167E-01 
    6.8350018744520791E-01 
    6.5446829373071436E-01 
    6.2807756716995744E-01 
    6.0284193233655692E-01 
    5.7736988691068769E-01 
    5.5016453303924095E-01 
    5.1656307155639247E-01 
    3.9707441450147091E-01 
    2.6570067926977768E-02 
    9.8882069227888636E-01 
    9.6188986444582569E-01 
    9.0886819608977820E-01 
    8.4851220308407083E-01 
    7.9721623681536535E-01 
    7.5265370166770396E-01 
    7.1426942008868510E-01 
    6.8121696680139121E-01 
    6.5235122576004267E-01 
    6.2631872043641557E-01 
    6.0182920605903023E-01 
    5.7742330652640150E-01 
    5.5133270091208186E-01 
    5.1898791747381523E-01 
    4.0955666006058827E-01 
    4.6393291382505857E-02 
    9.7123755483693208E-01 
    9.4465713553687536E-01 
    8.9179856676153990E-01 
    8.3410717909318399E-01 
    7.8636778144923858E-01 
    7.4529300260694342E-01 
    7.0895331090161140E-01 
    6.7654251813391897E-01 
    6.4779825699086724E-01 
    6.2211153603672875E-01 
    5.9863230067377804E-01 
    5.7585373303103127E-01 
    5.5172920452933494E-01 
    5.2171993962815677E-01 
    4.2565240220552547E-01 
    7.6620185470350488E-02 
    9.4043379536326011E-01 
    9.1847833794066658E-01 
    8.7122486572498026E-01 
    8.1785581415785746E-01 
    7.7160935831679356E-01 
    7.3324063995748667E-01 
    6.9972509549367279E-01 
    6.6957758006844958E-01 
    6.4224664027644773E-01 
    6.1765060261610405E-01 
    5.9514908114162690E-01 
    5.7372382453951520E-01 
    5.5151819330933116E-01 
    5.2452197966228875E-01 
    4.4035449659386572E-01 
    1.1769561847797225E-01 
    9.0415607271907383E-01 
    8.8541805957965025E-01 
    8.4403456552268996E-01 
    7.9631865198350371E-01 
    7.5306709878128253E-01 
    7.1674838853952838E-01 
    6.8590180697662662E-01 
    6.5870552777800573E-01 
    6.3419448166920356E-01 
    6.1188357387801018E-01 
    5.9130585439928074E-01 
    5.7156799922466894E-01 
    5.5107489420090638E-01 
    5.2660110635267798E-01 
    4.5275885571806340E-01 
    1.5256234439575683E-01 
    8.6539516249586645E-01 
    8.5004591863632672E-01 
    8.1466817902365996E-01 
    7.7249525779022699E-01 
    7.3307164087535448E-01 
    6.9884349495715647E-01 
    6.6947947730419866E-01 
    6.4446561727656648E-01 
    6.2271143425442399E-01 
    6.0319142894912348E-01 
    5.8522727697466304E-01 
    5.6818287138938894E-01 
    5.5032011114224055E-01 
    5.2835319596463426E-01 
    4.6383579125298802E-01 
    1.8491769254051618E-01 
    8.2449645823566886E-01 
    8.1319908023189802E-01 
    7.8427941962225001E-01 
    7.4752361640783227E-01 
    7.1198698887471179E-01 
    6.8030204029275898E-01 
    6.5286951707364915E-01 
    6.2919428706691805E-01 
    6.0905314550722700E-01 
    5.9176919961912378E-01 
    5.7656530337897716E-01 
    5.6255464948697986E-01 
    5.4826122920793796E-01 
    5.2997865599418204E-01 
    4.7378170867502339E-01 
    2.1673843303119783E-01 
    7.8146954296658588E-01 
    7.7458345336455203E-01 
    7.5267248726282632E-01 
    7.2157501572861704E-01 
    6.8953060057967386E-01 
    6.6034136594584747E-01 
    6.3470495781478031E-01 
    6.1265505736784509E-01 
    5.9386486141215566E-01 
    5.7824492421081164E-01 
    5.6540075170111215E-01 
    5.5459443278923437E-01 
    5.4418935699995719E-01 
    5.3055945416525563E-01 
    4.8338905329524678E-01 
    2.4839774397759939E-01 
    7.3655335925877730E-01 
    7.3371682590559684E-01 
    7.1828371283067038E-01 
    6.9308365265752603E-01 
    6.6522914865591076E-01 
    6.3872400374971783E-01 
    6.1502116441431043E-01 
    5.9416508372873911E-01 
    5.7627281423767318E-01 
    5.6174025899308710E-01 
    5.5097319461537753E-01 
    5.4357436828948258E-01 
    5.3768625723717811E-01 
    5.2937791605517870E-01 
    4.9199563840063865E-01 
    2.7679138066246706E-01 
    6.8968693770080369E-01 
    6.9047615518704963E-01 
    6.8086208373235579E-01 
    6.6118749742056326E-01 
    6.3791417161937192E-01 
    6.1476575194691863E-01 
    5.9316919078355690E-01 
    5.7383918545931345E-01 
    5.5705325722929366E-01 
    5.4347253107229321E-01 
    5.3383482327441822E-01 
    5.2880014323029623E-01 
    5.2767425807230794E-01 
    5.2583670133305438E-01 
    4.9901790105465255E-01 
    3.0357403459175669E-01 
    6.4070593966163636E-01 
    6.4467504461586878E-01 
    6.4033308286012125E-01 
    6.2585876420741315E-01 
    6.0730536714192518E-01 
    5.8812719827290316E-01 
    5.6969814374100358E-01 
    5.5243047437669079E-01 
    5.3729929144959843E-01 
    5.2498031184884975E-01 
    5.1605075412373058E-01 
    5.1155829432969657E-01 
    5.1334070332896953E-01 
    5.1871378832544079E-01 
    5.0379009714139356E-01 
    3.2997549849586538E-01 
    5.9022322603160249E-01 
    5.9664710101550544E-01 
    5.9733629401720079E-01 
    5.8822305909543049E-01 
    5.7414236716175016E-01 
    5.5837650580817488E-01 
    5.4295936311639803E-01 
    5.2909688094904117E-01 
    5.1663632533980264E-01 
    5.0540893477919779E-01 
    4.9641071055479685E-01 
    4.9170541368470416E-01 
    4.9464353319949572E-01 
    5.0632226891229604E-01 
    5.0502881859343396E-01 
    3.5562065104686869E-01 
    5.4132375183849990E-01 
    5.4958847728540272E-01 
    5.5375760717376787E-01 
    5.4889587959806641E-01 
    5.3831732600225513E-01 
    5.2475852688686353E-01 
    5.1139096094747494E-01 
    4.9887571119488783E-01 
    4.8589005755340953E-01 
    4.7381145432261074E-01 
    4.6146144293885777E-01 
    4.5386672044184140E-01 
    4.5947357253209309E-01 
    4.8199865325285890E-01 
    4.9745805566608681E-01 
    3.7865652197590272E-01 
    4.4265949853733988E-01 
    4.6703787812461783E-01 
    4.8395193534627678E-01 
    4.8652068649513636E-01 
    4.7833941040626132E-01 
    4.6163985965247684E-01 
    4.3594432284864065E-01 
    3.9494532779667907E-01 
    3.2839430173389983E-01 
    2.4467949573850709E-01 
    2.1540765511573798E-01 
    2.1532355012040111E-01 
    2.7549488465228844E-01 
    3.9735154871031758E-01 
    4.6919861097067100E-01 
    3.9405091895193528E-01 
    8.4522751407317825E-02 
    1.6257630043415683E-01 
    1.9959081008640489E-01 
    2.1301150574642319E-01 
    1.9880617643620396E-01 
    1.5185917024836251E-01 
    8.5308222956054211E-02 
    2.5976049781431962E-02 
    9.6541697506960476E-03 
    1.3105499909422968E-03 
    1.8228510381651351E-04 
    9.3116065480342808E-05 
    1.5967227296732747E-02 
    1.3230972294371993E-01 
    3.7712106936750661E-01 
    3.9778563794306721E-01 
    1.0007475478451551E-06 
    7.9614278820807995E-05 
    7.3517409726501053E-05 
    8.4217646256129235E-06 
    1.2604386996915975E-04 
    1.7939092387967094E-05 
    1.0061814637886198E-05 
    2.8886948505189916E-06 
    1.1925855218577802E-06 
    1.0150113301614272E-06 
    1.0003166949324894E-06 
    1.0003536629186958E-06 
    2.0450874422722411E-05 
    8.4366489788588617E-03 
    2.2007046914280548E-01 
    3.5409497582894223E-01 
