# vtk DataFile Version 2.0
Pressure Field Data 
ASCII 
DATASET UNSTRUCTURED_GRID 

POINTS 289 double 

    0.0000000000000000E+00     0.0000000000000000E+00     0.0000000000000000E+00 
    1.0000000000000000E+00     0.0000000000000000E+00     0.0000000000000000E+00 
    1.0000000000000000E+00     1.0000000000000000E+00     0.0000000000000000E+00 
    0.0000000000000000E+00     1.0000000000000000E+00     0.0000000000000000E+00 
    6.2499999999872928E-02     0.0000000000000000E+00     0.0000000000000000E+00 
    1.2499999999977310E-01     0.0000000000000000E+00     0.0000000000000000E+00 
    1.8749999999959341E-01     0.0000000000000000E+00     0.0000000000000000E+00 
    2.4999999999941089E-01     0.0000000000000000E+00     0.0000000000000000E+00 
    3.1249999999922851E-01     0.0000000000000000E+00     0.0000000000000000E+00 
    3.7499999999904610E-01     0.0000000000000000E+00     0.0000000000000000E+00 
    4.3749999999886358E-01     0.0000000000000000E+00     0.0000000000000000E+00 
    4.9999999999869210E-01     0.0000000000000000E+00     0.0000000000000000E+00 
    5.6249999999884603E-01     0.0000000000000000E+00     0.0000000000000000E+00 
    6.2499999999901090E-01     0.0000000000000000E+00     0.0000000000000000E+00 
    6.8749999999917577E-01     0.0000000000000000E+00     0.0000000000000000E+00 
    7.4999999999934064E-01     0.0000000000000000E+00     0.0000000000000000E+00 
    8.1249999999950551E-01     0.0000000000000000E+00     0.0000000000000000E+00 
    8.7499999999967026E-01     0.0000000000000000E+00     0.0000000000000000E+00 
    9.3749999999983513E-01     0.0000000000000000E+00     0.0000000000000000E+00 
    1.0000000000000000E+00     6.2499999999872928E-02     0.0000000000000000E+00 
    1.0000000000000000E+00     1.2499999999977310E-01     0.0000000000000000E+00 
    1.0000000000000000E+00     1.8749999999959341E-01     0.0000000000000000E+00 
    1.0000000000000000E+00     2.4999999999941089E-01     0.0000000000000000E+00 
    1.0000000000000000E+00     3.1249999999922851E-01     0.0000000000000000E+00 
    1.0000000000000000E+00     3.7499999999904610E-01     0.0000000000000000E+00 
    1.0000000000000000E+00     4.3749999999886358E-01     0.0000000000000000E+00 
    1.0000000000000000E+00     4.9999999999869210E-01     0.0000000000000000E+00 
    1.0000000000000000E+00     5.6249999999884603E-01     0.0000000000000000E+00 
    1.0000000000000000E+00     6.2499999999901090E-01     0.0000000000000000E+00 
    1.0000000000000000E+00     6.8749999999917577E-01     0.0000000000000000E+00 
    1.0000000000000000E+00     7.4999999999934064E-01     0.0000000000000000E+00 
    1.0000000000000000E+00     8.1249999999950551E-01     0.0000000000000000E+00 
    1.0000000000000000E+00     8.7499999999967026E-01     0.0000000000000000E+00 
    1.0000000000000000E+00     9.3749999999983513E-01     0.0000000000000000E+00 
    9.3749999999973976E-01     1.0000000000000000E+00     0.0000000000000000E+00 
    8.7499999999950118E-01     1.0000000000000000E+00     0.0000000000000000E+00 
    8.1249999999991318E-01     1.0000000000000000E+00     0.0000000000000000E+00 
    7.5000000000034706E-01     1.0000000000000000E+00     0.0000000000000000E+00 
    6.8750000000078049E-01     1.0000000000000000E+00     0.0000000000000000E+00 
    6.2500000000121403E-01     1.0000000000000000E+00     0.0000000000000000E+00 
    5.6250000000164757E-01     1.0000000000000000E+00     0.0000000000000000E+00 
    5.0000000000205946E-01     1.0000000000000000E+00     0.0000000000000000E+00 
    4.3750000000182099E-01     1.0000000000000000E+00     0.0000000000000000E+00 
    3.7500000000156092E-01     1.0000000000000000E+00     0.0000000000000000E+00 
    3.1250000000130068E-01     1.0000000000000000E+00     0.0000000000000000E+00 
    2.5000000000104050E-01     1.0000000000000000E+00     0.0000000000000000E+00 
    1.8750000000078040E-01     1.0000000000000000E+00     0.0000000000000000E+00 
    1.2500000000052031E-01     1.0000000000000000E+00     0.0000000000000000E+00 
    6.2500000000260125E-02     1.0000000000000000E+00     0.0000000000000000E+00 
    0.0000000000000000E+00     9.3749999999973976E-01     0.0000000000000000E+00 
    0.0000000000000000E+00     8.7499999999950118E-01     0.0000000000000000E+00 
    0.0000000000000000E+00     8.1249999999991318E-01     0.0000000000000000E+00 
    0.0000000000000000E+00     7.5000000000034706E-01     0.0000000000000000E+00 
    0.0000000000000000E+00     6.8750000000078049E-01     0.0000000000000000E+00 
    0.0000000000000000E+00     6.2500000000121403E-01     0.0000000000000000E+00 
    0.0000000000000000E+00     5.6250000000164757E-01     0.0000000000000000E+00 
    0.0000000000000000E+00     5.0000000000205946E-01     0.0000000000000000E+00 
    0.0000000000000000E+00     4.3750000000182099E-01     0.0000000000000000E+00 
    0.0000000000000000E+00     3.7500000000156092E-01     0.0000000000000000E+00 
    0.0000000000000000E+00     3.1250000000130068E-01     0.0000000000000000E+00 
    0.0000000000000000E+00     2.5000000000104050E-01     0.0000000000000000E+00 
    0.0000000000000000E+00     1.8750000000078040E-01     0.0000000000000000E+00 
    0.0000000000000000E+00     1.2500000000052031E-01     0.0000000000000000E+00 
    0.0000000000000000E+00     6.2500000000260125E-02     0.0000000000000000E+00 
    6.2499999999897131E-02     6.2500000000235922E-02     0.0000000000000000E+00 
    6.2499999999921327E-02     1.2500000000047351E-01     0.0000000000000000E+00 
    6.2499999999945530E-02     1.8750000000070621E-01     0.0000000000000000E+00 
    6.2499999999969733E-02     2.5000000000093858E-01     0.0000000000000000E+00 
    6.2499999999993928E-02     3.1250000000117117E-01     0.0000000000000000E+00 
    6.2500000000018124E-02     3.7500000000140382E-01     0.0000000000000000E+00 
    6.2500000000042327E-02     4.3750000000163619E-01     0.0000000000000000E+00 
    6.2500000000066530E-02     5.0000000000184897E-01     0.0000000000000000E+00 
    6.2500000000090733E-02     5.6250000000147260E-01     0.0000000000000000E+00 
    6.2500000000114922E-02     6.2500000000107636E-01     0.0000000000000000E+00 
    6.2500000000139125E-02     6.8750000000068034E-01     0.0000000000000000E+00 
    6.2500000000163328E-02     7.5000000000028411E-01     0.0000000000000000E+00 
    6.2500000000187531E-02     8.1249999999988787E-01     0.0000000000000000E+00 
    6.2500000000211720E-02     8.7499999999951172E-01     0.0000000000000000E+00 
    6.2500000000235922E-02     9.3749999999974565E-01     0.0000000000000000E+00 
    1.2499999999981980E-01     6.2500000000211733E-02     0.0000000000000000E+00 
    1.2499999999986650E-01     1.2500000000042691E-01     0.0000000000000000E+00 
    1.2499999999991319E-01     1.8750000000063199E-01     0.0000000000000000E+00 
    1.2499999999995989E-01     2.5000000000083678E-01     0.0000000000000000E+00 
    1.2500000000000661E-01     3.1250000000104172E-01     0.0000000000000000E+00 
    1.2500000000005329E-01     3.7500000000124661E-01     0.0000000000000000E+00 
    1.2500000000010000E-01     4.3750000000145117E-01     0.0000000000000000E+00 
    1.2500000000014669E-01     5.0000000000163858E-01     0.0000000000000000E+00 
    1.2500000000019340E-01     5.6250000000129741E-01     0.0000000000000000E+00 
    1.2500000000024011E-01     6.2500000000093847E-01     0.0000000000000000E+00 
    1.2500000000028680E-01     6.8750000000057998E-01     0.0000000000000000E+00 
    1.2500000000033351E-01     7.5000000000022127E-01     0.0000000000000000E+00 
    1.2500000000038020E-01     8.1249999999986211E-01     0.0000000000000000E+00 
    1.2500000000042691E-01     8.7499999999952238E-01     0.0000000000000000E+00 
    1.2500000000047359E-01     9.3749999999975164E-01     0.0000000000000000E+00 
    1.8749999999966760E-01     6.2500000000187531E-02     0.0000000000000000E+00 
    1.8749999999974179E-01     1.2500000000038020E-01     0.0000000000000000E+00 
    1.8749999999981601E-01     1.8750000000055780E-01     0.0000000000000000E+00 
    1.8749999999989009E-01     2.5000000000073502E-01     0.0000000000000000E+00 
    1.8749999999996431E-01     3.1250000000091221E-01     0.0000000000000000E+00 
    1.8750000000003850E-01     3.7500000000108941E-01     0.0000000000000000E+00 
    1.8750000000011269E-01     4.3750000000126649E-01     0.0000000000000000E+00 
    1.8750000000018691E-01     5.0000000000142808E-01     0.0000000000000000E+00 
    1.8750000000026110E-01     5.6250000000112244E-01     0.0000000000000000E+00 
    1.8750000000033529E-01     6.2500000000080080E-01     0.0000000000000000E+00 
    1.8750000000040951E-01     6.8750000000047962E-01     0.0000000000000000E+00 
    1.8750000000048361E-01     7.5000000000015843E-01     0.0000000000000000E+00 
    1.8750000000055780E-01     8.1249999999983680E-01     0.0000000000000000E+00 
    1.8750000000063199E-01     8.7499999999953304E-01     0.0000000000000000E+00 
    1.8750000000070621E-01     9.3749999999975764E-01     0.0000000000000000E+00 
    2.4999999999951281E-01     6.2500000000163314E-02     0.0000000000000000E+00 
    2.4999999999961461E-01     1.2500000000033351E-01     0.0000000000000000E+00 
    2.4999999999971650E-01     1.8750000000048361E-01     0.0000000000000000E+00 
    2.4999999999981831E-01     2.5000000000063310E-01     0.0000000000000000E+00 
    2.4999999999992020E-01     3.1250000000078260E-01     0.0000000000000000E+00 
    2.5000000000002198E-01     3.7500000000093209E-01     0.0000000000000000E+00 
    2.5000000000012390E-01     4.3750000000108180E-01     0.0000000000000000E+00 
    2.5000000000022571E-01     5.0000000000121769E-01     0.0000000000000000E+00 
    2.5000000000032763E-01     5.6250000000094724E-01     0.0000000000000000E+00 
    2.5000000000042938E-01     6.2500000000066314E-01     0.0000000000000000E+00 
    2.5000000000053119E-01     6.8750000000037925E-01     0.0000000000000000E+00 
[...]
CELL_DATA 256 
SCALARS Pressure double 1 
LOOKUP_TABLE default 

    6.3865046453304342E-01 
    5.8940929961900779E-01 
    5.5858456965370418E-01 
    5.3108698743088478E-01 
    5.0341120992570554E-01 
    4.7463805556443051E-01 
    4.4453055914140160E-01 
    4.1324297536883853E-01 
    3.8111950481852402E-01 
    3.4865855271210544E-01 
    3.1656734210674892E-01 
    2.8597524615606496E-01 
    2.5866506290494318E-01 
    2.3695939498055210E-01 
    2.2297490246952625E-01 
    2.1629554718827193E-01 
    6.2464893413893074E-01 
    5.9061984505920695E-01 
    5.6086691979733894E-01 
    5.3357581809813226E-01 
    5.0607402097732823E-01 
    4.7746457797031500E-01 
    4.4749742037510060E-01 
    4.1630730346554862E-01 
    3.8421718760646506E-01 
    3.5169767269089830E-01 
    3.1941320335572498E-01 
    2.8843039421865474E-01 
    2.6048366967693920E-01 
    2.3793593130997487E-01 
    2.2312648223151785E-01 
    2.1592801211536281E-01 
    6.1391125752612175E-01 
    5.8971375617495392E-01 
    5.6241530710480137E-01 
    5.3574715664612849E-01 
    5.0855484209793256E-01 
    4.8016435051227147E-01 
    4.5036222584513519E-01 
    4.1927578068713051E-01 
    3.8720447249467582E-01 
    3.5458175551611476E-01 
    3.2202003282410518E-01 
    2.9051323336444929E-01 
    2.6174693185720388E-01 
    2.3815835433975482E-01 
    2.2239433102779274E-01 
    2.1472957953998756E-01 
    6.0550158421964984E-01 
    5.8775374432352678E-01 
    5.6327397718321759E-01 
    5.3757904133224244E-01 
    5.1084463513919065E-01 
    4.8273909423065331E-01 
    4.5313236851411592E-01 
    4.2215999663808174E-01 
    3.9009955765304338E-01 
    3.5734084321916310E-01 
    3.2443349597313109E-01 
    2.9228401168072765E-01 
    2.6251579772097544E-01 
    2.3765514338668992E-01 
    2.2073741972281594E-01 
    2.1257550975371695E-01 
    5.9878411377851160E-01 
    5.8533685925066703E-01 
    5.6357875638459187E-01 
    5.3908218282436993E-01 
    5.1294052731678885E-01 
    4.8518970363816744E-01 
    4.5581451200462675E-01 
    4.2497246184676019E-01 
    3.9292282641880732E-01 
    3.6000784152030330E-01 
    3.2670313737515017E-01 
    2.9380919871851574E-01 
    2.6286029582132486E-01 
    2.3646214667539950E-01 
    2.1810990721134135E-01 
    2.0933222285051181E-01 
    5.9335043700501433E-01 
    5.8280611573835484E-01 
    5.6348125855497411E-01 
    5.4029110743348974E-01 
    5.1484813916183791E-01 
    4.8751745724164419E-01 
    4.5841376977984877E-01 
    4.2772468396131441E-01 
    3.9569486557991307E-01 
    3.6261746315905691E-01 
    3.2888234569619146E-01 
    2.9516268860864525E-01 
    2.6286232924792025E-01 
    2.3462782799842921E-01 
    2.1446292552806098E-01 
    2.0484066783169796E-01 
    5.8892714368825738E-01 
    5.8036450932262007E-01 
    5.6312648983778035E-01 
    5.4125823574716225E-01 
    5.1658530210279208E-01 
    4.8973034328290044E-01 
    4.6093615967401058E-01 
    4.3042715857147074E-01 
    3.9843573078803096E-01 
    3.6520422406996261E-01 
    3.3102780085666733E-01 
    2.9642695586930029E-01 
    2.6262003166990583E-01 
    2.3222179219670214E-01 
    2.0975523021958314E-01 
    1.9892034379733137E-01 
    5.8532243106628856E-01 
    5.7812916411454707E-01 
    5.6264010465328329E-01 
    5.4204573036335757E-01 
    5.1818078632959563E-01 
    4.9184350400445503E-01 
    4.6339169145943243E-01 
    4.3309010857898067E-01 
    4.0116231129862656E-01 
    3.6779966628552041E-01 
    3.3319545487215879E-01 
    2.9769234022179597E-01 
    2.6225246661233753E-01 
    2.2934417683750441E-01 
    2.0396174388775010E-01 
    1.9135915618221822E-01 
    5.8239616536065253E-01 
    5.7616282310812506E-01 
    5.6212361755045404E-01 
    5.4271788493521556E-01 
    5.1966841859111035E-01 
    4.9387570200684372E-01 
    4.6579241885142386E-01 
    4.3572418665371798E-01 
    4.0388952544195217E-01 
    3.7043053944237997E-01 
    3.3543634222774282E-01 
    2.9905174521588723E-01 
    2.6190111791358478E-01 
    2.2613701827856972E-01 
    1.9708037705729203E-01 
    1.8188828120714109E-01 
    5.8004549145689188E-01 
    5.7449717589483751E-01 
    5.6165568666647991E-01 
    5.4333525711590513E-01 
    5.2108452499356284E-01 
    4.9584773416082251E-01 
    4.6815203101781244E-01 
    4.3834096037537429E-01 
    4.0663129446308954E-01 
    3.7311951181145081E-01 
    3.3779423766858735E-01 
    3.0059521860129279E-01 
    2.6172736952077019E-01 
    2.2279725839618175E-01 
    1.8915013515290144E-01 
    1.7015053778794090E-01 
    5.7819397541403028E-01 
    5.7314746842246478E-01 
    5.6129752227922058E-01 
    5.4395331752502074E-01 
    5.2246662265954702E-01 
    4.9778338291160112E-01 
    4.7048581818849422E-01 
    4.4095297506758924E-01 
    4.0940208941898232E-01 
    3.7588724244364935E-01 
    3.4030642320546178E-01 
    3.0240629601735125E-01 
    2.6190906179497098E-01 
    2.1958677524438913E-01 
    1.8028335063852446E-01 
    1.5567204029279780E-01 
    5.7678138746252250E-01 
    5.7211939393938605E-01 
    5.6109792143778725E-01 
    5.4462306513543757E-01 
    5.2385356982278886E-01 
    4.9970950764774175E-01 
    4.7281214218250012E-01 
    4.4357413512315069E-01 
    4.1221656969655740E-01 
    3.7875307417178172E-01 
    3.4300322977392689E-01 
    3.0455769384860770E-01 
    2.6263437410623225E-01 
    2.1686387641571159E-01 
    1.7075567024573521E-01 
    1.3779914067187729E-01 
    5.7575998248006199E-01 
    5.7141441168485585E-01 
    5.6109719818116899E-01 
    5.4539231800585353E-01 
    5.2528522276467227E-01 
    5.0165605144414516E-01 
    4.7515267806984879E-01 
    4.4622059591239560E-01 
    4.1509034445012433E-01 
    3.8173585846110575E-01 
    3.4590810662788546E-01 
    3.0710525312296533E-01 
    2.6408567203450573E-01 
    2.1509442558816577E-01 
    1.6112468833062307E-01 
    1.1558408845173698E-01 
    5.7510018291193299E-01 
    5.7104356872188244E-01 
    5.6133883670912321E-01 
    5.4631269666633520E-01 
    5.2680691525758083E-01 
    5.0365773320533780E-01 
    4.7753197234342926E-01 
    4.4890781919342998E-01 
    4.1803656827058883E-01 
    3.8485117467292812E-01 
    3.4903147301893311E-01 
    3.1007531633683449E-01 
    2.6640971082365777E-01 
    2.1481729237672900E-01 
    1.5240214945334124E-01 
    8.7541208376735694E-02 
    5.7472203131860955E-01 
    5.7097330441531202E-01 
    5.6183291309790595E-01 
    5.4741153676835042E-01 
    5.2844343972381735E-01 
    5.0572579675370211E-01 
    4.7994559956563820E-01 
    4.5161243092204567E-01 
    4.2100215055733370E-01 
    3.8803477754993859E-01 
    3.5230616549542260E-01 
    3.1338062350625245E-01 
    2.6957267888538727E-01 
    2.1642822291640032E-01 
    1.4636314414087623E-01 
    5.1308480269173833E-02 
    5.7459485050875525E-01 
    5.7117541138941019E-01 
    5.6256333473437092E-01 
    5.4868800666577411E-01 
    5.3020151547448957E-01 
    5.0787298079135712E-01 
    4.8240528861578164E-01 
    4.5434261562846356E-01 
    4.2397154680789600E-01 
    3.9125968421162610E-01 
    3.5576149637666038E-01 
    3.1708198407586236E-01 
    2.7362918120643287E-01 
    2.2021713131946047E-01 
    1.4587898764939550E-01 
    0.0000000000000000E+00 

SCALARS Saturarion double 1 
LOOKUP_TABLE default 

    1.0000000000000002E+00 
    9.7990310674708436E-01 
    9.4286664199841985E-01 
    8.9076962649834968E-01 
    8.4733756248960002E-01 
    8.0885277200477490E-01 
    7.7482824016442242E-01 
    7.4485585911156038E-01 
    7.1816263145045600E-01 
    6.9388426992593610E-01 
    6.7106249186598366E-01 
    6.4853155636806836E-01 
    6.2442416036774773E-01 
    5.9499509798756345E-01 
    5.5180559217963343E-01 
    3.5066808940568084E-01 
    9.9267273054893512E-01 
    9.7368327443826985E-01 
    9.3479935743793607E-01 
    8.8506142965318957E-01 
    8.4248703252866464E-01 
    8.0511450853615008E-01 
    7.7206703849994762E-01 
    7.4276281300831715E-01 
    7.1657411619908673E-01 
    6.9270629736792766E-01 
    6.7039536626619622E-01 
    6.4861138410132413E-01 
    6.2549534573826104E-01 
    5.9707372908952394E-01 
    5.5530762479679319E-01 
    3.6907606397165171E-01 
    9.8106253983184510E-01 
    9.6191464372627111E-01 
    9.2269416652734226E-01 
    8.7446201045401850E-01 
    8.3284927416124432E-01 
    7.9734071476679624E-01 
    7.6629712463130439E-01 
    7.3844065875180431E-01 
    7.1318311600873707E-01 
    6.8996757666999409E-01 
    6.6828017027860209E-01 
    6.4732271912703654E-01 
    6.2563892025909840E-01 
    5.9941114656227878E-01 
    5.6036836067894180E-01 
    3.8640788490576961E-01 
    9.6083523834503415E-01 
    9.4463832712898654E-01 
    9.0767752943723867E-01 
    8.6329084152911417E-01 
    8.2240526168077177E-01 
    7.8755002840032651E-01 
    7.5756117463086148E-01 
    7.3119071789097057E-01 
    7.0739079365067370E-01 
    6.8562431161435478E-01 
    6.6521146095647654E-01 
    6.4543786644818313E-01 
    6.2511460597703528E-01 
    6.0119859902847639E-01 
    5.6534994048648390E-01 
    4.0346966433672893E-01 
    9.3568958748386821E-01 
    9.2103644619029712E-01 
    8.8756293613202131E-01 
    8.4750038286132912E-01 
    8.0860310831620652E-01 
    7.7439497742974650E-01 
    7.4518988755705906E-01 
    7.2001110348710318E-01 
    6.9789733256622832E-01 
    6.7810972154029026E-01 
    6.5999569242760081E-01 
    6.4256307285672387E-01 
    6.2425687442487332E-01 
    6.0244380901989358E-01 
    5.6975940558494009E-01 
    4.1808353850622815E-01 
    9.0663147006506595E-01 
    8.9419975389990991E-01 
    8.6486318038826937E-01 
    8.2825287426125238E-01 
    7.9204413981135713E-01 
    7.5943499451060914E-01 
    7.3099924443617936E-01 
    7.0663796502564669E-01 
    6.8570511991800864E-01 
    6.6757110509473783E-01 
    6.5172903834669560E-01 
    6.3740445381139232E-01 
    6.2247255020112902E-01 
    6.0334097407825493E-01 
    5.7347887067832448E-01 
    4.3148277032204868E-01 
    8.7458446093217901E-01 
    8.6503577300540946E-01 
    8.4009664105915405E-01 
    8.0710475159140005E-01 
    7.7393130544440358E-01 
    7.4360043727069025E-01 
    7.1678094225196398E-01 
    6.9315563279549697E-01 
    6.7278480356124881E-01 
    6.5556638657925026E-01 
    6.4136449014070962E-01 
    6.2969523548625039E-01 
    6.1879674680343832E-01 
    6.0376950312360034E-01 
    5.7708842808988758E-01 
    4.4474231337778813E-01 
    8.3942571258635468E-01 
    8.3318166495559409E-01 
    8.1334380735285483E-01 
    7.8464998247804207E-01 
    7.5442085903227907E-01 
    7.2626889912635606E-01 
    7.0093563015128335E-01 
    6.7859952246133382E-01 
    6.5917913642887593E-01 
    6.4283526283435921E-01 
    6.2968098331178812E-01 
    6.1994750062941240E-01 
    6.1268955979404072E-01 
    6.0296950671479366E-01 
    5.8071637047122449E-01 
    4.5818103883347483E-01 
    8.0114601442371258E-01 
    7.9823707064186655E-01 
    7.8356805366948590E-01 
    7.5962910607555534E-01 
    7.3287184246363712E-01 
    7.0688990818047526E-01 
    6.8317216250841839E-01 
    6.6203025470839294E-01 
    6.4363281063940192E-01 
    6.2817041734462042E-01 
    6.1610910117019080E-01 
    6.0803940705001669E-01 
    6.0397846299122293E-01 
    6.0001567382587873E-01 
    5.8379689659163991E-01 
    4.7119253319575377E-01 
    7.5978751316521476E-01 
    7.6009778421676633E-01 
    7.5040978025189375E-01 
    7.3107933851904949E-01 
    7.0803192890456834E-01 
    6.8465943672359209E-01 
    6.6257547655028926E-01 
    6.4288845418875429E-01 
    6.2583729159255741E-01 
    6.1149064707391743E-01 
    6.0026181868200801E-01 
    5.9341814589033182E-01 
    5.9214516337119005E-01 
    5.9410646351592622E-01 
    5.8541723709693994E-01 
    4.8415182299612453E-01 
    7.1504741692312679E-01 
    7.1841542998780050E-01 
    7.1347351411507476E-01 
    6.9848310470682684E-01 
    6.7917676167852581E-01 
    6.5890451312491072E-01 
    6.3935188888685157E-01 
    6.2123340975568453E-01 
    6.0546112086028703E-01 
    5.9239436467652351E-01 
    5.8233323300050366E-01 
    5.7627470491653210E-01 
    5.7665396524083223E-01 
    5.8418227060933314E-01 
    5.8322406849087116E-01 
    4.9765217036865728E-01 
    6.6550787266849998E-01 
    6.7191942279227745E-01 
    6.7191132766445649E-01 
    6.6139402621103882E-01 
    6.4560960330701889E-01 
    6.2821367188990440E-01 
    6.1112408342366042E-01 
    5.9541058120240742E-01 
    5.8156595858449978E-01 
    5.7009771949380106E-01 
    5.6145548957418523E-01 
    5.5668916703617177E-01 
    5.5796398560289617E-01 
    5.6912537736226765E-01 
    5.7977151017268724E-01 
    5.0970358765818280E-01 
    6.1039649432053389E-01 
    6.1937963293518239E-01 
    6.2389772417283484E-01 
    6.1801983856450848E-01 
    6.0644454548722548E-01 
    5.9244670961325230E-01 
    5.7844002499488101E-01 
    5.6502289323573562E-01 
    5.5293001209533532E-01 
    5.4299284274205195E-01 
    5.3617484107960567E-01 
    5.3307176375558107E-01 
    5.3579500857258333E-01 
    5.4880591955190816E-01 
    5.7114916705426677E-01 
    5.1959010718619703E-01 
    5.5323502684022619E-01 
    5.6364799033609148E-01 
    5.7135603308362581E-01 
    5.6973429387548102E-01 
    5.6227943338892716E-01 
    5.5155336603504834E-01 
    5.3966971386968166E-01 
    5.2776604032617880E-01 
    5.1577576421644844E-01 
    5.0640762245791571E-01 
    5.0015022291257161E-01 
    4.9804031235347856E-01 
    5.0388843463998023E-01 
    5.2177641442513956E-01 
    5.5289582980052554E-01 
    5.2493530693397328E-01 
    4.2172327639887047E-01 
    4.4956872921730334E-01 
    4.7156948840169649E-01 
    4.7864420178181555E-01 
    4.7528503124338134E-01 
    4.6423966367825159E-01 
    4.4749939614229806E-01 
    4.2751301231707706E-01 
    3.9987775977800488E-01 
    3.4795246290334697E-01 
    3.1411760809397204E-01 
    3.3832249548942966E-01 
    3.6871145758103091E-01 
    4.3032162566058818E-01 
    5.1620329293900991E-01 
    5.2567910115605077E-01 
    3.2395834409264315E-02 
    9.4066604555466504E-02 
    1.1706238924820260E-01 
    1.4232478285689298E-01 
    1.0544823219608299E-01 
    1.0058919195907820E-01 
    5.8757050421776917E-02 
    4.1859982615771653E-02 
    1.8481170501252239E-02 
    4.5441304958470843E-03 
    5.7713306251457146E-03 
    7.7656004820567072E-03 
    3.2042799050982701E-02 
    1.8687723196484629E-01 
    3.4631299473439514E-01 
    4.7538180304745581E-01 
