# vtk DataFile Version 2.0
Pressure Field Data 
ASCII 
DATASET UNSTRUCTURED_GRID 

POINTS 289 double 

    0.0000000000000000E+00     0.0000000000000000E+00     0.0000000000000000E+00 
    1.0000000000000000E+00     0.0000000000000000E+00     0.0000000000000000E+00 
    1.0000000000000000E+00     1.0000000000000000E+00     0.0000000000000000E+00 
    0.0000000000000000E+00     1.0000000000000000E+00     0.0000000000000000E+00 
    6.2499999999872928E-02     0.0000000000000000E+00     0.0000000000000000E+00 
    1.2499999999977310E-01     0.0000000000000000E+00     0.0000000000000000E+00 
    1.8749999999959341E-01     0.0000000000000000E+00     0.0000000000000000E+00 
    2.4999999999941089E-01     0.0000000000000000E+00     0.0000000000000000E+00 
    3.1249999999922851E-01     0.0000000000000000E+00     0.0000000000000000E+00 
    3.7499999999904610E-01     0.0000000000000000E+00     0.0000000000000000E+00 
    4.3749999999886358E-01     0.0000000000000000E+00     0.0000000000000000E+00 
    4.9999999999869210E-01     0.0000000000000000E+00     0.0000000000000000E+00 
    5.6249999999884603E-01     0.0000000000000000E+00     0.0000000000000000E+00 
    6.2499999999901090E-01     0.0000000000000000E+00     0.0000000000000000E+00 
    6.8749999999917577E-01     0.0000000000000000E+00     0.0000000000000000E+00 
    7.4999999999934064E-01     0.0000000000000000E+00     0.0000000000000000E+00 
    8.1249999999950551E-01     0.0000000000000000E+00     0.0000000000000000E+00 
    8.7499999999967026E-01     0.0000000000000000E+00     0.0000000000000000E+00 
    9.3749999999983513E-01     0.0000000000000000E+00     0.0000000000000000E+00 
    1.0000000000000000E+00     6.2499999999872928E-02     0.0000000000000000E+00 
    1.0000000000000000E+00     1.2499999999977310E-01     0.0000000000000000E+00 
    1.0000000000000000E+00     1.8749999999959341E-01     0.0000000000000000E+00 
    1.0000000000000000E+00     2.4999999999941089E-01     0.0000000000000000E+00 
    1.0000000000000000E+00     3.1249999999922851E-01     0.0000000000000000E+00 
    1.0000000000000000E+00     3.7499999999904610E-01     0.0000000000000000E+00 
    1.0000000000000000E+00     4.3749999999886358E-01     0.0000000000000000E+00 
    1.0000000000000000E+00     4.9999999999869210E-01     0.0000000000000000E+00 
    1.0000000000000000E+00     5.6249999999884603E-01     0.0000000000000000E+00 
    1.0000000000000000E+00     6.2499999999901090E-01     0.0000000000000000E+00 
    1.0000000000000000E+00     6.8749999999917577E-01     0.0000000000000000E+00 
    1.0000000000000000E+00     7.4999999999934064E-01     0.0000000000000000E+00 
    1.0000000000000000E+00     8.1249999999950551E-01     0.0000000000000000E+00 
    1.0000000000000000E+00     8.7499999999967026E-01     0.0000000000000000E+00 
    1.0000000000000000E+00     9.3749999999983513E-01     0.0000000000000000E+00 
    9.3749999999973976E-01     1.0000000000000000E+00     0.0000000000000000E+00 
    8.7499999999950118E-01     1.0000000000000000E+00     0.0000000000000000E+00 
    8.1249999999991318E-01     1.0000000000000000E+00     0.0000000000000000E+00 
    7.5000000000034706E-01     1.0000000000000000E+00     0.0000000000000000E+00 
    6.8750000000078049E-01     1.0000000000000000E+00     0.0000000000000000E+00 
    6.2500000000121403E-01     1.0000000000000000E+00     0.0000000000000000E+00 
    5.6250000000164757E-01     1.0000000000000000E+00     0.0000000000000000E+00 
    5.0000000000205946E-01     1.0000000000000000E+00     0.0000000000000000E+00 
    4.3750000000182099E-01     1.0000000000000000E+00     0.0000000000000000E+00 
    3.7500000000156092E-01     1.0000000000000000E+00     0.0000000000000000E+00 
    3.1250000000130068E-01     1.0000000000000000E+00     0.0000000000000000E+00 
    2.5000000000104050E-01     1.0000000000000000E+00     0.0000000000000000E+00 
    1.8750000000078040E-01     1.0000000000000000E+00     0.0000000000000000E+00 
    1.2500000000052031E-01     1.0000000000000000E+00     0.0000000000000000E+00 
    6.2500000000260125E-02     1.0000000000000000E+00     0.0000000000000000E+00 
    0.0000000000000000E+00     9.3749999999973976E-01     0.0000000000000000E+00 
    0.0000000000000000E+00     8.7499999999950118E-01     0.0000000000000000E+00 
    0.0000000000000000E+00     8.1249999999991318E-01     0.0000000000000000E+00 
    0.0000000000000000E+00     7.5000000000034706E-01     0.0000000000000000E+00 
    0.0000000000000000E+00     6.8750000000078049E-01     0.0000000000000000E+00 
    0.0000000000000000E+00     6.2500000000121403E-01     0.0000000000000000E+00 
    0.0000000000000000E+00     5.6250000000164757E-01     0.0000000000000000E+00 
    0.0000000000000000E+00     5.0000000000205946E-01     0.0000000000000000E+00 
    0.0000000000000000E+00     4.3750000000182099E-01     0.0000000000000000E+00 
    0.0000000000000000E+00     3.7500000000156092E-01     0.0000000000000000E+00 
    0.0000000000000000E+00     3.1250000000130068E-01     0.0000000000000000E+00 
    0.0000000000000000E+00     2.5000000000104050E-01     0.0000000000000000E+00 
    0.0000000000000000E+00     1.8750000000078040E-01     0.0000000000000000E+00 
    0.0000000000000000E+00     1.2500000000052031E-01     0.0000000000000000E+00 
    0.0000000000000000E+00     6.2500000000260125E-02     0.0000000000000000E+00 
    6.2499999999897131E-02     6.2500000000235922E-02     0.0000000000000000E+00 
    6.2499999999921327E-02     1.2500000000047351E-01     0.0000000000000000E+00 
    6.2499999999945530E-02     1.8750000000070621E-01     0.0000000000000000E+00 
    6.2499999999969733E-02     2.5000000000093858E-01     0.0000000000000000E+00 
    6.2499999999993928E-02     3.1250000000117117E-01     0.0000000000000000E+00 
    6.2500000000018124E-02     3.7500000000140382E-01     0.0000000000000000E+00 
    6.2500000000042327E-02     4.3750000000163619E-01     0.0000000000000000E+00 
    6.2500000000066530E-02     5.0000000000184897E-01     0.0000000000000000E+00 
    6.2500000000090733E-02     5.6250000000147260E-01     0.0000000000000000E+00 
    6.2500000000114922E-02     6.2500000000107636E-01     0.0000000000000000E+00 
    6.2500000000139125E-02     6.8750000000068034E-01     0.0000000000000000E+00 
    6.2500000000163328E-02     7.5000000000028411E-01     0.0000000000000000E+00 
    6.2500000000187531E-02     8.1249999999988787E-01     0.0000000000000000E+00 
    6.2500000000211720E-02     8.7499999999951172E-01     0.0000000000000000E+00 
    6.2500000000235922E-02     9.3749999999974565E-01     0.0000000000000000E+00 
    1.2499999999981980E-01     6.2500000000211733E-02     0.0000000000000000E+00 
    1.2499999999986650E-01     1.2500000000042691E-01     0.0000000000000000E+00 
    1.2499999999991319E-01     1.8750000000063199E-01     0.0000000000000000E+00 
    1.2499999999995989E-01     2.5000000000083678E-01     0.0000000000000000E+00 
    1.2500000000000661E-01     3.1250000000104172E-01     0.0000000000000000E+00 
    1.2500000000005329E-01     3.7500000000124661E-01     0.0000000000000000E+00 
    1.2500000000010000E-01     4.3750000000145117E-01     0.0000000000000000E+00 
    1.2500000000014669E-01     5.0000000000163858E-01     0.0000000000000000E+00 
    1.2500000000019340E-01     5.6250000000129741E-01     0.0000000000000000E+00 
    1.2500000000024011E-01     6.2500000000093847E-01     0.0000000000000000E+00 
    1.2500000000028680E-01     6.8750000000057998E-01     0.0000000000000000E+00 
    1.2500000000033351E-01     7.5000000000022127E-01     0.0000000000000000E+00 
    1.2500000000038020E-01     8.1249999999986211E-01     0.0000000000000000E+00 
    1.2500000000042691E-01     8.7499999999952238E-01     0.0000000000000000E+00 
    1.2500000000047359E-01     9.3749999999975164E-01     0.0000000000000000E+00 
    1.8749999999966760E-01     6.2500000000187531E-02     0.0000000000000000E+00 
    1.8749999999974179E-01     1.2500000000038020E-01     0.0000000000000000E+00 
    1.8749999999981601E-01     1.8750000000055780E-01     0.0000000000000000E+00 
    1.8749999999989009E-01     2.5000000000073502E-01     0.0000000000000000E+00 
    1.8749999999996431E-01     3.1250000000091221E-01     0.0000000000000000E+00 
    1.8750000000003850E-01     3.7500000000108941E-01     0.0000000000000000E+00 
    1.8750000000011269E-01     4.3750000000126649E-01     0.0000000000000000E+00 
    1.8750000000018691E-01     5.0000000000142808E-01     0.0000000000000000E+00 
    1.8750000000026110E-01     5.6250000000112244E-01     0.0000000000000000E+00 
    1.8750000000033529E-01     6.2500000000080080E-01     0.0000000000000000E+00 
    1.8750000000040951E-01     6.8750000000047962E-01     0.0000000000000000E+00 
    1.8750000000048361E-01     7.5000000000015843E-01     0.0000000000000000E+00 
    1.8750000000055780E-01     8.1249999999983680E-01     0.0000000000000000E+00 
    1.8750000000063199E-01     8.7499999999953304E-01     0.0000000000000000E+00 
    1.8750000000070621E-01     9.3749999999975764E-01     0.0000000000000000E+00 
    2.4999999999951281E-01     6.2500000000163314E-02     0.0000000000000000E+00 
    2.4999999999961461E-01     1.2500000000033351E-01     0.0000000000000000E+00 
    2.4999999999971650E-01     1.8750000000048361E-01     0.0000000000000000E+00 
    2.4999999999981831E-01     2.5000000000063310E-01     0.0000000000000000E+00 
    2.4999999999992020E-01     3.1250000000078260E-01     0.0000000000000000E+00 
    2.5000000000002198E-01     3.7500000000093209E-01     0.0000000000000000E+00 
    2.5000000000012390E-01     4.3750000000108180E-01     0.0000000000000000E+00 
    2.5000000000022571E-01     5.0000000000121769E-01     0.0000000000000000E+00 
    2.5000000000032763E-01     5.6250000000094724E-01     0.0000000000000000E+00 
    2.5000000000042938E-01     6.2500000000066314E-01     0.0000000000000000E+00 
    2.5000000000053119E-01     6.8750000000037925E-01     0.0000000000000000E+00 
[...]
CELL_DATA 256 
SCALARS Pressure double 1 
LOOKUP_TABLE default 

    6.3332867643268742E-01 
    5.8415098243099695E-01 
    5.5342744105426944E-01 
    5.2606529673246638E-01 
    4.9855560864874204E-01 
    4.6997614650917391E-01 
    4.4008793845231881E-01 
    4.0904180169906951E-01 
    3.7717656078937695E-01 
    3.4498291221994809E-01 
    3.1315832554791212E-01 
    2.8281965775610407E-01 
    2.5573247398128979E-01 
    2.3419719217500476E-01 
    2.2031387864398239E-01 
    2.1370072676348456E-01 
    6.1932516417328598E-01 
    5.8535435367503219E-01 
    5.5569927574106148E-01 
    5.2854068934072573E-01 
    5.0120223070372494E-01 
    4.7278377888732642E-01 
    4.4303336565155327E-01 
    4.1208270934636593E-01 
    3.8024978713980151E-01 
    3.4799775511465597E-01 
    3.1598157137388722E-01 
    2.8525584609926791E-01 
    2.5753823526152048E-01 
    2.3516894967976643E-01 
    2.2046711167936578E-01 
    2.1333914731681761E-01 
    6.0858610046939599E-01 
    5.8444283038441402E-01 
    5.5723891240298229E-01 
    5.3070030627026588E-01 
    5.0366856170262408E-01 
    4.7546633722874132E-01 
    4.4587832794704491E-01 
    4.1502932323761610E-01 
    3.8321435955016964E-01 
    3.5085977809745100E-01 
    3.1856875739106610E-01 
    2.8732390602540053E-01 
    2.5879468904176239E-01 
    2.3539486916844482E-01 
    2.1974667193711236E-01 
    2.1215737774606111E-01 
    6.0017730499273736E-01 
    5.8247952344872855E-01 
    5.5809085207323150E-01 
    5.3252217744590291E-01 
    5.0594530863338005E-01 
    4.7802520807746307E-01 
    4.4862996113027270E-01 
    4.1789308155202920E-01 
    3.8608837925523581E-01 
    3.5359888947986262E-01 
    3.2096524254273323E-01 
    2.8908350872820493E-01 
    2.5956210409382308E-01 
    2.3490303048953706E-01 
    2.1811188410511070E-01 
    2.1003179010603262E-01 
    5.9346383393177304E-01 
    5.8006200621671844E-01 
    5.5839108195099540E-01 
    5.3401711091409998E-01 
    5.0802956425971468E-01 
    4.8046103906419468E-01 
    4.5129455456212514E-01 
    4.2068611215003898E-01 
    3.8889191456284666E-01 
    3.5624773025752254E-01 
    3.2322020612293434E-01 
    2.9060046827730196E-01 
    2.5990966118870723E-01 
    2.3372879624183185E-01 
    2.1551733297738551E-01 
    2.0683008329917663E-01 
    5.8803658142696125E-01 
    5.7753316907514529E-01 
    5.5829122009679533E-01 
    5.3521967875430476E-01 
    5.0992696617911437E-01 
    4.8277496575761913E-01 
    4.5387685894881963E-01 
    4.2341938883257152E-01 
    3.9164498794610536E-01 
    3.5884053309612984E-01 
    3.2538655386514220E-01 
    2.9194795240141835E-01 
    2.5991825876801006E-01 
    2.3192000178488145E-01 
    2.1191471050711808E-01 
    2.0239503925924715E-01 
    5.8362115408418913E-01 
    5.7509542762236554E-01 
    5.5793598293176527E-01 
    5.3618209607209255E-01 
    5.1165519767889966E-01 
    4.8497484867588708E-01 
    4.5638266107391873E-01 
    4.2610294779420194E-01 
    3.9436702108048105E-01 
    3.6141119551608658E-01 
    3.2752036259523049E-01 
    2.9320762975334419E-01 
    2.5968489584996013E-01 
    2.2954523923639039E-01 
    2.0726293221948669E-01 
    1.9654796800046434E-01 
    5.8002510884038960E-01 
    5.7286531857674561E-01 
    5.5745058470090136E-01 
    5.3696619434605175E-01 
    5.1324281918940384E-01 
    4.8707572016420647E-01 
    4.5882183362158319E-01 
    4.2874667119986465E-01 
    3.9707434535722030E-01 
    3.6399066817986525E-01 
    3.2967694493348448E-01 
    2.9446891321377472E-01 
    2.5932734201027280E-01 
    2.2670323518918128E-01 
    2.0153655271492918E-01 
    1.8907847271568948E-01 
    5.7710783382539588E-01 
    5.7090506554827558E-01 
    5.5693608528110050E-01 
    5.3763594137393667E-01 
    5.1472348125439726E-01 
    4.8909625304672399E-01 
    4.6120630412742153E-01 
    4.3136087775420978E-01 
    3.9978136783146323E-01 
    3.6660527423294065E-01 
    3.3190686729178703E-01 
    2.9582370482345083E-01 
    2.5898551726722635E-01 
    2.2353443299736780E-01 
    1.9473328295192910E-01 
    1.7972046150598764E-01 
    5.7476603787748248E-01 
    5.6924588727849101E-01 
    5.5647074535484276E-01 
    5.3825161860801496E-01 
    5.1613335693314455E-01 
    4.9105715085453555E-01 
    4.6354961244628601E-01 
    4.3395671476155773E-01 
    4.0250139976090316E-01 
    3.6927739866836540E-01 
    3.3425380870889743E-01 
    2.9736116967703946E-01 
    2.5881884803394711E-01 
    2.2023381544256301E-01 
    1.8689188381663441E-01 
    1.6812091370842178E-01 
    5.7292294083922624E-01 
    5.6790263165727628E-01 
    5.5611541410077203E-01 
    5.3886843148727037E-01 
    5.1750979956240273E-01 
    4.9298207645026665E-01 
    4.6586688794946252E-01 
    4.3654617999091672E-01 
    4.0524801674646171E-01 
    3.7202737448510298E-01 
    3.3675536169196740E-01 
    2.9916428936780964E-01 
    2.5900283895690251E-01 
    2.1705932200610212E-01 
    1.7812115302876907E-01 
    1.5380900251837881E-01 
    5.7151806132697458E-01 
    5.6688067436073419E-01 
    5.5591853411229453E-01 
    5.3953708117189836E-01 
    5.1889146239021056E-01 
    4.9489771766917690E-01 
    4.6817631656451270E-01 
    4.3914245347999376E-01 
    4.0803447271067272E-01 
    3.7487394390308992E-01 
    3.3944251656798430E-01 
    3.0130563695790219E-01 
    2.5972305485133634E-01 
    2.1436521724148699E-01 
    1.6869444421687871E-01 
    1.3613647705856957E-01 
    5.7050307514224985E-01 
    5.6618091920693492E-01 
    5.5591983923513677E-01 
    5.4030483899263615E-01 
    5.2031778206310131E-01 
    4.9683369703799940E-01 
    4.7049945510322089E-01 
    4.4176085112650992E-01 
    4.1087420123351287E-01 
    3.7783480988993745E-01 
    3.4233979594900082E-01 
    3.0384142638870060E-01 
    2.6115934138882374E-01 
    2.1260433310102758E-01 
    1.5914911562914169E-01 
    1.1415143535954149E-01 
    5.6984761892409319E-01 
    5.6581338879534304E-01 
    5.5616174696572496E-01 
    5.4122243062448983E-01 
    5.2183362933317357E-01 
    4.9882469471628227E-01 
    4.7286161261679682E-01 
    4.4441673820117572E-01 
    4.1377732444377074E-01 
    3.8092404093912308E-01 
    3.4546109841031125E-01 
    3.0680104738124553E-01 
    2.6345755691972161E-01 
    2.1232661416328710E-01 
    1.5053671735942140E-01 
    8.6437584827223995E-02 
    5.6947714412760597E-01 
    5.6574851493268274E-01 
    5.5665674994965386E-01 
    5.4231940230608400E-01 
    5.2346629597950922E-01 
    5.0088504678274248E-01 
    4.7526335770961137E-01 
    4.4709420860083499E-01 
    4.1669974181646929E-01 
    3.8407855159192833E-01 
    3.4873897476244337E-01 
    3.1010686664841786E-01 
    2.6659426717385615E-01 
    2.1393542876418051E-01 
    1.4461717599234128E-01 
    5.0711034161584512E-02 
    5.6935319502575810E-01 
    5.6595198073388753E-01 
    5.5738461817885421E-01 
    5.4359161688087765E-01 
    5.2521947146227421E-01 
    5.0302443795456397E-01 
    4.7771400461343921E-01 
    4.4980464321393132E-01 
    4.1963522608693854E-01 
    3.8726741081724197E-01 
    3.5217341034353405E-01 
    3.1379974111145148E-01 
    2.7061176842322554E-01 
    2.1767340105569652E-01 
    1.4414795101824476E-01 
    0.0000000000000000E+00 

SCALARS Saturarion double 1 
LOOKUP_TABLE default 

    1.0000000000000004E+00 
    9.8023464361861790E-01 
    9.4378615512980490E-01 
    8.9219834781051732E-01 
    8.4920830854841667E-01 
    8.1109962897677379E-01 
    7.7735497143646626E-01 
    7.4757872052666285E-01 
    7.2102402625656081E-01 
    6.9684961578963034E-01 
    6.7411783183124485E-01 
    6.5168507508537654E-01 
    6.2771336688672585E-01 
    5.9849103508098023E-01 
    5.5590261408605179E-01 
    3.6126737362937317E-01 
    9.9281831691071587E-01 
    9.7414711586743163E-01 
    9.3586825930993078E-01 
    8.8661685743620378E-01 
    8.4441856980793384E-01 
    8.0736651706904583E-01 
    7.7457842945486366E-01 
    7.4547449224135287E-01 
    7.1943689336072281E-01 
    6.9568434332346285E-01 
    6.7346637077174465E-01 
    6.5177245581562160E-01 
    6.2877839821779768E-01 
    6.0055660794826438E-01 
    5.5928489201267151E-01 
    3.7886841257228843E-01 
    9.8143446424374192E-01 
    9.6259330722321934E-01 
    9.2396317741790168E-01 
    8.7619949667550034E-01 
    8.3488026409100746E-01 
    7.9960337941774706E-01 
    7.6877725489890769E-01 
    7.4112515285238745E-01 
    7.1604694878726793E-01 
    6.9297873881791061E-01 
    6.7140340752574745E-01 
    6.5052966036690463E-01 
    6.2893349534924281E-01 
    6.0287331405270306E-01 
    5.6423599735687968E-01 
    3.9551302295643626E-01 
    9.6160232183132066E-01 
    9.4566421552114277E-01 
    9.0916812148273296E-01 
    8.6521231675410126E-01 
    8.2462142961164986E-01 
    7.8995271117256227E-01 
    7.6010963269480070E-01 
    7.3388452961600681E-01 
    7.1023983749904795E-01 
    6.8862634526829070E-01 
    6.6834968037670717E-01 
    6.4868067485352121E-01 
    6.2843300121171164E-01 
    6.0463991101816639E-01 
    5.6911984660317705E-01 
    4.1193313948429616E-01 
    9.3692143284927110E-01 
    9.2246520861503345E-01 
    8.8934757717004864E-01 
    8.4966339572570282E-01 
    8.1103952691413805E-01 
    7.7698641074818453E-01 
    7.4786956647314506E-01 
    7.2276467142529899E-01 
    7.0073956969212725E-01 
    6.8106274475223849E-01 
    6.6307708029831280E-01 
    6.4577642112427436E-01 
    6.2757876148425262E-01 
    6.0587094991740953E-01 
    5.7346232261032448E-01 
    4.2604845692412652E-01 
    9.0830272037580218E-01 
    8.9600643036429728E-01 
    8.6695480653368595E-01 
    8.3064970206277611E-01 
    7.9465739398518886E-01 
    7.6217369050056472E-01 
    7.3381027115300546E-01 
    7.0949407039764745E-01 
    6.8859776486721791E-01 
    6.7050887002750403E-01 
    6.5473966953805796E-01 
    6.4053123676525014E-01 
    6.2574583495409486E-01 
    6.0674989654547717E-01 
    5.7714159924352459E-01 
    4.3901870371577950E-01 
    8.7666123303180488E-01 
    8.6720074719300211E-01 
    8.4247295395494171E-01 
    8.0970728106091583E-01 
    7.7669298968985556E-01 
    7.4646273386359563E-01 
    7.1970888888464379E-01 
    6.9612571798166978E-01 
    6.7577235251265266E-01 
    6.5855486628554594E-01 
    6.4435877671430508E-01 
    6.3273992269586621E-01 
    6.2197668706424059E-01 
    6.0713326033899118E-01 
    5.8067189030110322E-01 
    4.5185503981483660E-01 
    8.4189041949880516E-01 
    8.3568631320800901E-01 
    8.1597491273254785E-01 
    7.8743421377052258E-01 
    7.5732671492009751E-01 
    7.2926001417494712E-01 
    7.0398422602084443E-01 
    6.8167745576668015E-01 
    6.6226205495788859E-01 
    6.4590578030544554E-01 
    6.3272627150888561E-01 
    6.2297333600819527E-01 
    6.1577701285330244E-01 
    6.0625172628041624E-01 
    5.8420872123577594E-01 
    4.6487317714067661E-01 
    8.0395960867313143E-01 
    8.0105332366202719E-01 
    7.8644317742428038E-01 
    7.6259543356796822E-01 
    7.3592532746200667E-01 
    7.1001169308920997E-01 
    6.8633508636950147E-01 
    6.6520689574725722E-01 
    6.4680326989465442E-01 
    6.3132632325171700E-01 
    6.1923954973599615E-01 
    6.1111817188036621E-01 
    6.0702515255248768E-01 
    6.0319699188442877E-01 
    5.8722841853952623E-01 
    4.7751429029986148E-01 
    7.6290298164003789E-01 
    7.6319233978941980E-01 
    7.5351762260499122E-01 
    7.3423319562845679E-01 
    7.1124018623647367E-01 
    6.8791178332943403E-01 
    6.6584576454251576E-01 
    6.4614722421918813E-01 
    6.2907112959060207E-01 
    6.1471251695809248E-01 
    6.0348420220030496E-01 
    5.9660295486974368E-01 
    5.9523268668322027E-01 
    5.9720318043588272E-01 
    5.8879144164723174E-01 
    4.9012997478022302E-01 
    7.1842404659963000E-01 
    7.2175687713458725E-01 
    7.1679971527866859E-01 
    7.0182299163039585E-01 
    6.8254146880007871E-01 
    6.6228617361536568E-01 
    6.4272198888902710E-01 
    6.2455920327214498E-01 
    6.0872696747185251E-01 
    5.9563070656555284E-01 
    5.8559307666213067E-01 
    5.7955394708035324E-01 
    5.7985462658976050E-01 
    5.8726035638126362E-01 
    5.8622912698922192E-01 
    5.0324642514095641E-01 
    6.6910874120082731E-01 
    6.7547786003831867E-01 
    6.7543432882887655E-01 
    6.6490309233940159E-01 
    6.4911351790246619E-01 
    6.3170168363296952E-01 
    6.1455917426693141E-01 
    5.9875528384987331E-01 
    5.8479821266748455E-01 
    5.7325949045692892E-01 
    5.6464269339997997E-01 
    5.5994355706201304E-01 
    5.6123613282400731E-01 
    5.7227758739174084E-01 
    5.8291305988734143E-01 
    5.1492888840218243E-01 
    6.1398461763156931E-01 
    6.2297821479541982E-01 
    6.2749046664562880E-01 
    6.2156437030195910E-01 
    6.0992722199537042E-01 
    5.9586675294298463E-01 
    5.8180372603656727E-01 
    5.6830733477272355E-01 
    5.5606063872522660E-01 
    5.4595789244323911E-01 
    5.3913126438940107E-01 
    5.3613096611406275E-01 
    5.3893576235353124E-01 
    5.5198988938475391E-01 
    5.7248794354038701E-01 
    5.2413127756226741E-01 
    5.5660890139283348E-01 
    5.6690950685036601E-01 
    5.7468136770944755E-01 
    5.7303095437629847E-01 
    5.6558186146344669E-01 
    5.5492218495931023E-01 
    5.4321045594170014E-01 
    5.3147997937857472E-01 
    5.1943785079564786E-01 
    5.0961448519287467E-01 
    5.0352113996883918E-01 
    5.0191585418850759E-01 
    5.0749493575057580E-01 
    5.2489755288783468E-01 
    5.5888623360469014E-01 
    5.3011944226174623E-01 
    4.3174830789462842E-01 
    4.5692798970206172E-01 
    4.7726745803859544E-01 
    4.8434561610288573E-01 
    4.8126925467055737E-01 
    4.7065003251364973E-01 
    4.5511334350631194E-01 
    4.3693241841531361E-01 
    4.1541920603212695E-01 
    3.7550420133973256E-01 
    3.3424738729805287E-01 
    3.4534404019548276E-01 
    3.8002240142924476E-01 
    4.3880662325864656E-01 
    5.2125958489245150E-01 
    5.3072033996949552E-01 
    4.0641112648154759E-02 
    1.0562453675998723E-01 
    1.2704860132597004E-01 
    1.5410104639994654E-01 
    1.1665618671984149E-01 
    1.1441279484227340E-01 
    6.9037737087377163E-02 
    5.4972822287022591E-02 
    2.4495719627104666E-02 
    8.8987732421027237E-03 
    8.1141040251914015E-03 
    1.1799393652876803E-02 
    4.1709673482603890E-02 
    1.9384967778097800E-01 
    3.4954704804844600E-01 
    4.7960051044757179E-01 
