# vtk DataFile Version 2.0
Pressure Field Data 
ASCII 
DATASET UNSTRUCTURED_GRID 

POINTS 289 double 

    0.0000000000000000E+00     0.0000000000000000E+00     0.0000000000000000E+00 
    1.0000000000000000E+00     0.0000000000000000E+00     0.0000000000000000E+00 
    1.0000000000000000E+00     1.0000000000000000E+00     0.0000000000000000E+00 
    0.0000000000000000E+00     1.0000000000000000E+00     0.0000000000000000E+00 
    6.2499999999872928E-02     0.0000000000000000E+00     0.0000000000000000E+00 
    1.2499999999977310E-01     0.0000000000000000E+00     0.0000000000000000E+00 
    1.8749999999959341E-01     0.0000000000000000E+00     0.0000000000000000E+00 
    2.4999999999941089E-01     0.0000000000000000E+00     0.0000000000000000E+00 
    3.1249999999922851E-01     0.0000000000000000E+00     0.0000000000000000E+00 
    3.7499999999904610E-01     0.0000000000000000E+00     0.0000000000000000E+00 
    4.3749999999886358E-01     0.0000000000000000E+00     0.0000000000000000E+00 
    4.9999999999869210E-01     0.0000000000000000E+00     0.0000000000000000E+00 
    5.6249999999884603E-01     0.0000000000000000E+00     0.0000000000000000E+00 
    6.2499999999901090E-01     0.0000000000000000E+00     0.0000000000000000E+00 
    6.8749999999917577E-01     0.0000000000000000E+00     0.0000000000000000E+00 
    7.4999999999934064E-01     0.0000000000000000E+00     0.0000000000000000E+00 
    8.1249999999950551E-01     0.0000000000000000E+00     0.0000000000000000E+00 
    8.7499999999967026E-01     0.0000000000000000E+00     0.0000000000000000E+00 
    9.3749999999983513E-01     0.0000000000000000E+00     0.0000000000000000E+00 
    1.0000000000000000E+00     6.2499999999872928E-02     0.0000000000000000E+00 
    1.0000000000000000E+00     1.2499999999977310E-01     0.0000000000000000E+00 
    1.0000000000000000E+00     1.8749999999959341E-01     0.0000000000000000E+00 
    1.0000000000000000E+00     2.4999999999941089E-01     0.0000000000000000E+00 
    1.0000000000000000E+00     3.1249999999922851E-01     0.0000000000000000E+00 
    1.0000000000000000E+00     3.7499999999904610E-01     0.0000000000000000E+00 
    1.0000000000000000E+00     4.3749999999886358E-01     0.0000000000000000E+00 
    1.0000000000000000E+00     4.9999999999869210E-01     0.0000000000000000E+00 
    1.0000000000000000E+00     5.6249999999884603E-01     0.0000000000000000E+00 
    1.0000000000000000E+00     6.2499999999901090E-01     0.0000000000000000E+00 
    1.0000000000000000E+00     6.8749999999917577E-01     0.0000000000000000E+00 
    1.0000000000000000E+00     7.4999999999934064E-01     0.0000000000000000E+00 
    1.0000000000000000E+00     8.1249999999950551E-01     0.0000000000000000E+00 
    1.0000000000000000E+00     8.7499999999967026E-01     0.0000000000000000E+00 
    1.0000000000000000E+00     9.3749999999983513E-01     0.0000000000000000E+00 
    9.3749999999973976E-01     1.0000000000000000E+00     0.0000000000000000E+00 
    8.7499999999950118E-01     1.0000000000000000E+00     0.0000000000000000E+00 
    8.1249999999991318E-01     1.0000000000000000E+00     0.0000000000000000E+00 
    7.5000000000034706E-01     1.0000000000000000E+00     0.0000000000000000E+00 
    6.8750000000078049E-01     1.0000000000000000E+00     0.0000000000000000E+00 
    6.2500000000121403E-01     1.0000000000000000E+00     0.0000000000000000E+00 
    5.6250000000164757E-01     1.0000000000000000E+00     0.0000000000000000E+00 
    5.0000000000205946E-01     1.0000000000000000E+00     0.0000000000000000E+00 
    4.3750000000182099E-01     1.0000000000000000E+00     0.0000000000000000E+00 
    3.7500000000156092E-01     1.0000000000000000E+00     0.0000000000000000E+00 
    3.1250000000130068E-01     1.0000000000000000E+00     0.0000000000000000E+00 
    2.5000000000104050E-01     1.0000000000000000E+00     0.0000000000000000E+00 
    1.8750000000078040E-01     1.0000000000000000E+00     0.0000000000000000E+00 
    1.2500000000052031E-01     1.0000000000000000E+00     0.0000000000000000E+00 
    6.2500000000260125E-02     1.0000000000000000E+00     0.0000000000000000E+00 
    0.0000000000000000E+00     9.3749999999973976E-01     0.0000000000000000E+00 
    0.0000000000000000E+00     8.7499999999950118E-01     0.0000000000000000E+00 
    0.0000000000000000E+00     8.1249999999991318E-01     0.0000000000000000E+00 
    0.0000000000000000E+00     7.5000000000034706E-01     0.0000000000000000E+00 
    0.0000000000000000E+00     6.8750000000078049E-01     0.0000000000000000E+00 
    0.0000000000000000E+00     6.2500000000121403E-01     0.0000000000000000E+00 
    0.0000000000000000E+00     5.6250000000164757E-01     0.0000000000000000E+00 
    0.0000000000000000E+00     5.0000000000205946E-01     0.0000000000000000E+00 
    0.0000000000000000E+00     4.3750000000182099E-01     0.0000000000000000E+00 
    0.0000000000000000E+00     3.7500000000156092E-01     0.0000000000000000E+00 
    0.0000000000000000E+00     3.1250000000130068E-01     0.0000000000000000E+00 
    0.0000000000000000E+00     2.5000000000104050E-01     0.0000000000000000E+00 
    0.0000000000000000E+00     1.8750000000078040E-01     0.0000000000000000E+00 
    0.0000000000000000E+00     1.2500000000052031E-01     0.0000000000000000E+00 
    0.0000000000000000E+00     6.2500000000260125E-02     0.0000000000000000E+00 
    6.2499999999897131E-02     6.2500000000235922E-02     0.0000000000000000E+00 
    6.2499999999921327E-02     1.2500000000047351E-01     0.0000000000000000E+00 
    6.2499999999945530E-02     1.8750000000070621E-01     0.0000000000000000E+00 
    6.2499999999969733E-02     2.5000000000093858E-01     0.0000000000000000E+00 
    6.2499999999993928E-02     3.1250000000117117E-01     0.0000000000000000E+00 
    6.2500000000018124E-02     3.7500000000140382E-01     0.0000000000000000E+00 
    6.2500000000042327E-02     4.3750000000163619E-01     0.0000000000000000E+00 
    6.2500000000066530E-02     5.0000000000184897E-01     0.0000000000000000E+00 
    6.2500000000090733E-02     5.6250000000147260E-01     0.0000000000000000E+00 
    6.2500000000114922E-02     6.2500000000107636E-01     0.0000000000000000E+00 
    6.2500000000139125E-02     6.8750000000068034E-01     0.0000000000000000E+00 
    6.2500000000163328E-02     7.5000000000028411E-01     0.0000000000000000E+00 
    6.2500000000187531E-02     8.1249999999988787E-01     0.0000000000000000E+00 
    6.2500000000211720E-02     8.7499999999951172E-01     0.0000000000000000E+00 
    6.2500000000235922E-02     9.3749999999974565E-01     0.0000000000000000E+00 
    1.2499999999981980E-01     6.2500000000211733E-02     0.0000000000000000E+00 
    1.2499999999986650E-01     1.2500000000042691E-01     0.0000000000000000E+00 
    1.2499999999991319E-01     1.8750000000063199E-01     0.0000000000000000E+00 
    1.2499999999995989E-01     2.5000000000083678E-01     0.0000000000000000E+00 
    1.2500000000000661E-01     3.1250000000104172E-01     0.0000000000000000E+00 
    1.2500000000005329E-01     3.7500000000124661E-01     0.0000000000000000E+00 
    1.2500000000010000E-01     4.3750000000145117E-01     0.0000000000000000E+00 
    1.2500000000014669E-01     5.0000000000163858E-01     0.0000000000000000E+00 
    1.2500000000019340E-01     5.6250000000129741E-01     0.0000000000000000E+00 
    1.2500000000024011E-01     6.2500000000093847E-01     0.0000000000000000E+00 
    1.2500000000028680E-01     6.8750000000057998E-01     0.0000000000000000E+00 
    1.2500000000033351E-01     7.5000000000022127E-01     0.0000000000000000E+00 
    1.2500000000038020E-01     8.1249999999986211E-01     0.0000000000000000E+00 
    1.2500000000042691E-01     8.7499999999952238E-01     0.0000000000000000E+00 
    1.2500000000047359E-01     9.3749999999975164E-01     0.0000000000000000E+00 
    1.8749999999966760E-01     6.2500000000187531E-02     0.0000000000000000E+00 
    1.8749999999974179E-01     1.2500000000038020E-01     0.0000000000000000E+00 
    1.8749999999981601E-01     1.8750000000055780E-01     0.0000000000000000E+00 
    1.8749999999989009E-01     2.5000000000073502E-01     0.0000000000000000E+00 
    1.8749999999996431E-01     3.1250000000091221E-01     0.0000000000000000E+00 
    1.8750000000003850E-01     3.7500000000108941E-01     0.0000000000000000E+00 
    1.8750000000011269E-01     4.3750000000126649E-01     0.0000000000000000E+00 
    1.8750000000018691E-01     5.0000000000142808E-01     0.0000000000000000E+00 
    1.8750000000026110E-01     5.6250000000112244E-01     0.0000000000000000E+00 
    1.8750000000033529E-01     6.2500000000080080E-01     0.0000000000000000E+00 
    1.8750000000040951E-01     6.8750000000047962E-01     0.0000000000000000E+00 
    1.8750000000048361E-01     7.5000000000015843E-01     0.0000000000000000E+00 
    1.8750000000055780E-01     8.1249999999983680E-01     0.0000000000000000E+00 
    1.8750000000063199E-01     8.7499999999953304E-01     0.0000000000000000E+00 
    1.8750000000070621E-01     9.3749999999975764E-01     0.0000000000000000E+00 
    2.4999999999951281E-01     6.2500000000163314E-02     0.0000000000000000E+00 
    2.4999999999961461E-01     1.2500000000033351E-01     0.0000000000000000E+00 
    2.4999999999971650E-01     1.8750000000048361E-01     0.0000000000000000E+00 
    2.4999999999981831E-01     2.5000000000063310E-01     0.0000000000000000E+00 
    2.4999999999992020E-01     3.1250000000078260E-01     0.0000000000000000E+00 
    2.5000000000002198E-01     3.7500000000093209E-01     0.0000000000000000E+00 
    2.5000000000012390E-01     4.3750000000108180E-01     0.0000000000000000E+00 
    2.5000000000022571E-01     5.0000000000121769E-01     0.0000000000000000E+00 
    2.5000000000032763E-01     5.6250000000094724E-01     0.0000000000000000E+00 
    2.5000000000042938E-01     6.2500000000066314E-01     0.0000000000000000E+00 
    2.5000000000053119E-01     6.8750000000037925E-01     0.0000000000000000E+00 
[...]
CELL_DATA 256 
SCALARS Pressure double 1 
LOOKUP_TABLE default 

    7.8514054735436412E-01 
    7.3426048370040053E-01 
    7.0084764225342555E-01 
    6.6989523327225953E-01 
    6.3798738030391666E-01 
    6.0429254396286614E-01 
    5.6867196396463615E-01 
    5.3141287735034015E-01 
    4.9300259951103409E-01 
    4.5409455446118202E-01 
    4.1557483245840393E-01 
    3.7884174686859795E-01 
    3.4614280197259245E-01 
    3.2036302209642492E-01 
    3.0253856359424097E-01 
    2.9397971883299723E-01 
    7.7118422014238730E-01 
    7.3565126785631396E-01 
    7.0339207974780804E-01 
    6.7271539336486930E-01 
    6.4104952715472763E-01 
    6.0758673152854636E-01 
    5.7216655196561583E-01 
    5.3504764734229238E-01 
    4.9669044821087494E-01 
    4.5771610379273348E-01 
    4.1896053423749546E-01 
    3.8174454257362828E-01 
    3.4825651113346251E-01 
    3.2147746852570019E-01 
    3.0277512835461012E-01 
    2.9358494766598170E-01 
    7.6046822129781466E-01 
    7.3487476337756508E-01 
    7.0515240539313306E-01 
    6.7516650029933722E-01 
    6.4387468464595521E-01 
    6.1069950115544747E-01 
    5.7550936254500784E-01 
    5.3854199504247247E-01 
    5.0022352432915340E-01 
    4.6112900165913567E-01 
    4.2203193245591236E-01 
    3.8416328592849480E-01 
    3.4964988238601508E-01 
    3.2159759777147823E-01 
    3.0188795767832260E-01 
    2.9216019409657801E-01 
    7.5200812957444663E-01 
    7.3298122089523288E-01 
    7.0616651469806935E-01 
    6.7723034959753936E-01 
    6.4646352270756646E-01 
    6.1363979103049016E-01 
    5.7870931300390305E-01 
    5.4190594881496068E-01 
    5.0362017731432718E-01 
    4.6436950897326673E-01 
    4.2484857675963100E-01 
    3.8617725534681041E-01 
    3.5040159176914648E-01 
    3.2076304649397902E-01 
    2.9979059608555031E-01 
    2.8946752250787905E-01 
    7.4515135591135306E-01 
    7.3055409570382446E-01 
    7.0656512130265769E-01 
    6.7891634083588392E-01 
    6.4881861965913201E-01 
    6.1641812518329264E-01 
    5.8178150767925374E-01 
    5.4515742757549435E-01 
    5.0690527297359478E-01 
    4.6747835588573516E-01 
    4.2747488990463711E-01 
    3.8787506796677268E-01 
    3.5060492046329378E-01 
    3.1902242176738832E-01 
    2.9639623025646034E-01 
    2.8526371362596364E-01 
    7.3951808892710158E-01 
    7.2794517241255374E-01 
    7.0650227601716198E-01 
    6.8026035921293171E-01 
    6.5094977488034578E-01 
    6.1904475827573102E-01 
    5.8474332808372820E-01 
    5.4832024640673172E-01 
    5.1010983373367103E-01 
    4.7050039090843149E-01 
    4.2997842740975284E-01 
    3.8935313420818279E-01 
    3.5036963306897345E-01 
    3.1644112943561820E-01 
    2.9162939840275109E-01 
    2.7931526644021276E-01 
    7.3486233673097223E-01 
    7.2537632508461003E-01 
    7.0613462545670891E-01 
    6.8132323709101728E-01 
    6.5288046923497678E-01 
    6.2153376094812862E-01 
    5.8761023942368285E-01 
    5.5141803397037104E-01 
    5.1326808546147107E-01 
    4.7348326753512893E-01 
    4.3243057857255757E-01 
    3.9071557918002159E-01 
    3.4982544699721840E-01 
    3.1311645682938866E-01 
    2.8543799948223114E-01 
    2.7137195163436878E-01 
    7.3101024185425478E-01 
    7.2298283524388351E-01 
    7.0560215970621909E-01 
    6.8217692543847852E-01 
    6.5464507540788719E-01 
    6.2390430423344068E-01 
    5.9039814077106345E-01 
    5.5447076540194962E-01 
    5.1641021028569600E-01 
    4.7647401867526590E-01 
    4.3490522808033560E-01 
    3.9207655446087847E-01 
    3.4912607495066844E-01 
    3.0918505242501609E-01 
    2.7779757519570519E-01 
    2.6115302366789311E-01 
    7.2783595607247442E-01 
    7.2084316099316270E-01 
    7.0501940690830378E-01 
    6.8289478175332063E-01 
    6.5628327505446638E-01 
    6.2617941660578225E-01 
    5.9312313587018228E-01 
    5.5749481131643286E-01 
    5.1956035689583446E-01 
    4.7951367338306339E-01 
    4.3747442705050532E-01 
    3.9355786092605549E-01 
    3.4845404055610935E-01 
    3.0483870436837995E-01 
    2.6871997751009397E-01 
    2.4831155856215381E-01 
    7.2524783040997842E-01 
    7.1900191650496892E-01 
    7.0447614156795568E-01 
    6.8354633172568924E-01 
    6.5783892562768320E-01 
    6.2838582208501204E-01 
    5.9580319304188123E-01 
    5.6050568791080313E-01 
    5.2273823849938694E-01 
    4.8263608089226601E-01 
    4.4020361868071384E-01 
    3.9528393536509421E-01 
    3.4802059929108708E-01 
    3.0034312588498607E-01 
    2.5827566393164636E-01 
    2.3237794495663730E-01 
    7.2317883884544998E-01 
    7.1748610920843259E-01 
    7.0404505960128660E-01 
    6.8419792192598516E-01 
    6.5935993264814008E-01 
    6.3055618621862264E-01 
    5.9846017259352946E-01 
    5.6352211506593886E-01 
    5.2596509957646709E-01 
    4.8587111121402454E-01 
    4.4314967078739337E-01 
    3.9737610778556709E-01 
    3.4806398134622230E-01 
    2.9606132581573852E-01 
    2.4665426881048358E-01 
    2.1273488332776719E-01 
    7.2158283800688883E-01 
    7.1631779650456118E-01 
    7.0379146212784427E-01 
    6.8491669669200694E-01 
    6.6090021633263507E-01 
    6.3272998797894398E-01 
    6.0112331532321106E-01 
    5.6656956520161539E-01 
    5.2926471086519988E-01 
    4.8924173789615288E-01 
    4.4635068793064775E-01 
    3.9993572697410884E-01 
    3.4883648450828997E-01 
    2.9247476729923433E-01 
    2.3424922593366063E-01 
    1.8854874389344886E-01 
    7.2043501670500643E-01 
    7.1552684846869996E-01 
    7.0378216105424851E-01 
    6.8577269744267333E-01 
    6.6251619136014683E-01 
    6.3494790869025641E-01 
    6.0382180533706520E-01 
    5.6967151152501716E-01 
    5.3265227552596128E-01 
    4.9274306783806848E-01 
    4.4978992600715151E-01 
    4.0298442114354321E-01 
    3.5052197385872125E-01 
    2.9012682908127152E-01 
    2.2172837683522995E-01 
    1.5856567119097384E-01 
    7.1963771414084365E-01 
    7.1508149081010641E-01 
    7.0403977030903919E-01 
    6.8680388360216771E-01 
    6.6423299264838809E-01 
    6.3720350043132146E-01 
    6.0650373766687460E-01 
    5.7273556123999980E-01 
    5.3601266500900824E-01 
    4.9623997080908150E-01 
    4.5328256694067331E-01 
    4.0627632139245712E-01 
    3.5299760854598766E-01 
    2.8937658151303813E-01 
    2.1002639637126988E-01 
    1.2058319929120936E-01 
    7.1906909352270298E-01 
    7.1483615045777948E-01 
    7.0443964031561213E-01 
    6.8791754337763411E-01 
    6.6598309187236826E-01 
    6.3945379492322840E-01 
    6.0914107557651131E-01 
    5.7572147061095891E-01 
    5.3931558928779266E-01 
    4.9978111620570326E-01 
    4.5697575683718467E-01 
    4.1004164767481555E-01 
    3.5661585491617759E-01 
    2.9111419977610520E-01 
    2.0112816477172096E-01 
    7.0411891526874729E-02 
    7.1888370825276915E-01 
    7.1499044160918002E-01 
    7.0518294125177061E-01 
    6.8929818125032805E-01 
    6.6794257319582084E-01 
    6.4189607050302655E-01 
    6.1197138960473307E-01 
    5.7888215364756590E-01 
    5.4279783901662848E-01 
    5.0357818695263123E-01 
    4.6107313026854457E-01 
    4.1446956805979968E-01 
    3.6151961396067528E-01 
    2.9641258285809663E-01 
    2.0122781117471381E-01 
    0.0000000000000000E+00 

SCALARS Saturarion double 1 
LOOKUP_TABLE default 

    1.0000000000000009E+00 
    9.7123205421247283E-01 
    9.2004613203588692E-01 
    8.5553270267520343E-01 
    8.0085499867275844E-01 
    7.5394393831306228E-01 
    7.1449651965446082E-01 
    6.8111350112853808E-01 
    6.5200312686443118E-01 
    6.2551222296586317E-01 
    6.0015042907200322E-01 
    5.7455506625846731E-01 
    5.4731333015205375E-01 
    5.1283314792558854E-01 
    3.8224464673053921E-01 
    1.8229123948294988E-02 
    9.8864510712472953E-01 
    9.6137153098267292E-01 
    9.0778093964150597E-01 
    8.4701586477721069E-01 
    7.9536471655862839E-01 
    7.5052945802458160E-01 
    7.1196579921743020E-01 
    6.7879985270568244E-01 
    6.4984992302200273E-01 
    6.2373107343689282E-01 
    5.9913441987679139E-01 
    5.7461079510049795E-01 
    5.4847218022374811E-01 
    5.1532305262384248E-01 
    3.9739446152414548E-01 
    3.4794633497086669E-02 
    9.7078932859812883E-01 
    9.4389948237971055E-01 
    8.9049975205950105E-01 
    8.3248096036518704E-01 
    7.8450645334411107E-01 
    7.4319185929402842E-01 
    7.0663622012836391E-01 
    6.7406427498801580E-01 
    6.4521976534707715E-01 
    6.1947293413818749E-01 
    5.9593561279598495E-01 
    5.7306772777036852E-01 
    5.4887172200877898E-01 
    5.1816726317725104E-01 
    4.1503230737448898E-01 
    6.1730570759841182E-02 
    9.3950010313577625E-01 
    9.1733099276108154E-01 
    8.6967617141561659E-01 
    8.1599248591991080E-01 
    7.6959030032569009E-01 
    7.3109516165997479E-01 
    6.9742029380080928E-01 
    6.6711700523716599E-01 
    6.3967219245024809E-01 
    6.1500760245181585E-01 
    5.9245635962395971E-01 
    5.7096196398865684E-01 
    5.4868025353710681E-01 
    5.2116582907497155E-01 
    4.3161040688731916E-01 
    1.0093799985765282E-01 
    9.0277585006514038E-01 
    8.8388597612936348E-01 
    8.4219364758902870E-01 
    7.9423019702660336E-01 
    7.5088364210619063E-01 
    7.1451956279131390E-01 
    6.8360551709015283E-01 
    6.5631828683883520E-01 
    6.3171328555782291E-01 
    6.0931750766008297E-01 
    5.8866281411330290E-01 
    5.6884137141127278E-01 
    5.4826498547626157E-01 
    5.2335665804608422E-01 
    4.4486050235524799E-01 
    1.3610485534450625E-01 
    8.6364081611138133E-01 
    8.4818107487526062E-01 
    8.1258945035827757E-01 
    7.7025879433087274E-01 
    7.3076803276236091E-01 
    6.9651480876320315E-01 
    6.6714277553541301E-01 
    6.4211820205037617E-01 
    6.2032245953387488E-01 
    6.0072157409315630E-01 
    5.8265419054970724E-01 
    5.6550072356586545E-01 
    5.4754715478889027E-01 
    5.2530897560606238E-01 
    4.5666286081776802E-01 
    1.6987666539009796E-01 
    8.2241354144473500E-01 
    8.1105869367012540E-01 
    7.8201650253912747E-01 
    7.4516092941050982E-01 
    7.0957041362804141E-01 
    6.7787244411655301E-01 
    6.5046465166975387E-01 
    6.2682701260803042E-01 
    6.0670038888368882E-01 
    5.8937759350975649E-01 
    5.7407669429161079E-01 
    5.5993396550194896E-01 
    5.4552019118844319E-01 
    5.2705617133169991E-01 
    4.6743081060496572E-01 
    2.0323499802757275E-01 
    7.7912066587155882E-01 
    7.7221760435869391E-01 
    7.5025096959979853E-01 
    7.1909056479156697E-01 
    6.8700860128080299E-01 
    6.5782469770887297E-01 
    6.3222815333008830E-01 
    6.1023050922433586E-01 
    5.9148684608951818E-01 
    5.7588871825483157E-01 
    5.6300493688346143E-01 
    5.5207448681525118E-01 
    5.4150698405969766E-01 
    5.2767707829869281E-01 
    4.7762577257827671E-01 
    2.3628860213749972E-01 
    7.3399202516440931E-01 
    7.3116197948925687E-01 
    7.1571351898733415E-01 
    6.9048709781672424E-01 
    6.6262631145411555E-01 
    6.3614686585875024E-01 
    6.1248126014776183E-01 
    5.9166062321758417E-01 
    5.7382069416839110E-01 
    5.5936704145933647E-01 
    5.4865235439870796E-01 
    5.4118734537641944E-01 
    5.3510838842019148E-01 
    5.2659404408523702E-01 
    4.8677981015703153E-01 
    2.6578538380258804E-01 
    6.8696463773284888E-01 
    6.8777187223727587E-01 
    6.7816804922005203E-01 
    6.5850258037247178E-01 
    6.3526162991287538E-01 
    6.1216515161505447E-01 
    5.9060772174649523E-01 
    5.7130089835766773E-01 
    5.5457164631946176E-01 
    5.4112062254154980E-01 
    5.3160225057841004E-01 
    5.2656788009786282E-01 
    5.2526367648342975E-01 
    5.2316175307412405E-01 
    4.9419848084735596E-01 
    2.9352160419184403E-01 
    6.3791113178847147E-01 
    6.4189362969805996E-01 
    6.3757880121842692E-01 
    6.2315488456950263E-01 
    6.0467079696492709E-01 
    5.8555934947524413E-01 
    5.6718548037665595E-01 
    5.4998334372109814E-01 
    5.3492668460084425E-01 
    5.2269933647398237E-01 
    5.1383750399458505E-01 
    5.0936762600087448E-01 
    5.1110772693756035E-01 
    5.1619587692531776E-01 
    4.9962521152296169E-01 
    3.2083676257717153E-01 
    5.8763707346929417E-01 
    5.9402563042842604E-01 
    5.9472518725707080E-01 
    5.8567628218136913E-01 
    5.7163003535102941E-01 
    5.5588540464922620E-01 
    5.4058314006622010E-01 
    5.2687960969953274E-01 
    5.1439483772937677E-01 
    5.0300564431122430E-01 
    4.9387977742759948E-01 
    4.8914036818193835E-01 
    4.9232495131701520E-01 
    5.0404039105573972E-01 
    5.0144057062159098E-01 
    3.4734087466777724E-01 
    5.3879286270664328E-01 
    5.4715888958694980E-01 
    5.5129910112653158E-01 
    5.4644720905906485E-01 
    5.3577856090522902E-01 
    5.2211483035029738E-01 
    5.0870499837038907E-01 
    4.9620814130270591E-01 
    4.8313550367915148E-01 
    4.7012971241902468E-01 
    4.5569023445221640E-01 
    4.4709960680148481E-01 
    4.5337056508740875E-01 
    4.7821635601744128E-01 
    4.9399725057403665E-01 
    3.7123544170037098E-01 
    4.3536912267461436E-01 
    4.6157574215985936E-01 
    4.7951960120855941E-01 
    4.8213867148597173E-01 
    4.7374269284774828E-01 
    4.5541560773009132E-01 
    4.2592495898327914E-01 
    3.7848144186631377E-01 
    3.0876607135586542E-01 
    2.2722931910882135E-01 
    1.9481526462538826E-01 
    1.8933971363641380E-01 
    2.4931261156702519E-01 
    3.8631325304898817E-01 
    4.6387888583329606E-01 
    3.8698203141100601E-01 
    7.3297450422927457E-02 
    1.5118486873216871E-01 
    1.8637372367513413E-01 
    1.9999997981489590E-01 
    1.8410488843938921E-01 
    1.3574819026037419E-01 
    6.6234644847262159E-02 
    1.7191221023821663E-02 
    6.1374850081741443E-03 
    6.4853918464690752E-04 
    9.1937711888851007E-05 
    3.8340295195102868E-05 
    1.2185220934239677E-02 
    1.1982234627471185E-01 
    3.6992434629865584E-01 
    3.9085183126405831E-01 
    1.0007442191664877E-06 
    7.1404536649986964E-05 
    4.4655743480925620E-05 
    4.5475641163235244E-06 
    8.0040954550653363E-05 
    1.6798944004051064E-05 
    9.6190687570197655E-06 
    2.1009979153385345E-06 
    1.0611343382988003E-06 
    1.0034380706346219E-06 
    1.0000936839683759E-06 
    1.0000752286083506E-06 
    1.1389282379262189E-05 
    6.7975023168622088E-03 
    2.1613621769855229E-01 
    3.4829396357616427E-01 
