# vtk DataFile Version 2.0
Pressure Field Data 
ASCII 
DATASET UNSTRUCTURED_GRID 

POINTS 289 double 

    0.0000000000000000E+00     0.0000000000000000E+00     0.0000000000000000E+00 
    1.0000000000000000E+00     0.0000000000000000E+00     0.0000000000000000E+00 
    1.0000000000000000E+00     1.0000000000000000E+00     0.0000000000000000E+00 
    0.0000000000000000E+00     1.0000000000000000E+00     0.0000000000000000E+00 
    6.2499999999872928E-02     0.0000000000000000E+00     0.0000000000000000E+00 
    1.2499999999977310E-01     0.0000000000000000E+00     0.0000000000000000E+00 
    1.8749999999959341E-01     0.0000000000000000E+00     0.0000000000000000E+00 
    2.4999999999941089E-01     0.0000000000000000E+00     0.0000000000000000E+00 
    3.1249999999922851E-01     0.0000000000000000E+00     0.0000000000000000E+00 
    3.7499999999904610E-01     0.0000000000000000E+00     0.0000000000000000E+00 
    4.3749999999886358E-01     0.0000000000000000E+00     0.0000000000000000E+00 
    4.9999999999869210E-01     0.0000000000000000E+00     0.0000000000000000E+00 
    5.6249999999884603E-01     0.0000000000000000E+00     0.0000000000000000E+00 
    6.2499999999901090E-01     0.0000000000000000E+00     0.0000000000000000E+00 
    6.8749999999917577E-01     0.0000000000000000E+00     0.0000000000000000E+00 
    7.4999999999934064E-01     0.0000000000000000E+00     0.0000000000000000E+00 
    8.1249999999950551E-01     0.0000000000000000E+00     0.0000000000000000E+00 
    8.7499999999967026E-01     0.0000000000000000E+00     0.0000000000000000E+00 
    9.3749999999983513E-01     0.0000000000000000E+00     0.0000000000000000E+00 
    1.0000000000000000E+00     6.2499999999872928E-02     0.0000000000000000E+00 
    1.0000000000000000E+00     1.2499999999977310E-01     0.0000000000000000E+00 
    1.0000000000000000E+00     1.8749999999959341E-01     0.0000000000000000E+00 
    1.0000000000000000E+00     2.4999999999941089E-01     0.0000000000000000E+00 
    1.0000000000000000E+00     3.1249999999922851E-01     0.0000000000000000E+00 
    1.0000000000000000E+00     3.7499999999904610E-01     0.0000000000000000E+00 
    1.0000000000000000E+00     4.3749999999886358E-01     0.0000000000000000E+00 
    1.0000000000000000E+00     4.9999999999869210E-01     0.0000000000000000E+00 
    1.0000000000000000E+00     5.6249999999884603E-01     0.0000000000000000E+00 
    1.0000000000000000E+00     6.2499999999901090E-01     0.0000000000000000E+00 
    1.0000000000000000E+00     6.8749999999917577E-01     0.0000000000000000E+00 
    1.0000000000000000E+00     7.4999999999934064E-01     0.0000000000000000E+00 
    1.0000000000000000E+00     8.1249999999950551E-01     0.0000000000000000E+00 
    1.0000000000000000E+00     8.7499999999967026E-01     0.0000000000000000E+00 
    1.0000000000000000E+00     9.3749999999983513E-01     0.0000000000000000E+00 
    9.3749999999973976E-01     1.0000000000000000E+00     0.0000000000000000E+00 
    8.7499999999950118E-01     1.0000000000000000E+00     0.0000000000000000E+00 
    8.1249999999991318E-01     1.0000000000000000E+00     0.0000000000000000E+00 
    7.5000000000034706E-01     1.0000000000000000E+00     0.0000000000000000E+00 
    6.8750000000078049E-01     1.0000000000000000E+00     0.0000000000000000E+00 
    6.2500000000121403E-01     1.0000000000000000E+00     0.0000000000000000E+00 
    5.6250000000164757E-01     1.0000000000000000E+00     0.0000000000000000E+00 
    5.0000000000205946E-01     1.0000000000000000E+00     0.0000000000000000E+00 
    4.3750000000182099E-01     1.0000000000000000E+00     0.0000000000000000E+00 
    3.7500000000156092E-01     1.0000000000000000E+00     0.0000000000000000E+00 
    3.1250000000130068E-01     1.0000000000000000E+00     0.0000000000000000E+00 
    2.5000000000104050E-01     1.0000000000000000E+00     0.0000000000000000E+00 
    1.8750000000078040E-01     1.0000000000000000E+00     0.0000000000000000E+00 
    1.2500000000052031E-01     1.0000000000000000E+00     0.0000000000000000E+00 
    6.2500000000260125E-02     1.0000000000000000E+00     0.0000000000000000E+00 
    0.0000000000000000E+00     9.3749999999973976E-01     0.0000000000000000E+00 
    0.0000000000000000E+00     8.7499999999950118E-01     0.0000000000000000E+00 
    0.0000000000000000E+00     8.1249999999991318E-01     0.0000000000000000E+00 
    0.0000000000000000E+00     7.5000000000034706E-01     0.0000000000000000E+00 
    0.0000000000000000E+00     6.8750000000078049E-01     0.0000000000000000E+00 
    0.0000000000000000E+00     6.2500000000121403E-01     0.0000000000000000E+00 
    0.0000000000000000E+00     5.6250000000164757E-01     0.0000000000000000E+00 
    0.0000000000000000E+00     5.0000000000205946E-01     0.0000000000000000E+00 
    0.0000000000000000E+00     4.3750000000182099E-01     0.0000000000000000E+00 
    0.0000000000000000E+00     3.7500000000156092E-01     0.0000000000000000E+00 
    0.0000000000000000E+00     3.1250000000130068E-01     0.0000000000000000E+00 
    0.0000000000000000E+00     2.5000000000104050E-01     0.0000000000000000E+00 
    0.0000000000000000E+00     1.8750000000078040E-01     0.0000000000000000E+00 
    0.0000000000000000E+00     1.2500000000052031E-01     0.0000000000000000E+00 
    0.0000000000000000E+00     6.2500000000260125E-02     0.0000000000000000E+00 
    6.2499999999897131E-02     6.2500000000235922E-02     0.0000000000000000E+00 
    6.2499999999921327E-02     1.2500000000047351E-01     0.0000000000000000E+00 
    6.2499999999945530E-02     1.8750000000070621E-01     0.0000000000000000E+00 
    6.2499999999969733E-02     2.5000000000093858E-01     0.0000000000000000E+00 
    6.2499999999993928E-02     3.1250000000117117E-01     0.0000000000000000E+00 
    6.2500000000018124E-02     3.7500000000140382E-01     0.0000000000000000E+00 
    6.2500000000042327E-02     4.3750000000163619E-01     0.0000000000000000E+00 
    6.2500000000066530E-02     5.0000000000184897E-01     0.0000000000000000E+00 
    6.2500000000090733E-02     5.6250000000147260E-01     0.0000000000000000E+00 
    6.2500000000114922E-02     6.2500000000107636E-01     0.0000000000000000E+00 
    6.2500000000139125E-02     6.8750000000068034E-01     0.0000000000000000E+00 
    6.2500000000163328E-02     7.5000000000028411E-01     0.0000000000000000E+00 
    6.2500000000187531E-02     8.1249999999988787E-01     0.0000000000000000E+00 
    6.2500000000211720E-02     8.7499999999951172E-01     0.0000000000000000E+00 
    6.2500000000235922E-02     9.3749999999974565E-01     0.0000000000000000E+00 
    1.2499999999981980E-01     6.2500000000211733E-02     0.0000000000000000E+00 
    1.2499999999986650E-01     1.2500000000042691E-01     0.0000000000000000E+00 
    1.2499999999991319E-01     1.8750000000063199E-01     0.0000000000000000E+00 
    1.2499999999995989E-01     2.5000000000083678E-01     0.0000000000000000E+00 
    1.2500000000000661E-01     3.1250000000104172E-01     0.0000000000000000E+00 
    1.2500000000005329E-01     3.7500000000124661E-01     0.0000000000000000E+00 
    1.2500000000010000E-01     4.3750000000145117E-01     0.0000000000000000E+00 
    1.2500000000014669E-01     5.0000000000163858E-01     0.0000000000000000E+00 
    1.2500000000019340E-01     5.6250000000129741E-01     0.0000000000000000E+00 
    1.2500000000024011E-01     6.2500000000093847E-01     0.0000000000000000E+00 
    1.2500000000028680E-01     6.8750000000057998E-01     0.0000000000000000E+00 
    1.2500000000033351E-01     7.5000000000022127E-01     0.0000000000000000E+00 
    1.2500000000038020E-01     8.1249999999986211E-01     0.0000000000000000E+00 
    1.2500000000042691E-01     8.7499999999952238E-01     0.0000000000000000E+00 
    1.2500000000047359E-01     9.3749999999975164E-01     0.0000000000000000E+00 
    1.8749999999966760E-01     6.2500000000187531E-02     0.0000000000000000E+00 
    1.8749999999974179E-01     1.2500000000038020E-01     0.0000000000000000E+00 
    1.8749999999981601E-01     1.8750000000055780E-01     0.0000000000000000E+00 
    1.8749999999989009E-01     2.5000000000073502E-01     0.0000000000000000E+00 
    1.8749999999996431E-01     3.1250000000091221E-01     0.0000000000000000E+00 
    1.8750000000003850E-01     3.7500000000108941E-01     0.0000000000000000E+00 
    1.8750000000011269E-01     4.3750000000126649E-01     0.0000000000000000E+00 
    1.8750000000018691E-01     5.0000000000142808E-01     0.0000000000000000E+00 
    1.8750000000026110E-01     5.6250000000112244E-01     0.0000000000000000E+00 
    1.8750000000033529E-01     6.2500000000080080E-01     0.0000000000000000E+00 
    1.8750000000040951E-01     6.8750000000047962E-01     0.0000000000000000E+00 
    1.8750000000048361E-01     7.5000000000015843E-01     0.0000000000000000E+00 
    1.8750000000055780E-01     8.1249999999983680E-01     0.0000000000000000E+00 
    1.8750000000063199E-01     8.7499999999953304E-01     0.0000000000000000E+00 
    1.8750000000070621E-01     9.3749999999975764E-01     0.0000000000000000E+00 
    2.4999999999951281E-01     6.2500000000163314E-02     0.0000000000000000E+00 
    2.4999999999961461E-01     1.2500000000033351E-01     0.0000000000000000E+00 
    2.4999999999971650E-01     1.8750000000048361E-01     0.0000000000000000E+00 
    2.4999999999981831E-01     2.5000000000063310E-01     0.0000000000000000E+00 
    2.4999999999992020E-01     3.1250000000078260E-01     0.0000000000000000E+00 
    2.5000000000002198E-01     3.7500000000093209E-01     0.0000000000000000E+00 
    2.5000000000012390E-01     4.3750000000108180E-01     0.0000000000000000E+00 
    2.5000000000022571E-01     5.0000000000121769E-01     0.0000000000000000E+00 
    2.5000000000032763E-01     5.6250000000094724E-01     0.0000000000000000E+00 
    2.5000000000042938E-01     6.2500000000066314E-01     0.0000000000000000E+00 
    2.5000000000053119E-01     6.8750000000037925E-01     0.0000000000000000E+00 
[...]
CELL_DATA 256 
SCALARS Pressure double 1 
LOOKUP_TABLE default 

    1.0868753743706041E+00 
    1.0292981714359675E+00 
    9.8613886758089198E-01 
    9.4253615421903358E-01 
    8.9523185478918865E-01 
    8.4406023186976720E-01 
    7.8745603056683200E-01 
    7.1664462876415069E-01 
    6.3842756627990183E-01 
    5.7032903502211463E-01 
    5.0649496904879177E-01 
    4.4779055219535441E-01 
    3.9663525119533311E-01 
    3.5658497983631643E-01 
    3.3102524351554169E-01 
    3.2067868833408131E-01 
    1.0729447981791429E+00 
    1.0312671514219711E+00 
    9.8948185843420577E-01 
    9.4639092409390901E-01 
    8.9964021829023044E-01 
    8.4899694842914719E-01 
    7.9313724071141800E-01 
    7.2325642542396573E-01 
    6.4517601129786284E-01 
    5.7660143829035337E-01 
    5.1218503971197793E-01 
    4.5262660289147105E-01 
    4.0024145358424362E-01 
    3.5863454268462380E-01 
    3.3152108846589079E-01 
    3.2024650831223783E-01 
    1.0619004062713313E+00 
    1.0307139700882411E+00 
    9.9170006093993013E-01 
    9.4950918183258337E-01 
    9.0347940779847202E-01 
    8.5343383938305939E-01 
    7.9815754333274214E-01 
    7.2903145197945396E-01 
    6.5143293015076464E-01 
    5.8259077619998845E-01 
    5.1752152382849470E-01 
    4.5692129313786517E-01 
    4.0302629821134406E-01 
    3.5955425818452830E-01 
    3.3070937813067625E-01 
    3.1865492424057318E-01 
    1.0525328280677180E+00 
    1.0285807247616716E+00 
    9.9280880926285442E-01 
    9.5191457759349463E-01 
    9.0676231369288507E-01 
    8.5739095746602745E-01 
    8.0252683430119831E-01 
    7.3403944576859292E-01 
    6.5728241997536629E-01 
    5.8831917002006606E-01 
    5.2256792781770300E-01 
    4.6076867859251852E-01 
    4.0508674500537734E-01 
    3.5938664959571603E-01 
    3.2851046047014254E-01 
    3.1568233437483834E-01 
    1.0442522368256284E+00 
    1.0254161400497215E+00 
    9.9294232383897141E-01 
    9.5367958376717921E-01 
    9.0955229596833143E-01 
    8.6091958427902793E-01 
    8.0624830481857590E-01 
    7.3832174844639231E-01 
    6.6282413689403441E-01 
    5.9382930439535131E-01 
    5.2739365089935797E-01 
    4.6427163658178128E-01 
    4.0653416510189505E-01 
    3.5818690311722529E-01 
    3.2484099943272166E-01 
    3.1109895102005858E-01 
    1.0369323000533373E+00 
    1.0217299178673644E+00 
    9.9235054640110354E-01 
    9.5492019095127834E-01 
    9.1193325227872646E-01 
    8.6406445206757998E-01 
    8.0931384307279597E-01 
    7.4192408925045839E-01 
    6.6816280295961661E-01 
    5.9917693379464254E-01 
    5.3207396400825913E-01 
    4.6754307686914864E-01 
    4.0749985584783505E-01 
    3.5603298632972646E-01 
    3.1961820715418132E-01 
    3.0464687295063481E-01 
    1.0304908776535722E+00 
    1.0178868644888011E+00 
    9.9128051190942101E-01 
    9.5575408210818369E-01 
    9.1397999313203548E-01 
    8.6682193388827644E-01 
    8.1175999845451330E-01 
    7.4501133537078634E-01 
    6.7336487856793492E-01 
    6.0442120819522260E-01 
    5.3668952285122817E-01 
    4.7070576960147165E-01 
    4.0814038892670834E-01 
    3.5303903909327972E-01 
    3.1276949499335499E-01 
    2.9602921555065442E-01 
    1.0248890895321348E+00 
    1.0141574123450079E+00 
    9.8996212382230886E-01 
    9.5630328188429559E-01 
    9.1575546311202338E-01 
    8.6906375218662224E-01 
    8.1361690335395676E-01 
    7.4789048962468463E-01 
    6.7841818149814592E-01 
    6.0961542229430077E-01 
    5.4132101274148348E-01 
    4.7389110381029170E-01 
    4.0864115040658761E-01 
    3.4936916009783126E-01 
    3.0424333203665072E-01 
    2.8488414275717844E-01 
    1.0201245615185710E+00 
    1.0107474685042033E+00 
    9.8859903064328825E-01 
    9.5668252816893173E-01 
    9.1723063317842490E-01 
    8.7062789147992348E-01 
    8.1503289797231193E-01 
    7.5093846988172797E-01 
    6.8331733718994525E-01 
    6.1480715389984386E-01 
    5.4604682498040447E-01 
    4.7723511474808461E-01 
    4.0921859410421590E-01 
    3.4525730747595318E-01 
    2.9403406059474624E-01 
    2.7075825758698829E-01 
    1.0161245229335745E+00 
    1.0077449563015912E+00 
    9.8729917787960608E-01 
    9.5685947960407391E-01 
    9.1813137765519659E-01 
    8.7151863991076362E-01 
    8.1652550458849293E-01 
    7.5438460400740759E-01 
    6.8814777366952751E-01 
    6.2004613093739724E-01 
    5.5093928730317399E-01 
    4.8087280519755315E-01 
    4.1011844295886329E-01 
    3.4102901266388852E-01 
    2.8222105389949859E-01 
    2.5306245460754384E-01 
    1.0124148335052530E+00 
    1.0048213174815919E+00 
    9.8569854508820476E-01 
    9.5642976885677611E-01 
    9.1835750713887454E-01 
    8.7232533008924629E-01 
    8.1861169538133627E-01 
    7.5813092883079602E-01 
    6.9302137474458236E-01 
    6.2538486602526888E-01 
    5.5606263665823474E-01 
    4.8492997967184193E-01 
    4.1160835063219087E-01 
    3.3712573980898025E-01 
    2.6903947248794968E-01 
    2.3101864728002028E-01 
    1.0088356854568514E+00 
    1.0017505275686411E+00 
    9.8376980167606187E-01 
    9.5569814666487496E-01 
    9.1871880332398059E-01 
    8.7378999757586118E-01 
    8.2133373140319543E-01 
    7.6210956908026695E-01 
    6.9801502193719467E-01 
    6.3087217556175512E-01 
    5.6146824898826719E-01 
    4.8951301079695231E-01 
    4.1396005792034674E-01 
    3.3412123676336808E-01 
    2.5499481453925416E-01 
    2.0357342314924232E-01 
    1.0061400402765235E+00 
    9.9936424301709814E-01 
    9.8243160181100886E-01 
    9.5564050480089713E-01 
    9.1986164784750390E-01 
    8.7594972279659145E-01 
    8.2450963827023327E-01 
    7.6637822372926034E-01 
    7.0318777570421787E-01 
    6.3654897367869723E-01 
    5.6719195645697840E-01 
    4.9469707282683262E-01 
    4.1742007410676685E-01 
    3.3272128608847723E-01 
    2.4106017143048056E-01 
    1.6927432016743593E-01 
    1.0044365628803500E+00 
    9.9798829640784625E-01 
    9.8199163100186537E-01 
    9.5631108337582160E-01 
    9.2160271628487578E-01 
    8.7865852397573763E-01 
    8.2815825665268594E-01 
    7.7098006352645176E-01 
    7.0858824186490998E-01 
    6.4244726229578841E-01 
    5.7325203423228510E-01 
    5.0051601798526313E-01 
    4.2216628408737195E-01 
    3.3371449215324123E-01 
    2.2900483681298303E-01 
    1.2608061086189934E-01 
    1.0035198376566914E+00 
    9.9744470066760826E-01 
    9.8232068798116323E-01 
    9.5766662862475627E-01 
    9.2395922286407950E-01 
    8.8193195873898411E-01 
    8.3229841230902935E-01 
    7.7595265443062900E-01 
    7.1425682899578080E-01 
    6.4859076295924778E-01 
    5.7964997899259496E-01 
    5.0695720221075047E-01 
    4.2825627312902137E-01 
    3.3781866719416587E-01 
    2.2194747209572474E-01 
    7.1075253328779148E-02 
    1.0032657223375780E+00 
    9.9767929535283184E-01 
    9.8341470732723546E-01 
    9.5972411036438876E-01 
    9.2695170059283283E-01 
    8.8578791600715456E-01 
    8.3695184141972179E-01 
    7.8133034444578120E-01 
    7.2022802242918094E-01 
    6.5499632420632969E-01 
    5.8637348012431834E-01 
    5.1396550194374757E-01 
    4.3558940921585559E-01 
    3.4531141834512891E-01 
    2.2528394420936856E-01 
    0.0000000000000000E+00 

SCALARS Saturarion double 1 
LOOKUP_TABLE default 

    1.0000000000003377E+00 
    9.3351246741650251E-01 
    8.4001339256010055E-01 
    7.2474764071109954E-01 
    6.4710442698284432E-01 
    5.8604637579846452E-01 
    5.1493973211603783E-01 
    3.2534281536351245E-01 
    8.8687444175725230E-03 
    1.0000000473363638E-06 
    1.0000000000000201E-06 
    9.9999999999999995E-07 
    9.9999999999999995E-07 
    9.9999999999999995E-07 
    9.9999999999999995E-07 
    9.9999999999999995E-07 
    9.6751572643991401E-01 
    9.0651243167757933E-01 
    8.1263009196998792E-01 
    7.1535751774912149E-01 
    6.3949192424818979E-01 
    5.7963994021884480E-01 
    5.0978018709284700E-01 
    3.0957775558196565E-01 
    6.5094480475566740E-03 
    1.0299983475992488E-06 
    1.0000000027010572E-06 
    1.0000000000000004E-06 
    9.9999999999999995E-07 
    9.9999999999999995E-07 
    9.9999999999999995E-07 
    9.9999999999999995E-07 
    9.1366761587299572E-01 
    8.6435854157158809E-01 
    7.7508053353676953E-01 
    6.9636449925237975E-01 
    6.2577785377072903E-01 
    5.6844681647446027E-01 
    5.0088651974218357E-01 
    2.9050475563696732E-01 
    3.9759620813038217E-03 
    1.0330541921226846E-06 
    1.0000000062798177E-06 
    9.9999999999999995E-07 
    9.9999999999999995E-07 
    9.9999999999999995E-07 
    9.9999999999999995E-07 
    9.9999999999999995E-07 
    8.3537695276449986E-01 
    7.9807306268275890E-01 
    7.2754980251835688E-01 
    6.6679429009085900E-01 
    6.1087335600848891E-01 
    5.5946510070025113E-01 
    4.9251493396650636E-01 
    2.7012133605202504E-01 
    2.0416187491833350E-03 
    1.0141891147918780E-06 
    1.0000000025216372E-06 
    9.9999999999999974E-07 
    9.9999999999999995E-07 
    9.9999999999999995E-07 
    9.9999999999999995E-07 
    9.9999999999999995E-07 
    7.6609931324573077E-01 
    7.3785752743772914E-01 
    6.8456857831663309E-01 
    6.3577306909091547E-01 
    5.9228394921794270E-01 
    5.4692746977550888E-01 
    4.7959374586538195E-01 
    2.3120477449294899E-01 
    5.9871595388988016E-04 
    1.0060064314617576E-06 
    1.0000000005171229E-06 
    9.9999999999999953E-07 
    9.9999999999999995E-07 
    9.9999999999999995E-07 
    9.9999999999999995E-07 
    9.9999999999999995E-07 
    7.0383693142209569E-01 
    6.8438064851127778E-01 
    6.4467811690278465E-01 
    6.0518013419275174E-01 
    5.6982089601552843E-01 
    5.2955421376531697E-01 
    4.5401967771186069E-01 
    1.6304276845658580E-01 
    1.2535319841500172E-04 
    1.0028408711431588E-06 
    1.0000000006592328E-06 
    9.9999999999999995E-07 
    9.9999999999999995E-07 
    9.9999999999999995E-07 
    9.9999999999999995E-07 
    9.9999999999999995E-07 
    6.4754033370146047E-01 
    6.3590435695601255E-01 
    6.0771295823992555E-01 
    5.7483457648045500E-01 
    5.4435426872903814E-01 
    5.0741383124870043E-01 
    4.0955067504788478E-01 
    7.7947294498007053E-02 
    8.4129214048557667E-05 
    1.0017064623804152E-06 
    1.0000000000000010E-06 
    9.9999999999999995E-07 
    9.9999999999999995E-07 
    9.9999999999999995E-07 
    9.9999999999999995E-07 
    9.9999999999999995E-07 
    5.9753674676095359E-01 
    5.9256142856192229E-01 
    5.7352198079067584E-01 
    5.4595812289461210E-01 
    5.1832602815803175E-01 
    4.7582559683958997E-01 
    3.0721743868631951E-01 
    1.3826793091886580E-02 
    9.5416391356502092E-06 
    1.0000079245755634E-06 
    1.0000000000000004E-06 
    9.9999999999999995E-07 
    9.9999999999999995E-07 
    9.9999999999999995E-07 
    9.9999999999999995E-07 
    9.9999999999999995E-07 
    5.5525295729209589E-01 
    5.5406713723287182E-01 
    5.4017709790791202E-01 
    5.1814099857875096E-01 
    4.8740493053498130E-01 
    4.0865099931092835E-01 
    1.3070683497363042E-01 
    2.8676457865455516E-04 
    1.0359779855397626E-06 
    1.0000000000010494E-06 
    9.9999999999999995E-07 
    9.9999999999999995E-07 
    9.9999999999999995E-07 
    9.9999999999999995E-07 
    9.9999999999999995E-07 
    9.9999999999999995E-07 
    5.1006824419883945E-01 
    5.1051083033092060E-01 
    5.0080380551919679E-01 
    4.7717015612508473E-01 
    4.1087936927300844E-01 
    2.0526234089333903E-01 
    6.8612126363641925E-03 
    2.4632322586950828E-06 
    1.0000004207144714E-06 
    1.0000000000000139E-06 
    9.9999999999999995E-07 
    9.9999999999999995E-07 
    9.9999999999999995E-07 
    9.9999999999999995E-07 
    9.9999999999999995E-07 
    9.9999999999999995E-07 
    3.9694492470407017E-01 
    4.1448258098547563E-01 
    3.9782978759528637E-01 
    3.0743714565696134E-01 
    1.4198221215278189E-01 
    6.5808870772415644E-03 
    3.4422372864938433E-06 
    1.0000008055251651E-06 
    1.0000000000000603E-06 
    9.9999999999999995E-07 
    9.9999999999999995E-07 
    9.9999999999999995E-07 
    9.9999999999999995E-07 
    9.9999999999999995E-07 
    9.9999999999999995E-07 
    9.9999999999999995E-07 
    4.8157822281524217E-02 
    8.6596200209801230E-02 
    6.4587407074364778E-02 
    1.0846926079631333E-02 
    2.9018205430085488E-04 
    1.7594103420478104E-06 
    1.0000005293516346E-06 
    1.0000000000000603E-06 
    9.9999999999999995E-07 
    9.9999999999999995E-07 
    9.9999999999999995E-07 
    9.9999999999999995E-07 
    9.9999999999999995E-07 
    9.9999999999999995E-07 
    9.9999999999999995E-07 
    9.9999999999999995E-07 
    1.0000139643705551E-06 
    9.7566946076913904E-06 
    3.7741195644667550E-05 
    4.2201034869886617E-06 
    1.0212657538148157E-06 
    1.0000001103910810E-06 
    1.0000000000000459E-06 
    9.9999999999999995E-07 
    9.9999999999999995E-07 
    9.9999999999999995E-07 
    9.9999999999999995E-07 
    9.9999999999999995E-07 
    9.9999999999999995E-07 
    9.9999999999999995E-07 
    9.9999999999999995E-07 
    9.9999999999999995E-07 
    1.0000000000036716E-06 
    1.0000146459305574E-06 
    1.0000535663577853E-06 
    1.0000008736652839E-06 
    1.0000000001175755E-06 
    1.0000000000000021E-06 
    9.9999999999999995E-07 
    9.9999999999999995E-07 
    9.9999999999999995E-07 
    9.9999999999999995E-07 
    9.9999999999999995E-07 
    9.9999999999999995E-07 
    9.9999999999999995E-07 
    9.9999999999999995E-07 
    9.9999999999999995E-07 
    9.9999999999999995E-07 
    9.9999999999999995E-07 
    1.0000000000000002E-06 
    1.0000000000027422E-06 
    1.0000000000000002E-06 
    9.9999999999999995E-07 
    9.9999999999999995E-07 
    9.9999999999999995E-07 
    9.9999999999999995E-07 
    9.9999999999999995E-07 
    9.9999999999999995E-07 
    9.9999999999999995E-07 
    9.9999999999999995E-07 
    9.9999999999999995E-07 
    9.9999999999999995E-07 
    9.9999999999999995E-07 
    9.9999999999999995E-07 
    9.9999999999999995E-07 
    9.9999999999999995E-07 
    9.9999999999999995E-07 
    9.9999999999999995E-07 
    9.9999999999999995E-07 
    9.9999999999999995E-07 
    9.9999999999999995E-07 
    9.9999999999999995E-07 
    9.9999999999999995E-07 
    9.9999999999999995E-07 
    9.9999999999999995E-07 
    9.9999999999999995E-07 
    9.9999999999999995E-07 
    9.9999999999999995E-07 
    9.9999999999999995E-07 
    1.0000002183165096E-06 
