# vtk DataFile Version 2.0
Pressure Field Data 
ASCII 
DATASET UNSTRUCTURED_GRID 

POINTS 289 double 

    0.0000000000000000E+00     0.0000000000000000E+00     0.0000000000000000E+00 
    1.0000000000000000E+00     0.0000000000000000E+00     0.0000000000000000E+00 
    1.0000000000000000E+00     1.0000000000000000E+00     0.0000000000000000E+00 
    0.0000000000000000E+00     1.0000000000000000E+00     0.0000000000000000E+00 
    6.2499999999872928E-02     0.0000000000000000E+00     0.0000000000000000E+00 
    1.2499999999977310E-01     0.0000000000000000E+00     0.0000000000000000E+00 
    1.8749999999959341E-01     0.0000000000000000E+00     0.0000000000000000E+00 
    2.4999999999941089E-01     0.0000000000000000E+00     0.0000000000000000E+00 
    3.1249999999922851E-01     0.0000000000000000E+00     0.0000000000000000E+00 
    3.7499999999904610E-01     0.0000000000000000E+00     0.0000000000000000E+00 
    4.3749999999886358E-01     0.0000000000000000E+00     0.0000000000000000E+00 
    4.9999999999869210E-01     0.0000000000000000E+00     0.0000000000000000E+00 
    5.6249999999884603E-01     0.0000000000000000E+00     0.0000000000000000E+00 
    6.2499999999901090E-01     0.0000000000000000E+00     0.0000000000000000E+00 
    6.8749999999917577E-01     0.0000000000000000E+00     0.0000000000000000E+00 
    7.4999999999934064E-01     0.0000000000000000E+00     0.0000000000000000E+00 
    8.1249999999950551E-01     0.0000000000000000E+00     0.0000000000000000E+00 
    8.7499999999967026E-01     0.0000000000000000E+00     0.0000000000000000E+00 
    9.3749999999983513E-01     0.0000000000000000E+00     0.0000000000000000E+00 
    1.0000000000000000E+00     6.2499999999872928E-02     0.0000000000000000E+00 
    1.0000000000000000E+00     1.2499999999977310E-01     0.0000000000000000E+00 
    1.0000000000000000E+00     1.8749999999959341E-01     0.0000000000000000E+00 
    1.0000000000000000E+00     2.4999999999941089E-01     0.0000000000000000E+00 
    1.0000000000000000E+00     3.1249999999922851E-01     0.0000000000000000E+00 
    1.0000000000000000E+00     3.7499999999904610E-01     0.0000000000000000E+00 
    1.0000000000000000E+00     4.3749999999886358E-01     0.0000000000000000E+00 
    1.0000000000000000E+00     4.9999999999869210E-01     0.0000000000000000E+00 
    1.0000000000000000E+00     5.6249999999884603E-01     0.0000000000000000E+00 
    1.0000000000000000E+00     6.2499999999901090E-01     0.0000000000000000E+00 
    1.0000000000000000E+00     6.8749999999917577E-01     0.0000000000000000E+00 
    1.0000000000000000E+00     7.4999999999934064E-01     0.0000000000000000E+00 
    1.0000000000000000E+00     8.1249999999950551E-01     0.0000000000000000E+00 
    1.0000000000000000E+00     8.7499999999967026E-01     0.0000000000000000E+00 
    1.0000000000000000E+00     9.3749999999983513E-01     0.0000000000000000E+00 
    9.3749999999973976E-01     1.0000000000000000E+00     0.0000000000000000E+00 
    8.7499999999950118E-01     1.0000000000000000E+00     0.0000000000000000E+00 
    8.1249999999991318E-01     1.0000000000000000E+00     0.0000000000000000E+00 
    7.5000000000034706E-01     1.0000000000000000E+00     0.0000000000000000E+00 
    6.8750000000078049E-01     1.0000000000000000E+00     0.0000000000000000E+00 
    6.2500000000121403E-01     1.0000000000000000E+00     0.0000000000000000E+00 
    5.6250000000164757E-01     1.0000000000000000E+00     0.0000000000000000E+00 
    5.0000000000205946E-01     1.0000000000000000E+00     0.0000000000000000E+00 
    4.3750000000182099E-01     1.0000000000000000E+00     0.0000000000000000E+00 
    3.7500000000156092E-01     1.0000000000000000E+00     0.0000000000000000E+00 
    3.1250000000130068E-01     1.0000000000000000E+00     0.0000000000000000E+00 
    2.5000000000104050E-01     1.0000000000000000E+00     0.0000000000000000E+00 
    1.8750000000078040E-01     1.0000000000000000E+00     0.0000000000000000E+00 
    1.2500000000052031E-01     1.0000000000000000E+00     0.0000000000000000E+00 
    6.2500000000260125E-02     1.0000000000000000E+00     0.0000000000000000E+00 
    0.0000000000000000E+00     9.3749999999973976E-01     0.0000000000000000E+00 
    0.0000000000000000E+00     8.7499999999950118E-01     0.0000000000000000E+00 
    0.0000000000000000E+00     8.1249999999991318E-01     0.0000000000000000E+00 
    0.0000000000000000E+00     7.5000000000034706E-01     0.0000000000000000E+00 
    0.0000000000000000E+00     6.8750000000078049E-01     0.0000000000000000E+00 
    0.0000000000000000E+00     6.2500000000121403E-01     0.0000000000000000E+00 
    0.0000000000000000E+00     5.6250000000164757E-01     0.0000000000000000E+00 
    0.0000000000000000E+00     5.0000000000205946E-01     0.0000000000000000E+00 
    0.0000000000000000E+00     4.3750000000182099E-01     0.0000000000000000E+00 
    0.0000000000000000E+00     3.7500000000156092E-01     0.0000000000000000E+00 
    0.0000000000000000E+00     3.1250000000130068E-01     0.0000000000000000E+00 
    0.0000000000000000E+00     2.5000000000104050E-01     0.0000000000000000E+00 
    0.0000000000000000E+00     1.8750000000078040E-01     0.0000000000000000E+00 
    0.0000000000000000E+00     1.2500000000052031E-01     0.0000000000000000E+00 
    0.0000000000000000E+00     6.2500000000260125E-02     0.0000000000000000E+00 
    6.2499999999897131E-02     6.2500000000235922E-02     0.0000000000000000E+00 
    6.2499999999921327E-02     1.2500000000047351E-01     0.0000000000000000E+00 
    6.2499999999945530E-02     1.8750000000070621E-01     0.0000000000000000E+00 
    6.2499999999969733E-02     2.5000000000093858E-01     0.0000000000000000E+00 
    6.2499999999993928E-02     3.1250000000117117E-01     0.0000000000000000E+00 
    6.2500000000018124E-02     3.7500000000140382E-01     0.0000000000000000E+00 
    6.2500000000042327E-02     4.3750000000163619E-01     0.0000000000000000E+00 
    6.2500000000066530E-02     5.0000000000184897E-01     0.0000000000000000E+00 
    6.2500000000090733E-02     5.6250000000147260E-01     0.0000000000000000E+00 
    6.2500000000114922E-02     6.2500000000107636E-01     0.0000000000000000E+00 
    6.2500000000139125E-02     6.8750000000068034E-01     0.0000000000000000E+00 
    6.2500000000163328E-02     7.5000000000028411E-01     0.0000000000000000E+00 
    6.2500000000187531E-02     8.1249999999988787E-01     0.0000000000000000E+00 
    6.2500000000211720E-02     8.7499999999951172E-01     0.0000000000000000E+00 
    6.2500000000235922E-02     9.3749999999974565E-01     0.0000000000000000E+00 
    1.2499999999981980E-01     6.2500000000211733E-02     0.0000000000000000E+00 
    1.2499999999986650E-01     1.2500000000042691E-01     0.0000000000000000E+00 
    1.2499999999991319E-01     1.8750000000063199E-01     0.0000000000000000E+00 
    1.2499999999995989E-01     2.5000000000083678E-01     0.0000000000000000E+00 
    1.2500000000000661E-01     3.1250000000104172E-01     0.0000000000000000E+00 
    1.2500000000005329E-01     3.7500000000124661E-01     0.0000000000000000E+00 
    1.2500000000010000E-01     4.3750000000145117E-01     0.0000000000000000E+00 
    1.2500000000014669E-01     5.0000000000163858E-01     0.0000000000000000E+00 
    1.2500000000019340E-01     5.6250000000129741E-01     0.0000000000000000E+00 
    1.2500000000024011E-01     6.2500000000093847E-01     0.0000000000000000E+00 
    1.2500000000028680E-01     6.8750000000057998E-01     0.0000000000000000E+00 
    1.2500000000033351E-01     7.5000000000022127E-01     0.0000000000000000E+00 
    1.2500000000038020E-01     8.1249999999986211E-01     0.0000000000000000E+00 
    1.2500000000042691E-01     8.7499999999952238E-01     0.0000000000000000E+00 
    1.2500000000047359E-01     9.3749999999975164E-01     0.0000000000000000E+00 
    1.8749999999966760E-01     6.2500000000187531E-02     0.0000000000000000E+00 
    1.8749999999974179E-01     1.2500000000038020E-01     0.0000000000000000E+00 
    1.8749999999981601E-01     1.8750000000055780E-01     0.0000000000000000E+00 
    1.8749999999989009E-01     2.5000000000073502E-01     0.0000000000000000E+00 
    1.8749999999996431E-01     3.1250000000091221E-01     0.0000000000000000E+00 
    1.8750000000003850E-01     3.7500000000108941E-01     0.0000000000000000E+00 
    1.8750000000011269E-01     4.3750000000126649E-01     0.0000000000000000E+00 
    1.8750000000018691E-01     5.0000000000142808E-01     0.0000000000000000E+00 
    1.8750000000026110E-01     5.6250000000112244E-01     0.0000000000000000E+00 
    1.8750000000033529E-01     6.2500000000080080E-01     0.0000000000000000E+00 
    1.8750000000040951E-01     6.8750000000047962E-01     0.0000000000000000E+00 
    1.8750000000048361E-01     7.5000000000015843E-01     0.0000000000000000E+00 
    1.8750000000055780E-01     8.1249999999983680E-01     0.0000000000000000E+00 
    1.8750000000063199E-01     8.7499999999953304E-01     0.0000000000000000E+00 
    1.8750000000070621E-01     9.3749999999975764E-01     0.0000000000000000E+00 
    2.4999999999951281E-01     6.2500000000163314E-02     0.0000000000000000E+00 
    2.4999999999961461E-01     1.2500000000033351E-01     0.0000000000000000E+00 
    2.4999999999971650E-01     1.8750000000048361E-01     0.0000000000000000E+00 
    2.4999999999981831E-01     2.5000000000063310E-01     0.0000000000000000E+00 
    2.4999999999992020E-01     3.1250000000078260E-01     0.0000000000000000E+00 
    2.5000000000002198E-01     3.7500000000093209E-01     0.0000000000000000E+00 
    2.5000000000012390E-01     4.3750000000108180E-01     0.0000000000000000E+00 
    2.5000000000022571E-01     5.0000000000121769E-01     0.0000000000000000E+00 
    2.5000000000032763E-01     5.6250000000094724E-01     0.0000000000000000E+00 
    2.5000000000042938E-01     6.2500000000066314E-01     0.0000000000000000E+00 
    2.5000000000053119E-01     6.8750000000037925E-01     0.0000000000000000E+00 
[...]
CELL_DATA 256 
SCALARS Pressure double 1 
LOOKUP_TABLE default 

    7.0608024502049982E-01 
    6.5605387554467776E-01 
    6.2398029425087143E-01 
    5.9480960477864764E-01 
    5.6508011152372739E-01 
    5.3391554513724115E-01 
    5.0112198407107844E-01 
    4.6691296703301877E-01 
    4.3169788224389405E-01 
    3.9604755359718274E-01 
    3.6075993304693643E-01 
    3.2710587182125939E-01 
    2.9709190208357977E-01 
    2.7335743350290553E-01 
    2.5802602255548990E-01 
    2.5050403778617825E-01 
    6.9210215086494842E-01 
    6.5735252006503408E-01 
    6.2639166300759186E-01 
    5.9746263024454793E-01 
    5.6794018658957734E-01 
    5.3697137866660383E-01 
    5.0434687740423501E-01 
    4.7025713833455535E-01 
    4.3508756846144353E-01 
    3.9937803084275264E-01 
    3.6387831638064766E-01 
    3.2978865617820075E-01 
    2.9906165488227027E-01 
    2.7438833833697834E-01 
    2.5816705814914626E-01 
    2.5007288565107044E-01 
    6.8137884352716582E-01 
    6.5651196797094147E-01 
    6.2804673309364345E-01 
    5.9977602423544640E-01 
    5.7059510414400627E-01 
    5.3987663790596563E-01 
    5.0744668766390577E-01 
    4.7348371779904258E-01 
    4.3834507042800702E-01 
    4.0252819632755610E-01 
    3.6672327159416113E-01 
    3.3204761052272230E-01 
    3.0039947453555293E-01 
    2.7455648148794159E-01 
    2.5729367547553261E-01 
    2.4867121104726758E-01 
    6.7295255724472414E-01 
    6.5458948309978071E-01 
    6.2898664672234650E-01 
    6.0172886090158784E-01 
    5.7304009533913225E-01 
    5.4263727672356366E-01 
    5.1043082388906136E-01 
    4.7660431786404450E-01 
    4.4148837865373380E-01 
    4.0552988736201390E-01 
    3.6934589106883003E-01 
    3.3395186493657553E-01 
    3.0117522181232820E-01 
    2.7389470764376767E-01 
    2.5535621250504198E-01 
    2.4615369397593331E-01 
    6.6617791033813867E-01 
    6.5217559324021679E-01 
    6.2934501359969486E-01 
    6.0333094154233402E-01 
    5.7527402632400915E-01 
    5.4525845007456020E-01 
    5.1331044657130787E-01 
    4.7963462126223627E-01 
    4.4454009245141440E-01 
    4.0841910933492892E-01 
    3.7180184658409865E-01 
    3.3557809766049740E-01 
    3.0147043876543395E-01 
    2.7244578844666584E-01 
    2.5230360991412720E-01 
    2.4236919064507723E-01 
    6.6065773493440838E-01 
    6.4961606242957803E-01 
    6.2927388316616062E-01 
    6.0461688134152514E-01 
    5.7730369137130499E-01 
    5.4774484605940865E-01 
    5.1609596576602512E-01 
    4.8259192580479859E-01 
    4.4752616229343417E-01 
    4.1123592057141517E-01 
    3.7415148116332508E-01 
    3.3701084100822171E-01 
    3.0138054571634354E-01 
    2.7026820613901587E-01 
    2.4808289194626559E-01 
    2.3713647630293835E-01 
    6.5613131912007716E-01 
    6.4712185788490661E-01 
    6.2892271978124237E-01 
    6.0564262277252190E-01 
    5.7914969482353440E-01 
    5.5010710477761826E-01 
    5.1879706277325932E-01 
    4.8549205235739873E-01 
    4.5047322302384046E-01 
    4.1402201638700392E-01 
    3.7645967840196021E-01 
    3.3834346519955294E-01 
    3.0101843922147647E-01 
    2.6744453757052133E-01 
    2.4264912404274372E-01 
    2.3024891626843499E-01 
    6.5241489214414661E-01 
    6.4481785381865286E-01 
    6.2842325809186173E-01 
    6.0647500354994921E-01 
    5.8084403032494514E-01 
    5.5236259397897169E-01 
    5.2142608139457203E-01 
    4.8834867930527909E-01 
    4.5340340804362561E-01 
    4.1681625882420137E-01 
    3.7879199615072506E-01 
    3.3967865380531076E-01 
    3.0051950334969063E-01 
    2.6409169307541203E-01 
    2.3597742913084721E-01 
    2.2146627482289288E-01 
    6.4937476484230960E-01 
    6.4277362939028326E-01 
    6.2788275499663670E-01 
    6.0718261290085518E-01 
    5.8242365563501142E-01 
    5.5453266433197734E-01 
    5.2399741484508700E-01 
    4.9117464532778232E-01 
    4.5633441834125044E-01 
    4.1965049155584377E-01 
    3.8120903320439836E-01 
    3.4112397449095394E-01 
    3.0004477455979922E-01 
    2.6037271577798188E-01 
    2.2806931399945507E-01 
    2.1048357500124357E-01 
    6.4691353658604211E-01 
    6.4102660256737909E-01 
    6.2738449540294361E-01 
    6.0782977750185252E-01 
    5.8392847224301947E-01 
    5.5664172198230510E-01 
    5.2652802094360296E-01 
    4.9398359046906681E-01 
    4.5928110297956420E-01 
    4.2254927878086379E-01 
    3.8376192243529089E-01 
    3.4278562418937208E-01 
    2.9978005942555136E-01 
    2.5651303648654544E-01 
    2.1897370691317258E-01 
    1.9689167237405325E-01 
    6.4495902794753124E-01 
    6.3959664628918877E-01 
    6.2699369118563875E-01 
    6.0847583861213217E-01 
    5.8540055904839539E-01 
    5.5871877200771625E-01 
    5.2903801942559059E-01 
    4.9679119574275904E-01 
    4.6225891007590386E-01 
    4.2553357000738001E-01 
    3.8649304474540347E-01 
    3.4476381510719351E-01 
    2.9993389677962995E-01 
    2.5281965157994668E-01 
    2.0883504993039975E-01 
    1.8015595145051810E-01 
    6.4345548175423206E-01 
    6.3849404351501882E-01 
    6.2676347187164716E-01 
    6.0917672872281015E-01 
    5.8688533785834196E-01 
    5.6079839210593907E-01 
    5.3155309339251522E-01 
    4.9961669433692069E-01 
    4.6528541788135674E-01 
    4.2862364515479451E-01 
    3.8943657829359302E-01 
    3.4714692177974771E-01 
    3.0073179724085314E-01 
    2.4969587938949966E-01 
    1.9794581882971649E-01 
    1.5952498508550614E-01 
    6.4236705524105830E-01 
    6.3773140090220781E-01 
    6.2674357385377044E-01 
    6.0998942940520051E-01 
    5.8843250614202636E-01 
    5.6292064854806079E-01 
    5.3410428861643899E-01 
    5.0248325124407955E-01 
    4.6837935879745096E-01 
    4.3183621156539176E-01 
    3.9261406126873100E-01 
    3.4999826430728487E-01 
    3.0239235360967465E-01 
    2.4767589078265351E-01 
    1.8692478457076619E-01 
    1.3390837208318868E-01 
    6.4165890981316875E-01 
    6.3731967951546276E-01 
    6.2698003700561733E-01 
    6.1096896440643378E-01 
    5.9009041140830387E-01 
    5.6512252409333208E-01 
    5.3671856391947048E-01 
    5.0540386307610374E-01 
    4.7153132329395281E-01 
    4.3514205324733268E-01 
    3.9598202203814548E-01 
    3.5328058373911492E-01 
    3.0501301326625402E-01 
    2.4731193892544800E-01 
    1.7690724505921054E-01 
    1.0165845148716980E-01 
    6.4117067344921741E-01 
    6.3714623481129662E-01 
    6.2741690528549809E-01 
    6.1208159607455848E-01 
    5.9181646263388166E-01 
    5.6735497717041561E-01 
    5.3934685607451738E-01 
    5.0833001624458873E-01 
    4.7468074823225576E-01 
    4.3846836954011797E-01 
    3.9945074148499415E-01 
    3.5685327597812316E-01 
    3.0845381724362469E-01 
    2.4888661017794492E-01 
    1.6952032838277187E-01 
    5.9685390980840684E-02 
    6.4099534743231423E-01 
    6.3730281451895010E-01 
    6.2813915034727208E-01 
    6.1339998632842796E-01 
    5.9366719151343250E-01 
    5.6966173416840493E-01 
    5.4203605216349349E-01 
    5.1132568885898688E-01 
    4.7792663175312489E-01 
    4.4194491626489402E-01 
    4.0316789813297105E-01 
    3.6086116485814773E-01 
    3.1293782321943436E-01 
    2.5333135077752089E-01 
    1.6891720151680006E-01 
    0.0000000000000000E+00 

SCALARS Saturarion double 1 
LOOKUP_TABLE default 

    1.0000000000000007E+00 
    9.7579474240145680E-01 
    9.3176476023711463E-01 
    8.7363127090478987E-01 
    8.2478207681605542E-01 
    7.8192944511910856E-01 
    7.4487738158668437E-01 
    7.1290801189435515E-01 
    6.8484883538060792E-01 
    6.5949574329697491E-01 
    6.3558976335501904E-01 
    6.1170302666194798E-01 
    5.8575157632327501E-01 
    5.5467400361068764E-01 
    4.9453985798539352E-01 
    1.9290885304921843E-01 
    9.9081519341189850E-01 
    9.6788896038823369E-01 
    9.2176715096528172E-01 
    8.6644995350978582E-01 
    8.1941996879307022E-01 
    7.7828255928771439E-01 
    7.4230494214023479E-01 
    7.1084730327790224E-01 
    6.8310304779269437E-01 
    6.5805602494282545E-01 
    6.3470427963373111E-01 
    6.1172632081024025E-01 
    5.8691712899066872E-01 
    5.5680738757738146E-01 
    4.9991545939484133E-01 
    2.2509899227987160E-01 
    9.7632347696704325E-01 
    9.5343354180602813E-01 
    9.0718884322119620E-01 
    8.5377704055750248E-01 
    8.0890931397804799E-01 
    7.7062376289034284E-01 
    7.3690559981450798E-01 
    7.0662124664290860E-01 
    6.7936622882528508E-01 
    6.5463668484983895E-01 
    6.3187582782241314E-01 
    6.1003916254463220E-01 
    5.8712775371015535E-01 
    5.5928547449012245E-01 
    5.0706410524360890E-01 
    2.5495857706488723E-01 
    9.5102191985926665E-01 
    9.3178546423231334E-01 
    8.8944881439654622E-01 
    8.4020316472790446E-01 
    7.9621023399726021E-01 
    7.5940916603818309E-01 
    7.2769146682412633E-01 
    6.9945354863209741E-01 
    6.7374268076813815E-01 
    6.5027974011688250E-01 
    6.2853205394923106E-01 
    6.0781552118467486E-01 
    5.8660691287268507E-01 
    5.6134070080727960E-01 
    5.1409713011847213E-01 
    2.8386830891075415E-01 
    9.2020061389950225E-01 
    9.0335366397267236E-01 
    8.6576434229656551E-01 
    8.2146583496508230E-01 
    7.7985204124372076E-01 
    7.4426528644272905E-01 
    7.1418826271055025E-01 
    6.8805128794815218E-01 
    6.6472962596741347E-01 
    6.4356723006465921E-01 
    6.2403240606675825E-01 
    6.0527916271138826E-01 
    5.8585947568009789E-01 
    5.6285074986018735E-01 
    5.2070942198517889E-01 
    3.0701858712618657E-01 
    8.8605222326576483E-01 
    8.7208342296461550E-01 
    8.3949824667411543E-01 
    7.9965335164326734E-01 
    7.6139600179411626E-01 
    7.2769918982316173E-01 
    6.9862479203863781E-01 
    6.7382377875886790E-01 
    6.5246086762358990E-01 
    6.3371268370311962E-01 
    6.1688564776796528E-01 
    6.0115697593061423E-01 
    5.8463537352053196E-01 
    5.6402230814903109E-01 
    5.2653885386478827E-01 
    3.2750741163910529E-01 
    8.4932080302502455E-01 
    8.3880109979119255E-01 
    8.1159578988972902E-01 
    7.7634178089181971E-01 
    7.4169142801572807E-01 
    7.1045510498421216E-01 
    6.8307293683032178E-01 
    6.5916402240076954E-01 
    6.3877347166139942E-01 
    6.2161036648733237E-01 
    6.0718913641704475E-01 
    5.9459783510933462E-01 
    5.8196397176243697E-01 
    5.6494064086421747E-01 
    5.3179718154224342E-01 
    3.4737883988803209E-01 
    8.0982893149361379E-01 
    8.0319695576744066E-01 
    7.8211098011504387E-01 
    7.5195308318098597E-01 
    7.2059532864144393E-01 
    6.9168934904561319E-01 
    6.6592949268305413E-01 
    6.4348049559282139E-01 
    6.2418512792401881E-01 
    6.0814037013998967E-01 
    5.9532992988436917E-01 
    5.8551696683940646E-01 
    5.7700071338874137E-01 
    5.6495687367221170E-01 
    5.3698412657920891E-01 
    3.6733569051041648E-01 
    7.6780268009770869E-01 
    7.6490806602352568E-01 
    7.4973058324980724E-01 
    7.2498106568329668E-01 
    6.9746774207912798E-01 
    6.7098292740387855E-01 
    6.4706604650331079E-01 
    6.2592743239401671E-01 
    6.0762951208722715E-01 
    5.9240170954159399E-01 
    5.8085645094319838E-01 
    5.7345455300983439E-01 
    5.6918735162590195E-01 
    5.6309165078292167E-01 
    5.4139282329769411E-01 
    3.8610191893164669E-01 
    7.2325807435747769E-01 
    7.2382327866426255E-01 
    7.1410785627134565E-01 
    6.9445300587268166E-01 
    6.7106768975008713E-01 
    6.4757629407032202E-01 
    6.2562901977854157E-01 
    6.0614061407594799E-01 
    5.8912594351493230E-01 
    5.7473141008000939E-01 
    5.6376949618033945E-01 
    5.5784169557030727E-01 
    5.5754058522687489E-01 
    5.5838847337622777E-01 
    5.4466355856481041E-01 
    4.0435970740313354E-01 
    6.7584213617565370E-01 
    6.7958393419379404E-01 
    6.7491019976267463E-01 
    6.5998478149609496E-01 
    6.4078504120868141E-01 
    6.2088330490391597E-01 
    6.0192944052243447E-01 
    5.8431905983385934E-01 
    5.6870688969774019E-01 
    5.5553265320220824E-01 
    5.4544993073414860E-01 
    5.3990794735762904E-01 
    5.4152590679781898E-01 
    5.4940433320960091E-01 
    5.4565107600603013E-01 
    4.2271312916565007E-01 
    6.2451371816635470E-01 
    6.3119555935353111E-01 
    6.3160889770945583E-01 
    6.2156110226566641E-01 
    6.0647207375838830E-01 
    5.9010126921034423E-01 
    5.7413799465030568E-01 
    5.5926450388827564E-01 
    5.4588361530252583E-01 
    5.3464318819263990E-01 
    5.2601724428723962E-01 
    5.2116630012950138E-01 
    5.2277048421763417E-01 
    5.3475833825769870E-01 
    5.4125920029196162E-01 
    4.4013132679009159E-01 
    5.7202508146774689E-01 
    5.8036515617758710E-01 
    5.8476974124671666E-01 
    5.7962071590079711E-01 
    5.6902019749578991E-01 
    5.5600086229831325E-01 
    5.4296627679134712E-01 
    5.3050840081410766E-01 
    5.1897287697350281E-01 
    5.0860350788304709E-01 
    5.0100844585236792E-01 
    4.9798652136126681E-01 
    5.0119189196430358E-01 
    5.1478118676589690E-01 
    5.3327856366039450E-01 
    4.5505268962151163E-01 
    5.0792588085068513E-01 
    5.2187513793715568E-01 
    5.3016502839137425E-01 
    5.3046945911150667E-01 
    5.2242898694518480E-01 
    5.1116481868109043E-01 
    4.9804825554337590E-01 
    4.8610377067886174E-01 
    4.7068316160672408E-01 
    4.4876532595182189E-01 
    4.3233720545616711E-01 
    4.2617288030931877E-01 
    4.3590304696807591E-01 
    4.7330424010953570E-01 
    5.1609805429370781E-01 
    4.6546929482035321E-01 
    2.4339853257158331E-01 
    3.2686560433052364E-01 
    3.7351130848183622E-01 
    3.8196938127308178E-01 
    3.6468532735721593E-01 
    3.2068398372390139E-01 
    2.8009132012496385E-01 
    2.2876705319997839E-01 
    1.9802016929085878E-01 
    1.4357132139936030E-01 
    1.0077039835087043E-01 
    9.2097987605621379E-02 
    1.3054361667246919E-01 
    2.7303225696157768E-01 
    4.5474285439285267E-01 
    4.6691452926591176E-01 
    5.2308783769113814E-05 
    7.2253307923541253E-03 
    1.6781093858388003E-02 
    1.6166827968559609E-02 
    1.4113946898272972E-02 
    2.3339697622448735E-03 
    1.4489618891456858E-03 
    4.9504209226115253E-05 
    1.0147839201246213E-04 
    1.2874671446855570E-05 
    6.3640256431338053E-06 
    8.2555716599459342E-06 
    1.4664981979834872E-04 
    7.6778754681578978E-02 
    2.8196508904552681E-01 
    4.1751480634194760E-01 
