# vtk DataFile Version 2.0
Pressure Field Data 
ASCII 
DATASET UNSTRUCTURED_GRID 

POINTS 289 double 

    0.0000000000000000E+00     0.0000000000000000E+00     0.0000000000000000E+00 
    1.0000000000000000E+00     0.0000000000000000E+00     0.0000000000000000E+00 
    1.0000000000000000E+00     1.0000000000000000E+00     0.0000000000000000E+00 
    0.0000000000000000E+00     1.0000000000000000E+00     0.0000000000000000E+00 
    6.2499999999872928E-02     0.0000000000000000E+00     0.0000000000000000E+00 
    1.2499999999977310E-01     0.0000000000000000E+00     0.0000000000000000E+00 
    1.8749999999959341E-01     0.0000000000000000E+00     0.0000000000000000E+00 
    2.4999999999941089E-01     0.0000000000000000E+00     0.0000000000000000E+00 
    3.1249999999922851E-01     0.0000000000000000E+00     0.0000000000000000E+00 
    3.7499999999904610E-01     0.0000000000000000E+00     0.0000000000000000E+00 
    4.3749999999886358E-01     0.0000000000000000E+00     0.0000000000000000E+00 
    4.9999999999869210E-01     0.0000000000000000E+00     0.0000000000000000E+00 
    5.6249999999884603E-01     0.0000000000000000E+00     0.0000000000000000E+00 
    6.2499999999901090E-01     0.0000000000000000E+00     0.0000000000000000E+00 
    6.8749999999917577E-01     0.0000000000000000E+00     0.0000000000000000E+00 
    7.4999999999934064E-01     0.0000000000000000E+00     0.0000000000000000E+00 
    8.1249999999950551E-01     0.0000000000000000E+00     0.0000000000000000E+00 
    8.7499999999967026E-01     0.0000000000000000E+00     0.0000000000000000E+00 
    9.3749999999983513E-01     0.0000000000000000E+00     0.0000000000000000E+00 
    1.0000000000000000E+00     6.2499999999872928E-02     0.0000000000000000E+00 
    1.0000000000000000E+00     1.2499999999977310E-01     0.0000000000000000E+00 
    1.0000000000000000E+00     1.8749999999959341E-01     0.0000000000000000E+00 
    1.0000000000000000E+00     2.4999999999941089E-01     0.0000000000000000E+00 
    1.0000000000000000E+00     3.1249999999922851E-01     0.0000000000000000E+00 
    1.0000000000000000E+00     3.7499999999904610E-01     0.0000000000000000E+00 
    1.0000000000000000E+00     4.3749999999886358E-01     0.0000000000000000E+00 
    1.0000000000000000E+00     4.9999999999869210E-01     0.0000000000000000E+00 
    1.0000000000000000E+00     5.6249999999884603E-01     0.0000000000000000E+00 
    1.0000000000000000E+00     6.2499999999901090E-01     0.0000000000000000E+00 
    1.0000000000000000E+00     6.8749999999917577E-01     0.0000000000000000E+00 
    1.0000000000000000E+00     7.4999999999934064E-01     0.0000000000000000E+00 
    1.0000000000000000E+00     8.1249999999950551E-01     0.0000000000000000E+00 
    1.0000000000000000E+00     8.7499999999967026E-01     0.0000000000000000E+00 
    1.0000000000000000E+00     9.3749999999983513E-01     0.0000000000000000E+00 
    9.3749999999973976E-01     1.0000000000000000E+00     0.0000000000000000E+00 
    8.7499999999950118E-01     1.0000000000000000E+00     0.0000000000000000E+00 
    8.1249999999991318E-01     1.0000000000000000E+00     0.0000000000000000E+00 
    7.5000000000034706E-01     1.0000000000000000E+00     0.0000000000000000E+00 
    6.8750000000078049E-01     1.0000000000000000E+00     0.0000000000000000E+00 
    6.2500000000121403E-01     1.0000000000000000E+00     0.0000000000000000E+00 
    5.6250000000164757E-01     1.0000000000000000E+00     0.0000000000000000E+00 
    5.0000000000205946E-01     1.0000000000000000E+00     0.0000000000000000E+00 
    4.3750000000182099E-01     1.0000000000000000E+00     0.0000000000000000E+00 
    3.7500000000156092E-01     1.0000000000000000E+00     0.0000000000000000E+00 
    3.1250000000130068E-01     1.0000000000000000E+00     0.0000000000000000E+00 
    2.5000000000104050E-01     1.0000000000000000E+00     0.0000000000000000E+00 
    1.8750000000078040E-01     1.0000000000000000E+00     0.0000000000000000E+00 
    1.2500000000052031E-01     1.0000000000000000E+00     0.0000000000000000E+00 
    6.2500000000260125E-02     1.0000000000000000E+00     0.0000000000000000E+00 
    0.0000000000000000E+00     9.3749999999973976E-01     0.0000000000000000E+00 
    0.0000000000000000E+00     8.7499999999950118E-01     0.0000000000000000E+00 
    0.0000000000000000E+00     8.1249999999991318E-01     0.0000000000000000E+00 
    0.0000000000000000E+00     7.5000000000034706E-01     0.0000000000000000E+00 
    0.0000000000000000E+00     6.8750000000078049E-01     0.0000000000000000E+00 
    0.0000000000000000E+00     6.2500000000121403E-01     0.0000000000000000E+00 
    0.0000000000000000E+00     5.6250000000164757E-01     0.0000000000000000E+00 
    0.0000000000000000E+00     5.0000000000205946E-01     0.0000000000000000E+00 
    0.0000000000000000E+00     4.3750000000182099E-01     0.0000000000000000E+00 
    0.0000000000000000E+00     3.7500000000156092E-01     0.0000000000000000E+00 
    0.0000000000000000E+00     3.1250000000130068E-01     0.0000000000000000E+00 
    0.0000000000000000E+00     2.5000000000104050E-01     0.0000000000000000E+00 
    0.0000000000000000E+00     1.8750000000078040E-01     0.0000000000000000E+00 
    0.0000000000000000E+00     1.2500000000052031E-01     0.0000000000000000E+00 
    0.0000000000000000E+00     6.2500000000260125E-02     0.0000000000000000E+00 
    6.2499999999897131E-02     6.2500000000235922E-02     0.0000000000000000E+00 
    6.2499999999921327E-02     1.2500000000047351E-01     0.0000000000000000E+00 
    6.2499999999945530E-02     1.8750000000070621E-01     0.0000000000000000E+00 
    6.2499999999969733E-02     2.5000000000093858E-01     0.0000000000000000E+00 
    6.2499999999993928E-02     3.1250000000117117E-01     0.0000000000000000E+00 
    6.2500000000018124E-02     3.7500000000140382E-01     0.0000000000000000E+00 
    6.2500000000042327E-02     4.3750000000163619E-01     0.0000000000000000E+00 
    6.2500000000066530E-02     5.0000000000184897E-01     0.0000000000000000E+00 
    6.2500000000090733E-02     5.6250000000147260E-01     0.0000000000000000E+00 
    6.2500000000114922E-02     6.2500000000107636E-01     0.0000000000000000E+00 
    6.2500000000139125E-02     6.8750000000068034E-01     0.0000000000000000E+00 
    6.2500000000163328E-02     7.5000000000028411E-01     0.0000000000000000E+00 
    6.2500000000187531E-02     8.1249999999988787E-01     0.0000000000000000E+00 
    6.2500000000211720E-02     8.7499999999951172E-01     0.0000000000000000E+00 
    6.2500000000235922E-02     9.3749999999974565E-01     0.0000000000000000E+00 
    1.2499999999981980E-01     6.2500000000211733E-02     0.0000000000000000E+00 
    1.2499999999986650E-01     1.2500000000042691E-01     0.0000000000000000E+00 
    1.2499999999991319E-01     1.8750000000063199E-01     0.0000000000000000E+00 
    1.2499999999995989E-01     2.5000000000083678E-01     0.0000000000000000E+00 
    1.2500000000000661E-01     3.1250000000104172E-01     0.0000000000000000E+00 
    1.2500000000005329E-01     3.7500000000124661E-01     0.0000000000000000E+00 
    1.2500000000010000E-01     4.3750000000145117E-01     0.0000000000000000E+00 
    1.2500000000014669E-01     5.0000000000163858E-01     0.0000000000000000E+00 
    1.2500000000019340E-01     5.6250000000129741E-01     0.0000000000000000E+00 
    1.2500000000024011E-01     6.2500000000093847E-01     0.0000000000000000E+00 
    1.2500000000028680E-01     6.8750000000057998E-01     0.0000000000000000E+00 
    1.2500000000033351E-01     7.5000000000022127E-01     0.0000000000000000E+00 
    1.2500000000038020E-01     8.1249999999986211E-01     0.0000000000000000E+00 
    1.2500000000042691E-01     8.7499999999952238E-01     0.0000000000000000E+00 
    1.2500000000047359E-01     9.3749999999975164E-01     0.0000000000000000E+00 
    1.8749999999966760E-01     6.2500000000187531E-02     0.0000000000000000E+00 
    1.8749999999974179E-01     1.2500000000038020E-01     0.0000000000000000E+00 
    1.8749999999981601E-01     1.8750000000055780E-01     0.0000000000000000E+00 
    1.8749999999989009E-01     2.5000000000073502E-01     0.0000000000000000E+00 
    1.8749999999996431E-01     3.1250000000091221E-01     0.0000000000000000E+00 
    1.8750000000003850E-01     3.7500000000108941E-01     0.0000000000000000E+00 
    1.8750000000011269E-01     4.3750000000126649E-01     0.0000000000000000E+00 
    1.8750000000018691E-01     5.0000000000142808E-01     0.0000000000000000E+00 
    1.8750000000026110E-01     5.6250000000112244E-01     0.0000000000000000E+00 
    1.8750000000033529E-01     6.2500000000080080E-01     0.0000000000000000E+00 
    1.8750000000040951E-01     6.8750000000047962E-01     0.0000000000000000E+00 
    1.8750000000048361E-01     7.5000000000015843E-01     0.0000000000000000E+00 
    1.8750000000055780E-01     8.1249999999983680E-01     0.0000000000000000E+00 
    1.8750000000063199E-01     8.7499999999953304E-01     0.0000000000000000E+00 
    1.8750000000070621E-01     9.3749999999975764E-01     0.0000000000000000E+00 
    2.4999999999951281E-01     6.2500000000163314E-02     0.0000000000000000E+00 
    2.4999999999961461E-01     1.2500000000033351E-01     0.0000000000000000E+00 
    2.4999999999971650E-01     1.8750000000048361E-01     0.0000000000000000E+00 
    2.4999999999981831E-01     2.5000000000063310E-01     0.0000000000000000E+00 
    2.4999999999992020E-01     3.1250000000078260E-01     0.0000000000000000E+00 
    2.5000000000002198E-01     3.7500000000093209E-01     0.0000000000000000E+00 
    2.5000000000012390E-01     4.3750000000108180E-01     0.0000000000000000E+00 
    2.5000000000022571E-01     5.0000000000121769E-01     0.0000000000000000E+00 
    2.5000000000032763E-01     5.6250000000094724E-01     0.0000000000000000E+00 
    2.5000000000042938E-01     6.2500000000066314E-01     0.0000000000000000E+00 
    2.5000000000053119E-01     6.8750000000037925E-01     0.0000000000000000E+00 
[...]
CELL_DATA 256 
SCALARS Pressure double 1 
LOOKUP_TABLE default 

    8.9749830206746650E-01 
    8.4511289380363863E-01 
    8.0938509938080538E-01 
    7.7536961907173285E-01 
    7.3970242396597075E-01 
    7.0163502043721093E-01 
    6.6116947001630355E-01 
    6.1877252291871976E-01 
    5.7509009214445883E-01 
    5.3089368061283249E-01 
    4.8714499196684846E-01 
    4.4521637269467512E-01 
    4.0632833564673992E-01 
    3.6843924087822660E-01 
    3.4019803760741407E-01 
    3.2942395185273704E-01 
    8.8356985590859705E-01 
    8.4665711247019559E-01 
    8.1214819014793060E-01 
    7.7846465295536271E-01 
    7.4310702590224464E-01 
    7.0533864614559771E-01 
    6.6511899834691979E-01 
    6.2288112578061283E-01 
    5.7925095304181529E-01 
    5.3497607630444777E-01 
    4.9097451805791048E-01 
    4.4857719572449112E-01 
    4.0910957761984806E-01 
    3.7045428268898800E-01 
    3.4077124941272779E-01 
    3.2898015897038146E-01 
    8.7284138280039703E-01 
    8.4597540557509665E-01 
    8.1407081456326691E-01 
    7.8112915383750947E-01 
    7.4621008139783040E-01 
    7.0880274945587940E-01 
    6.6886783683199491E-01 
    6.2680464418715998E-01 
    5.8320955498856875E-01 
    5.3879215684517301E-01 
    4.9441187671151987E-01 
    4.5132937495715741E-01 
    4.1094448977422543E-01 
    3.7124653618457032E-01 
    3.3999009003722830E-01 
    3.2733495038672483E-01 
    8.6427595466327201E-01 
    8.4410163550983885E-01 
    8.1518508498018349E-01 
    7.8335334205984697E-01 
    7.4902120156770380E-01 
    7.1203680027325178E-01 
    6.7242181228360953E-01 
    6.3055364588492424E-01 
    5.8699062612609965E-01 
    5.4238800352345418E-01 
    4.9752637983732428E-01 
    4.5356281318694419E-01 
    4.1192833097262049E-01 
    3.7089113468422669E-01 
    3.3779900607272856E-01 
    3.2425417255197525E-01 
    8.5721744505204756E-01 
    8.4160616501075380E-01 
    8.1561573277923727E-01 
    7.8514983986294662E-01 
    7.5155460917354799E-01 
    7.1506181274532843E-01 
    6.7580185914947988E-01 
    6.3414975383337979E-01 
    5.9062436921337702E-01 
    5.4581363632107238E-01 
    5.0039556707073340E-01 
    4.5538354447561008E-01 
    4.1218342004969172E-01 
    3.6947151741737910E-01 
    3.3412613340733638E-01 
    3.1948996387101491E-01 
    8.5132565291515205E-01 
    8.3885876164175721E-01 
    8.1552500528368910E-01 
    7.8656134551443557E-01 
    7.5383223959350598E-01 
    7.1790421889794309E-01 
    6.7903944344551659E-01 
    6.3762394338213657E-01 
    5.9414407960582638E-01 
    5.4911814069900666E-01 
    5.0309679564659082E-01 
    4.5690548933256381E-01 
    4.1184828906398818E-01 
    3.6706131070137710E-01 
    3.2886103628967467E-01 
    3.1274971400173290E-01 
    8.4638224925219752E-01 
    8.3610457839893848E-01 
    8.1508560821148290E-01 
    7.8765819061774678E-01 
    7.5588575934839231E-01 
    7.2059166080968395E-01 
    6.8216581348912908E-01 
    6.4101078901519959E-01 
    5.9758831505442600E-01 
    5.5235205289561085E-01 
    5.0570945766622732E-01 
    4.5824936510287717E-01 
    4.1107355172326709E-01 
    3.6372753077652081E-01 
    3.2186676424302174E-01 
    3.0368581719589044E-01 
    8.4223351911604194E-01 
    8.3349919688606589E-01 
    8.1445197963179283E-01 
    7.8852066537075094E-01 
    7.5775575331325684E-01 
    7.2315237989718073E-01 
    6.8521067244494949E-01 
    6.4434464181819717E-01 
    6.0099752564356546E-01 
    5.5556999837718757E-01 
    5.0831723383164973E-01 
    4.5954819817828085E-01 
    4.1003466167178032E-01 
    3.5956025066631359E-01 
    3.1301357737455077E-01 
    2.9188437399848993E-01 
    8.3876742367678159E-01 
    8.3113648760056891E-01 
    8.1375141443717336E-01 
    7.8923219176107162E-01 
    7.5948902068776658E-01 
    7.2561506185468017E-01 
    6.8820016444454613E-01 
    6.4765773389648251E-01 
    6.0441291356710680E-01 
    5.5882770376329716E-01 
    5.1100600404706464E-01 
    4.6094480669158100E-01 
    4.0894281382112868E-01 
    3.5471525362947581E-01 
    3.0222897173131819E-01 
    2.7685782060338388E-01 
    8.3590498030525429E-01 
    8.2907578503061019E-01 
    8.1308795193489991E-01 
    7.8987585190666243E-01 
    7.6113911656257416E-01 
    7.2801172029220784E-01 
    6.9116210793889454E-01 
    6.5098248862760566E-01 
    6.0787304566282496E-01 
    5.6217639229298844E-01 
    5.1385465928652441E-01 
    4.6257931384598533E-01 
    4.0803028667191327E-01 
    3.4940845045011226E-01 
    2.8951589011163170E-01 
    2.5800894487917675E-01 
    8.3359948781783921E-01 
    8.2736631798541038E-01 
    8.1255520507632406E-01 
    7.9053664923063260E-01 
    7.6276763706735484E-01 
    7.3038386310238523E-01 
    6.9412917940524010E-01 
    6.5434772077253200E-01 
    6.1140282619037745E-01 
    5.6564682485394846E-01 
    5.1691445196626606E-01 
    4.6455492393368164E-01 
    4.0751973162298721E-01 
    3.4390859355140335E-01 
    2.7498564497647859E-01 
    2.3456936403826389E-01 
    8.3183011366290771E-01 
    8.2605980244480537E-01 
    8.1224230773483430E-01 
    7.9129965784966094E-01 
    7.6444181910600584E-01 
    7.3277608423603258E-01 
    6.9712571142750557E-01 
    6.5774681706017246E-01 
    6.1494724181752969E-01 
    5.6913099438994141E-01 
    5.2005511822551853E-01 
    4.6675129903215762E-01 
    4.0735519888478477E-01 
    3.3827203691219376E-01 
    2.5886179540699883E-01 
    2.0553552684788692E-01 
    8.3050365376622737E-01 
    8.2513958401703136E-01 
    8.1218743892915091E-01 
    7.9221186771542740E-01 
    7.6618695459587915E-01 
    7.3514844574992178E-01 
    6.9999462476872509E-01 
    6.6098864667671242E-01 
    6.1833832508868902E-01 
    5.7249595369182305E-01 
    5.2319822605805244E-01 
    4.6914725746222685E-01 
    4.0755583926024569E-01 
    3.3314132677381009E-01 
    2.4257079444490620E-01 
    1.6999785258316341E-01 
    8.2933947744510006E-01 
    8.2434555019104905E-01 
    8.1218758408112401E-01 
    7.9310267622940522E-01 
    7.6785758693038619E-01 
    7.3739619930391009E-01 
    7.0265296892726414E-01 
    6.6405039756433282E-01 
    6.2174896016471570E-01 
    5.7608085000146825E-01 
    5.2677827872169058E-01 
    4.7236737277646673E-01 
    4.0942467121582460E-01 
    3.3113904412284345E-01 
    2.2901157371221978E-01 
    1.2641369558269908E-01 
    8.2858670957355607E-01 
    8.2389146504334920E-01 
    8.1243124255473675E-01 
    7.9413788185395995E-01 
    7.6962699477308993E-01 
    7.3977595717900091E-01 
    7.0550266452763855E-01 
    6.6734317536158438E-01 
    6.2548217197769385E-01 
    5.8011651396412822E-01 
    5.3098041629759329E-01 
    4.7658268245849239E-01 
    4.1331974740863464E-01 
    3.3338256408519568E-01 
    2.2126427761133735E-01 
    7.1230244270757651E-02 
    8.2839277542040513E-01 
    8.2408224068849212E-01 
    8.1327400534060590E-01 
    7.9568194533356973E-01 
    7.7182952334074950E-01 
    7.4255250805835671E-01 
    7.0874837617262831E-01 
    6.7098880155381613E-01 
    6.2950458967122158E-01 
    5.8447952239612067E-01 
    5.3566321786841964E-01 
    4.8164178606270330E-01 
    4.1890663812327206E-01 
    3.3955481755119110E-01 
    2.2405783084501243E-01 
    0.0000000000000000E+00 

SCALARS Saturarion double 1 
LOOKUP_TABLE default 

    1.0000000000000113E+00 
    9.6308196084669462E-01 
    9.0056186079992573E-01 
    8.2470931243077306E-01 
    7.6072197271091824E-01 
    7.0892183165846434E-01 
    6.6717704445295500E-01 
    6.3212319921043647E-01 
    6.0084699429888822E-01 
    5.7170198380488846E-01 
    5.4374283642765586E-01 
    5.1446267624784825E-01 
    4.6194514382499963E-01 
    2.2425528705523129E-01 
    1.0726406126438349E-04 
    1.0000000011003203E-06 
    9.8451936493737180E-01 
    9.4958504215056427E-01 
    8.8416165150821979E-01 
    8.1480559491641757E-01 
    7.5560324073432150E-01 
    7.0559133107155958E-01 
    6.6401640362602055E-01 
    6.2891112623521050E-01 
    5.9810598341840882E-01 
    5.6976714718699528E-01 
    5.4267846827738397E-01 
    5.1428200951025638E-01 
    4.6392569713428522E-01 
    2.4501671170593534E-01 
    4.7702678069144023E-04 
    1.0004317503065607E-06 
    9.6018136099886409E-01 
    9.2672418714909977E-01 
    8.6221880767198211E-01 
    7.9808210922970413E-01 
    7.4490151692320528E-01 
    6.9823890174313208E-01 
    6.5753942986459091E-01 
    6.2251064593746797E-01 
    5.9239654469182390E-01 
    5.6545946505235145E-01 
    5.3997577953508813E-01 
    5.1319190313937446E-01 
    4.6719380806865857E-01 
    2.7026422452414550E-01 
    1.5561687984143727E-03 
    1.0072956719113578E-06 
    9.1764555774336376E-01 
    8.9139344007604437E-01 
    8.3538367523938672E-01 
    7.7633094403441838E-01 
    7.2746382089907013E-01 
    6.8596430832025979E-01 
    6.4881524610983654E-01 
    6.1597333961149292E-01 
    5.8709811387336563E-01 
    5.6131975685205915E-01 
    5.3710250492521183E-01 
    5.1214547182849934E-01 
    4.7014320557745859E-01 
    3.0239030942651096E-01 
    5.6288497844579587E-03 
    1.1435144746459657E-06 
    8.7180108757744246E-01 
    8.4972726803390553E-01 
    8.0195836283875643E-01 
    7.5032574484670100E-01 
    7.0603510040944539E-01 
    6.6878377850562543E-01 
    6.3632692725564310E-01 
    6.0725565170304863E-01 
    5.8093540743457006E-01 
    5.5682982587461438E-01 
    5.3413304419052954E-01 
    5.1110264425677399E-01 
    4.7332783684787139E-01 
    3.3175077416474685E-01 
    1.4622866195310611E-02 
    1.7814197566330954E-06 
    8.2497108262426444E-01 
    8.0742903855481651E-01 
    7.6816759391042366E-01 
    7.2369880731242553E-01 
    6.8359710396381668E-01 
    6.4947741876628851E-01 
    6.2030718230771842E-01 
    5.9475411704214942E-01 
    5.7140317054575029E-01 
    5.4959535548202010E-01 
    5.2888025777180725E-01 
    5.0801882893594896E-01 
    4.7551424143377446E-01 
    3.5623568488059087E-01 
    3.1800403088134387E-02 
    4.4783532281235808E-06 
    7.7753709845411323E-01 
    7.6522899984602655E-01 
    7.3432206359875685E-01 
    6.9613779507272866E-01 
    6.6025312819438020E-01 
    6.2929600209639047E-01 
    6.0304220981258916E-01 
    5.8003600516066167E-01 
    5.5930875790082224E-01 
    5.4006718386860408E-01 
    5.2190953168735377E-01 
    5.0338605915912582E-01 
    4.7583918134257441E-01 
    3.7605599685247804E-01 
    5.5177999560399579E-02 
    7.7165668352554440E-06 
    7.2944264490498267E-01 
    7.2234460513620669E-01 
    6.9967542629560575E-01 
    6.6789453348316319E-01 
    6.3604132139630065E-01 
    6.0787076809457896E-01 
    5.8358990853946513E-01 
    5.6292361003412328E-01 
    5.4501070663062767E-01 
    5.2866546994188868E-01 
    5.1289857087007673E-01 
    4.9711538751002671E-01 
    4.7421280205339467E-01 
    3.9201081791409004E-01 
    8.2421150005506177E-02 
    9.6571292905598875E-06 
    6.8070225213467395E-01 
    6.7807622247481436E-01 
    6.6268685549813400E-01 
    6.3774548909395590E-01 
    6.1075828108190078E-01 
    5.8520601262054528E-01 
    5.6248107240056422E-01 
    5.4339977375748916E-01 
    5.2795356135344496E-01 
    5.1459998070901669E-01 
    5.0201613685478053E-01 
    4.8910413123450247E-01 
    4.7071699155386487E-01 
    4.0414179422960400E-01 
    1.1000847945361837E-01 
    6.1279065483228109E-06 
    6.3164380488252225E-01 
    6.3276447428813520E-01 
    6.2381917989666680E-01 
    6.0528374602014645E-01 
    5.8352357808420408E-01 
    5.6147170191396201E-01 
    5.4081979529629720E-01 
    5.2346583329779939E-01 
    5.0962526655764262E-01 
    4.9780265578235683E-01 
    4.8706533870749597E-01 
    4.7721347503417472E-01 
    4.6309884071742613E-01 
    4.0962018875909006E-01 
    1.3744688739858330E-01 
    1.7925976012657418E-05 
    5.8412324651212855E-01 
    5.8799774077377842E-01 
    5.8456661505513241E-01 
    5.7162795502400443E-01 
    5.5453179067882441E-01 
    5.3694271702122387E-01 
    5.1990114439297619E-01 
    5.0331164545776996E-01 
    4.8816004993895556E-01 
    4.7498551289307933E-01 
    4.6426236550388794E-01 
    4.5521401706268161E-01 
    4.4522425956060180E-01 
    4.0711164597511895E-01 
    1.6162679953527087E-01 
    6.6527071518988209E-05 
    5.3994407549121082E-01 
    5.4582990609724868E-01 
    5.4606604804361003E-01 
    5.3681808617801730E-01 
    5.2321848898567858E-01 
    5.0932476189791587E-01 
    4.9322138946254207E-01 
    4.7198306929978451E-01 
    4.4540700052265803E-01 
    4.1161576266485927E-01 
    3.7435192311921861E-01 
    3.6645322391384955E-01 
    3.7541767042677437E-01 
    3.6380647434139796E-01 
    1.5995435764148741E-01 
    1.2395467747446329E-04 
    4.6507292008104945E-01 
    4.8074433323279131E-01 
    4.9025269815436162E-01 
    4.8677635452585749E-01 
    4.7227798326942644E-01 
    4.5116286054324944E-01 
    4.0226912608043719E-01 
    2.7361342252690518E-01 
    1.9114029935059573E-01 
    1.0506538521771849E-01 
    4.4445619505399395E-02 
    5.0426245958130958E-02 
    8.5595165242182608E-02 
    1.2143121122680828E-01 
    3.9863247466219671E-02 
    8.9456725296694535E-05 
    1.5591368849813136E-01 
    2.4567908563793622E-01 
    2.9207169953725609E-01 
    2.7820514512708494E-01 
    2.2450651802470550E-01 
    1.5655534053070350E-01 
    6.4449467647129458E-02 
    2.8661419569287454E-03 
    2.2365954093559064E-04 
    6.6526128765632020E-05 
    6.0834619828752305E-06 
    4.0020510280400503E-06 
    1.2134290613328205E-05 
    1.1844713724156630E-04 
    1.3564206128255171E-04 
    1.0039780563812352E-06 
    1.0059264477944984E-06 
    1.0990079346823497E-03 
    2.7751107884317508E-03 
    1.2546320247105080E-03 
    4.2799716483967143E-04 
    6.9602273389362108E-05 
    3.6109473198229186E-05 
    1.0525483046466505E-06 
    1.0009217594350281E-06 
    1.0005283730632046E-06 
    1.0000024811915226E-06 
    1.0000026744103150E-06 
    1.0000156260378568E-06 
    1.0012832190157089E-06 
    1.0022246843196201E-06 
    1.0000000015354058E-06 
    1.0000000011176665E-06 
    1.0162490054898992E-06 
    1.0156379081303111E-06 
    1.0119938773194008E-06 
    1.0023674498254803E-06 
    1.0006030403045871E-06 
    1.0000401067714242E-06 
    1.0000000013389555E-06 
    1.0000000000483929E-06 
    9.9999999999999995E-07 
    9.9999999999999995E-07 
    1.0000000000000690E-06 
    1.0000000000029027E-06 
    1.0000000001241343E-06 
    9.9999999999999974E-07 
    1.0000005157997150E-06 
