# vtk DataFile Version 2.0
Pressure Field Data 
ASCII 
DATASET UNSTRUCTURED_GRID 

POINTS 289 double 

    0.0000000000000000E+00     0.0000000000000000E+00     0.0000000000000000E+00 
    1.0000000000000000E+00     0.0000000000000000E+00     0.0000000000000000E+00 
    1.0000000000000000E+00     1.0000000000000000E+00     0.0000000000000000E+00 
    0.0000000000000000E+00     1.0000000000000000E+00     0.0000000000000000E+00 
    6.2499999999872928E-02     0.0000000000000000E+00     0.0000000000000000E+00 
    1.2499999999977310E-01     0.0000000000000000E+00     0.0000000000000000E+00 
    1.8749999999959341E-01     0.0000000000000000E+00     0.0000000000000000E+00 
    2.4999999999941089E-01     0.0000000000000000E+00     0.0000000000000000E+00 
    3.1249999999922851E-01     0.0000000000000000E+00     0.0000000000000000E+00 
    3.7499999999904610E-01     0.0000000000000000E+00     0.0000000000000000E+00 
    4.3749999999886358E-01     0.0000000000000000E+00     0.0000000000000000E+00 
    4.9999999999869210E-01     0.0000000000000000E+00     0.0000000000000000E+00 
    5.6249999999884603E-01     0.0000000000000000E+00     0.0000000000000000E+00 
    6.2499999999901090E-01     0.0000000000000000E+00     0.0000000000000000E+00 
    6.8749999999917577E-01     0.0000000000000000E+00     0.0000000000000000E+00 
    7.4999999999934064E-01     0.0000000000000000E+00     0.0000000000000000E+00 
    8.1249999999950551E-01     0.0000000000000000E+00     0.0000000000000000E+00 
    8.7499999999967026E-01     0.0000000000000000E+00     0.0000000000000000E+00 
    9.3749999999983513E-01     0.0000000000000000E+00     0.0000000000000000E+00 
    1.0000000000000000E+00     6.2499999999872928E-02     0.0000000000000000E+00 
    1.0000000000000000E+00     1.2499999999977310E-01     0.0000000000000000E+00 
    1.0000000000000000E+00     1.8749999999959341E-01     0.0000000000000000E+00 
    1.0000000000000000E+00     2.4999999999941089E-01     0.0000000000000000E+00 
    1.0000000000000000E+00     3.1249999999922851E-01     0.0000000000000000E+00 
    1.0000000000000000E+00     3.7499999999904610E-01     0.0000000000000000E+00 
    1.0000000000000000E+00     4.3749999999886358E-01     0.0000000000000000E+00 
    1.0000000000000000E+00     4.9999999999869210E-01     0.0000000000000000E+00 
    1.0000000000000000E+00     5.6249999999884603E-01     0.0000000000000000E+00 
    1.0000000000000000E+00     6.2499999999901090E-01     0.0000000000000000E+00 
    1.0000000000000000E+00     6.8749999999917577E-01     0.0000000000000000E+00 
    1.0000000000000000E+00     7.4999999999934064E-01     0.0000000000000000E+00 
    1.0000000000000000E+00     8.1249999999950551E-01     0.0000000000000000E+00 
    1.0000000000000000E+00     8.7499999999967026E-01     0.0000000000000000E+00 
    1.0000000000000000E+00     9.3749999999983513E-01     0.0000000000000000E+00 
    9.3749999999973976E-01     1.0000000000000000E+00     0.0000000000000000E+00 
    8.7499999999950118E-01     1.0000000000000000E+00     0.0000000000000000E+00 
    8.1249999999991318E-01     1.0000000000000000E+00     0.0000000000000000E+00 
    7.5000000000034706E-01     1.0000000000000000E+00     0.0000000000000000E+00 
    6.8750000000078049E-01     1.0000000000000000E+00     0.0000000000000000E+00 
    6.2500000000121403E-01     1.0000000000000000E+00     0.0000000000000000E+00 
    5.6250000000164757E-01     1.0000000000000000E+00     0.0000000000000000E+00 
    5.0000000000205946E-01     1.0000000000000000E+00     0.0000000000000000E+00 
    4.3750000000182099E-01     1.0000000000000000E+00     0.0000000000000000E+00 
    3.7500000000156092E-01     1.0000000000000000E+00     0.0000000000000000E+00 
    3.1250000000130068E-01     1.0000000000000000E+00     0.0000000000000000E+00 
    2.5000000000104050E-01     1.0000000000000000E+00     0.0000000000000000E+00 
    1.8750000000078040E-01     1.0000000000000000E+00     0.0000000000000000E+00 
    1.2500000000052031E-01     1.0000000000000000E+00     0.0000000000000000E+00 
    6.2500000000260125E-02     1.0000000000000000E+00     0.0000000000000000E+00 
    0.0000000000000000E+00     9.3749999999973976E-01     0.0000000000000000E+00 
    0.0000000000000000E+00     8.7499999999950118E-01     0.0000000000000000E+00 
    0.0000000000000000E+00     8.1249999999991318E-01     0.0000000000000000E+00 
    0.0000000000000000E+00     7.5000000000034706E-01     0.0000000000000000E+00 
    0.0000000000000000E+00     6.8750000000078049E-01     0.0000000000000000E+00 
    0.0000000000000000E+00     6.2500000000121403E-01     0.0000000000000000E+00 
    0.0000000000000000E+00     5.6250000000164757E-01     0.0000000000000000E+00 
    0.0000000000000000E+00     5.0000000000205946E-01     0.0000000000000000E+00 
    0.0000000000000000E+00     4.3750000000182099E-01     0.0000000000000000E+00 
    0.0000000000000000E+00     3.7500000000156092E-01     0.0000000000000000E+00 
    0.0000000000000000E+00     3.1250000000130068E-01     0.0000000000000000E+00 
    0.0000000000000000E+00     2.5000000000104050E-01     0.0000000000000000E+00 
    0.0000000000000000E+00     1.8750000000078040E-01     0.0000000000000000E+00 
    0.0000000000000000E+00     1.2500000000052031E-01     0.0000000000000000E+00 
    0.0000000000000000E+00     6.2500000000260125E-02     0.0000000000000000E+00 
    6.2499999999897131E-02     6.2500000000235922E-02     0.0000000000000000E+00 
    6.2499999999921327E-02     1.2500000000047351E-01     0.0000000000000000E+00 
    6.2499999999945530E-02     1.8750000000070621E-01     0.0000000000000000E+00 
    6.2499999999969733E-02     2.5000000000093858E-01     0.0000000000000000E+00 
    6.2499999999993928E-02     3.1250000000117117E-01     0.0000000000000000E+00 
    6.2500000000018124E-02     3.7500000000140382E-01     0.0000000000000000E+00 
    6.2500000000042327E-02     4.3750000000163619E-01     0.0000000000000000E+00 
    6.2500000000066530E-02     5.0000000000184897E-01     0.0000000000000000E+00 
    6.2500000000090733E-02     5.6250000000147260E-01     0.0000000000000000E+00 
    6.2500000000114922E-02     6.2500000000107636E-01     0.0000000000000000E+00 
    6.2500000000139125E-02     6.8750000000068034E-01     0.0000000000000000E+00 
    6.2500000000163328E-02     7.5000000000028411E-01     0.0000000000000000E+00 
    6.2500000000187531E-02     8.1249999999988787E-01     0.0000000000000000E+00 
    6.2500000000211720E-02     8.7499999999951172E-01     0.0000000000000000E+00 
    6.2500000000235922E-02     9.3749999999974565E-01     0.0000000000000000E+00 
    1.2499999999981980E-01     6.2500000000211733E-02     0.0000000000000000E+00 
    1.2499999999986650E-01     1.2500000000042691E-01     0.0000000000000000E+00 
    1.2499999999991319E-01     1.8750000000063199E-01     0.0000000000000000E+00 
    1.2499999999995989E-01     2.5000000000083678E-01     0.0000000000000000E+00 
    1.2500000000000661E-01     3.1250000000104172E-01     0.0000000000000000E+00 
    1.2500000000005329E-01     3.7500000000124661E-01     0.0000000000000000E+00 
    1.2500000000010000E-01     4.3750000000145117E-01     0.0000000000000000E+00 
    1.2500000000014669E-01     5.0000000000163858E-01     0.0000000000000000E+00 
    1.2500000000019340E-01     5.6250000000129741E-01     0.0000000000000000E+00 
    1.2500000000024011E-01     6.2500000000093847E-01     0.0000000000000000E+00 
    1.2500000000028680E-01     6.8750000000057998E-01     0.0000000000000000E+00 
    1.2500000000033351E-01     7.5000000000022127E-01     0.0000000000000000E+00 
    1.2500000000038020E-01     8.1249999999986211E-01     0.0000000000000000E+00 
    1.2500000000042691E-01     8.7499999999952238E-01     0.0000000000000000E+00 
    1.2500000000047359E-01     9.3749999999975164E-01     0.0000000000000000E+00 
    1.8749999999966760E-01     6.2500000000187531E-02     0.0000000000000000E+00 
    1.8749999999974179E-01     1.2500000000038020E-01     0.0000000000000000E+00 
    1.8749999999981601E-01     1.8750000000055780E-01     0.0000000000000000E+00 
    1.8749999999989009E-01     2.5000000000073502E-01     0.0000000000000000E+00 
    1.8749999999996431E-01     3.1250000000091221E-01     0.0000000000000000E+00 
    1.8750000000003850E-01     3.7500000000108941E-01     0.0000000000000000E+00 
    1.8750000000011269E-01     4.3750000000126649E-01     0.0000000000000000E+00 
    1.8750000000018691E-01     5.0000000000142808E-01     0.0000000000000000E+00 
    1.8750000000026110E-01     5.6250000000112244E-01     0.0000000000000000E+00 
    1.8750000000033529E-01     6.2500000000080080E-01     0.0000000000000000E+00 
    1.8750000000040951E-01     6.8750000000047962E-01     0.0000000000000000E+00 
    1.8750000000048361E-01     7.5000000000015843E-01     0.0000000000000000E+00 
    1.8750000000055780E-01     8.1249999999983680E-01     0.0000000000000000E+00 
    1.8750000000063199E-01     8.7499999999953304E-01     0.0000000000000000E+00 
    1.8750000000070621E-01     9.3749999999975764E-01     0.0000000000000000E+00 
    2.4999999999951281E-01     6.2500000000163314E-02     0.0000000000000000E+00 
    2.4999999999961461E-01     1.2500000000033351E-01     0.0000000000000000E+00 
    2.4999999999971650E-01     1.8750000000048361E-01     0.0000000000000000E+00 
    2.4999999999981831E-01     2.5000000000063310E-01     0.0000000000000000E+00 
    2.4999999999992020E-01     3.1250000000078260E-01     0.0000000000000000E+00 
    2.5000000000002198E-01     3.7500000000093209E-01     0.0000000000000000E+00 
    2.5000000000012390E-01     4.3750000000108180E-01     0.0000000000000000E+00 
    2.5000000000022571E-01     5.0000000000121769E-01     0.0000000000000000E+00 
    2.5000000000032763E-01     5.6250000000094724E-01     0.0000000000000000E+00 
    2.5000000000042938E-01     6.2500000000066314E-01     0.0000000000000000E+00 
    2.5000000000053119E-01     6.8750000000037925E-01     0.0000000000000000E+00 
[...]
CELL_DATA 256 
SCALARS Pressure double 1 
LOOKUP_TABLE default 

    8.9797733957182857E-01 
    8.4603463309915883E-01 
    8.1098004400008250E-01 
    7.7784856441276629E-01 
    7.4325974117190519E-01 
    7.0643419362100957E-01 
    6.6732739906740957E-01 
    6.2635608210832439E-01 
    5.8412617073193895E-01 
    5.4138958852698926E-01 
    4.9911167838451032E-01 
    4.5878711380049209E-01 
    4.2255563155096232E-01 
    3.9114715445712755E-01 
    3.6633310095237009E-01 
    3.5534834622049954E-01 
    8.8404104936948791E-01 
    8.4753457294546253E-01 
    8.1368128923343896E-01 
    7.8086652091782871E-01 
    7.4656768204625368E-01 
    7.1002277644855727E-01 
    6.7115137544814230E-01 
    6.3033646111546959E-01 
    5.8815916296874182E-01 
    5.4534328100869933E-01 
    5.0280527334764380E-01 
    4.6196661283477097E-01 
    4.2498366834887075E-01 
    3.9279365298870189E-01 
    3.6683871246848815E-01 
    3.5491331098679985E-01 
    8.7331771244572187E-01 
    8.4682634296863790E-01 
    8.1555943765036454E-01 
    7.8347345227392950E-01 
    7.4959407694091273E-01 
    7.1338906211560882E-01 
    6.7478928445198350E-01 
    6.3414633017749700E-01 
    5.9200598464639109E-01 
    5.4904854289433125E-01 
    5.0612913587097663E-01 
    4.6457744632999098E-01 
    4.2655055031844202E-01 
    3.9331762811369642E-01 
    3.6603136370494710E-01 
    3.5328372143950720E-01 
    8.6478588631094833E-01 
    8.4494893179884556E-01 
    8.1664816070930912E-01 
    7.8565680998812093E-01 
    7.5234647969030888E-01 
    7.1654301681414645E-01 
    6.7824751709321585E-01 
    6.3779511331505589E-01 
    5.9568915564703384E-01 
    5.5254977340501454E-01 
    5.0915176793814843E-01 
    4.6670707642921633E-01 
    4.2734281145502473E-01 
    3.9272658480450268E-01 
    3.6382077713281208E-01 
    3.5023989342327055E-01 
    8.5778921659139717E-01 
    8.4247630379464777E-01 
    8.1707376752101990E-01 
    7.8742772160948304E-01 
    7.5483545489137838E-01 
    7.1950270286229268E-01 
    6.8154520116760708E-01 
    6.4130314515854614E-01 
    5.9923748035453617E-01 
    5.5589523852251566E-01 
    5.1194838418748212E-01 
    4.6845712440880261E-01 
    4.2746601814929436E-01 
    3.9104074494812618E-01 
    3.6011085768429707E-01 
    3.4555856310840033E-01 
    8.5197484132843015E-01 
    8.3977173032084884E-01 
    8.1699524366507081E-01 
    7.8882635802147161E-01 
    7.5707883436726831E-01 
    7.2228933266673856E-01 
    6.8470972512596173E-01 
    6.4470020761291580E-01 
    6.0268473037407688E-01 
    5.5913383809357198E-01 
    5.1459509282367666E-01 
    4.6993764656547221E-01 
    4.2704123077612949E-01 
    3.8829681367322871E-01 
    3.5480933701652051E-01 
    3.3899717283722708E-01 
    8.4711600111107033E-01 
    8.3707281564647518E-01 
    8.1658008823461392E-01 
    7.8992033625521130E-01 
    7.5910570130319233E-01 
    7.2492584924421477E-01 
    6.8776713798039601E-01 
    6.4801855808524866E-01 
    6.0606992620040734E-01 
    5.6231642507109925E-01 
    5.1717056325431043E-01 
    4.7126643111057342E-01 
    4.2621319903352017E-01 
    3.8456904196550618E-01 
    3.4784695397632276E-01 
    3.3028761805546747E-01 
    8.4305282850156149E-01 
    8.3452874392262999E-01 
    8.1597822414871546E-01 
    7.9078754648349647E-01 
    7.6095502064867471E-01 
    7.2743740569718141E-01 
    6.9074165236431251E-01 
    6.5128794561593728E-01 
    6.0943209958798672E-01 
    5.6549725279244478E-01 
    5.1975763985306545E-01 
    4.7257409663769023E-01 
    4.2516339363860539E-01 
    3.8001302692128858E-01 
    3.3923289693229347E-01 
    3.1912042333138263E-01 
    8.3966923811202965E-01 
    8.3222833587470590E-01 
    8.1531238662270866E-01 
    7.9150809537131850E-01 
    7.6267226359188212E-01 
    7.2985126651918242E-01 
    6.9365379875241051E-01 
    6.5453361741401850E-01 
    6.1280857586437043E-01 
    5.6873035348620871E-01 
    5.2244083458513224E-01 
    4.7400054157381039E-01 
    4.2411022491917300E-01 
    3.7488871251742656E-01 
    3.2904610754914859E-01 
    3.0505453584319731E-01 
    8.3688186778848617E-01 
    8.3022520988207449E-01 
    8.1468070177828888E-01 
    7.9216035769341819E-01 
    7.6430957342127737E-01 
    7.3219870208485016E-01 
    6.9652457484776309E-01 
    6.5777965015669537E-01 
    6.1623449286232079E-01 
    5.7206635077253454E-01 
    5.2530102597756712E-01 
    4.7568974018185078E-01 
    4.2330340319542997E-01 
    3.6951922149351552E-01 
    3.1727466203056320E-01 
    2.8721737350713750E-01 
    8.3463646642498490E-01 
    8.2855938499163984E-01 
    8.1416802612296635E-01 
    7.9282301908210306E-01 
    7.6592652613699230E-01 
    7.3452066245656289E-01 
    6.9938024176584068E-01 
    6.6105061770286544E-01 
    6.1973978363986360E-01 
    5.7554295538267852E-01 
    5.2840371327178426E-01 
    4.7777502409855105E-01 
    4.2301235213913091E-01 
    3.6432901718370303E-01 
    3.0395578490266806E-01 
    2.6426008802219114E-01 
    8.3290801273367709E-01 
    8.2727480393108932E-01 
    8.1385669951739081E-01 
    7.9357644659785576E-01 
    7.6759035368345951E-01 
    7.3686802739914470E-01 
    7.0225061547645473E-01 
    6.6435948065496020E-01 
    6.2332279386566836E-01 
    5.7914419712375487E-01 
    5.3173850977589665E-01 
    4.8030447618892819E-01 
    4.2344755030468262E-01 
    3.5982584961181585E-01 
    2.8946609656203071E-01 
    2.3481544805741356E-01 
    8.3164241790356608E-01 
    8.2638289185086955E-01 
    8.1380218061779142E-01 
    7.9448173093833707E-01 
    7.6935048042330378E-01 
    7.3926893087262258E-01 
    7.0510525978162031E-01 
    6.6756829704687692E-01 
    6.2679407504611073E-01 
    5.8266736797127139E-01 
    5.3505909835601928E-01 
    4.8300610677001865E-01 
    4.2451037462403612E-01 
    3.5627124392813692E-01 
    2.7421228406112974E-01 
    1.9721739978526143E-01 
    8.3057440859122167E-01 
    8.2569622684430477E-01 
    8.1389459560490429E-01 
    7.9543490762812163E-01 
    7.7108000078668582E-01 
    7.4160204416991760E-01 
    7.0784986614831114E-01 
    6.7059022768100851E-01 
    6.3009322755279606E-01 
    5.8619329850703872E-01 
    5.3860155452657654E-01 
    4.8627021285723315E-01 
    4.2665682581261272E-01 
    3.5429395705446148E-01 
    2.5892981999632159E-01 
    1.4841813263802106E-01 
    8.2986082403068540E-01 
    8.2530283046012176E-01 
    8.1419861004955074E-01 
    7.9649671402351618E-01 
    7.7283726039910472E-01 
    7.4395917751533924E-01 
    7.1068232436785916E-01 
    6.7377290797942335E-01 
    6.3360306471183059E-01 
    5.9004373814885103E-01 
    5.4268718560942575E-01 
    4.9045503553066405E-01 
    4.3055343268125851E-01 
    3.5596509684030719E-01 
    2.4786276980046154E-01 
    8.3871679440965505E-02 
    8.2967259820713046E-01 
    8.2548922811866055E-01 
    8.1501327103174159E-01 
    7.9798266065605694E-01 
    7.7495017956668300E-01 
    7.4663580593139056E-01 
    7.1383689555457963E-01 
    6.7730996764085427E-01 
    6.3746478213071001E-01 
    5.9422819389073722E-01 
    5.4720730546599217E-01 
    4.9534469747665788E-01 
    4.3589362629135431E-01 
    3.6174875473470164E-01 
    2.4985954115426925E-01 
    0.0000000000000000E+00 

SCALARS Saturarion double 1 
LOOKUP_TABLE default 

    1.0000000000000018E+00 
    9.6539339216615239E-01 
    9.0591534592284850E-01 
    8.3330559239708479E-01 
    7.7176009795159750E-01 
    7.2104045317155574E-01 
    6.7975697999519147E-01 
    6.4517727529903846E-01 
    6.1461775566909471E-01 
    5.8625111257808948E-01 
    5.5898070309823000E-01 
    5.3189351601481583E-01 
    4.9767802977969838E-01 
    3.9141432983356012E-01 
    4.3145760690086181E-02 
    1.0000004603875516E-06 
    9.8571941395071405E-01 
    9.5294153672576443E-01 
    8.9067964916912146E-01 
    8.2366374405173393E-01 
    7.6650627422471740E-01 
    7.1776524563587274E-01 
    6.7686011059431983E-01 
    6.4222481312628787E-01 
    6.1197207050368507E-01 
    5.8430812680098054E-01 
    5.5796368753419900E-01 
    5.3179530335103453E-01 
    4.9877579518082471E-01 
    4.0151440999240406E-01 
    6.1570570872191428E-02 
    2.9295000557656568E-06 
    9.6328726099091211E-01 
    9.3160252588777881E-01 
    8.7003814821128733E-01 
    8.0742628857392917E-01 
    7.5572554503089751E-01 
    7.1054591032885883E-01 
    6.7084369688960432E-01 
    6.3627265687877066E-01 
    6.0638063012492383E-01 
    5.7984224217536751E-01 
    5.5512367263346074E-01 
    5.3054215865480459E-01 
    5.0002657630271585E-01 
    4.1377841209051130E-01 
    8.5731433357487424E-02 
    5.2523073399188488E-06 
    9.2396591764047142E-01 
    8.9874962099198230E-01 
    8.4497988383465139E-01 
    7.8711331856436917E-01 
    7.3879755844864092E-01 
    6.9819560690863869E-01 
    6.6195028676595646E-01 
    6.2960392885097227E-01 
    6.0096479349374543E-01 
    5.7552915297511598E-01 
    5.5198592029617610E-01 
    5.2892686406875700E-01 
    5.0144370969155927E-01 
    4.2611118361493050E-01 
    1.1525250292161585E-01 
    1.1279985548783864E-05 
    8.8053428603352923E-01 
    8.5932397121596205E-01 
    8.1308762692314551E-01 
    7.6214545215811647E-01 
    7.1795656682824738E-01 
    6.8094832441784814E-01 
    6.4890598336557148E-01 
    6.2028372560750455E-01 
    5.9440594114965051E-01 
    5.7081652267366845E-01 
    5.4884945491131643E-01 
    5.2752033895559725E-01 
    5.0245928331241563E-01 
    4.3761626063420783E-01 
    1.4613436716912784E-01 
    2.6042699455488286E-05 
    8.3573778028080459E-01 
    8.1870598817262097E-01 
    7.8026843488767328E-01 
    7.3617593718235796E-01 
    6.9609843132846994E-01 
    6.6180280154687476E-01 
    6.3253393652222700E-01 
    6.0723748197939287E-01 
    5.8446246545687008E-01 
    5.6334188971619448E-01 
    5.4351270858661482E-01 
    5.2446384829467274E-01 
    5.0279268678769873E-01 
    4.4642869624871750E-01 
    1.7820841939661189E-01 
    1.2117694073696411E-04 
    7.8983595409131580E-01 
    7.7773981600529751E-01 
    7.4721055926837276E-01 
    7.0925082775842208E-01 
    6.7326571259851287E-01 
    6.4191128896234118E-01 
    6.1526398973087681E-01 
    5.9218375481762520E-01 
    5.7185413178859390E-01 
    5.5334156830929848E-01 
    5.3615813508233856E-01 
    5.1963899609574904E-01 
    5.0145448949201887E-01 
    4.5465760563290025E-01 
    2.1777880526487020E-01 
    6.1718801387333766E-04 
    7.4289086466442167E-01 
    7.3581780106853889E-01 
    7.1325535025837039E-01 
    6.8149424766530398E-01 
    6.4938371236862835E-01 
    6.2080138598242651E-01 
    5.9607988528349898E-01 
    5.7499817512064633E-01 
    5.5698247702492909E-01 
    5.4124509820664957E-01 
    5.2675532929606317E-01 
    5.1307229370125051E-01 
    4.9847848028419472E-01 
    4.6138362574070330E-01 
    2.6932434029423991E-01 
    3.1758036999900117E-03 
    6.9495033251326854E-01 
    6.9225999095631774E-01 
    6.7676950907961508E-01 
    6.5157540647709200E-01 
    6.2421324303524139E-01 
    5.9840250499433145E-01 
    5.7527400985483979E-01 
    5.5536005468805005E-01 
    5.3923033018710997E-01 
    5.2610302514043583E-01 
    5.1483585231461326E-01 
    5.0438500622022608E-01 
    4.9358276593166284E-01 
    4.6588790896050059E-01 
    3.1964843049054070E-01 
    1.4975713909415028E-02 
    6.4612202219183101E-01 
    6.4717503911200491E-01 
    6.3794377564299509E-01 
    6.1894178853720216E-01 
    5.9675913140559667E-01 
    5.7451523691331274E-01 
    5.5336176182131036E-01 
    5.3498705955252479E-01 
    5.2054555796402913E-01 
    5.0911361387014809E-01 
    4.9976725127328520E-01 
    4.9262047790121910E-01 
    4.8639488057104363E-01 
    4.6749657171877096E-01 
    3.5236683575382777E-01 
    4.6964141991887635E-02 
    5.9751907340068966E-01 
    6.0149258435043351E-01 
    5.9777859883128792E-01 
    5.8451199303897050E-01 
    5.6719632468927406E-01 
    5.4916443340476984E-01 
    5.3172513329799997E-01 
    5.1523859973174690E-01 
    5.0090597091855382E-01 
    4.8895370565076335E-01 
    4.7985154989616241E-01 
    4.7487648949308425E-01 
    4.7407956332313567E-01 
    4.6526470348103044E-01 
    3.7965845503528672E-01 
    9.7012026567563206E-02 
    5.5204823396292191E-01 
    5.5789455841487190E-01 
    5.5844696662584847E-01 
    5.4947297856632937E-01 
    5.3558426793433878E-01 
    5.2146199945457761E-01 
    5.0727751045064151E-01 
    4.9087306592932978E-01 
    4.7251066405961767E-01 
    4.5289037684706696E-01 
    4.3662097068273004E-01 
    4.2971096077514531E-01 
    4.3999515724066551E-01 
    4.5227676593465554E-01 
    3.9881896983920112E-01 
    1.4812028682122644E-01 
    4.9088981221484063E-01 
    5.0318393374339387E-01 
    5.0939558658725437E-01 
    5.0582113223236136E-01 
    4.9297608903930296E-01 
    4.7746586666172641E-01 
    4.5779240820075939E-01 
    4.1438556713182634E-01 
    3.1411583708437868E-01 
    2.3379237332785971E-01 
    1.8369009691327737E-01 
    1.7866392282698651E-01 
    2.8225433849484205E-01 
    3.9218094799694375E-01 
    3.8692613054935271E-01 
    1.9534369977357197E-01 
    2.3936559082135525E-01 
    3.3106297077127722E-01 
    3.7377586971754634E-01 
    3.7001516652041627E-01 
    3.1891210619179544E-01 
    2.4208331983696296E-01 
    1.8407898716953117E-01 
    7.0474959459262243E-02 
    7.6056771106451102E-03 
    6.6804809794639142E-04 
    8.9987588299687100E-05 
    1.0418393518864812E-04 
    2.2772984844097878E-02 
    1.8240313048823326E-01 
    3.3104901276692805E-01 
    2.1675968841986915E-01 
    1.6585187724001572E-04 
    1.2831967415603496E-02 
    2.5502184101524248E-02 
    1.9072520295866879E-02 
    7.0292252908380906E-03 
    5.2259212333856538E-04 
    1.1096385363529869E-04 
    2.9820499992244356E-05 
    1.5384278470333747E-06 
    1.0078054260395654E-06 
    1.0003948942124529E-06 
    1.0002854911861871E-06 
    3.1853440435667526E-05 
    6.1158136035485058E-03 
    2.2222109505714577E-01 
    2.1894305040124326E-01 
    1.0000002003046814E-06 
    2.6260339989545839E-06 
    1.4634553400372477E-06 
    1.7065612887439627E-06 
    1.4175298101791611E-06 
    1.0039477783395822E-06 
    1.0003659518622952E-06 
    1.0000221016176187E-06 
    1.0000000350250880E-06 
    1.0000000005255945E-06 
    1.0000000000002469E-06 
    1.0000000000170863E-06 
    1.0000512257034333E-06 
    1.7572552538325005E-06 
    1.9708955624894511E-02 
    1.8212970483297466E-01 
