# vtk DataFile Version 2.0
Pressure Field Data 
ASCII 
DATASET UNSTRUCTURED_GRID 

POINTS 289 double 

    0.0000000000000000E+00     0.0000000000000000E+00     0.0000000000000000E+00 
    1.0000000000000000E+00     0.0000000000000000E+00     0.0000000000000000E+00 
    1.0000000000000000E+00     1.0000000000000000E+00     0.0000000000000000E+00 
    0.0000000000000000E+00     1.0000000000000000E+00     0.0000000000000000E+00 
    6.2499999999872928E-02     0.0000000000000000E+00     0.0000000000000000E+00 
    1.2499999999977310E-01     0.0000000000000000E+00     0.0000000000000000E+00 
    1.8749999999959341E-01     0.0000000000000000E+00     0.0000000000000000E+00 
    2.4999999999941089E-01     0.0000000000000000E+00     0.0000000000000000E+00 
    3.1249999999922851E-01     0.0000000000000000E+00     0.0000000000000000E+00 
    3.7499999999904610E-01     0.0000000000000000E+00     0.0000000000000000E+00 
    4.3749999999886358E-01     0.0000000000000000E+00     0.0000000000000000E+00 
    4.9999999999869210E-01     0.0000000000000000E+00     0.0000000000000000E+00 
    5.6249999999884603E-01     0.0000000000000000E+00     0.0000000000000000E+00 
    6.2499999999901090E-01     0.0000000000000000E+00     0.0000000000000000E+00 
    6.8749999999917577E-01     0.0000000000000000E+00     0.0000000000000000E+00 
    7.4999999999934064E-01     0.0000000000000000E+00     0.0000000000000000E+00 
    8.1249999999950551E-01     0.0000000000000000E+00     0.0000000000000000E+00 
    8.7499999999967026E-01     0.0000000000000000E+00     0.0000000000000000E+00 
    9.3749999999983513E-01     0.0000000000000000E+00     0.0000000000000000E+00 
    1.0000000000000000E+00     6.2499999999872928E-02     0.0000000000000000E+00 
    1.0000000000000000E+00     1.2499999999977310E-01     0.0000000000000000E+00 
    1.0000000000000000E+00     1.8749999999959341E-01     0.0000000000000000E+00 
    1.0000000000000000E+00     2.4999999999941089E-01     0.0000000000000000E+00 
    1.0000000000000000E+00     3.1249999999922851E-01     0.0000000000000000E+00 
    1.0000000000000000E+00     3.7499999999904610E-01     0.0000000000000000E+00 
    1.0000000000000000E+00     4.3749999999886358E-01     0.0000000000000000E+00 
    1.0000000000000000E+00     4.9999999999869210E-01     0.0000000000000000E+00 
    1.0000000000000000E+00     5.6249999999884603E-01     0.0000000000000000E+00 
    1.0000000000000000E+00     6.2499999999901090E-01     0.0000000000000000E+00 
    1.0000000000000000E+00     6.8749999999917577E-01     0.0000000000000000E+00 
    1.0000000000000000E+00     7.4999999999934064E-01     0.0000000000000000E+00 
    1.0000000000000000E+00     8.1249999999950551E-01     0.0000000000000000E+00 
    1.0000000000000000E+00     8.7499999999967026E-01     0.0000000000000000E+00 
    1.0000000000000000E+00     9.3749999999983513E-01     0.0000000000000000E+00 
    9.3749999999973976E-01     1.0000000000000000E+00     0.0000000000000000E+00 
    8.7499999999950118E-01     1.0000000000000000E+00     0.0000000000000000E+00 
    8.1249999999991318E-01     1.0000000000000000E+00     0.0000000000000000E+00 
    7.5000000000034706E-01     1.0000000000000000E+00     0.0000000000000000E+00 
    6.8750000000078049E-01     1.0000000000000000E+00     0.0000000000000000E+00 
    6.2500000000121403E-01     1.0000000000000000E+00     0.0000000000000000E+00 
    5.6250000000164757E-01     1.0000000000000000E+00     0.0000000000000000E+00 
    5.0000000000205946E-01     1.0000000000000000E+00     0.0000000000000000E+00 
    4.3750000000182099E-01     1.0000000000000000E+00     0.0000000000000000E+00 
    3.7500000000156092E-01     1.0000000000000000E+00     0.0000000000000000E+00 
    3.1250000000130068E-01     1.0000000000000000E+00     0.0000000000000000E+00 
    2.5000000000104050E-01     1.0000000000000000E+00     0.0000000000000000E+00 
    1.8750000000078040E-01     1.0000000000000000E+00     0.0000000000000000E+00 
    1.2500000000052031E-01     1.0000000000000000E+00     0.0000000000000000E+00 
    6.2500000000260125E-02     1.0000000000000000E+00     0.0000000000000000E+00 
    0.0000000000000000E+00     9.3749999999973976E-01     0.0000000000000000E+00 
    0.0000000000000000E+00     8.7499999999950118E-01     0.0000000000000000E+00 
    0.0000000000000000E+00     8.1249999999991318E-01     0.0000000000000000E+00 
    0.0000000000000000E+00     7.5000000000034706E-01     0.0000000000000000E+00 
    0.0000000000000000E+00     6.8750000000078049E-01     0.0000000000000000E+00 
    0.0000000000000000E+00     6.2500000000121403E-01     0.0000000000000000E+00 
    0.0000000000000000E+00     5.6250000000164757E-01     0.0000000000000000E+00 
    0.0000000000000000E+00     5.0000000000205946E-01     0.0000000000000000E+00 
    0.0000000000000000E+00     4.3750000000182099E-01     0.0000000000000000E+00 
    0.0000000000000000E+00     3.7500000000156092E-01     0.0000000000000000E+00 
    0.0000000000000000E+00     3.1250000000130068E-01     0.0000000000000000E+00 
    0.0000000000000000E+00     2.5000000000104050E-01     0.0000000000000000E+00 
    0.0000000000000000E+00     1.8750000000078040E-01     0.0000000000000000E+00 
    0.0000000000000000E+00     1.2500000000052031E-01     0.0000000000000000E+00 
    0.0000000000000000E+00     6.2500000000260125E-02     0.0000000000000000E+00 
    6.2499999999897131E-02     6.2500000000235922E-02     0.0000000000000000E+00 
    6.2499999999921327E-02     1.2500000000047351E-01     0.0000000000000000E+00 
    6.2499999999945530E-02     1.8750000000070621E-01     0.0000000000000000E+00 
    6.2499999999969733E-02     2.5000000000093858E-01     0.0000000000000000E+00 
    6.2499999999993928E-02     3.1250000000117117E-01     0.0000000000000000E+00 
    6.2500000000018124E-02     3.7500000000140382E-01     0.0000000000000000E+00 
    6.2500000000042327E-02     4.3750000000163619E-01     0.0000000000000000E+00 
    6.2500000000066530E-02     5.0000000000184897E-01     0.0000000000000000E+00 
    6.2500000000090733E-02     5.6250000000147260E-01     0.0000000000000000E+00 
    6.2500000000114922E-02     6.2500000000107636E-01     0.0000000000000000E+00 
    6.2500000000139125E-02     6.8750000000068034E-01     0.0000000000000000E+00 
    6.2500000000163328E-02     7.5000000000028411E-01     0.0000000000000000E+00 
    6.2500000000187531E-02     8.1249999999988787E-01     0.0000000000000000E+00 
    6.2500000000211720E-02     8.7499999999951172E-01     0.0000000000000000E+00 
    6.2500000000235922E-02     9.3749999999974565E-01     0.0000000000000000E+00 
    1.2499999999981980E-01     6.2500000000211733E-02     0.0000000000000000E+00 
    1.2499999999986650E-01     1.2500000000042691E-01     0.0000000000000000E+00 
    1.2499999999991319E-01     1.8750000000063199E-01     0.0000000000000000E+00 
    1.2499999999995989E-01     2.5000000000083678E-01     0.0000000000000000E+00 
    1.2500000000000661E-01     3.1250000000104172E-01     0.0000000000000000E+00 
    1.2500000000005329E-01     3.7500000000124661E-01     0.0000000000000000E+00 
    1.2500000000010000E-01     4.3750000000145117E-01     0.0000000000000000E+00 
    1.2500000000014669E-01     5.0000000000163858E-01     0.0000000000000000E+00 
    1.2500000000019340E-01     5.6250000000129741E-01     0.0000000000000000E+00 
    1.2500000000024011E-01     6.2500000000093847E-01     0.0000000000000000E+00 
    1.2500000000028680E-01     6.8750000000057998E-01     0.0000000000000000E+00 
    1.2500000000033351E-01     7.5000000000022127E-01     0.0000000000000000E+00 
    1.2500000000038020E-01     8.1249999999986211E-01     0.0000000000000000E+00 
    1.2500000000042691E-01     8.7499999999952238E-01     0.0000000000000000E+00 
    1.2500000000047359E-01     9.3749999999975164E-01     0.0000000000000000E+00 
    1.8749999999966760E-01     6.2500000000187531E-02     0.0000000000000000E+00 
    1.8749999999974179E-01     1.2500000000038020E-01     0.0000000000000000E+00 
    1.8749999999981601E-01     1.8750000000055780E-01     0.0000000000000000E+00 
    1.8749999999989009E-01     2.5000000000073502E-01     0.0000000000000000E+00 
    1.8749999999996431E-01     3.1250000000091221E-01     0.0000000000000000E+00 
    1.8750000000003850E-01     3.7500000000108941E-01     0.0000000000000000E+00 
    1.8750000000011269E-01     4.3750000000126649E-01     0.0000000000000000E+00 
    1.8750000000018691E-01     5.0000000000142808E-01     0.0000000000000000E+00 
    1.8750000000026110E-01     5.6250000000112244E-01     0.0000000000000000E+00 
    1.8750000000033529E-01     6.2500000000080080E-01     0.0000000000000000E+00 
    1.8750000000040951E-01     6.8750000000047962E-01     0.0000000000000000E+00 
    1.8750000000048361E-01     7.5000000000015843E-01     0.0000000000000000E+00 
    1.8750000000055780E-01     8.1249999999983680E-01     0.0000000000000000E+00 
    1.8750000000063199E-01     8.7499999999953304E-01     0.0000000000000000E+00 
    1.8750000000070621E-01     9.3749999999975764E-01     0.0000000000000000E+00 
    2.4999999999951281E-01     6.2500000000163314E-02     0.0000000000000000E+00 
    2.4999999999961461E-01     1.2500000000033351E-01     0.0000000000000000E+00 
    2.4999999999971650E-01     1.8750000000048361E-01     0.0000000000000000E+00 
    2.4999999999981831E-01     2.5000000000063310E-01     0.0000000000000000E+00 
    2.4999999999992020E-01     3.1250000000078260E-01     0.0000000000000000E+00 
    2.5000000000002198E-01     3.7500000000093209E-01     0.0000000000000000E+00 
    2.5000000000012390E-01     4.3750000000108180E-01     0.0000000000000000E+00 
    2.5000000000022571E-01     5.0000000000121769E-01     0.0000000000000000E+00 
    2.5000000000032763E-01     5.6250000000094724E-01     0.0000000000000000E+00 
    2.5000000000042938E-01     6.2500000000066314E-01     0.0000000000000000E+00 
    2.5000000000053119E-01     6.8750000000037925E-01     0.0000000000000000E+00 
[...]
CELL_DATA 256 
SCALARS Pressure double 1 
LOOKUP_TABLE default 

    6.9444199813421970E-01 
    6.4455439661719582E-01 
    6.1270044471214824E-01 
    5.8382280035038858E-01 
    5.5445102891779874E-01 
    5.2369978299562714E-01 
    4.9136561789968164E-01 
    4.5765089576184642E-01 
    4.2295391036119406E-01 
    3.8783379736877993E-01 
    3.5307489991639773E-01 
    3.1992690712818128E-01 
    2.9035975370837175E-01 
    2.6695405474584322E-01 
    2.5187166170357783E-01 
    2.4449238166905302E-01 
    6.8045982701477170E-01 
    6.4583759889694825E-01 
    6.1508940744062512E-01 
    5.8644764044914666E-01 
    5.5727753040266881E-01 
    5.2671680917504460E-01 
    4.9454709766363447E-01 
    4.6094830707355738E-01 
    4.2629520335946458E-01 
    3.9111635864352234E-01 
    3.5614867469274386E-01 
    3.2257255109078226E-01 
    2.9230524165540472E-01 
    2.6797611601514215E-01 
    2.5201142104726060E-01 
    2.4406854427797464E-01 
    6.6973419098264397E-01 
    6.4498569600397293E-01 
    6.1672614691500804E-01 
    5.8873705792678133E-01 
    5.5990348501917264E-01 
    5.2958804843741014E-01 
    4.9760801079607642E-01 
    4.6413222435974050E-01 
    4.2950829338788321E-01 
    3.9422313432668771E-01 
    3.5895507236059254E-01 
    3.2480330542079844E-01 
    2.9363200883645973E-01 
    2.6815480358948762E-01 
    2.5115954548598057E-01 
    2.4269841045719190E-01 
    6.6131133386222474E-01 
    6.4305695177201261E-01 
    6.1765231602109150E-01 
    5.9066981074601432E-01 
    5.6232327322286679E-01 
    5.3231878757532647E-01 
    5.0055760919508041E-01 
    4.6721443585945621E-01 
    4.3261129244486551E-01 
    3.9718561615126413E-01 
    3.6154411357186783E-01 
    3.2668663910612467E-01 
    2.9440837548501081E-01 
    2.6752237039795795E-01 
    2.4926892789911914E-01 
    2.4024193438247324E-01 
    6.5454737159808252E-01 
    6.4064301412798108E-01 
    6.1800191498360546E-01 
    5.9225579874957979E-01 
    5.6453531179232053E-01 
    5.3491337368101965E-01 
    5.0340634995976619E-01 
    4.7021020727732310E-01 
    4.3562652490404813E-01 
    4.0003930661929737E-01 
    3.6397032158939002E-01 
    3.2829730339086283E-01 
    2.9471382772802440E-01 
    2.6612024283180119E-01 
    2.4628949589429291E-01 
    2.3655138083293292E-01 
    6.4904280792776337E-01 
    6.3808896150029148E-01 
    6.1792680189769833E-01 
    5.9352950758994139E-01 
    5.6654604455083957E-01 
    5.3737579505539179E-01 
    5.0616368800023503E-01 
    4.7313584306510348E-01 
    4.3857909498776104E-01 
    4.0282348467152956E-01 
    3.6629292137754688E-01 
    3.2971790286505265E-01 
    2.9464134096318023E-01 
    2.6400513511380941E-01 
    2.4216907702507959E-01 
    2.3144940514665049E-01 
    6.4453463406735789E-01 
    6.3560421000177159E-01 
    6.1757548037389409E-01 
    5.9454610836227606E-01 
    5.6837552213557785E-01 
    5.3971623492999099E-01 
    5.0883864674548029E-01 
    4.7600613739290049E-01 
    4.4149446836897976E-01 
    4.0557877150601157E-01 
    3.6857561664578520E-01 
    3.3103996966096549E-01 
    2.9430109671984156E-01 
    2.6125739690020494E-01 
    2.3686380716891853E-01 
    2.2473468354112194E-01 
    6.4083761690486807E-01 
    6.3331214352245424E-01 
    6.1707846690543167E-01 
    5.9537150628412117E-01 
    5.7005514055697237E-01 
    5.4195176004428736E-01 
    5.1144324000893804E-01 
    4.7883406745717799E-01 
    4.4439374727783509E-01 
    4.0834283453106252E-01 
    3.7088254237031981E-01 
    3.3236416897137944E-01 
    2.9382541944741758E-01 
    2.5799081910650301E-01 
    2.3034875390091653E-01 
    2.1617222376654929E-01 
    6.3781686445701657E-01 
    6.3128102624160853E-01 
    6.1654190978928369E-01 
    5.9607342150575737E-01 
    5.7162119869339933E-01 
    5.4410336342443411E-01 
    5.1399167508121624E-01 
    4.8163212006502243E-01 
    4.4729405486326079E-01 
    4.1114662285728948E-01 
    3.7327273433555785E-01 
    3.3379557641175966E-01 
    2.9337161304241610E-01 
    2.5436431601596488E-01 
    2.2262468618141104E-01 
    2.0546363092616637E-01 
    6.3537402930137343E-01 
    6.2954720789980079E-01 
    6.1604819258263299E-01 
    5.9671533136576815E-01 
    5.7311271615095793E-01 
    5.4619490578299545E-01 
    5.1650073528328488E-01 
    4.8441374539619148E-01 
    4.5021005939188785E-01 
    4.1401435736884906E-01 
    3.7579596330585563E-01 
    3.3543739309026077E-01 
    2.9312072991565541E-01 
    2.5059778788343678E-01 
    2.1373892860767482E-01 
    1.9220936072591649E-01 
    6.3343620172941473E-01 
    6.2812966401197157E-01 
    6.1566169788560920E-01 
    5.9735559868005317E-01 
    5.7457050315342861E-01 
    5.4825453971024873E-01 
    5.1899030619249020E-01 
    4.8719432321061384E-01 
    4.5315696510368791E-01 
    4.1696690708378892E-01 
    3.7849351368758849E-01 
    3.3738636552799051E-01 
    2.9327494993989678E-01 
    2.4699045134128544E-01 
    2.0383185246060620E-01 
    1.7588636680640532E-01 
    6.3194664743435014E-01 
    6.2703756310377867E-01 
    6.1543450895707807E-01 
    5.9804878164834729E-01 
    5.7603798904917691E-01 
    5.5031551917740984E-01 
    5.2148578667089451E-01 
    4.8999243693458833E-01 
    4.5615149584930281E-01 
    4.2002438544844173E-01 
    3.8139906155499892E-01 
    3.3972784424878111E-01 
    2.9405181821594112E-01 
    2.4393510167148746E-01 
    1.9318852485558399E-01 
    1.5575672213530339E-01 
    6.3086706272333748E-01 
    6.2628081345918385E-01 
    6.1541413714208337E-01 
    5.9884965409440505E-01 
    5.7756204023613100E-01 
    5.5241629486996535E-01 
    5.2401831750343975E-01 
    4.9283068023334442E-01 
    4.5921181250775600E-01 
    4.2320477911417514E-01 
    3.8453583143180170E-01 
    3.4252477952652310E-01 
    2.9566253732259479E-01 
    2.4195304399535070E-01 
    1.8241522827568249E-01 
    1.3074887569333812E-01 
    6.3016663380477866E-01 
    6.2587264586309344E-01 
    6.1564774888418550E-01 
    5.9981358845757637E-01 
    5.7918972867031249E-01 
    5.5459396744566691E-01 
    5.2661783307417998E-01 
    4.9572632474227890E-01 
    4.6233733507090502E-01 
    4.2649301889944513E-01 
    3.8788028449724848E-01 
    3.4576476752309182E-01 
    2.9822682284451979E-01 
    2.4161857343541596E-01 
    1.7266291712911633E-01 
    9.9268471632974212E-02 
    6.2969586741194117E-01 
    6.2571728457037412E-01 
    6.1609684187984548E-01 
    6.0092262278850561E-01 
    5.8089330272819295E-01 
    5.5680398296011568E-01 
    5.2923556623354695E-01 
    4.9863378405348874E-01 
    4.6546915758419682E-01 
    4.2981023526017281E-01 
    3.9132978560716969E-01 
    3.4928656973147343E-01 
    3.0159256858997663E-01 
    2.4319327028511853E-01 
    1.6554905924560642E-01 
    5.8329354407334104E-02 
    6.2952734180774594E-01 
    6.2588207136873386E-01 
    6.1682306013524935E-01 
    6.0223304364765462E-01 
    5.8272048429557777E-01 
    5.5907639159135880E-01 
    5.3189330498257958E-01 
    5.0159744402400075E-01 
    4.6868027765000791E-01 
    4.3325009933896586E-01 
    3.9500555358789019E-01 
    3.5323600917794951E-01 
    3.0599831271133587E-01 
    2.4750475518151424E-01 
    1.6493472091335115E-01 
    0.0000000000000000E+00 

SCALARS Saturarion double 1 
LOOKUP_TABLE default 

    1.0000000000000007E+00 
    9.7651849043570715E-01 
    9.3368181678499440E-01 
    8.7658307276774117E-01 
    8.2868010436434802E-01 
    7.8655321643689002E-01 
    7.4997394196314981E-01 
    7.1830028059005735E-01 
    6.9044106641724867E-01 
    6.6525988202115627E-01 
    6.4155364505700740E-01 
    6.1793075905326711E-01 
    5.9230885532924360E-01 
    5.6134630957299980E-01 
    5.0575668808217999E-01 
    2.2420433972700057E-01 
    9.9114935808273508E-01 
    9.6891543566215332E-01 
    9.2403362782236953E-01 
    8.6964543787237658E-01 
    8.2337724349534713E-01 
    7.8287515480684544E-01 
    7.4737379420139505E-01 
    7.1625082615821545E-01 
    6.8874105692649457E-01 
    6.6387615171380154E-01 
    6.4070445876945525E-01 
    6.1795649087116855E-01 
    5.9345810419265432E-01 
    5.6348167424818940E-01 
    5.1082457041730278E-01 
    2.5400012938472161E-01 
    9.7717542533698343E-01 
    9.5493607749216247E-01 
    9.0988912663218369E-01 
    8.5731152689092283E-01 
    8.1297556153954920E-01 
    7.7517246198223333E-01 
    7.4192137472282937E-01 
    7.1204540379846593E-01 
    6.8510714730310096E-01 
    6.6060133573499524E-01 
    6.3799324467125051E-01 
    6.1630411729437728E-01 
    5.9363226104903344E-01 
    5.6595618304488526E-01 
    5.1747207003165796E-01 
    2.8109984336263100E-01 
    9.5279115017322402E-01 
    9.3406495045538052E-01 
    8.9262846513604033E-01 
    8.4417777899494462E-01 
    8.0066299197352986E-01 
    7.6416485655416078E-01 
    7.3274905625533926E-01 
    7.0484687504739663E-01 
    6.7946049013104215E-01 
    6.5626011873421675E-01 
    6.3469900965775350E-01 
    6.1411319175465517E-01 
    5.9307130944129693E-01 
    5.6797697403144598E-01 
    5.2396738700012790E-01 
    3.0728488233470586E-01 
    9.2295201985686670E-01 
    9.0646144261077011E-01 
    8.6956347668180034E-01 
    8.2594917469670348E-01 
    7.8472777657949633E-01 
    7.4932311424805409E-01 
    7.1938232229208587E-01 
    6.9342236032802385E-01 
    6.7031899695311103E-01 
    6.4938735435526074E-01 
    6.3007404527832667E-01 
    6.1151645276233180E-01 
    5.9228155029467222E-01 
    5.6944471477437475E-01 
    5.2994207735515297E-01 
    3.2856070841239754E-01 
    8.8965452065246753E-01 
    8.7594068426745109E-01 
    8.4389043546670084E-01 
    8.0454296870698239E-01 
    7.6657072735263920E-01 
    7.3301574062425223E-01 
    7.0402705890541695E-01 
    6.7928722941111830E-01 
    6.5799244183678440E-01 
    6.3935710361900522E-01 
    6.2271341687308712E-01 
    6.0722580738318788E-01 
    5.9096373733836127E-01 
    5.7057403362329984E-01 
    5.3526895333388180E-01 
    3.4756454491377559E-01 
    8.5370460293669848E-01 
    8.4333975844881137E-01 
    8.1648722031837273E-01 
    7.8156511574483822E-01 
    7.4712054153689711E-01 
    7.1600870972321884E-01 
    6.8869447937687689E-01 
    6.6479910811597753E-01 
    6.4438155745221137E-01 
    6.2720358904989038E-01 
    6.1285107392604121E-01 
    6.0046466954961253E-01 
    5.8814172329964520E-01 
    5.7142201921416469E-01 
    5.4009244697748038E-01 
    3.6607133751151300E-01 
    8.1491191885974712E-01 
    8.0833544586933914E-01 
    7.8743012282150437E-01 
    7.5747963813344510E-01 
    7.2628097534252478E-01 
    6.9747589442969593E-01 
    6.7175714207872450E-01 
    6.4929234813200798E-01 
    6.2994097382468373E-01 
    6.1382025528104323E-01 
    6.0095674134310617E-01 
    5.9121720469425465E-01 
    5.8298849180424095E-01 
    5.7132522533192287E-01 
    5.4486038947779947E-01 
    3.8469031443994522E-01 
    7.7347339495337375E-01 
    7.7057139006902853E-01 
    7.5545662759153953E-01 
    7.3081270027093370E-01 
    7.0339732703335633E-01 
    6.7696604493902690E-01 
    6.5305613489649172E-01 
    6.3189848461017750E-01 
    6.1356485355285606E-01 
    5.9826743753696798E-01 
    5.8660023420063212E-01 
    5.7909703178326821E-01 
    5.7496930095469945E-01 
    5.6929819288829409E-01 
    5.4888403994126456E-01 
    4.0229450076383105E-01 
    7.2942075326464006E-01 
    7.2994298852532757E-01 
    7.2021477673764833E-01 
    7.0058492518792448E-01 
    6.7721936575341590E-01 
    6.5370933300922729E-01 
    6.3172021913694920E-01 
    6.1220746120438230E-01 
    5.9519622214122359E-01 
    5.8078440755777538E-01 
    5.6970400888133699E-01 
    5.6355961803744670E-01 
    5.6316929616986999E-01 
    5.6437025303905697E-01 
    5.5178520844948709E-01 
    4.1947625383437326E-01 
    6.8240051423785575E-01 
    6.8608819326120662E-01 
    6.8135418148016846E-01 
    6.6637832969625077E-01 
    6.4710455998201633E-01 
    6.2708768739306642E-01 
    6.0802867450392806E-01 
    5.9037514659203816E-01 
    5.7476067756646654E-01 
    5.6156806518728952E-01 
    5.5139365308584942E-01 
    5.4564293581253298E-01 
    5.4705588442999276E-01 
    5.5511382909186402E-01 
    5.5236891546651345E-01 
    4.3677837060704006E-01 
    6.3122696236586251E-01 
    6.3790665260489388E-01 
    6.3824443234720885E-01 
    6.2805435777300578E-01 
    6.1275630743682141E-01 
    5.9616031648596524E-01 
    5.8006790152385190E-01 
    5.6515004826288429E-01 
    5.5168148383488369E-01 
    5.4031640148817561E-01 
    5.3164032332060573E-01 
    5.2673173495384784E-01 
    5.2818524813850387E-01 
    5.4018134869092549E-01 
    5.4758909391139843E-01 
    4.5305139361499158E-01 
    5.7800685277627672E-01 
    5.8650525581433888E-01 
    5.9092997524448543E-01 
    5.8563865760288392E-01 
    5.7486359013166721E-01 
    5.6171781854092195E-01 
    5.4862800239062737E-01 
    5.3613649668670371E-01 
    5.2464097473693094E-01 
    5.1451539603662533E-01 
    5.0707821326956448E-01 
    5.0379766062774678E-01 
    5.0668381825748887E-01 
    5.2004039222048259E-01 
    5.3929014849582946E-01 
    4.6685548565283835E-01 
    5.1678294822943616E-01 
    5.2989625077211167E-01 
    5.3763063777920528E-01 
    5.3735319491547151E-01 
    5.2936061654434619E-01 
    5.1810817190267000E-01 
    5.0524017669584631E-01 
    4.9380234299094145E-01 
    4.8093304487858679E-01 
    4.6308347203092259E-01 
    4.4914278341101027E-01 
    4.4599831699188625E-01 
    4.5388428094508643E-01 
    4.8470545549079569E-01 
    5.2333705170720557E-01 
    4.7645893600232864E-01 
    2.7649922365454571E-01 
    3.5520800244110340E-01 
    3.9644456055678212E-01 
    4.0534786366524084E-01 
    3.9117573186971477E-01 
    3.5930337181116523E-01 
    3.0710492878159107E-01 
    2.5546581105488930E-01 
    2.3124095605140249E-01 
    1.7984268785103835E-01 
    1.5420371599779559E-01 
    1.3457878556197947E-01 
    1.6854007212382466E-01 
    3.1273471184374946E-01 
    4.6366898762589692E-01 
    4.7727691867739014E-01 
    2.9102967049221887E-04 
    1.4103603185418321E-02 
    2.9084461450931066E-02 
    2.9707002002489869E-02 
    2.3856226656605910E-02 
    6.9965816838456121E-03 
    3.4139031303340762E-03 
    1.9248334947062734E-04 
    2.9374387986306431E-04 
    1.3650450262371372E-05 
    2.9837391070962891E-05 
    1.6195907278299161E-05 
    3.7530348537603088E-04 
    9.1214477786965120E-02 
    2.8983234902962801E-01 
    4.2664573252104793E-01 
