# vtk DataFile Version 2.0
Pressure Field Data 
ASCII 
DATASET UNSTRUCTURED_GRID 

POINTS 289 double 

    0.0000000000000000E+00     0.0000000000000000E+00     0.0000000000000000E+00 
    1.0000000000000000E+00     0.0000000000000000E+00     0.0000000000000000E+00 
    1.0000000000000000E+00     1.0000000000000000E+00     0.0000000000000000E+00 
    0.0000000000000000E+00     1.0000000000000000E+00     0.0000000000000000E+00 
    6.2499999999872928E-02     0.0000000000000000E+00     0.0000000000000000E+00 
    1.2499999999977310E-01     0.0000000000000000E+00     0.0000000000000000E+00 
    1.8749999999959341E-01     0.0000000000000000E+00     0.0000000000000000E+00 
    2.4999999999941089E-01     0.0000000000000000E+00     0.0000000000000000E+00 
    3.1249999999922851E-01     0.0000000000000000E+00     0.0000000000000000E+00 
    3.7499999999904610E-01     0.0000000000000000E+00     0.0000000000000000E+00 
    4.3749999999886358E-01     0.0000000000000000E+00     0.0000000000000000E+00 
    4.9999999999869210E-01     0.0000000000000000E+00     0.0000000000000000E+00 
    5.6249999999884603E-01     0.0000000000000000E+00     0.0000000000000000E+00 
    6.2499999999901090E-01     0.0000000000000000E+00     0.0000000000000000E+00 
    6.8749999999917577E-01     0.0000000000000000E+00     0.0000000000000000E+00 
    7.4999999999934064E-01     0.0000000000000000E+00     0.0000000000000000E+00 
    8.1249999999950551E-01     0.0000000000000000E+00     0.0000000000000000E+00 
    8.7499999999967026E-01     0.0000000000000000E+00     0.0000000000000000E+00 
    9.3749999999983513E-01     0.0000000000000000E+00     0.0000000000000000E+00 
    1.0000000000000000E+00     6.2499999999872928E-02     0.0000000000000000E+00 
    1.0000000000000000E+00     1.2499999999977310E-01     0.0000000000000000E+00 
    1.0000000000000000E+00     1.8749999999959341E-01     0.0000000000000000E+00 
    1.0000000000000000E+00     2.4999999999941089E-01     0.0000000000000000E+00 
    1.0000000000000000E+00     3.1249999999922851E-01     0.0000000000000000E+00 
    1.0000000000000000E+00     3.7499999999904610E-01     0.0000000000000000E+00 
    1.0000000000000000E+00     4.3749999999886358E-01     0.0000000000000000E+00 
    1.0000000000000000E+00     4.9999999999869210E-01     0.0000000000000000E+00 
    1.0000000000000000E+00     5.6249999999884603E-01     0.0000000000000000E+00 
    1.0000000000000000E+00     6.2499999999901090E-01     0.0000000000000000E+00 
    1.0000000000000000E+00     6.8749999999917577E-01     0.0000000000000000E+00 
    1.0000000000000000E+00     7.4999999999934064E-01     0.0000000000000000E+00 
    1.0000000000000000E+00     8.1249999999950551E-01     0.0000000000000000E+00 
    1.0000000000000000E+00     8.7499999999967026E-01     0.0000000000000000E+00 
    1.0000000000000000E+00     9.3749999999983513E-01     0.0000000000000000E+00 
    9.3749999999973976E-01     1.0000000000000000E+00     0.0000000000000000E+00 
    8.7499999999950118E-01     1.0000000000000000E+00     0.0000000000000000E+00 
    8.1249999999991318E-01     1.0000000000000000E+00     0.0000000000000000E+00 
    7.5000000000034706E-01     1.0000000000000000E+00     0.0000000000000000E+00 
    6.8750000000078049E-01     1.0000000000000000E+00     0.0000000000000000E+00 
    6.2500000000121403E-01     1.0000000000000000E+00     0.0000000000000000E+00 
    5.6250000000164757E-01     1.0000000000000000E+00     0.0000000000000000E+00 
    5.0000000000205946E-01     1.0000000000000000E+00     0.0000000000000000E+00 
    4.3750000000182099E-01     1.0000000000000000E+00     0.0000000000000000E+00 
    3.7500000000156092E-01     1.0000000000000000E+00     0.0000000000000000E+00 
    3.1250000000130068E-01     1.0000000000000000E+00     0.0000000000000000E+00 
    2.5000000000104050E-01     1.0000000000000000E+00     0.0000000000000000E+00 
    1.8750000000078040E-01     1.0000000000000000E+00     0.0000000000000000E+00 
    1.2500000000052031E-01     1.0000000000000000E+00     0.0000000000000000E+00 
    6.2500000000260125E-02     1.0000000000000000E+00     0.0000000000000000E+00 
    0.0000000000000000E+00     9.3749999999973976E-01     0.0000000000000000E+00 
    0.0000000000000000E+00     8.7499999999950118E-01     0.0000000000000000E+00 
    0.0000000000000000E+00     8.1249999999991318E-01     0.0000000000000000E+00 
    0.0000000000000000E+00     7.5000000000034706E-01     0.0000000000000000E+00 
    0.0000000000000000E+00     6.8750000000078049E-01     0.0000000000000000E+00 
    0.0000000000000000E+00     6.2500000000121403E-01     0.0000000000000000E+00 
    0.0000000000000000E+00     5.6250000000164757E-01     0.0000000000000000E+00 
    0.0000000000000000E+00     5.0000000000205946E-01     0.0000000000000000E+00 
    0.0000000000000000E+00     4.3750000000182099E-01     0.0000000000000000E+00 
    0.0000000000000000E+00     3.7500000000156092E-01     0.0000000000000000E+00 
    0.0000000000000000E+00     3.1250000000130068E-01     0.0000000000000000E+00 
    0.0000000000000000E+00     2.5000000000104050E-01     0.0000000000000000E+00 
    0.0000000000000000E+00     1.8750000000078040E-01     0.0000000000000000E+00 
    0.0000000000000000E+00     1.2500000000052031E-01     0.0000000000000000E+00 
    0.0000000000000000E+00     6.2500000000260125E-02     0.0000000000000000E+00 
    6.2499999999897131E-02     6.2500000000235922E-02     0.0000000000000000E+00 
    6.2499999999921327E-02     1.2500000000047351E-01     0.0000000000000000E+00 
    6.2499999999945530E-02     1.8750000000070621E-01     0.0000000000000000E+00 
    6.2499999999969733E-02     2.5000000000093858E-01     0.0000000000000000E+00 
    6.2499999999993928E-02     3.1250000000117117E-01     0.0000000000000000E+00 
    6.2500000000018124E-02     3.7500000000140382E-01     0.0000000000000000E+00 
    6.2500000000042327E-02     4.3750000000163619E-01     0.0000000000000000E+00 
    6.2500000000066530E-02     5.0000000000184897E-01     0.0000000000000000E+00 
    6.2500000000090733E-02     5.6250000000147260E-01     0.0000000000000000E+00 
    6.2500000000114922E-02     6.2500000000107636E-01     0.0000000000000000E+00 
    6.2500000000139125E-02     6.8750000000068034E-01     0.0000000000000000E+00 
    6.2500000000163328E-02     7.5000000000028411E-01     0.0000000000000000E+00 
    6.2500000000187531E-02     8.1249999999988787E-01     0.0000000000000000E+00 
    6.2500000000211720E-02     8.7499999999951172E-01     0.0000000000000000E+00 
    6.2500000000235922E-02     9.3749999999974565E-01     0.0000000000000000E+00 
    1.2499999999981980E-01     6.2500000000211733E-02     0.0000000000000000E+00 
    1.2499999999986650E-01     1.2500000000042691E-01     0.0000000000000000E+00 
    1.2499999999991319E-01     1.8750000000063199E-01     0.0000000000000000E+00 
    1.2499999999995989E-01     2.5000000000083678E-01     0.0000000000000000E+00 
    1.2500000000000661E-01     3.1250000000104172E-01     0.0000000000000000E+00 
    1.2500000000005329E-01     3.7500000000124661E-01     0.0000000000000000E+00 
    1.2500000000010000E-01     4.3750000000145117E-01     0.0000000000000000E+00 
    1.2500000000014669E-01     5.0000000000163858E-01     0.0000000000000000E+00 
    1.2500000000019340E-01     5.6250000000129741E-01     0.0000000000000000E+00 
    1.2500000000024011E-01     6.2500000000093847E-01     0.0000000000000000E+00 
    1.2500000000028680E-01     6.8750000000057998E-01     0.0000000000000000E+00 
    1.2500000000033351E-01     7.5000000000022127E-01     0.0000000000000000E+00 
    1.2500000000038020E-01     8.1249999999986211E-01     0.0000000000000000E+00 
    1.2500000000042691E-01     8.7499999999952238E-01     0.0000000000000000E+00 
    1.2500000000047359E-01     9.3749999999975164E-01     0.0000000000000000E+00 
    1.8749999999966760E-01     6.2500000000187531E-02     0.0000000000000000E+00 
    1.8749999999974179E-01     1.2500000000038020E-01     0.0000000000000000E+00 
    1.8749999999981601E-01     1.8750000000055780E-01     0.0000000000000000E+00 
    1.8749999999989009E-01     2.5000000000073502E-01     0.0000000000000000E+00 
    1.8749999999996431E-01     3.1250000000091221E-01     0.0000000000000000E+00 
    1.8750000000003850E-01     3.7500000000108941E-01     0.0000000000000000E+00 
    1.8750000000011269E-01     4.3750000000126649E-01     0.0000000000000000E+00 
    1.8750000000018691E-01     5.0000000000142808E-01     0.0000000000000000E+00 
    1.8750000000026110E-01     5.6250000000112244E-01     0.0000000000000000E+00 
    1.8750000000033529E-01     6.2500000000080080E-01     0.0000000000000000E+00 
    1.8750000000040951E-01     6.8750000000047962E-01     0.0000000000000000E+00 
    1.8750000000048361E-01     7.5000000000015843E-01     0.0000000000000000E+00 
    1.8750000000055780E-01     8.1249999999983680E-01     0.0000000000000000E+00 
    1.8750000000063199E-01     8.7499999999953304E-01     0.0000000000000000E+00 
    1.8750000000070621E-01     9.3749999999975764E-01     0.0000000000000000E+00 
    2.4999999999951281E-01     6.2500000000163314E-02     0.0000000000000000E+00 
    2.4999999999961461E-01     1.2500000000033351E-01     0.0000000000000000E+00 
    2.4999999999971650E-01     1.8750000000048361E-01     0.0000000000000000E+00 
    2.4999999999981831E-01     2.5000000000063310E-01     0.0000000000000000E+00 
    2.4999999999992020E-01     3.1250000000078260E-01     0.0000000000000000E+00 
    2.5000000000002198E-01     3.7500000000093209E-01     0.0000000000000000E+00 
    2.5000000000012390E-01     4.3750000000108180E-01     0.0000000000000000E+00 
    2.5000000000022571E-01     5.0000000000121769E-01     0.0000000000000000E+00 
    2.5000000000032763E-01     5.6250000000094724E-01     0.0000000000000000E+00 
    2.5000000000042938E-01     6.2500000000066314E-01     0.0000000000000000E+00 
    2.5000000000053119E-01     6.8750000000037925E-01     0.0000000000000000E+00 
[...]
CELL_DATA 256 
SCALARS Pressure double 1 
LOOKUP_TABLE default 

    1.1569534909669921E+00 
    1.0950761320368445E+00 
    1.0462760518880398E+00 
    9.9528725649642014E-01 
    9.3584715188735257E-01 
    8.5924026355615657E-01 
    7.7600330179037880E-01 
    7.0404523185194090E-01 
    6.3488727112665011E-01 
    5.6852826201280171E-01 
    5.0551495357718412E-01 
    4.4722704932086282E-01 
    3.9627924320583652E-01 
    3.5632610629138073E-01 
    3.3080493133092548E-01 
    3.2046805228338393E-01 
    1.1429026115657956E+00 
    1.0972598608412261E+00 
    1.0499674666307446E+00 
    9.9977720905364287E-01 
    9.4136212781273998E-01 
    8.6599339581432877E-01 
    7.8328479366420067E-01 
    7.1091366320709293E-01 
    6.4147404601776248E-01 
    5.7474210190253727E-01 
    5.1117813975627735E-01 
    4.5204954825609472E-01 
    3.9987929307251435E-01 
    3.5837385277524586E-01 
    3.3130134770480374E-01 
    3.2003717627810602E-01 
    1.1312350904984947E+00 
    1.0965365237050948E+00 
    1.0521816138884905E+00 
    1.0031535765191397E+00 
    9.4562194660836052E-01 
    8.7145335087517151E-01 
    7.9009713933592751E-01 
    7.1759621899104520E-01 
    6.4791266066570119E-01 
    5.8076463553302493E-01 
    5.1652770716393692E-01 
    4.5635014975973809E-01 
    4.0266779851096657E-01 
    3.5929707207835154E-01 
    3.3049353764692846E-01 
    3.1844928893534064E-01 
    1.1206225953999258E+00 
    1.0937527494371950E+00 
    1.0529223962239702E+00 
    1.0054636666483583E+00 
    9.4869292804588268E-01 
    8.7574855225145987E-01 
    7.9644963580645078E-01 
    7.2406763596140422E-01 
    6.5421390928739709E-01 
    5.8663534182672339E-01 
    5.2163401675846355E-01 
    4.6022584807275252E-01 
    4.0474311597273588E-01 
    3.5913893968763172E-01 
    3.2830216700636011E-01 
    3.1548306975938911E-01 
    1.1106810714252777E+00 
    1.0895327797760426E+00 
    1.0523996966364495E+00 
    1.0068238245662946E+00 
    9.5067659896940049E-01 
    8.7905046366983919E-01 
    8.0235721118205783E-01 
    7.3031965321711556E-01 
    6.6039108351074560E-01 
    5.9239474996348895E-01 
    5.2657006022325270E-01 
    4.6378157048879992E-01 
    4.0621764245796971E-01 
    3.5795511121885060E-01 
    3.2464410643463298E-01 
    3.1090891646882268E-01 
    1.1015972118984501E+00 
    1.0845993115258978E+00 
    1.0509721886175687E+00 
    1.0072715358883497E+00 
    9.5162504196116449E-01 
    8.8161448493623595E-01 
    8.0781995294148323E-01 
    7.3635614779343517E-01 
    6.6646042211787526E-01 
    5.9808400124268346E-01 
    5.3141066670831749E-01 
    4.6713100534675811E-01 
    4.0722319382671374E-01 
    3.5582378154402083E-01 
    3.1943663072372208E-01 
    3.0446900386185138E-01 
    1.0935148500579948E+00 
    1.0794821763753175E+00 
    1.0489247650066946E+00 
    1.0067148501573830E+00 
    9.5155474912007909E-01 
    8.8381819691223951E-01 
    8.1285185419001493E-01 
    7.4219205364774576E-01 
    6.7244387933992733E-01 
    6.0374438188852420E-01 
    5.3623266503975620E-01 
    4.7039637695999437E-01 
    4.0791633497988228E-01 
    3.5285907153892709E-01 
    3.1260703264604245E-01 
    2.9586629314205709E-01 
    1.0864420768622540E+00 
    1.0744825646439964E+00 
    1.0462843876664429E+00 
    1.0050859589550070E+00 
    9.5084082399555780E-01 
    8.8608737150537520E-01 
    8.1754147223603146E-01 
    7.4785737943623931E-01 
    6.7836628752972650E-01 
    6.0941635848422693E-01 
    5.4111086240199935E-01 
    4.7370707039084387E-01 
    4.0848171090641100E-01 
    3.4922468539143742E-01 
    3.0410344488063934E-01 
    2.8473865286286704E-01 
    1.0798715972368227E+00 
    1.0692277720042482E+00 
    1.0426101111088004E+00 
    1.0024871314360533E+00 
    9.5019399749476607E-01 
    8.8856967779087281E-01 
    8.2203027599171596E-01 
    7.5339745948940073E-01 
    6.8425676488694465E-01 
    6.1513855036939580E-01 
    5.4611655141812243E-01 
    4.7719591604513079E-01 
    4.0913437640517059E-01 
    3.4515385988974301E-01 
    2.9391969580149913E-01 
    2.7063219804878852E-01 
    1.0727698326106323E+00 
    1.0631606350554781E+00 
    1.0381727540952035E+00 
    9.9994356792702677E-01 
    9.5016093979940286E-01 
    8.9116800080394887E-01 
    8.2643801648083459E-01 
    7.5886658681260832E-01 
    6.9014656199507907E-01 
    6.2094633157561807E-01 
    5.5131358063932123E-01 
    4.8099359063820235E-01 
    4.1011797326054883E-01 
    3.4097104317008908E-01 
    2.8213446247020896E-01 
    2.5295730976421282E-01 
    1.0665371533347734E+00 
    1.0575969217894583E+00 
    1.0344577793994971E+00 
    9.9836398615507338E-01 
    9.5077965182272861E-01 
    8.9391816124379164E-01 
    8.3085554015822827E-01 
    7.6432089277020510E-01 
    6.9606864883646447E-01 
    6.2687047651426198E-01 
    5.5675585920342174E-01 
    4.8522066011293974E-01 
    4.1169751280801820E-01 
    3.3711626988352061E-01 
    2.6898196436429195E-01 
    2.3093513434769544E-01 
    1.0621485542498144E+00 
    1.0536692467852358E+00 
    1.0319458208185353E+00 
    9.9759429294750002E-01 
    9.5191106243022727E-01 
    8.9692014771749373E-01 
    8.3536416963162208E-01 
    7.6981481730118251E-01 
    7.0205470384096436E-01 
    6.3293598271541218E-01 
    5.6248295215585620E-01 
    4.8997724961567485E-01 
    4.1414146677114810E-01 
    3.3416152164898111E-01 
    2.5496659264216032E-01 
    2.0351138083383338E-01 
    1.0590096666535984E+00 
    1.0508945947329418E+00 
    1.0303985697350777E+00 
    9.9760768009139777E-01 
    9.5360873555441761E-01 
    9.0025312323191764E-01 
    8.4003780579724996E-01 
    7.7540029030022828E-01 
    7.0813492185853943E-01 
    6.3916135214735159E-01 
    5.6851803730386719E-01 
    4.9533162515020251E-01 
    4.1769263968940440E-01 
    3.3281056058531022E-01 
    2.4106017029051144E-01 
    1.6923252686496995E-01 
    1.0569639572498357E+00 
    1.0492070150746131E+00 
    1.0298151541464351E+00 
    9.9842981619416860E-01 
    9.5592167769918179E-01 
    9.0398723271346160E-01 
    8.4494392230333470E-01 
    7.8112618578662474E-01 
    7.1433697341084235E-01 
    6.4555853627581228E-01 
    5.7486659051325073E-01 
    5.0131025270000062E-01 
    4.2252484628131443E-01 
    3.3384976999070404E-01 
    2.2903063700243090E-01 
    1.2605665183734485E-01 
    1.0558627954201061E+00 
    1.0485375727559045E+00 
    1.0301886356311496E+00 
    1.0000847806466868E+00 
    9.5889617330904919E-01 
    9.0818598577186649E-01 
    8.5014449923300461E-01 
    7.8703834239051018E-01 
    7.2068600686758277E-01 
    6.5213358775727415E-01 
    5.8151761286527359E-01 
    5.0789291084271238E-01 
    4.2869139539667855E-01 
    3.3799462862801988E-01 
    2.2199528281880443E-01 
    7.1065402537017736E-02 
    1.0555571891221120E+00 
    1.0488168922360823E+00 
    1.0315090164459855E+00 
    1.0025957576736026E+00 
    9.6257670094414116E-01 
    9.1290840507548421E-01 
    8.5569713457008978E-01 
    7.9317972093511036E-01 
    7.2720471362639716E-01 
    6.5888773959205282E-01 
    5.8844686044187999E-01 
    5.1501692528251375E-01 
    4.3608730314733102E-01 
    3.4552037540460756E-01 
    2.2534868223488597E-01 
    0.0000000000000000E+00 

SCALARS Saturarion double 1 
LOOKUP_TABLE default 

    9.9999999612282930E-01 
    9.0625230334732110E-01 
    7.8857894430076236E-01 
    6.4958413396324266E-01 
    5.3233568368920492E-01 
    2.2037193034586422E-01 
    1.6742752079540346E-04 
    1.0000000012231704E-06 
    1.0000000000000004E-06 
    9.9999999999999995E-07 
    9.9999999999999995E-07 
    9.9999999999999995E-07 
    9.9999999999999995E-07 
    9.9999999999999995E-07 
    9.9999999999999995E-07 
    9.9999999999999995E-07 
    9.4980587526353988E-01 
    8.6773593507720748E-01 
    7.5932195747790598E-01 
    6.3556118278540408E-01 
    5.2020529129208892E-01 
    2.0439115527766735E-01 
    8.3433574413104266E-05 
    1.0000191166898355E-06 
    1.0000000000094509E-06 
    9.9999999999999995E-07 
    9.9999999999999995E-07 
    9.9999999999999995E-07 
    9.9999999999999995E-07 
    9.9999999999999995E-07 
    9.9999999999999995E-07 
    9.9999999999999995E-07 
    8.6398754212201789E-01 
    8.0480410092013133E-01 
    7.1204852693638532E-01 
    6.1404300980083348E-01 
    5.0199003232295847E-01 
    1.7488539462222344E-01 
    3.2315343316759419E-05 
    1.0001074303895196E-06 
    1.0000000001073597E-06 
    9.9999999999999974E-07 
    9.9999999999999995E-07 
    9.9999999999999995E-07 
    9.9999999999999995E-07 
    9.9999999999999995E-07 
    9.9999999999999995E-07 
    9.9999999999999995E-07 
    7.6177651123785184E-01 
    7.2220879367259572E-01 
    6.5682679964485924E-01 
    5.9006026364864717E-01 
    4.8114250704379646E-01 
    1.3861255570372932E-01 
    3.6587788749557876E-05 
    1.0002958504275271E-06 
    1.0000000001704708E-06 
    9.9999999999999974E-07 
    9.9999999999999995E-07 
    9.9999999999999995E-07 
    9.9999999999999995E-07 
    9.9999999999999995E-07 
    9.9999999999999995E-07 
    9.9999999999999995E-07 
    6.8312203850887998E-01 
    6.5747422195568894E-01 
    6.1206455247348335E-01 
    5.6159427673940909E-01 
    4.4749009249367899E-01 
    8.7359695165749637E-02 
    6.1547701145831890E-05 
    1.0004727692843316E-06 
    1.0000000000490715E-06 
    9.9999999999999995E-07 
    9.9999999999999995E-07 
    9.9999999999999995E-07 
    9.9999999999999995E-07 
    9.9999999999999995E-07 
    9.9999999999999995E-07 
    9.9999999999999995E-07 
    6.2054502138053425E-01 
    6.0588559835262035E-01 
    5.7210429651947436E-01 
    5.2615006728966485E-01 
    3.7861538412575207E-01 
    2.9220378684556750E-02 
    2.6862902409328891E-05 
    1.0000753710216426E-06 
    1.0000000000000008E-06 
    9.9999999999999995E-07 
    9.9999999999999995E-07 
    9.9999999999999995E-07 
    9.9999999999999995E-07 
    9.9999999999999995E-07 
    9.9999999999999995E-07 
    9.9999999999999995E-07 
    5.7246856011165836E-01 
    5.6356086283491114E-01 
    5.3405955381585313E-01 
    4.8223812353244488E-01 
    2.4813132177166436E-01 
    2.5081882574932578E-03 
    1.2363457459123065E-06 
    1.0000000603159792E-06 
    1.0000000000000002E-06 
    9.9999999999999995E-07 
    9.9999999999999995E-07 
    9.9999999999999995E-07 
    9.9999999999999995E-07 
    9.9999999999999995E-07 
    9.9999999999999995E-07 
    9.9999999999999995E-07 
    5.2962545022039687E-01 
    5.2108647111400275E-01 
    4.9134222784603682E-01 
    3.8767531348614265E-01 
    8.1087651743269346E-02 
    1.8708158549332339E-04 
    1.0061502075870640E-06 
    1.0000000000000095E-06 
    9.9999999999999995E-07 
    9.9999999999999995E-07 
    9.9999999999999995E-07 
    9.9999999999999995E-07 
    9.9999999999999995E-07 
    9.9999999999999995E-07 
    9.9999999999999995E-07 
    9.9999999999999995E-07 
    4.5386298271463504E-01 
    4.4371542928876417E-01 
    3.7142528236909650E-01 
    1.4206148811424210E-01 
    1.3791854661547507E-03 
    1.0415932658595842E-06 
    1.0000000110021107E-06 
    1.0000000000000027E-06 
    9.9999999999999995E-07 
    9.9999999999999995E-07 
    9.9999999999999995E-07 
    9.9999999999999995E-07 
    9.9999999999999995E-07 
    9.9999999999999995E-07 
    9.9999999999999995E-07 
    9.9999999999999995E-07 
    1.5950093107365357E-01 
    1.4911655404386515E-01 
    5.3576160825031034E-02 
    8.0767302794546394E-04 
    1.2456673646600083E-06 
    1.0000000544501230E-06 
    1.0000000000000074E-06 
    9.9999999999999995E-07 
    9.9999999999999995E-07 
    9.9999999999999995E-07 
    9.9999999999999995E-07 
    9.9999999999999995E-07 
    9.9999999999999995E-07 
    9.9999999999999995E-07 
    9.9999999999999995E-07 
    9.9999999999999995E-07 
    1.0005535577854693E-06 
    2.2024590153767358E-05 
    1.0114077299535041E-04 
    1.0629487789882013E-06 
    1.0000000498058456E-06 
    1.0000000000000192E-06 
    9.9999999999999995E-07 
    9.9999999999999995E-07 
    9.9999999999999995E-07 
    9.9999999999999995E-07 
    9.9999999999999995E-07 
    9.9999999999999995E-07 
    9.9999999999999995E-07 
    9.9999999999999995E-07 
    9.9999999999999995E-07 
    9.9999999999999995E-07 
    1.0000000004797463E-06 
    1.0000771824596314E-06 
    1.0003486170180429E-06 
    1.0000000056732949E-06 
    1.0000000000000059E-06 
    9.9999999999999995E-07 
    9.9999999999999995E-07 
    9.9999999999999995E-07 
    9.9999999999999995E-07 
    9.9999999999999995E-07 
    9.9999999999999995E-07 
    9.9999999999999995E-07 
    9.9999999999999995E-07 
    9.9999999999999995E-07 
    9.9999999999999995E-07 
    9.9999999999999995E-07 
    9.9999999999999974E-07 
    1.0000000000274049E-06 
    1.0000000000195554E-06 
    1.0000000000000008E-06 
    9.9999999999999995E-07 
    9.9999999999999995E-07 
    9.9999999999999995E-07 
    9.9999999999999995E-07 
    9.9999999999999995E-07 
    9.9999999999999995E-07 
    9.9999999999999995E-07 
    9.9999999999999995E-07 
    9.9999999999999995E-07 
    9.9999999999999995E-07 
    9.9999999999999995E-07 
    9.9999999999999995E-07 
    9.9999999999999995E-07 
    9.9999999999999995E-07 
    9.9999999999999995E-07 
    9.9999999999999995E-07 
    9.9999999999999995E-07 
    9.9999999999999995E-07 
    9.9999999999999995E-07 
    9.9999999999999995E-07 
    9.9999999999999995E-07 
    9.9999999999999995E-07 
    9.9999999999999995E-07 
    9.9999999999999995E-07 
    9.9999999999999995E-07 
    9.9999999999999995E-07 
    9.9999999999999995E-07 
    9.9999999999999995E-07 
    9.9999999999999995E-07 
    9.9999999999999995E-07 
    9.9999999999999995E-07 
    9.9999999999999995E-07 
    9.9999999999999995E-07 
    9.9999999999999995E-07 
    9.9999999999999995E-07 
    9.9999999999999995E-07 
    9.9999999999999995E-07 
    9.9999999999999995E-07 
    9.9999999999999995E-07 
    9.9999999999999995E-07 
    9.9999999999999995E-07 
    9.9999999999999995E-07 
    9.9999999999999995E-07 
    9.9999999999999995E-07 
    9.9999999999999995E-07 
    9.9999999999999995E-07 
    9.9999999999999995E-07 
    9.9999999999999995E-07 
    9.9999999999999995E-07 
    9.9999999999999995E-07 
    9.9999999999999995E-07 
    9.9999999999999995E-07 
    9.9999999999999995E-07 
    9.9999999999999995E-07 
    9.9999999999999995E-07 
    9.9999999999999995E-07 
    9.9999999999999995E-07 
    9.9999999999999995E-07 
    9.9999999999999995E-07 
    1.0000001277608004E-06 
