# vtk DataFile Version 2.0
Pressure Field Data 
ASCII 
DATASET UNSTRUCTURED_GRID 

POINTS 289 double 

    0.0000000000000000E+00     0.0000000000000000E+00     0.0000000000000000E+00 
    1.0000000000000000E+00     0.0000000000000000E+00     0.0000000000000000E+00 
    1.0000000000000000E+00     1.0000000000000000E+00     0.0000000000000000E+00 
    0.0000000000000000E+00     1.0000000000000000E+00     0.0000000000000000E+00 
    6.2499999999872928E-02     0.0000000000000000E+00     0.0000000000000000E+00 
    1.2499999999977310E-01     0.0000000000000000E+00     0.0000000000000000E+00 
    1.8749999999959341E-01     0.0000000000000000E+00     0.0000000000000000E+00 
    2.4999999999941089E-01     0.0000000000000000E+00     0.0000000000000000E+00 
    3.1249999999922851E-01     0.0000000000000000E+00     0.0000000000000000E+00 
    3.7499999999904610E-01     0.0000000000000000E+00     0.0000000000000000E+00 
    4.3749999999886358E-01     0.0000000000000000E+00     0.0000000000000000E+00 
    4.9999999999869210E-01     0.0000000000000000E+00     0.0000000000000000E+00 
    5.6249999999884603E-01     0.0000000000000000E+00     0.0000000000000000E+00 
    6.2499999999901090E-01     0.0000000000000000E+00     0.0000000000000000E+00 
    6.8749999999917577E-01     0.0000000000000000E+00     0.0000000000000000E+00 
    7.4999999999934064E-01     0.0000000000000000E+00     0.0000000000000000E+00 
    8.1249999999950551E-01     0.0000000000000000E+00     0.0000000000000000E+00 
    8.7499999999967026E-01     0.0000000000000000E+00     0.0000000000000000E+00 
    9.3749999999983513E-01     0.0000000000000000E+00     0.0000000000000000E+00 
    1.0000000000000000E+00     6.2499999999872928E-02     0.0000000000000000E+00 
    1.0000000000000000E+00     1.2499999999977310E-01     0.0000000000000000E+00 
    1.0000000000000000E+00     1.8749999999959341E-01     0.0000000000000000E+00 
    1.0000000000000000E+00     2.4999999999941089E-01     0.0000000000000000E+00 
    1.0000000000000000E+00     3.1249999999922851E-01     0.0000000000000000E+00 
    1.0000000000000000E+00     3.7499999999904610E-01     0.0000000000000000E+00 
    1.0000000000000000E+00     4.3749999999886358E-01     0.0000000000000000E+00 
    1.0000000000000000E+00     4.9999999999869210E-01     0.0000000000000000E+00 
    1.0000000000000000E+00     5.6249999999884603E-01     0.0000000000000000E+00 
    1.0000000000000000E+00     6.2499999999901090E-01     0.0000000000000000E+00 
    1.0000000000000000E+00     6.8749999999917577E-01     0.0000000000000000E+00 
    1.0000000000000000E+00     7.4999999999934064E-01     0.0000000000000000E+00 
    1.0000000000000000E+00     8.1249999999950551E-01     0.0000000000000000E+00 
    1.0000000000000000E+00     8.7499999999967026E-01     0.0000000000000000E+00 
    1.0000000000000000E+00     9.3749999999983513E-01     0.0000000000000000E+00 
    9.3749999999973976E-01     1.0000000000000000E+00     0.0000000000000000E+00 
    8.7499999999950118E-01     1.0000000000000000E+00     0.0000000000000000E+00 
    8.1249999999991318E-01     1.0000000000000000E+00     0.0000000000000000E+00 
    7.5000000000034706E-01     1.0000000000000000E+00     0.0000000000000000E+00 
    6.8750000000078049E-01     1.0000000000000000E+00     0.0000000000000000E+00 
    6.2500000000121403E-01     1.0000000000000000E+00     0.0000000000000000E+00 
    5.6250000000164757E-01     1.0000000000000000E+00     0.0000000000000000E+00 
    5.0000000000205946E-01     1.0000000000000000E+00     0.0000000000000000E+00 
    4.3750000000182099E-01     1.0000000000000000E+00     0.0000000000000000E+00 
    3.7500000000156092E-01     1.0000000000000000E+00     0.0000000000000000E+00 
    3.1250000000130068E-01     1.0000000000000000E+00     0.0000000000000000E+00 
    2.5000000000104050E-01     1.0000000000000000E+00     0.0000000000000000E+00 
    1.8750000000078040E-01     1.0000000000000000E+00     0.0000000000000000E+00 
    1.2500000000052031E-01     1.0000000000000000E+00     0.0000000000000000E+00 
    6.2500000000260125E-02     1.0000000000000000E+00     0.0000000000000000E+00 
    0.0000000000000000E+00     9.3749999999973976E-01     0.0000000000000000E+00 
    0.0000000000000000E+00     8.7499999999950118E-01     0.0000000000000000E+00 
    0.0000000000000000E+00     8.1249999999991318E-01     0.0000000000000000E+00 
    0.0000000000000000E+00     7.5000000000034706E-01     0.0000000000000000E+00 
    0.0000000000000000E+00     6.8750000000078049E-01     0.0000000000000000E+00 
    0.0000000000000000E+00     6.2500000000121403E-01     0.0000000000000000E+00 
    0.0000000000000000E+00     5.6250000000164757E-01     0.0000000000000000E+00 
    0.0000000000000000E+00     5.0000000000205946E-01     0.0000000000000000E+00 
    0.0000000000000000E+00     4.3750000000182099E-01     0.0000000000000000E+00 
    0.0000000000000000E+00     3.7500000000156092E-01     0.0000000000000000E+00 
    0.0000000000000000E+00     3.1250000000130068E-01     0.0000000000000000E+00 
    0.0000000000000000E+00     2.5000000000104050E-01     0.0000000000000000E+00 
    0.0000000000000000E+00     1.8750000000078040E-01     0.0000000000000000E+00 
    0.0000000000000000E+00     1.2500000000052031E-01     0.0000000000000000E+00 
    0.0000000000000000E+00     6.2500000000260125E-02     0.0000000000000000E+00 
    6.2499999999897131E-02     6.2500000000235922E-02     0.0000000000000000E+00 
    6.2499999999921327E-02     1.2500000000047351E-01     0.0000000000000000E+00 
    6.2499999999945530E-02     1.8750000000070621E-01     0.0000000000000000E+00 
    6.2499999999969733E-02     2.5000000000093858E-01     0.0000000000000000E+00 
    6.2499999999993928E-02     3.1250000000117117E-01     0.0000000000000000E+00 
    6.2500000000018124E-02     3.7500000000140382E-01     0.0000000000000000E+00 
    6.2500000000042327E-02     4.3750000000163619E-01     0.0000000000000000E+00 
    6.2500000000066530E-02     5.0000000000184897E-01     0.0000000000000000E+00 
    6.2500000000090733E-02     5.6250000000147260E-01     0.0000000000000000E+00 
    6.2500000000114922E-02     6.2500000000107636E-01     0.0000000000000000E+00 
    6.2500000000139125E-02     6.8750000000068034E-01     0.0000000000000000E+00 
    6.2500000000163328E-02     7.5000000000028411E-01     0.0000000000000000E+00 
    6.2500000000187531E-02     8.1249999999988787E-01     0.0000000000000000E+00 
    6.2500000000211720E-02     8.7499999999951172E-01     0.0000000000000000E+00 
    6.2500000000235922E-02     9.3749999999974565E-01     0.0000000000000000E+00 
    1.2499999999981980E-01     6.2500000000211733E-02     0.0000000000000000E+00 
    1.2499999999986650E-01     1.2500000000042691E-01     0.0000000000000000E+00 
    1.2499999999991319E-01     1.8750000000063199E-01     0.0000000000000000E+00 
    1.2499999999995989E-01     2.5000000000083678E-01     0.0000000000000000E+00 
    1.2500000000000661E-01     3.1250000000104172E-01     0.0000000000000000E+00 
    1.2500000000005329E-01     3.7500000000124661E-01     0.0000000000000000E+00 
    1.2500000000010000E-01     4.3750000000145117E-01     0.0000000000000000E+00 
    1.2500000000014669E-01     5.0000000000163858E-01     0.0000000000000000E+00 
    1.2500000000019340E-01     5.6250000000129741E-01     0.0000000000000000E+00 
    1.2500000000024011E-01     6.2500000000093847E-01     0.0000000000000000E+00 
    1.2500000000028680E-01     6.8750000000057998E-01     0.0000000000000000E+00 
    1.2500000000033351E-01     7.5000000000022127E-01     0.0000000000000000E+00 
    1.2500000000038020E-01     8.1249999999986211E-01     0.0000000000000000E+00 
    1.2500000000042691E-01     8.7499999999952238E-01     0.0000000000000000E+00 
    1.2500000000047359E-01     9.3749999999975164E-01     0.0000000000000000E+00 
    1.8749999999966760E-01     6.2500000000187531E-02     0.0000000000000000E+00 
    1.8749999999974179E-01     1.2500000000038020E-01     0.0000000000000000E+00 
    1.8749999999981601E-01     1.8750000000055780E-01     0.0000000000000000E+00 
    1.8749999999989009E-01     2.5000000000073502E-01     0.0000000000000000E+00 
    1.8749999999996431E-01     3.1250000000091221E-01     0.0000000000000000E+00 
    1.8750000000003850E-01     3.7500000000108941E-01     0.0000000000000000E+00 
    1.8750000000011269E-01     4.3750000000126649E-01     0.0000000000000000E+00 
    1.8750000000018691E-01     5.0000000000142808E-01     0.0000000000000000E+00 
    1.8750000000026110E-01     5.6250000000112244E-01     0.0000000000000000E+00 
    1.8750000000033529E-01     6.2500000000080080E-01     0.0000000000000000E+00 
    1.8750000000040951E-01     6.8750000000047962E-01     0.0000000000000000E+00 
    1.8750000000048361E-01     7.5000000000015843E-01     0.0000000000000000E+00 
    1.8750000000055780E-01     8.1249999999983680E-01     0.0000000000000000E+00 
    1.8750000000063199E-01     8.7499999999953304E-01     0.0000000000000000E+00 
    1.8750000000070621E-01     9.3749999999975764E-01     0.0000000000000000E+00 
    2.4999999999951281E-01     6.2500000000163314E-02     0.0000000000000000E+00 
    2.4999999999961461E-01     1.2500000000033351E-01     0.0000000000000000E+00 
    2.4999999999971650E-01     1.8750000000048361E-01     0.0000000000000000E+00 
    2.4999999999981831E-01     2.5000000000063310E-01     0.0000000000000000E+00 
    2.4999999999992020E-01     3.1250000000078260E-01     0.0000000000000000E+00 
    2.5000000000002198E-01     3.7500000000093209E-01     0.0000000000000000E+00 
    2.5000000000012390E-01     4.3750000000108180E-01     0.0000000000000000E+00 
    2.5000000000022571E-01     5.0000000000121769E-01     0.0000000000000000E+00 
    2.5000000000032763E-01     5.6250000000094724E-01     0.0000000000000000E+00 
    2.5000000000042938E-01     6.2500000000066314E-01     0.0000000000000000E+00 
    2.5000000000053119E-01     6.8750000000037925E-01     0.0000000000000000E+00 
[...]
CELL_DATA 256 
SCALARS Pressure double 1 
LOOKUP_TABLE default 

    1.0814553256923376E+00 
    1.0646870445465089E+00 
    1.0506118623824283E+00 
    1.0387452915235911E+00 
    1.0285882223193785E+00 
    1.0197930602388194E+00 
    1.0121209029042397E+00 
    1.0054080921652102E+00 
    9.9954303255355004E-01 
    9.9445021912123854E-01 
    9.9007861269434516E-01 
    9.8639134572280440E-01 
    9.8335153965801914E-01 
    9.8089541850882311E-01 
    9.7895105753204381E-01 
    9.7788705626482841E-01 
    1.0238552656617057E+00 
    1.0210069467348624E+00 
    1.0165898252161529E+00 
    1.0114370930839589E+00 
    1.0060217696761475E+00 
    1.0006295635231841E+00 
    9.9543625877316311E-01 
    9.9055244329304493E-01 
    9.8604980600956760E-01 
    9.8197646008931183E-01 
    9.7836509383751036E-01 
    9.7523481388264111E-01 
    9.7258323129525459E-01 
    9.7036045273912375E-01 
    9.6854031072326541E-01 
    9.6754346350568154E-01 
    9.8331080891517209E-01 
    9.8233743567633580E-01 
    9.8053350943334583E-01 
    9.7810313872733601E-01 
    9.7524307045785585E-01 
    9.7212544836019288E-01 
    9.6889423417224207E-01 
    9.6566714308455726E-01 
    9.6253932858147417E-01 
    9.5958686682633365E-01 
    9.5686857425885685E-01 
    9.5442362659245750E-01 
    9.5225852135613109E-01 
    9.5031336642743813E-01 
    9.4867178272209896E-01 
    9.4780462086679185E-01 
    9.4502909146527903E-01 
    9.4452675382933815E-01 
    9.4355590478362605E-01 
    9.4218190205621333E-01 
    9.4048346220587631E-01 
    9.3854381447803426E-01 
    9.3644486617531664E-01 
    9.3426360666497499E-01 
    9.3206990934868972E-01 
    9.2992473361586503E-01 
    9.2787712471421746E-01 
    9.2595636227473688E-01 
    9.2414982641649890E-01 
    9.2237806186810933E-01 
    9.2089450702371434E-01 
    9.2015959046681062E-01 
    9.0546636993519780E-01 
    9.0514010815473278E-01 
    9.0450250078081373E-01 
    9.0358406799349122E-01 
    9.0242406925203533E-01 
    9.0106733992282673E-01 
    8.9956150107400135E-01 
    8.9795446650443567E-01 
    8.9629198525915843E-01 
    8.9461446763266594E-01 
    8.9295109827899999E-01 
    8.9130562966826288E-01 
    8.8961915641948597E-01 
    8.8788543649289220E-01 
    8.8656686680858143E-01 
    8.8595439701835232E-01 
    8.6345777631516041E-01 
    8.6320668526215816E-01 
    8.6271359560010219E-01 
    8.6199701394321881E-01 
    8.6108092042941742E-01 
    8.5999322317057314E-01 
    8.5876418999104931E-01 
    8.5742460369918250E-01 
    8.5600318855141777E-01 
    8.5452207569870964E-01 
    8.5298678420376961E-01 
    8.5136002944197653E-01 
    8.4954021762627641E-01 
    8.4776402929782435E-01 
    8.4660369155428561E-01 
    8.4608815169991869E-01 
    8.1856736955591314E-01 
    8.1834256505651526E-01 
    8.1789919756318585E-01 
    8.1725015011813706E-01 
    8.1641207798363691E-01 
    8.1540418147119142E-01 
    8.1424677359121278E-01 
    8.1295913409055698E-01 
    8.1155568521965304E-01 
    8.1003786036245851E-01 
    8.0837376749238044E-01 
    8.0645835279790212E-01 
    8.0435214015645984E-01 
    8.0264708843281418E-01 
    8.0163653463799633E-01 
    8.0116745799995059E-01 
    7.7065035520134151E-01 
    7.7041855351607869E-01 
    7.6995911226439151E-01 
    7.6928137326188162E-01 
    7.6839746458051583E-01 
    7.6732078340046284E-01 
    7.6606386647467350E-01 
    7.6463460277395134E-01 
    7.6302835959886117E-01 
    7.6120917257932907E-01 
    7.5907413682138281E-01 
    7.5662584489615570E-01 
    7.5440333380740754E-01 
    7.5290371524688482E-01 
    7.5200537436555615E-01 
    7.5155976551098891E-01 
    7.1968862414469448E-01 
    7.1941626210789622E-01 
    7.1887338845090387E-01 
    7.1806602698646016E-01 
    7.1700208592167558E-01 
    7.1568873065702587E-01 
    7.1412791634186468E-01 
    7.1230736108548820E-01 
    7.1018025736744228E-01 
    7.0764908698432250E-01 
    7.0476539497695867E-01 
    7.0206956160266143E-01 
    7.0009783166956674E-01 
    6.9877913913917833E-01 
    6.9792397948356699E-01 
    6.9749598910203536E-01 
    6.6568079617806686E-01 
    6.6531937544959385E-01 
    6.6459431628232257E-01 
    6.6350598471028832E-01 
    6.6205433407667935E-01 
    6.6023251031341057E-01 
    6.5801344395698635E-01 
    6.5533575168354874E-01 
    6.5218083933807036E-01 
    6.4876984373481350E-01 
    6.4567471176623970E-01 
    6.4332745902907462E-01 
    6.4163758284366934E-01 
    6.4040307411378972E-01 
    6.3957112123397875E-01 
    6.3915230887986396E-01 
    6.0844080303437786E-01 
    6.0789832366156160E-01 
    6.0680197904243405E-01 
    6.0513598163759452E-01 
    6.0287789905140321E-01 
    6.0001524732799560E-01 
    5.9660466121084776E-01 
    5.9283767032747448E-01 
    5.8907714315940296E-01 
    5.8577538495584858E-01 
    5.8314353298908805E-01 
    5.8104969087418012E-01 
    5.7933864735602558E-01 
    5.7800329084895885E-01 
    5.7708685772759949E-01 
    5.7662050511814733E-01 
    5.4721780666377673E-01 
    5.4633753359429005E-01 
    5.4461870393355727E-01 
    5.4214162307119518E-01 
    5.3902405842865520E-01 
    5.3543462733948477E-01 
    5.3161252565438855E-01 
    5.2784435950423148E-01 
    5.2435406343266033E-01 
    5.2119631318606896E-01 
    5.1828928083677328E-01 
    5.1561831789876100E-01 
    5.1328702824893935E-01 
    5.1141427372814074E-01 
    5.1010178910220605E-01 
    5.0942517526323339E-01 
    4.8668002069153143E-01 
    4.8572393738195913E-01 
    4.8387443047681589E-01 
    4.8123849502184352E-01 
    4.7795523529994505E-01 
    4.7417959651007191E-01 
    4.7004984872573685E-01 
    4.6564994914859115E-01 
    4.6101334466187993E-01 
    4.5620743250099460E-01 
    4.5139344817721661E-01 
    4.4679256384910659E-01 
    4.4265005785438466E-01 
    4.3922255765870594E-01 
    4.3675801260727520E-01 
    4.3546370701963993E-01 
    4.3787699681843550E-01 
    4.3676866718249902E-01 
    4.3456306746967477E-01 
    4.3127954707974842E-01 
    4.2694417875994367E-01 
    4.2158762045393594E-01 
    4.1525199960738168E-01 
    4.0800973792495721E-01 
    3.9998204878664728E-01 
    3.9134958901426908E-01 
    3.8236684176242691E-01 
    3.7338302646607741E-01 
    3.6486302946942722E-01 
    3.5740129014683564E-01 
    3.5171184147453344E-01 
    3.4855918290049048E-01 
    4.0323319202129754E-01 
    4.0167589406953613E-01 
    3.9854937234705756E-01 
    3.9382978888135611E-01 
    3.8748315175132342E-01 
    3.7946764572004615E-01 
    3.6973829944284581E-01 
    3.5825550052709915E-01 
    3.4499948680154024E-01 
    3.2999462166104082E-01 
    3.1335091579248719E-01 
    2.9533530608580699E-01 
    2.7649342434363711E-01 
    2.5785711613179690E-01 
    2.4129776935904373E-01 
    2.3012807304099792E-01 
    3.8423946928106967E-01 
    3.8234009722678053E-01 
    3.7850714573476613E-01 
    3.7266997166863647E-01 
    3.6471681589405180E-01 
    3.5448702653435604E-01 
    3.4175917525612315E-01 
    3.2623341155924729E-01 
    3.0750543896557475E-01 
    2.8502806158826488E-01 
    2.5805402820368267E-01 
    2.2555030606023133E-01 
    1.8606808391423979E-01 
    1.3754332772533434E-01 
    7.6987192695811196E-02 
    0.0000000000000000E+00 

SCALARS Saturarion double 1 
LOOKUP_TABLE default 

    1.0000000000000000E+00 
    9.4181965095258657E-01 
    9.0280155722681410E-01 
    8.6446099005266019E-01 
    8.2606626251873161E-01 
    7.8757827430194483E-01 
    7.4900530904974527E-01 
    7.1024922939295687E-01 
    6.7103737721451673E-01 
    6.3083912841279655E-01 
    5.8867244884008452E-01 
    5.4255099303131749E-01 
    4.8762397897170162E-01 
    4.0934553064535734E-01 
    2.5852675705105460E-01 
    3.7854463480534666E-02 
    8.7965140249499740E-01 
    8.5451378386620835E-01 
    8.2652299046511335E-01 
    7.9704119182851851E-01 
    7.6653036211014758E-01 
    7.3521529294422805E-01 
    7.0315829867333535E-01 
    6.7027138276135712E-01 
    6.3629027192669452E-01 
    6.0069034212765260E-01 
    5.6246269033595275E-01 
    5.1945828578862097E-01 
    4.6616274794479007E-01 
    3.8546878282246561E-01 
    2.1692503267866012E-01 
    1.8654229890298614E-02 
    7.9151298119574554E-01 
    7.7474299638486033E-01 
    7.5430040254495201E-01 
    7.3173437472748859E-01 
    7.0762918653156559E-01 
    6.8225059986925740E-01 
    6.5567618445317755E-01 
    6.2782226281398434E-01 
    5.9841719830062934E-01 
    5.6690105947392389E-01 
    5.3214680577483198E-01 
    4.9161364479243452E-01 
    4.3848727026402956E-01 
    3.5050879382892841E-01 
    1.4974923853117308E-01 
    4.7358419087377788E-03 
    7.2031704643218686E-01 
    7.0796594432085747E-01 
    6.9222641133918572E-01 
    6.7435555524045188E-01 
    6.5482281219762217E-01 
    6.3382781772936814E-01 
    6.1140457589952413E-01 
    5.8743281138418202E-01 
    5.6159316117802105E-01 
    5.3322986825507679E-01 
    5.0096683122776953E-01 
    4.6153594971457473E-01 
    4.0576970805682777E-01 
    2.9985997483116461E-01 
    6.9275831137653981E-02 
    4.3051126003358420E-04 
    6.6198552288493073E-01 
    6.5223203835000720E-01 
    6.3947588990095039E-01 
    6.2474365019888567E-01 
    6.0838744457662219E-01 
    5.9052714652968830E-01 
    5.7113363127711647E-01 
    5.5002325469865498E-01 
    5.2678563884841201E-01 
    5.0058313883263184E-01 
    4.6958937328676309E-01 
    4.2925645655111166E-01 
    3.6578912793383400E-01 
    2.1779351946019654E-01 
    1.5667838862247936E-02 
    7.4005051980284994E-06 
    6.1249395529683248E-01 
    6.0441753975804735E-01 
    5.9366864864652669E-01 
    5.8110642403023516E-01 
    5.6699214824612265E-01 
    5.5137444352310738E-01 
    5.3415424936082179E-01 
    5.1505887820231699E-01 
    4.9352743847156505E-01 
    4.6840208278536294E-01 
    4.3704964141988289E-01 
    3.9243280296455951E-01 
    3.0912308259342136E-01 
    9.5056213097515996E-02 
    8.9834234796931666E-04 
    5.4496709667989118E-09 
    5.6880902934620436E-01 
    5.6187669008030439E-01 
    5.5253520712443627E-01 
    5.4151071630331793E-01 
    5.2898766398617669E-01 
    5.1494360237824399E-01 
    4.9919213082045222E-01 
    4.8132431613866938E-01 
    4.6052026808184693E-01 
    4.3502961720839245E-01 
    4.0058456435716217E-01 
    3.4402142896267174E-01 
    2.0562532575503495E-01 
    1.2876690074074744E-02 
    3.4381122352229426E-06 
    5.8591392950250220E-15 
    5.2852451855590576E-01 
    5.2237776428868254E-01 
    5.1402002807078984E-01 
    5.0405886927044785E-01 
    4.9259895528726599E-01 
    4.7952742574782015E-01 
    4.6452347884342648E-01 
    4.4693558914562243E-01 
    4.2543168488834626E-01 
    3.9694681458331810E-01 
    3.5286104013637754E-01 
    2.5886283102877927E-01 
    5.2167544036104865E-02 
    1.2693927657692205E-04 
    2.0628104699458897E-11 
    2.8686093693436387E-28 
    4.8928858119016133E-01 
    4.8362722537945874E-01 
    4.7587569743663427E-01 
    4.6651853066995108E-01 
    4.5555212218607810E-01 
    4.4271179238099484E-01 
    4.2741338191909345E-01 
    4.0846292554199420E-01 
    3.8319879000958224E-01 
    3.4442595518859687E-01 
    2.6616416963291689E-01 
    8.7156845982670039E-02 
    8.6245226496709123E-04 
    1.6420109150507072E-09 
    3.6328557334481231E-24 
    1.7889475413677373E-61 
    4.4786380921064078E-01 
    4.4232282074011836E-01 
    4.3467861924195039E-01 
    4.2525209948951503E-01 
    4.1383454223671612E-01 
    3.9980736780417941E-01 
    3.8186281636374053E-01 
    3.5702761948474676E-01 
    3.1722368639172399E-01 
    2.3586576580700475E-01 
    7.9735815641968008E-02 
    1.7517161181075530E-03 
    1.4671828963305698E-08 
    4.4953518235388727E-22 
    5.3297278751751665E-57 
   4.8461110065518217E-147 
    3.9758995542726366E-01 
    3.9140620073903948E-01 
    3.8272593890896850E-01 
    3.7151597225189953E-01 
    3.5692634668033907E-01 
    3.3695421995182090E-01 
    3.0687287807359992E-01 
    2.5447522526583533E-01 
    1.5622322050865448E-01 
    4.0832903903006527E-02 
    1.0368477903078498E-03 
    3.1709531175212137E-08 
    4.8882832257380126E-21 
    1.1037770059948413E-54 
   5.2589504743639028E-142 
    0.0000000000000000E+00 
    3.1825945143500511E-01 
    3.0854923824793018E-01 
    2.9408208337793001E-01 
    2.7333811707863520E-01 
    2.4262094042962942E-01 
    1.9558929125736838E-01 
    1.2794556390793396E-01 
    5.4024613817916324E-02 
    8.5982812806153063E-03 
    1.4462149202490820E-04 
    7.2115412649144417E-09 
    1.0583433136687213E-20 
    1.4392793775324948E-53 
   2.1406895153601650E-139 
    0.0000000000000000E+00 
    0.0000000000000000E+00 
    1.5122459408849009E-01 
    1.3350031880565735E-01 
    1.0900405424517345E-01 
    7.9348243540833197E-02 
    4.7821207292791712E-02 
    2.0658161158484845E-02 
    4.8452645257858404E-03 
    3.5091050662505388E-04 
    2.1680185008469876E-06 
    4.2791342246087719E-11 
    2.1749736064404267E-22 
    2.6957053155173998E-53 
   2.5435979701258431E-138 
    0.0000000000000000E+00 
    0.0000000000000000E+00 
    0.0000000000000000E+00 
    9.4681411839274143E-03 
    6.2705308999419802E-03 
    3.2748807016565913E-03 
    1.2334679702129393E-03 
    2.7878126750285935E-04 
    2.6624552079916106E-05 
    5.3823415749357765E-07 
    5.1876450591206763E-10 
    8.1522928909704522E-16 
    3.7582772953292142E-28 
    1.0461184709049788E-57 
   3.1022088299874179E-138 
    0.0000000000000000E+00 
    0.0000000000000000E+00 
    0.0000000000000000E+00 
    0.0000000000000000E+00 
    3.8501187922598394E-06 
    1.3057282994263611E-06 
    2.3904744663060741E-07 
    1.8748712848436589E-08 
    3.9016498318857217E-10 
    8.6014820431097717E-13 
    3.1536844413790859E-17 
    4.0692309573618458E-25 
    2.4501346015029227E-40 
    1.3147854437968830E-72 
   9.8779934289040711E-150 
    0.0000000000000000E+00 
    0.0000000000000000E+00 
    0.0000000000000000E+00 
    0.0000000000000000E+00 
    0.0000000000000000E+00 
    1.0829011266851739E-14 
    6.8395970430570185E-16 
    8.6663990962166968E-18 
    1.1992072047490783E-20 
    5.1604383457304720E-25 
    6.0095929624590455E-32 
    1.5657493503578953E-43 
    3.6110872020708867E-64 
   7.1247571578789522E-104 
   3.9205830804458361E-188 
    0.0000000000000000E+00 
    0.0000000000000000E+00 
    0.0000000000000000E+00 
    0.0000000000000000E+00 
    0.0000000000000000E+00 
    0.0000000000000000E+00 
