# vtk DataFile Version 2.0
Pressure Field Data 
ASCII 
DATASET UNSTRUCTURED_GRID 

POINTS 289 double 

    0.0000000000000000E+00     0.0000000000000000E+00     0.0000000000000000E+00 
    1.0000000000000000E+00     0.0000000000000000E+00     0.0000000000000000E+00 
    1.0000000000000000E+00     1.0000000000000000E+00     0.0000000000000000E+00 
    0.0000000000000000E+00     1.0000000000000000E+00     0.0000000000000000E+00 
    6.2499999999872928E-02     0.0000000000000000E+00     0.0000000000000000E+00 
    1.2499999999977310E-01     0.0000000000000000E+00     0.0000000000000000E+00 
    1.8749999999959341E-01     0.0000000000000000E+00     0.0000000000000000E+00 
    2.4999999999941089E-01     0.0000000000000000E+00     0.0000000000000000E+00 
    3.1249999999922851E-01     0.0000000000000000E+00     0.0000000000000000E+00 
    3.7499999999904610E-01     0.0000000000000000E+00     0.0000000000000000E+00 
    4.3749999999886358E-01     0.0000000000000000E+00     0.0000000000000000E+00 
    4.9999999999869210E-01     0.0000000000000000E+00     0.0000000000000000E+00 
    5.6249999999884603E-01     0.0000000000000000E+00     0.0000000000000000E+00 
    6.2499999999901090E-01     0.0000000000000000E+00     0.0000000000000000E+00 
    6.8749999999917577E-01     0.0000000000000000E+00     0.0000000000000000E+00 
    7.4999999999934064E-01     0.0000000000000000E+00     0.0000000000000000E+00 
    8.1249999999950551E-01     0.0000000000000000E+00     0.0000000000000000E+00 
    8.7499999999967026E-01     0.0000000000000000E+00     0.0000000000000000E+00 
    9.3749999999983513E-01     0.0000000000000000E+00     0.0000000000000000E+00 
    1.0000000000000000E+00     6.2499999999872928E-02     0.0000000000000000E+00 
    1.0000000000000000E+00     1.2499999999977310E-01     0.0000000000000000E+00 
    1.0000000000000000E+00     1.8749999999959341E-01     0.0000000000000000E+00 
    1.0000000000000000E+00     2.4999999999941089E-01     0.0000000000000000E+00 
    1.0000000000000000E+00     3.1249999999922851E-01     0.0000000000000000E+00 
    1.0000000000000000E+00     3.7499999999904610E-01     0.0000000000000000E+00 
    1.0000000000000000E+00     4.3749999999886358E-01     0.0000000000000000E+00 
    1.0000000000000000E+00     4.9999999999869210E-01     0.0000000000000000E+00 
    1.0000000000000000E+00     5.6249999999884603E-01     0.0000000000000000E+00 
    1.0000000000000000E+00     6.2499999999901090E-01     0.0000000000000000E+00 
    1.0000000000000000E+00     6.8749999999917577E-01     0.0000000000000000E+00 
    1.0000000000000000E+00     7.4999999999934064E-01     0.0000000000000000E+00 
    1.0000000000000000E+00     8.1249999999950551E-01     0.0000000000000000E+00 
    1.0000000000000000E+00     8.7499999999967026E-01     0.0000000000000000E+00 
    1.0000000000000000E+00     9.3749999999983513E-01     0.0000000000000000E+00 
    9.3749999999973976E-01     1.0000000000000000E+00     0.0000000000000000E+00 
    8.7499999999950118E-01     1.0000000000000000E+00     0.0000000000000000E+00 
    8.1249999999991318E-01     1.0000000000000000E+00     0.0000000000000000E+00 
    7.5000000000034706E-01     1.0000000000000000E+00     0.0000000000000000E+00 
    6.8750000000078049E-01     1.0000000000000000E+00     0.0000000000000000E+00 
    6.2500000000121403E-01     1.0000000000000000E+00     0.0000000000000000E+00 
    5.6250000000164757E-01     1.0000000000000000E+00     0.0000000000000000E+00 
    5.0000000000205946E-01     1.0000000000000000E+00     0.0000000000000000E+00 
    4.3750000000182099E-01     1.0000000000000000E+00     0.0000000000000000E+00 
    3.7500000000156092E-01     1.0000000000000000E+00     0.0000000000000000E+00 
    3.1250000000130068E-01     1.0000000000000000E+00     0.0000000000000000E+00 
    2.5000000000104050E-01     1.0000000000000000E+00     0.0000000000000000E+00 
    1.8750000000078040E-01     1.0000000000000000E+00     0.0000000000000000E+00 
    1.2500000000052031E-01     1.0000000000000000E+00     0.0000000000000000E+00 
    6.2500000000260125E-02     1.0000000000000000E+00     0.0000000000000000E+00 
    0.0000000000000000E+00     9.3749999999973976E-01     0.0000000000000000E+00 
    0.0000000000000000E+00     8.7499999999950118E-01     0.0000000000000000E+00 
    0.0000000000000000E+00     8.1249999999991318E-01     0.0000000000000000E+00 
    0.0000000000000000E+00     7.5000000000034706E-01     0.0000000000000000E+00 
    0.0000000000000000E+00     6.8750000000078049E-01     0.0000000000000000E+00 
    0.0000000000000000E+00     6.2500000000121403E-01     0.0000000000000000E+00 
    0.0000000000000000E+00     5.6250000000164757E-01     0.0000000000000000E+00 
    0.0000000000000000E+00     5.0000000000205946E-01     0.0000000000000000E+00 
    0.0000000000000000E+00     4.3750000000182099E-01     0.0000000000000000E+00 
    0.0000000000000000E+00     3.7500000000156092E-01     0.0000000000000000E+00 
    0.0000000000000000E+00     3.1250000000130068E-01     0.0000000000000000E+00 
    0.0000000000000000E+00     2.5000000000104050E-01     0.0000000000000000E+00 
    0.0000000000000000E+00     1.8750000000078040E-01     0.0000000000000000E+00 
    0.0000000000000000E+00     1.2500000000052031E-01     0.0000000000000000E+00 
    0.0000000000000000E+00     6.2500000000260125E-02     0.0000000000000000E+00 
    6.2499999999897131E-02     6.2500000000235922E-02     0.0000000000000000E+00 
    6.2499999999921327E-02     1.2500000000047351E-01     0.0000000000000000E+00 
    6.2499999999945530E-02     1.8750000000070621E-01     0.0000000000000000E+00 
    6.2499999999969733E-02     2.5000000000093858E-01     0.0000000000000000E+00 
    6.2499999999993928E-02     3.1250000000117117E-01     0.0000000000000000E+00 
    6.2500000000018124E-02     3.7500000000140382E-01     0.0000000000000000E+00 
    6.2500000000042327E-02     4.3750000000163619E-01     0.0000000000000000E+00 
    6.2500000000066530E-02     5.0000000000184897E-01     0.0000000000000000E+00 
    6.2500000000090733E-02     5.6250000000147260E-01     0.0000000000000000E+00 
    6.2500000000114922E-02     6.2500000000107636E-01     0.0000000000000000E+00 
    6.2500000000139125E-02     6.8750000000068034E-01     0.0000000000000000E+00 
    6.2500000000163328E-02     7.5000000000028411E-01     0.0000000000000000E+00 
    6.2500000000187531E-02     8.1249999999988787E-01     0.0000000000000000E+00 
    6.2500000000211720E-02     8.7499999999951172E-01     0.0000000000000000E+00 
    6.2500000000235922E-02     9.3749999999974565E-01     0.0000000000000000E+00 
    1.2499999999981980E-01     6.2500000000211733E-02     0.0000000000000000E+00 
    1.2499999999986650E-01     1.2500000000042691E-01     0.0000000000000000E+00 
    1.2499999999991319E-01     1.8750000000063199E-01     0.0000000000000000E+00 
    1.2499999999995989E-01     2.5000000000083678E-01     0.0000000000000000E+00 
    1.2500000000000661E-01     3.1250000000104172E-01     0.0000000000000000E+00 
    1.2500000000005329E-01     3.7500000000124661E-01     0.0000000000000000E+00 
    1.2500000000010000E-01     4.3750000000145117E-01     0.0000000000000000E+00 
    1.2500000000014669E-01     5.0000000000163858E-01     0.0000000000000000E+00 
    1.2500000000019340E-01     5.6250000000129741E-01     0.0000000000000000E+00 
    1.2500000000024011E-01     6.2500000000093847E-01     0.0000000000000000E+00 
    1.2500000000028680E-01     6.8750000000057998E-01     0.0000000000000000E+00 
    1.2500000000033351E-01     7.5000000000022127E-01     0.0000000000000000E+00 
    1.2500000000038020E-01     8.1249999999986211E-01     0.0000000000000000E+00 
    1.2500000000042691E-01     8.7499999999952238E-01     0.0000000000000000E+00 
    1.2500000000047359E-01     9.3749999999975164E-01     0.0000000000000000E+00 
    1.8749999999966760E-01     6.2500000000187531E-02     0.0000000000000000E+00 
    1.8749999999974179E-01     1.2500000000038020E-01     0.0000000000000000E+00 
    1.8749999999981601E-01     1.8750000000055780E-01     0.0000000000000000E+00 
    1.8749999999989009E-01     2.5000000000073502E-01     0.0000000000000000E+00 
    1.8749999999996431E-01     3.1250000000091221E-01     0.0000000000000000E+00 
    1.8750000000003850E-01     3.7500000000108941E-01     0.0000000000000000E+00 
    1.8750000000011269E-01     4.3750000000126649E-01     0.0000000000000000E+00 
    1.8750000000018691E-01     5.0000000000142808E-01     0.0000000000000000E+00 
    1.8750000000026110E-01     5.6250000000112244E-01     0.0000000000000000E+00 
    1.8750000000033529E-01     6.2500000000080080E-01     0.0000000000000000E+00 
    1.8750000000040951E-01     6.8750000000047962E-01     0.0000000000000000E+00 
    1.8750000000048361E-01     7.5000000000015843E-01     0.0000000000000000E+00 
    1.8750000000055780E-01     8.1249999999983680E-01     0.0000000000000000E+00 
    1.8750000000063199E-01     8.7499999999953304E-01     0.0000000000000000E+00 
    1.8750000000070621E-01     9.3749999999975764E-01     0.0000000000000000E+00 
    2.4999999999951281E-01     6.2500000000163314E-02     0.0000000000000000E+00 
    2.4999999999961461E-01     1.2500000000033351E-01     0.0000000000000000E+00 
    2.4999999999971650E-01     1.8750000000048361E-01     0.0000000000000000E+00 
    2.4999999999981831E-01     2.5000000000063310E-01     0.0000000000000000E+00 
    2.4999999999992020E-01     3.1250000000078260E-01     0.0000000000000000E+00 
    2.5000000000002198E-01     3.7500000000093209E-01     0.0000000000000000E+00 
    2.5000000000012390E-01     4.3750000000108180E-01     0.0000000000000000E+00 
    2.5000000000022571E-01     5.0000000000121769E-01     0.0000000000000000E+00 
    2.5000000000032763E-01     5.6250000000094724E-01     0.0000000000000000E+00 
    2.5000000000042938E-01     6.2500000000066314E-01     0.0000000000000000E+00 
    2.5000000000053119E-01     6.8750000000037925E-01     0.0000000000000000E+00 
[...]
CELL_DATA 256 
SCALARS Pressure double 1 
LOOKUP_TABLE default 

    1.0695213879344359E+00 
    1.0528072269205913E+00 
    1.0388208760547968E+00 
    1.0270560542732552E+00 
    1.0170077437870391E+00 
    1.0083245618822012E+00 
    1.0007648495174819E+00 
    9.9416282508052345E-01 
    9.8840523190684881E-01 
    9.8341533825589467E-01 
    9.7914147130168439E-01 
    9.7554730167443060E-01 
    9.7259939155132902E-01 
    9.7024405346892517E-01 
    9.6840367664993399E-01 
    9.6737880973309065E-01 
    1.0123339374006586E+00 
    1.0095150675842703E+00 
    1.0051528702464634E+00 
    1.0000719316255837E+00 
    9.9474039107547663E-01 
    9.8943999314009123E-01 
    9.8434326240483061E-01 
    9.7955812993432212E-01 
    9.7515417980702046E-01 
    9.7117800684674549E-01 
    9.6766160082893748E-01 
    9.6462496502019834E-01 
    9.6207050519863602E-01 
    9.5996195888714086E-01 
    9.5824775623597458E-01 
    9.5728364869081961E-01 
    9.7237731135263106E-01 
    9.7142270670420383E-01 
    9.6965536713336919E-01 
    9.6727671590544129E-01 
    9.6448069969878247E-01 
    9.6143676941147638E-01 
    9.5828641012085958E-01 
    9.5514515848014181E-01 
    9.5210638314316165E-01 
    9.4924495365505113E-01 
    9.4661951987011883E-01 
    9.4427141782639057E-01 
    9.4221523988215738E-01 
    9.4041136994349372E-01 
    9.3887777757832214E-01 
    9.3803353814003576E-01 
    9.3480423402510293E-01 
    9.3431686346281129E-01 
    9.3337542920397598E-01 
    9.3204395373261051E-01 
    9.3039957779068039E-01 
    9.2852387579539952E-01 
    9.2649713262961886E-01 
    9.2439485623781725E-01 
    9.2228572815152188E-01 
    9.2023009433341252E-01 
    9.1827767973720464E-01 
    9.1646172031790007E-01 
    9.1478243003394433E-01 
    9.1317146982696540E-01 
    9.1177769071734882E-01 
    9.1105935465436583E-01 
    8.9607066619038123E-01 
    8.9575793456447816E-01 
    8.9514707553890660E-01 
    8.9426783282099964E-01 
    8.9315854259310201E-01 
    8.9186308282175875E-01 
    8.9042819079015045E-01 
    8.8890112371787988E-01 
    8.8732748101636871E-01 
    8.8574863955751881E-01 
    8.8419737610927929E-01 
    8.8268778784477508E-01 
    8.8118841638243794E-01 
    8.7963625161918857E-01 
    8.7835919432943965E-01 
    8.7774543737188171E-01 
    8.5501438601868418E-01 
    8.5477671478292161E-01 
    8.5431034647017123E-01 
    8.5363340237406826E-01 
    8.5276942116630028E-01 
    8.5174592061486998E-01 
    8.5059296193726353E-01 
    8.4934153681374702E-01 
    8.4802147374412706E-01 
    8.4665803302237319E-01 
    8.4526487051968369E-01 
    8.4382636683156387E-01 
    8.4225580578880643E-01 
    8.4063536628331836E-01 
    8.3948953405854121E-01 
    8.3897518093865453E-01 
    8.1120665556338289E-01 
    8.1099627353893389E-01 
    8.1058188902003125E-01 
    8.0997645331345347E-01 
    8.0919678376118598E-01 
    8.0826249882854728E-01 
    8.0719484152100129E-01 
    8.0601502756640120E-01 
    8.0474150187177118E-01 
    8.0338449195324413E-01 
    8.0193309442300043E-01 
    8.0032088331045736E-01 
    7.9848119347543522E-01 
    7.9680494358427389E-01 
    7.9577333448266430E-01 
    7.9531420321298152E-01 
    7.6451984740383361E-01 
    7.6430470203827927E-01 
    7.6387912380893541E-01 
    7.6325322177604915E-01 
    7.6244027711652962E-01 
    7.6145557146995579E-01 
    7.6031488991406360E-01 
    7.5903204150810466E-01 
    7.5761405031547413E-01 
    7.5605021547680873E-01 
    7.5428389746442304E-01 
    7.5220980691646022E-01 
    7.5006074820805912E-01 
    7.4847197135409316E-01 
    7.4753813020121229E-01 
    7.4708849020683610E-01 
    7.1497830288385822E-01 
    7.1472687928602885E-01 
    7.1422719234277277E-01 
    7.1348727136862622E-01 
    7.1251798236821207E-01 
    7.1133126038623917E-01 
    7.0993741368897689E-01 
    7.0833999008768511E-01 
    7.0652441764343776E-01 
    7.0443098323536968E-01 
    7.0196067613133939E-01 
    6.9929519293173503E-01 
    6.9711250663905744E-01 
    6.9568634813874120E-01 
    6.9480683320324810E-01 
    6.9436666675988568E-01 
    6.6268745283578812E-01 
    6.6235695861225363E-01 
    6.6169689657085806E-01 
    6.6071270311712016E-01 
    6.5941200444961123E-01 
    6.5780104819654717E-01 
    6.5587835974056841E-01 
    6.5362061607768762E-01 
    6.5095797496633689E-01 
    6.4785819680853063E-01 
    6.4460130361456425E-01 
    6.4185575204812273E-01 
    6.3992525723320193E-01 
    6.3858687627497035E-01 
    6.3769257705407223E-01 
    6.3724317890428694E-01 
    6.0773233912615343E-01 
    6.0724953254113223E-01 
    6.0628066981481910E-01 
    6.0482564202283839E-01 
    6.0288177988457126E-01 
    6.0043268150906970E-01 
    5.9744306479597253E-01 
    5.9391438160656895E-01 
    5.9001426667740819E-01 
    5.8617215145820867E-01 
    5.8293097747372025E-01 
    5.8046777235124214E-01 
    5.7857531857329281E-01 
    5.7712180918759359E-01 
    5.7612931216493835E-01 
    5.7562570955241610E-01 
    5.4987408257911818E-01 
    5.4908115359676113E-01 
    5.4749309321790063E-01 
    5.4512088816421378E-01 
    5.4200449620615121E-01 
    5.3823877230441308E-01 
    5.3399490711485031E-01 
    5.2955260903165968E-01 
    5.2529864431064155E-01 
    5.2153068111582745E-01 
    5.1829018011611416E-01 
    5.1545562676743950E-01 
    5.1300622136248331E-01 
    5.1104663851656407E-01 
    5.0967710317453951E-01 
    5.0897221407664028E-01 
    4.8983123198937412E-01 
    4.8878126566838009E-01 
    4.8673302721579204E-01 
    4.8377681638345310E-01 
    4.8004110881007966E-01 
    4.7570485184752592E-01 
    4.7098709021304080E-01 
    4.6610016404556537E-01 
    4.6118301607331180E-01 
    4.5626528343820610E-01 
    4.5139032750011765E-01 
    4.4673213461692796E-01 
    4.4253895026070827E-01 
    4.3907099280661460E-01 
    4.3657843174297517E-01 
    4.3526982762291899E-01 
    4.3875355427977497E-01 
    4.3755119594479630E-01 
    4.3518219651238510E-01 
    4.3170326181335150E-01 
    4.2718288276407457E-01 
    4.2169191236190617E-01 
    4.1529231979562853E-01 
    4.0803658327828346E-01 
    4.0000584286708468E-01 
    3.9136221573594887E-01 
    3.8236214220212139E-01 
    3.7335857893549806E-01 
    3.6481941013770314E-01 
    3.5734138319216924E-01 
    3.5164019087572324E-01 
    3.4848139996943511E-01 
    4.0344658714213982E-01 
    4.0187629015607240E-01 
    3.9872705920366930E-01 
    3.9397963635658895E-01 
    3.8760500255666352E-01 
    3.7956456420368712E-01 
    3.6981450767247370E-01 
    3.5831478724347299E-01 
    3.4504413586272425E-01 
    3.3002560684589310E-01 
    3.1336885481239019E-01 
    2.9534107856553737E-01 
    2.7648845149184170E-01 
    2.5784342728657073E-01 
    2.4127793590673924E-01 
    2.3010506325315619E-01 
    3.8439886192569117E-01 
    3.8249412527531818E-01 
    3.7865121410226538E-01 
    3.7280074379965611E-01 
    3.6483239329957362E-01 
    3.5458678350775097E-01 
    3.4184339575251738E-01 
    3.2630289680656305E-01 
    3.0756120881690679E-01 
    2.8507122812262803E-01 
    2.5808580955602795E-01 
    2.2557208646380295E-01 
    1.8608146416142202E-01 
    1.3755014312602487E-01 
    7.6989493674601714E-02 
    0.0000000000000000E+00 

SCALARS Saturarion double 1 
LOOKUP_TABLE default 

    1.0000000000000000E+00 
    9.4422373088878164E-01 
    9.0653845809280376E-01 
    8.6930162172406589E-01 
    8.3183024386981430E-01 
    7.9410849254033833E-01 
    7.5616731811928639E-01 
    7.1793420608882019E-01 
    6.7916689974531341E-01 
    6.3937586433329674E-01 
    5.9764994859479248E-01 
    5.5216739516488555E-01 
    4.9857626782867370E-01 
    4.2408306394329015E-01 
    2.8479195302659260E-01 
    5.3408461601259359E-02 
    8.8356842018253734E-01 
    8.5918534478774122E-01 
    8.3194548838149773E-01 
    8.0314252415172527E-01 
    7.7322904453158026E-01 
    7.4243239309872733E-01 
    7.1082393465027971E-01 
    6.7833006196508783E-01 
    6.4470819327784479E-01 
    6.0947052923080047E-01 
    5.7168461326730979E-01 
    5.2940108435194422E-01 
    4.7774700915832885E-01 
    4.0198025581293395E-01 
    2.4879669855498920E-01 
    3.0112197297744839E-02 
    7.9740543776080108E-01 
    7.8102225364428512E-01 
    7.6101268469217753E-01 
    7.3886453125228913E-01 
    7.1514584199381070E-01 
    6.9011939192639382E-01 
    6.6386693396274399E-01 
    6.3631560409787058E-01 
    6.0721467424142106E-01 
    5.7604672901356968E-01 
    5.4178483976109471E-01 
    5.0217205570917922E-01 
    4.5133443139522456E-01 
    3.7083587137619739E-01 
    1.8957571700937681E-01 
    1.0052744193756444E-02 
    7.2754056385591481E-01 
    7.1541339898576906E-01 
    6.9994198708585220E-01 
    6.8234286150157719E-01 
    6.6307351759100652E-01 
    6.4233178550765835E-01 
    6.2015654027489064E-01 
    5.9644030742276555E-01 
    5.7089082759175913E-01 
    5.4291283594547668E-01 
    5.1128445160325098E-01 
    4.7319215385401381E-01 
    4.2103203470437772E-01 
    3.2875466748411419E-01 
    1.0792149034795462E-01 
    1.4924778964770596E-03 
    6.7026115690860477E-01 
    6.6065226134478938E-01 
    6.4807768730390969E-01 
    6.3353840233274383E-01 
    6.1737979377924379E-01 
    5.9972326362238215E-01 
    5.8054841853807138E-01 
    5.5969135017547833E-01 
    5.3678443610453497E-01 
    5.1109001291797607E-01 
    4.8104542445024479E-01 
    4.4290083703137861E-01 
    3.8591804464207852E-01 
    2.6574482088922791E-01 
    3.5790295722514229E-02 
    6.4384449768419908E-05 
    6.2174413379082449E-01 
    6.1377579426027773E-01 
    6.0316800373396906E-01 
    5.9076470370553180E-01 
    5.7682573805963067E-01 
    5.6140655362959402E-01 
    5.4442497051384342E-01 
    5.2564363637354028E-01 
    5.0457859643055636E-01 
    4.8025595785316022E-01 
    4.5054076107226698E-01 
    4.1002427123012553E-01 
    3.4119140390220398E-01 
    1.6143453347513273E-01 
    4.6961511439687648E-03 
    3.2102211383690226E-07 
    5.7910064480476531E-01 
    5.7226876386230152E-01 
    5.6306335946835362E-01 
    5.5220346141766086E-01 
    5.3987896759869836E-01 
    5.2608377620216940E-01 
    5.1066511624945365E-01 
    4.9328289190556979E-01 
    4.7326825971851311E-01 
    4.4924472596175868E-01 
    4.1803429901213773E-01 
    3.7071732408834113E-01 
    2.7047919678553445E-01 
    4.5042734028097373E-02 
    9.9441836040714847E-05 
    2.4413008261456506E-11 
    5.4009200310626504E-01 
    5.3406726069428601E-01 
    5.2588107001474838E-01 
    5.1614227054571349E-01 
    5.0497297392151097E-01 
    4.9229649364628209E-01 
    4.7786281583996493E-01 
    4.6116742558872842E-01 
    4.4121454184789349E-01 
    4.1584649299148913E-01 
    3.7955225865622072E-01 
    3.1336308457863582E-01 
    1.3587092110665161E-01 
    2.5659310874395717E-03 
    4.8856583123842809E-08 
    1.2469878565096316E-19 
    5.0266484494682562E-01 
    4.9719303900830125E-01 
    4.8971737786522063E-01 
    4.8073739727243880E-01 
    4.7029360080181781E-01 
    4.5820654234893538E-01 
    4.4406174003663518E-01 
    4.2704059781420145E-01 
    4.0544190579252237E-01 
    3.7515073011376188E-01 
    3.2330586958294355E-01 
    1.9543571283225594E-01 
    1.4587160520076891E-02 
    3.2214849711615167E-06 
    1.3494545321856942E-15 
    3.0004884748790208E-39 
    4.6428253640000339E-01 
    4.5910254440614223E-01 
    4.5200051888691556E-01 
    4.4334853876135993E-01 
    4.3305982396489573E-01 
    4.2075999502965050E-01 
    4.0567315219538730E-01 
    3.8618510153169244E-01 
    3.5844549904765927E-01 
    3.1083568202985040E-01 
    1.9996428625542162E-01 
    2.8613781608561147E-02 
    2.7991262774062184E-05 
    1.6889141909802674E-13 
    9.4095150173128610E-35 
    1.6893488133743864E-89 
    4.2037608145194078E-01 
    4.1505617112059262E-01 
    4.0772481952538148E-01 
    3.9855346587810453E-01 
    3.8716745083694376E-01 
    3.7264823244621259E-01 
    3.5299089305844827E-01 
    3.2324366484533329E-01 
    2.6875958274036538E-01 
    1.5266314655159341E-01 
    2.3177970815758005E-02 
    6.1706759497390999E-05 
    1.8046715151587769E-12 
    1.8269472212413421E-32 
    1.4609189054163191E-84 
   8.3882400789505848E-220 
    3.5884176569340226E-01 
    3.5208022733123306E-01 
    3.4252158482732958E-01 
    3.2971361178916159E-01 
    3.1203464115520979E-01 
    2.8579944802337515E-01 
    2.4256519888806508E-01 
    1.6742195408151839E-01 
    6.8455605740554315E-02 
    7.6011675301973546E-03 
    2.7174970346017199E-05 
    3.8559186021732486E-12 
    2.1523516876363342E-31 
    4.4578237775664215E-82 
   2.7654542594539293E-214 
    0.0000000000000000E+00 
    2.3697097281108875E-01 
    2.2340816362309243E-01 
    2.0342854213278638E-01 
    1.7559536633119383E-01 
    1.3809526944424552E-01 
    9.1603991799912035E-02 
    4.3827543707598421E-02 
    1.0687998704926673E-02 
    6.2560273258948111E-04 
    1.3163128004035473E-06 
    4.0932693807609644E-13 
    3.8153387721384270E-31 
    4.6415183822386810E-81 
   8.7706067047509559E-212 
    0.0000000000000000E+00 
    0.0000000000000000E+00 
    4.5181544388617385E-02 
    3.5868599953170197E-02 
    2.5015728058920789E-02 
    1.4549429713250588E-02 
    6.3553997340443681E-03 
    1.7092715143587171E-03 
    1.8964653673727869E-04 
    3.7411034927955550E-06 
    1.8313884113024215E-09 
    1.4887641247636698E-16 
    1.0311825473169635E-33 
    5.3779942623991746E-81 
   4.9309369553037143E-211 
    0.0000000000000000E+00 
    0.0000000000000000E+00 
    0.0000000000000000E+00 
    2.3925268508982991E-04 
    1.2483355454229932E-04 
    4.5894557801832323E-05 
    1.0466769056091912E-05 
    1.1337233942939183E-06 
    3.4426179772419953E-08 
    1.0212107048430279E-10 
    3.1459817366840464E-15 
    5.5937737361699963E-24 
    1.0684109131239833E-42 
    9.0797681136539561E-88 
   2.7390534983440681E-211 
    0.0000000000000000E+00 
    0.0000000000000000E+00 
    0.0000000000000000E+00 
    0.0000000000000000E+00 
    2.9380411809666290E-10 
    5.5461895771567977E-11 
    4.2011132099776289E-12 
    9.0733063846208890E-14 
    2.7102618132123358E-16 
    2.7617041273587869E-20 
    6.0008878952016315E-27 
    7.0816063028869709E-39 
    6.1765628471604274E-62 
   4.1664402133687630E-111 
   3.8915086813170891E-229 
    0.0000000000000000E+00 
    0.0000000000000000E+00 
    0.0000000000000000E+00 
    0.0000000000000000E+00 
    0.0000000000000000E+00 
