# vtk DataFile Version 2.0
Pressure Field Data 
ASCII 
DATASET UNSTRUCTURED_GRID 

POINTS 289 double 

    0.0000000000000000E+00     0.0000000000000000E+00     0.0000000000000000E+00 
    1.0000000000000000E+00     0.0000000000000000E+00     0.0000000000000000E+00 
    1.0000000000000000E+00     1.0000000000000000E+00     0.0000000000000000E+00 
    0.0000000000000000E+00     1.0000000000000000E+00     0.0000000000000000E+00 
    6.2499999999872928E-02     0.0000000000000000E+00     0.0000000000000000E+00 
    1.2499999999977310E-01     0.0000000000000000E+00     0.0000000000000000E+00 
    1.8749999999959341E-01     0.0000000000000000E+00     0.0000000000000000E+00 
    2.4999999999941089E-01     0.0000000000000000E+00     0.0000000000000000E+00 
    3.1249999999922851E-01     0.0000000000000000E+00     0.0000000000000000E+00 
    3.7499999999904610E-01     0.0000000000000000E+00     0.0000000000000000E+00 
    4.3749999999886358E-01     0.0000000000000000E+00     0.0000000000000000E+00 
    4.9999999999869210E-01     0.0000000000000000E+00     0.0000000000000000E+00 
    5.6249999999884603E-01     0.0000000000000000E+00     0.0000000000000000E+00 
    6.2499999999901090E-01     0.0000000000000000E+00     0.0000000000000000E+00 
    6.8749999999917577E-01     0.0000000000000000E+00     0.0000000000000000E+00 
    7.4999999999934064E-01     0.0000000000000000E+00     0.0000000000000000E+00 
    8.1249999999950551E-01     0.0000000000000000E+00     0.0000000000000000E+00 
    8.7499999999967026E-01     0.0000000000000000E+00     0.0000000000000000E+00 
    9.3749999999983513E-01     0.0000000000000000E+00     0.0000000000000000E+00 
    1.0000000000000000E+00     6.2499999999872928E-02     0.0000000000000000E+00 
    1.0000000000000000E+00     1.2499999999977310E-01     0.0000000000000000E+00 
    1.0000000000000000E+00     1.8749999999959341E-01     0.0000000000000000E+00 
    1.0000000000000000E+00     2.4999999999941089E-01     0.0000000000000000E+00 
    1.0000000000000000E+00     3.1249999999922851E-01     0.0000000000000000E+00 
    1.0000000000000000E+00     3.7499999999904610E-01     0.0000000000000000E+00 
    1.0000000000000000E+00     4.3749999999886358E-01     0.0000000000000000E+00 
    1.0000000000000000E+00     4.9999999999869210E-01     0.0000000000000000E+00 
    1.0000000000000000E+00     5.6249999999884603E-01     0.0000000000000000E+00 
    1.0000000000000000E+00     6.2499999999901090E-01     0.0000000000000000E+00 
    1.0000000000000000E+00     6.8749999999917577E-01     0.0000000000000000E+00 
    1.0000000000000000E+00     7.4999999999934064E-01     0.0000000000000000E+00 
    1.0000000000000000E+00     8.1249999999950551E-01     0.0000000000000000E+00 
    1.0000000000000000E+00     8.7499999999967026E-01     0.0000000000000000E+00 
    1.0000000000000000E+00     9.3749999999983513E-01     0.0000000000000000E+00 
    9.3749999999973976E-01     1.0000000000000000E+00     0.0000000000000000E+00 
    8.7499999999950118E-01     1.0000000000000000E+00     0.0000000000000000E+00 
    8.1249999999991318E-01     1.0000000000000000E+00     0.0000000000000000E+00 
    7.5000000000034706E-01     1.0000000000000000E+00     0.0000000000000000E+00 
    6.8750000000078049E-01     1.0000000000000000E+00     0.0000000000000000E+00 
    6.2500000000121403E-01     1.0000000000000000E+00     0.0000000000000000E+00 
    5.6250000000164757E-01     1.0000000000000000E+00     0.0000000000000000E+00 
    5.0000000000205946E-01     1.0000000000000000E+00     0.0000000000000000E+00 
    4.3750000000182099E-01     1.0000000000000000E+00     0.0000000000000000E+00 
    3.7500000000156092E-01     1.0000000000000000E+00     0.0000000000000000E+00 
    3.1250000000130068E-01     1.0000000000000000E+00     0.0000000000000000E+00 
    2.5000000000104050E-01     1.0000000000000000E+00     0.0000000000000000E+00 
    1.8750000000078040E-01     1.0000000000000000E+00     0.0000000000000000E+00 
    1.2500000000052031E-01     1.0000000000000000E+00     0.0000000000000000E+00 
    6.2500000000260125E-02     1.0000000000000000E+00     0.0000000000000000E+00 
    0.0000000000000000E+00     9.3749999999973976E-01     0.0000000000000000E+00 
    0.0000000000000000E+00     8.7499999999950118E-01     0.0000000000000000E+00 
    0.0000000000000000E+00     8.1249999999991318E-01     0.0000000000000000E+00 
    0.0000000000000000E+00     7.5000000000034706E-01     0.0000000000000000E+00 
    0.0000000000000000E+00     6.8750000000078049E-01     0.0000000000000000E+00 
    0.0000000000000000E+00     6.2500000000121403E-01     0.0000000000000000E+00 
    0.0000000000000000E+00     5.6250000000164757E-01     0.0000000000000000E+00 
    0.0000000000000000E+00     5.0000000000205946E-01     0.0000000000000000E+00 
    0.0000000000000000E+00     4.3750000000182099E-01     0.0000000000000000E+00 
    0.0000000000000000E+00     3.7500000000156092E-01     0.0000000000000000E+00 
    0.0000000000000000E+00     3.1250000000130068E-01     0.0000000000000000E+00 
    0.0000000000000000E+00     2.5000000000104050E-01     0.0000000000000000E+00 
    0.0000000000000000E+00     1.8750000000078040E-01     0.0000000000000000E+00 
    0.0000000000000000E+00     1.2500000000052031E-01     0.0000000000000000E+00 
    0.0000000000000000E+00     6.2500000000260125E-02     0.0000000000000000E+00 
    6.2499999999897131E-02     6.2500000000235922E-02     0.0000000000000000E+00 
    6.2499999999921327E-02     1.2500000000047351E-01     0.0000000000000000E+00 
    6.2499999999945530E-02     1.8750000000070621E-01     0.0000000000000000E+00 
    6.2499999999969733E-02     2.5000000000093858E-01     0.0000000000000000E+00 
    6.2499999999993928E-02     3.1250000000117117E-01     0.0000000000000000E+00 
    6.2500000000018124E-02     3.7500000000140382E-01     0.0000000000000000E+00 
    6.2500000000042327E-02     4.3750000000163619E-01     0.0000000000000000E+00 
    6.2500000000066530E-02     5.0000000000184897E-01     0.0000000000000000E+00 
    6.2500000000090733E-02     5.6250000000147260E-01     0.0000000000000000E+00 
    6.2500000000114922E-02     6.2500000000107636E-01     0.0000000000000000E+00 
    6.2500000000139125E-02     6.8750000000068034E-01     0.0000000000000000E+00 
    6.2500000000163328E-02     7.5000000000028411E-01     0.0000000000000000E+00 
    6.2500000000187531E-02     8.1249999999988787E-01     0.0000000000000000E+00 
    6.2500000000211720E-02     8.7499999999951172E-01     0.0000000000000000E+00 
    6.2500000000235922E-02     9.3749999999974565E-01     0.0000000000000000E+00 
    1.2499999999981980E-01     6.2500000000211733E-02     0.0000000000000000E+00 
    1.2499999999986650E-01     1.2500000000042691E-01     0.0000000000000000E+00 
    1.2499999999991319E-01     1.8750000000063199E-01     0.0000000000000000E+00 
    1.2499999999995989E-01     2.5000000000083678E-01     0.0000000000000000E+00 
    1.2500000000000661E-01     3.1250000000104172E-01     0.0000000000000000E+00 
    1.2500000000005329E-01     3.7500000000124661E-01     0.0000000000000000E+00 
    1.2500000000010000E-01     4.3750000000145117E-01     0.0000000000000000E+00 
    1.2500000000014669E-01     5.0000000000163858E-01     0.0000000000000000E+00 
    1.2500000000019340E-01     5.6250000000129741E-01     0.0000000000000000E+00 
    1.2500000000024011E-01     6.2500000000093847E-01     0.0000000000000000E+00 
    1.2500000000028680E-01     6.8750000000057998E-01     0.0000000000000000E+00 
    1.2500000000033351E-01     7.5000000000022127E-01     0.0000000000000000E+00 
    1.2500000000038020E-01     8.1249999999986211E-01     0.0000000000000000E+00 
    1.2500000000042691E-01     8.7499999999952238E-01     0.0000000000000000E+00 
    1.2500000000047359E-01     9.3749999999975164E-01     0.0000000000000000E+00 
    1.8749999999966760E-01     6.2500000000187531E-02     0.0000000000000000E+00 
    1.8749999999974179E-01     1.2500000000038020E-01     0.0000000000000000E+00 
    1.8749999999981601E-01     1.8750000000055780E-01     0.0000000000000000E+00 
    1.8749999999989009E-01     2.5000000000073502E-01     0.0000000000000000E+00 
    1.8749999999996431E-01     3.1250000000091221E-01     0.0000000000000000E+00 
    1.8750000000003850E-01     3.7500000000108941E-01     0.0000000000000000E+00 
    1.8750000000011269E-01     4.3750000000126649E-01     0.0000000000000000E+00 
    1.8750000000018691E-01     5.0000000000142808E-01     0.0000000000000000E+00 
    1.8750000000026110E-01     5.6250000000112244E-01     0.0000000000000000E+00 
    1.8750000000033529E-01     6.2500000000080080E-01     0.0000000000000000E+00 
    1.8750000000040951E-01     6.8750000000047962E-01     0.0000000000000000E+00 
    1.8750000000048361E-01     7.5000000000015843E-01     0.0000000000000000E+00 
    1.8750000000055780E-01     8.1249999999983680E-01     0.0000000000000000E+00 
    1.8750000000063199E-01     8.7499999999953304E-01     0.0000000000000000E+00 
    1.8750000000070621E-01     9.3749999999975764E-01     0.0000000000000000E+00 
    2.4999999999951281E-01     6.2500000000163314E-02     0.0000000000000000E+00 
    2.4999999999961461E-01     1.2500000000033351E-01     0.0000000000000000E+00 
    2.4999999999971650E-01     1.8750000000048361E-01     0.0000000000000000E+00 
    2.4999999999981831E-01     2.5000000000063310E-01     0.0000000000000000E+00 
    2.4999999999992020E-01     3.1250000000078260E-01     0.0000000000000000E+00 
    2.5000000000002198E-01     3.7500000000093209E-01     0.0000000000000000E+00 
    2.5000000000012390E-01     4.3750000000108180E-01     0.0000000000000000E+00 
    2.5000000000022571E-01     5.0000000000121769E-01     0.0000000000000000E+00 
    2.5000000000032763E-01     5.6250000000094724E-01     0.0000000000000000E+00 
    2.5000000000042938E-01     6.2500000000066314E-01     0.0000000000000000E+00 
    2.5000000000053119E-01     6.8750000000037925E-01     0.0000000000000000E+00 
[...]
CELL_DATA 256 
SCALARS Pressure double 1 
LOOKUP_TABLE default 

    1.3241826927299269E+00 
    1.3035657194021522E+00 
    1.2809527348744645E+00 
    1.2584804411954009E+00 
    1.2359672251853946E+00 
    1.2127990298396241E+00 
    1.1888696257011908E+00 
    1.1671606209515157E+00 
    1.1497279364862030E+00 
    1.1354941791155300E+00 
    1.1237184528853377E+00 
    1.1141855983889155E+00 
    1.1067335400704617E+00 
    1.1012420731339110E+00 
    1.0976261761732229E+00 
    1.0958314839017966E+00 
    1.2378938322080644E+00 
    1.2318703287195305E+00 
    1.2207372791850550E+00 
    1.2062630518026600E+00 
    1.1891963746231589E+00 
    1.1703957550170716E+00 
    1.1519255328903173E+00 
    1.1358842646109788E+00 
    1.1223812403316775E+00 
    1.1109307949101304E+00 
    1.1012897355536397E+00 
    1.0933776366088661E+00 
    1.0871276262510592E+00 
    1.0824863733747441E+00 
    1.0794141292804285E+00 
    1.0778845611875494E+00 
    1.1504255500498948E+00 
    1.1466500491955929E+00 
    1.1392522298804779E+00 
    1.1289987473573768E+00 
    1.1171726971951181E+00 
    1.1053332621101550E+00 
    1.0944917043595213E+00 
    1.0847807085887853E+00 
    1.0760355012754899E+00 
    1.0682793993117041E+00 
    1.0615714141068007E+00 
    1.0559487889588857E+00 
    1.0514341376164609E+00 
    1.0480405857951578E+00 
    1.0457753223731283E+00 
    1.0446419575446544E+00 
    1.0577755670458646E+00 
    1.0554993103257155E+00 
    1.0514296923665936E+00 
    1.0463683327257389E+00 
    1.0409813338161042E+00 
    1.0355677415218105E+00 
    1.0301655572481525E+00 
    1.0248538476937594E+00 
    1.0198008022173608E+00 
    1.0151468361250422E+00 
    1.0109994920899676E+00 
    1.0074402032538734E+00 
    1.0045296537704878E+00 
    1.0023119142225692E+00 
    1.0008175295301882E+00 
    1.0000657056174029E+00 
    9.7584441686680246E-01 
    9.7522194528368178E-01 
    9.7406326832213652E-01 
    9.7242082491285131E-01 
    9.7032018862012903E-01 
    9.6784590730579756E-01 
    9.6513883807664491E-01 
    9.6234072061692055E-01 
    9.5957530931871360E-01 
    9.5694805236593306E-01 
    9.5454701808330311E-01 
    9.5244422402172446E-01 
    9.5069707056977160E-01 
    9.4934969409445435E-01 
    9.4843412889124279E-01 
    9.4797121456297939E-01 
    9.0653416297972345E-01 
    9.0627021101098970E-01 
    9.0571808600864667E-01 
    9.0487513896134431E-01 
    9.0377446626513092E-01 
    9.0246934814278601E-01 
    9.0102262306610015E-01 
    8.9950053192505375E-01 
    8.9796827296592407E-01 
    8.9648704190534301E-01 
    8.9511214186613131E-01 
    8.9389183869331013E-01 
    8.9286671760267011E-01 
    8.9206936124520719E-01 
    8.9152421950279404E-01 
    8.9124758022693240E-01 
    8.4095110499660874E-01 
    8.4077597923904590E-01 
    8.4042956069696861E-01 
    8.3992244989266640E-01 
    8.3927350266368694E-01 
    8.3850885866966218E-01 
    8.3766006869919851E-01 
    8.3676202141409695E-01 
    8.3585095762772021E-01 
    8.3496272123108339E-01 
    8.3413129698507038E-01 
    8.3338763254308934E-01 
    8.3275871730378703E-01 
    8.3226688224542755E-01 
    8.3192928544881761E-01 
    8.3175755313360544E-01 
    7.7712155130251725E-01 
    7.7699552773616820E-01 
    7.7674800814775957E-01 
    7.7638812536574475E-01 
    7.7592950671272787E-01 
    7.7538982896094100E-01 
    7.7479008747870004E-01 
    7.7415367591593631E-01 
    7.7350536839215611E-01 
    7.7287027905060546E-01 
    7.7227285406370427E-01 
    7.7173593436608989E-01 
    7.7127991519547845E-01 
    7.7092202062814019E-01 
    7.7067570658086781E-01 
    7.7055020288981668E-01 
    7.1455223327159711E-01 
    7.1443003645438719E-01 
    7.1419008753452162E-01 
    7.1384115954878602E-01 
    7.1339610174944468E-01 
    7.1287143655676943E-01 
    7.1228680706346814E-01 
    7.1166429002802778E-01 
    7.1102759733441334E-01 
    7.1040119332376583E-01 
    7.0980935824963276E-01 
    7.0927523091925060E-01 
    7.0881986705465805E-01 
    7.0846135381043884E-01 
    7.0821402415099100E-01 
    7.0808781573779256E-01 
    6.5320488341071470E-01 
    6.5304206619904159E-01 
    6.5272195757989571E-01 
    6.5225549186782195E-01 
    6.5165877071946698E-01 
    6.5095268715885823E-01 
    6.5016240206965825E-01 
    6.4931666072193006E-01 
    6.4844693944710163E-01 
    6.4758641823190977E-01 
    6.4676878499820756E-01 
    6.4602689281470560E-01 
    6.4539131271033201E-01 
    6.4488885114528072E-01 
    6.4454112925891871E-01 
    6.4436334445607724E-01 
    5.9348570566504766E-01 
    5.9322701001842137E-01 
    5.9271739855454408E-01 
    5.9197237854965423E-01 
    5.9101506381201641E-01 
    5.8987595304684781E-01 
    5.8859255966111146E-01 
    5.8720883068682850E-01 
    5.8577428096341200E-01 
    5.8434276332514412E-01 
    5.8297080124477507E-01 
    5.8171543391887359E-01 
    5.8063157297278511E-01 
    5.7976895169323339E-01 
    5.7916886353167130E-01 
    5.7886102514760573E-01 
    5.3635348438454111E-01 
    5.3592111201030979E-01 
    5.3506692493931873E-01 
    5.3381221255895395E-01 
    5.3218931717985762E-01 
    5.3024204514049034E-01 
    5.2802607313800765E-01 
    5.2560920814303702E-01 
    5.2307130162820903E-01 
    5.2050355283936667E-01 
    5.1800686994664535E-01 
    5.1568891122489746E-01 
    5.1365943656987167E-01 
    5.1202372106128058E-01 
    5.1087410002948896E-01 
    5.1028032199981221E-01 
    4.8354498684564906E-01 
    4.8283336096980733E-01 
    4.8142170441783477E-01 
    4.7933387655556625E-01 
    4.7660733715038878E-01 
    4.7329513686526836E-01 
    4.6946851653975213E-01 
    4.6522000079777953E-01 
    4.6066674503310651E-01 
    4.5595368339235054E-01 
    4.5125569693875667E-01 
    4.4677754786368945E-01 
    4.4274970870261782E-01 
    4.3941754566134478E-01 
    4.3702090650622749E-01 
    4.3576183855629297E-01 
    4.3785274806486568E-01 
    4.3674591669063800E-01 
    4.3453819699933827E-01 
    4.3124265598127726E-01 
    4.2688196592035033E-01 
    4.2149242899399064E-01 
    4.1512991410603911E-01 
    4.0787819367945582E-01 
    3.9986024719875846E-01 
    3.9125306207367994E-01 
    3.8230615014558250E-01 
    3.7336308536252827E-01 
    3.6488321963740245E-01 
    3.5745613139989341E-01 
    3.5179200093127500E-01 
    3.4865267561422170E-01 
    4.0322882302637869E-01 
    4.0166735558223371E-01 
    3.9853290284850090E-01 
    3.9380292583565663E-01 
    3.8744506334461859E-01 
    3.7941950073858738E-01 
    3.6968336705856203E-01 
    3.5819864710205218E-01 
    3.4494613580793121E-01 
    3.2994970878498731E-01 
    3.1331813190175256E-01 
    2.9531663228183558E-01 
    2.7648895569577125E-01 
    2.5786513944926076E-01 
    2.4131504384051353E-01 
    2.3015025950170029E-01 
    3.8421957242949717E-01 
    3.8231864736982624E-01 
    3.7848285148893268E-01 
    3.7264205047210652E-01 
    3.6468516191894856E-01 
    3.5445228322324873E-01 
    3.4172268277604234E-01 
    3.2619701390061323E-01 
    3.0747118170502868E-01 
    2.8499785409911305E-01 
    2.5802934102461517E-01 
    2.2553194886241490E-01 
    1.8605608835829002E-01 
    1.3753694112044279E-01 
    7.6984974049742361E-02 
    0.0000000000000000E+00 

SCALARS Saturarion double 1 
LOOKUP_TABLE default 

    1.0000000000000000E+00 
    7.6532650826249260E-01 
    6.6030366038647359E-01 
    5.7593569510391329E-01 
    4.9845203229295082E-01 
    4.1474314794032391E-01 
    2.9138683998418097E-01 
    8.1944794419612416E-02 
    1.1348043683785394E-03 
    1.1604465523480460E-08 
    1.9971674237029920E-21 
    6.9667051035195224E-54 
   2.3914955050300145E-136 
    0.0000000000000000E+00 
    0.0000000000000000E+00 
    0.0000000000000000E+00 
    6.5025749415531919E-01 
    5.8695762426882203E-01 
    5.2225537280131218E-01 
    4.5631586124474588E-01 
    3.7750911535669779E-01 
    2.4789404055181474E-01 
    5.3932925993791431E-02 
    5.0510797626188608E-04 
    3.7140968920074369E-09 
    5.7569029460011405E-22 
    2.1839552298497906E-54 
   9.1286619104123899E-137 
    0.0000000000000000E+00 
    0.0000000000000000E+00 
    0.0000000000000000E+00 
    0.0000000000000000E+00 
    4.5116880268453252E-01 
    4.0817856854723578E-01 
    3.4686463180465410E-01 
    2.5538968870337536E-01 
    1.1893450433238503E-01 
    1.7455407584705155E-02 
    1.2580769619463539E-04 
    6.2052695402042688E-10 
    6.6563989306988215E-23 
    2.4570429862872109E-55 
   1.2550908807669901E-137 
    0.0000000000000000E+00 
    0.0000000000000000E+00 
    0.0000000000000000E+00 
    0.0000000000000000E+00 
    0.0000000000000000E+00 
    2.3230280815227491E-01 
    1.7421632602063236E-01 
    9.5834138575755151E-02 
    2.8957503485228651E-02 
    2.3236838173430318E-03 
    1.0847676430557740E-05 
    3.2489375973737756E-11 
    1.4830082674840046E-24 
    3.3864987436207011E-57 
   1.9558668936320586E-139 
    0.0000000000000000E+00 
    0.0000000000000000E+00 
    0.0000000000000000E+00 
    0.0000000000000000E+00 
    0.0000000000000000E+00 
    0.0000000000000000E+00 
    3.0762911387381055E-02 
    1.1966709859979406E-02 
    1.9591403444069633E-03 
    7.1599828813110797E-05 
    1.2162755184636506E-07 
    1.7469470168785621E-13 
    2.0961431992953380E-27 
    8.9852115761911225E-61 
   3.2026187520994333E-143 
    0.0000000000000000E+00 
    0.0000000000000000E+00 
    0.0000000000000000E+00 
    0.0000000000000000E+00 
    0.0000000000000000E+00 
    0.0000000000000000E+00 
    0.0000000000000000E+00 
    1.2858313523270848E-04 
    1.1797192572582747E-05 
    1.4281299331702143E-07 
    4.8827972363108934E-11 
    1.0620751545555843E-17 
    2.2865002749410088E-32 
    3.6072128432281898E-67 
   8.0363722777858162E-151 
    0.0000000000000000E+00 
    0.0000000000000000E+00 
    0.0000000000000000E+00 
    0.0000000000000000E+00 
    0.0000000000000000E+00 
    0.0000000000000000E+00 
    0.0000000000000000E+00 
    0.0000000000000000E+00 
    4.2072237696939948E-10 
    1.6229280590772021E-12 
    5.3323216720497422E-17 
    3.1319681346364903E-25 
    2.1893306512731233E-41 
    3.4812316294327195E-78 
   5.4398507491382700E-165 
    0.0000000000000000E+00 
    0.0000000000000000E+00 
    0.0000000000000000E+00 
    0.0000000000000000E+00 
    0.0000000000000000E+00 
    0.0000000000000000E+00 
    0.0000000000000000E+00 
    0.0000000000000000E+00 
    0.0000000000000000E+00 
    2.7413838498358595E-22 
    7.5990414888441681E-28 
    2.4112119742063020E-38 
    6.9619076456889792E-58 
    1.4619829205137848E-97 
   1.2584967456159030E-189 
    0.0000000000000000E+00 
    0.0000000000000000E+00 
    0.0000000000000000E+00 
    0.0000000000000000E+00 
    0.0000000000000000E+00 
    0.0000000000000000E+00 
    0.0000000000000000E+00 
    0.0000000000000000E+00 
    0.0000000000000000E+00 
    0.0000000000000000E+00 
    3.0699812486842472E-49 
    4.6437817936388882E-62 
    1.0457318900358254E-86 
   3.9178992400689806E-133 
   6.6538212935318128E-232 
    0.0000000000000000E+00 
    0.0000000000000000E+00 
    0.0000000000000000E+00 
    0.0000000000000000E+00 
    0.0000000000000000E+00 
    0.0000000000000000E+00 
    0.0000000000000000E+00 
    0.0000000000000000E+00 
    0.0000000000000000E+00 
    0.0000000000000000E+00 
    0.0000000000000000E+00 
   8.7215401545046336E-109 
   2.0842740200901305E-138 
   2.4009109033209619E-196 
   6.7692666790057276E-308 
    0.0000000000000000E+00 
    0.0000000000000000E+00 
    0.0000000000000000E+00 
    0.0000000000000000E+00 
    0.0000000000000000E+00 
    0.0000000000000000E+00 
    0.0000000000000000E+00 
    0.0000000000000000E+00 
    0.0000000000000000E+00 
    0.0000000000000000E+00 
    0.0000000000000000E+00 
    0.0000000000000000E+00 
   3.0304674135814754E-240 
   5.4362596321203731E-309 
    0.0000000000000000E+00 
    0.0000000000000000E+00 
    0.0000000000000000E+00 
    0.0000000000000000E+00 
    0.0000000000000000E+00 
    0.0000000000000000E+00 
    0.0000000000000000E+00 
    0.0000000000000000E+00 
    0.0000000000000000E+00 
    0.0000000000000000E+00 
    0.0000000000000000E+00 
    0.0000000000000000E+00 
    0.0000000000000000E+00 
    0.0000000000000000E+00 
    0.0000000000000000E+00 
    0.0000000000000000E+00 
    0.0000000000000000E+00 
    0.0000000000000000E+00 
    0.0000000000000000E+00 
    0.0000000000000000E+00 
    0.0000000000000000E+00 
    0.0000000000000000E+00 
    0.0000000000000000E+00 
    0.0000000000000000E+00 
    0.0000000000000000E+00 
    0.0000000000000000E+00 
    0.0000000000000000E+00 
    0.0000000000000000E+00 
    0.0000000000000000E+00 
    0.0000000000000000E+00 
    0.0000000000000000E+00 
    0.0000000000000000E+00 
    0.0000000000000000E+00 
    0.0000000000000000E+00 
    0.0000000000000000E+00 
    0.0000000000000000E+00 
    0.0000000000000000E+00 
    0.0000000000000000E+00 
    0.0000000000000000E+00 
    0.0000000000000000E+00 
    0.0000000000000000E+00 
    0.0000000000000000E+00 
    0.0000000000000000E+00 
    0.0000000000000000E+00 
    0.0000000000000000E+00 
    0.0000000000000000E+00 
    0.0000000000000000E+00 
    0.0000000000000000E+00 
    0.0000000000000000E+00 
    0.0000000000000000E+00 
    0.0000000000000000E+00 
    0.0000000000000000E+00 
    0.0000000000000000E+00 
    0.0000000000000000E+00 
    0.0000000000000000E+00 
    0.0000000000000000E+00 
    0.0000000000000000E+00 
    0.0000000000000000E+00 
    0.0000000000000000E+00 
    0.0000000000000000E+00 
    0.0000000000000000E+00 
    0.0000000000000000E+00 
    0.0000000000000000E+00 
    0.0000000000000000E+00 
    0.0000000000000000E+00 
    0.0000000000000000E+00 
    0.0000000000000000E+00 
    0.0000000000000000E+00 
    0.0000000000000000E+00 
    0.0000000000000000E+00 
    0.0000000000000000E+00 
    0.0000000000000000E+00 
    0.0000000000000000E+00 
    0.0000000000000000E+00 
    0.0000000000000000E+00 
    0.0000000000000000E+00 
    0.0000000000000000E+00 
    0.0000000000000000E+00 
    0.0000000000000000E+00 
    0.0000000000000000E+00 
    0.0000000000000000E+00 
    0.0000000000000000E+00 
    0.0000000000000000E+00 
    0.0000000000000000E+00 
    0.0000000000000000E+00 
    0.0000000000000000E+00 
    0.0000000000000000E+00 
    0.0000000000000000E+00 
    0.0000000000000000E+00 
    0.0000000000000000E+00 
    0.0000000000000000E+00 
    0.0000000000000000E+00 
    0.0000000000000000E+00 
    0.0000000000000000E+00 
