# vtk DataFile Version 2.0
Pressure Field Data 
ASCII 
DATASET UNSTRUCTURED_GRID 

POINTS 289 double 

    0.0000000000000000E+00     0.0000000000000000E+00     0.0000000000000000E+00 
    1.0000000000000000E+00     0.0000000000000000E+00     0.0000000000000000E+00 
    1.0000000000000000E+00     1.0000000000000000E+00     0.0000000000000000E+00 
    0.0000000000000000E+00     1.0000000000000000E+00     0.0000000000000000E+00 
    6.2499999999872928E-02     0.0000000000000000E+00     0.0000000000000000E+00 
    1.2499999999977310E-01     0.0000000000000000E+00     0.0000000000000000E+00 
    1.8749999999959341E-01     0.0000000000000000E+00     0.0000000000000000E+00 
    2.4999999999941089E-01     0.0000000000000000E+00     0.0000000000000000E+00 
    3.1249999999922851E-01     0.0000000000000000E+00     0.0000000000000000E+00 
    3.7499999999904610E-01     0.0000000000000000E+00     0.0000000000000000E+00 
    4.3749999999886358E-01     0.0000000000000000E+00     0.0000000000000000E+00 
    4.9999999999869210E-01     0.0000000000000000E+00     0.0000000000000000E+00 
    5.6249999999884603E-01     0.0000000000000000E+00     0.0000000000000000E+00 
    6.2499999999901090E-01     0.0000000000000000E+00     0.0000000000000000E+00 
    6.8749999999917577E-01     0.0000000000000000E+00     0.0000000000000000E+00 
    7.4999999999934064E-01     0.0000000000000000E+00     0.0000000000000000E+00 
    8.1249999999950551E-01     0.0000000000000000E+00     0.0000000000000000E+00 
    8.7499999999967026E-01     0.0000000000000000E+00     0.0000000000000000E+00 
    9.3749999999983513E-01     0.0000000000000000E+00     0.0000000000000000E+00 
    1.0000000000000000E+00     6.2499999999872928E-02     0.0000000000000000E+00 
    1.0000000000000000E+00     1.2499999999977310E-01     0.0000000000000000E+00 
    1.0000000000000000E+00     1.8749999999959341E-01     0.0000000000000000E+00 
    1.0000000000000000E+00     2.4999999999941089E-01     0.0000000000000000E+00 
    1.0000000000000000E+00     3.1249999999922851E-01     0.0000000000000000E+00 
    1.0000000000000000E+00     3.7499999999904610E-01     0.0000000000000000E+00 
    1.0000000000000000E+00     4.3749999999886358E-01     0.0000000000000000E+00 
    1.0000000000000000E+00     4.9999999999869210E-01     0.0000000000000000E+00 
    1.0000000000000000E+00     5.6249999999884603E-01     0.0000000000000000E+00 
    1.0000000000000000E+00     6.2499999999901090E-01     0.0000000000000000E+00 
    1.0000000000000000E+00     6.8749999999917577E-01     0.0000000000000000E+00 
    1.0000000000000000E+00     7.4999999999934064E-01     0.0000000000000000E+00 
    1.0000000000000000E+00     8.1249999999950551E-01     0.0000000000000000E+00 
    1.0000000000000000E+00     8.7499999999967026E-01     0.0000000000000000E+00 
    1.0000000000000000E+00     9.3749999999983513E-01     0.0000000000000000E+00 
    9.3749999999973976E-01     1.0000000000000000E+00     0.0000000000000000E+00 
    8.7499999999950118E-01     1.0000000000000000E+00     0.0000000000000000E+00 
    8.1249999999991318E-01     1.0000000000000000E+00     0.0000000000000000E+00 
    7.5000000000034706E-01     1.0000000000000000E+00     0.0000000000000000E+00 
    6.8750000000078049E-01     1.0000000000000000E+00     0.0000000000000000E+00 
    6.2500000000121403E-01     1.0000000000000000E+00     0.0000000000000000E+00 
    5.6250000000164757E-01     1.0000000000000000E+00     0.0000000000000000E+00 
    5.0000000000205946E-01     1.0000000000000000E+00     0.0000000000000000E+00 
    4.3750000000182099E-01     1.0000000000000000E+00     0.0000000000000000E+00 
    3.7500000000156092E-01     1.0000000000000000E+00     0.0000000000000000E+00 
    3.1250000000130068E-01     1.0000000000000000E+00     0.0000000000000000E+00 
    2.5000000000104050E-01     1.0000000000000000E+00     0.0000000000000000E+00 
    1.8750000000078040E-01     1.0000000000000000E+00     0.0000000000000000E+00 
    1.2500000000052031E-01     1.0000000000000000E+00     0.0000000000000000E+00 
    6.2500000000260125E-02     1.0000000000000000E+00     0.0000000000000000E+00 
    0.0000000000000000E+00     9.3749999999973976E-01     0.0000000000000000E+00 
    0.0000000000000000E+00     8.7499999999950118E-01     0.0000000000000000E+00 
    0.0000000000000000E+00     8.1249999999991318E-01     0.0000000000000000E+00 
    0.0000000000000000E+00     7.5000000000034706E-01     0.0000000000000000E+00 
    0.0000000000000000E+00     6.8750000000078049E-01     0.0000000000000000E+00 
    0.0000000000000000E+00     6.2500000000121403E-01     0.0000000000000000E+00 
    0.0000000000000000E+00     5.6250000000164757E-01     0.0000000000000000E+00 
    0.0000000000000000E+00     5.0000000000205946E-01     0.0000000000000000E+00 
    0.0000000000000000E+00     4.3750000000182099E-01     0.0000000000000000E+00 
    0.0000000000000000E+00     3.7500000000156092E-01     0.0000000000000000E+00 
    0.0000000000000000E+00     3.1250000000130068E-01     0.0000000000000000E+00 
    0.0000000000000000E+00     2.5000000000104050E-01     0.0000000000000000E+00 
    0.0000000000000000E+00     1.8750000000078040E-01     0.0000000000000000E+00 
    0.0000000000000000E+00     1.2500000000052031E-01     0.0000000000000000E+00 
    0.0000000000000000E+00     6.2500000000260125E-02     0.0000000000000000E+00 
    6.2499999999897131E-02     6.2500000000235922E-02     0.0000000000000000E+00 
    6.2499999999921327E-02     1.2500000000047351E-01     0.0000000000000000E+00 
    6.2499999999945530E-02     1.8750000000070621E-01     0.0000000000000000E+00 
    6.2499999999969733E-02     2.5000000000093858E-01     0.0000000000000000E+00 
    6.2499999999993928E-02     3.1250000000117117E-01     0.0000000000000000E+00 
    6.2500000000018124E-02     3.7500000000140382E-01     0.0000000000000000E+00 
    6.2500000000042327E-02     4.3750000000163619E-01     0.0000000000000000E+00 
    6.2500000000066530E-02     5.0000000000184897E-01     0.0000000000000000E+00 
    6.2500000000090733E-02     5.6250000000147260E-01     0.0000000000000000E+00 
    6.2500000000114922E-02     6.2500000000107636E-01     0.0000000000000000E+00 
    6.2500000000139125E-02     6.8750000000068034E-01     0.0000000000000000E+00 
    6.2500000000163328E-02     7.5000000000028411E-01     0.0000000000000000E+00 
    6.2500000000187531E-02     8.1249999999988787E-01     0.0000000000000000E+00 
    6.2500000000211720E-02     8.7499999999951172E-01     0.0000000000000000E+00 
    6.2500000000235922E-02     9.3749999999974565E-01     0.0000000000000000E+00 
    1.2499999999981980E-01     6.2500000000211733E-02     0.0000000000000000E+00 
    1.2499999999986650E-01     1.2500000000042691E-01     0.0000000000000000E+00 
    1.2499999999991319E-01     1.8750000000063199E-01     0.0000000000000000E+00 
    1.2499999999995989E-01     2.5000000000083678E-01     0.0000000000000000E+00 
    1.2500000000000661E-01     3.1250000000104172E-01     0.0000000000000000E+00 
    1.2500000000005329E-01     3.7500000000124661E-01     0.0000000000000000E+00 
    1.2500000000010000E-01     4.3750000000145117E-01     0.0000000000000000E+00 
    1.2500000000014669E-01     5.0000000000163858E-01     0.0000000000000000E+00 
    1.2500000000019340E-01     5.6250000000129741E-01     0.0000000000000000E+00 
    1.2500000000024011E-01     6.2500000000093847E-01     0.0000000000000000E+00 
    1.2500000000028680E-01     6.8750000000057998E-01     0.0000000000000000E+00 
    1.2500000000033351E-01     7.5000000000022127E-01     0.0000000000000000E+00 
    1.2500000000038020E-01     8.1249999999986211E-01     0.0000000000000000E+00 
    1.2500000000042691E-01     8.7499999999952238E-01     0.0000000000000000E+00 
    1.2500000000047359E-01     9.3749999999975164E-01     0.0000000000000000E+00 
    1.8749999999966760E-01     6.2500000000187531E-02     0.0000000000000000E+00 
    1.8749999999974179E-01     1.2500000000038020E-01     0.0000000000000000E+00 
    1.8749999999981601E-01     1.8750000000055780E-01     0.0000000000000000E+00 
    1.8749999999989009E-01     2.5000000000073502E-01     0.0000000000000000E+00 
    1.8749999999996431E-01     3.1250000000091221E-01     0.0000000000000000E+00 
    1.8750000000003850E-01     3.7500000000108941E-01     0.0000000000000000E+00 
    1.8750000000011269E-01     4.3750000000126649E-01     0.0000000000000000E+00 
    1.8750000000018691E-01     5.0000000000142808E-01     0.0000000000000000E+00 
    1.8750000000026110E-01     5.6250000000112244E-01     0.0000000000000000E+00 
    1.8750000000033529E-01     6.2500000000080080E-01     0.0000000000000000E+00 
    1.8750000000040951E-01     6.8750000000047962E-01     0.0000000000000000E+00 
    1.8750000000048361E-01     7.5000000000015843E-01     0.0000000000000000E+00 
    1.8750000000055780E-01     8.1249999999983680E-01     0.0000000000000000E+00 
    1.8750000000063199E-01     8.7499999999953304E-01     0.0000000000000000E+00 
    1.8750000000070621E-01     9.3749999999975764E-01     0.0000000000000000E+00 
    2.4999999999951281E-01     6.2500000000163314E-02     0.0000000000000000E+00 
    2.4999999999961461E-01     1.2500000000033351E-01     0.0000000000000000E+00 
    2.4999999999971650E-01     1.8750000000048361E-01     0.0000000000000000E+00 
    2.4999999999981831E-01     2.5000000000063310E-01     0.0000000000000000E+00 
    2.4999999999992020E-01     3.1250000000078260E-01     0.0000000000000000E+00 
    2.5000000000002198E-01     3.7500000000093209E-01     0.0000000000000000E+00 
    2.5000000000012390E-01     4.3750000000108180E-01     0.0000000000000000E+00 
    2.5000000000022571E-01     5.0000000000121769E-01     0.0000000000000000E+00 
    2.5000000000032763E-01     5.6250000000094724E-01     0.0000000000000000E+00 
    2.5000000000042938E-01     6.2500000000066314E-01     0.0000000000000000E+00 
    2.5000000000053119E-01     6.8750000000037925E-01     0.0000000000000000E+00 
[...]
CELL_DATA 256 
SCALARS Pressure double 1 
LOOKUP_TABLE default 

    1.0001587943527928E+00 
    9.8378917627278262E-01 
    9.7034940121378366E-01 
    9.5920500498848205E-01 
    9.4981607047802363E-01 
    9.4180829941736788E-01 
    9.3492286687294623E-01 
    9.2898032586699342E-01 
    9.2385623391713789E-01 
    9.1946479674723425E-01 
    9.1574776180967066E-01 
    9.1266651853694902E-01 
    9.1019540050878356E-01 
    9.0831293253854295E-01 
    9.0698623016259372E-01 
    9.0621202547516067E-01 
    9.4567370688092911E-01 
    9.4303277968698784E-01 
    9.3899941849900881E-01 
    9.3434699679852973E-01 
    9.2951385759245564E-01 
    9.2475722078101186E-01 
    9.2022904502429359E-01 
    9.1602001617930517E-01 
    9.1218538396396098E-01 
    9.0876020620240372E-01 
    9.0576826897149143E-01 
    9.0322694662251435E-01 
    9.0114860084458026E-01 
    8.9953688364836271E-01 
    8.9837464166060532E-01 
    8.9768349700000227E-01 
    9.0956676147251347E-01 
    9.0872189529233272E-01 
    9.0716791887040182E-01 
    9.0508995062436737E-01 
    9.0266473139272307E-01 
    9.0004484287928799E-01 
    8.9735585726841416E-01 
    8.9469875887568373E-01 
    8.9215406674294118E-01 
    8.8978602654206407E-01 
    8.8764613279170801E-01 
    8.8577547627031050E-01 
    8.8420494362774560E-01 
    8.8295079977025004E-01 
    8.8200210965945081E-01 
    8.8141309110166399E-01 
    8.7665528824551198E-01 
    8.7625288362761666E-01 
    8.7547787220801310E-01 
    8.7438582059004955E-01 
    8.7304379311644209E-01 
    8.7152254507531168E-01 
    8.6989140153300726E-01 
    8.6821529497257011E-01 
    8.6655330472656467E-01 
    8.6495809255882727E-01 
    8.6347567844086770E-01 
    8.6214486628480003E-01 
    8.6099499571303706E-01 
    8.6003906594577095E-01 
    8.5925712813627275E-01 
    8.5873801361429136E-01 
    8.4337861089602006E-01 
    8.4314012681613881E-01 
    8.4267525193137005E-01 
    8.4200820288016154E-01 
    8.4117062577895907E-01 
    8.4019907563132312E-01 
    8.3913275943210552E-01 
    8.3801168372249268E-01 
    8.3687520592828235E-01 
    8.3576087256496578E-01 
    8.3470328427675178E-01 
    8.3373241107357865E-01 
    8.3286996040658090E-01 
    8.3212030277535110E-01 
    8.3144964448125158E-01 
    8.3097994498563699E-01 
    8.0857072365277771E-01 
    8.0840394270303628E-01 
    8.0807767136746844E-01 
    8.0760630934947175E-01 
    8.0700890446267015E-01 
    8.0630816072593359E-01 
    8.0552943600247628E-01 
    8.0469976442971103E-01 
    8.0384691737353253E-01 
    8.0299844233864504E-01 
    8.0218046711578883E-01 
    8.0141568459929113E-01 
    8.0071893948301998E-01 
    8.0008580851946398E-01 
    7.9947913868428810E-01 
    7.9905518958986554E-01 
    7.7181094248408189E-01 
    7.7167342564123020E-01 
    7.7140395424069086E-01 
    7.7101332809276535E-01 
    7.7051582196583912E-01 
    7.6992860693553533E-01 
    7.6927116703395382E-01 
    7.6856466215275610E-01 
    7.6783120680004702E-01 
    7.6709296828666451E-01 
    7.6637080996933604E-01 
    7.6568172293452852E-01 
    7.6503280436501575E-01 
    7.6440403487120667E-01 
    7.6378226307500363E-01 
    7.6338643096956860E-01 
    7.3300186231695885E-01 
    7.3286669181753683E-01 
    7.3260136056523506E-01 
    7.3221567933604892E-01 
    7.3172276967975602E-01 
    7.3113856040379144E-01 
    7.3048129408166929E-01 
    7.2977093446974139E-01 
    7.2902839782721818E-01 
    7.2827444516287676E-01 
    7.2752782013972428E-01 
    7.2680146503453014E-01 
    7.2609294919572032E-01 
    7.2535559427039364E-01 
    7.2463595354049004E-01 
    7.2423917702287377E-01 
    6.9224715459652864E-01 
    6.9208922057981648E-01 
    6.9177858114425161E-01 
    6.9132583983500029E-01 
    6.9074560486003866E-01 
    6.9005595942075060E-01 
    6.8927795159032046E-01 
    6.8843494298804897E-01 
    6.8755169726704846E-01 
    6.8665297566349204E-01 
    6.8576104504791957E-01 
    6.8489028765696447E-01 
    6.8403227403607636E-01 
    6.8311779911698789E-01 
    6.8227459972731541E-01 
    6.8184712225127297E-01 
    6.4984724196550447E-01 
    6.4963388295893765E-01 
    6.4921332121708675E-01 
    6.4859864043743831E-01 
    6.4780854957537615E-01 
    6.4686683361615827E-01 
    6.4580183066145991E-01 
    6.4464571456803277E-01 
    6.4343340443208297E-01 
    6.4220076074401966E-01 
    6.4098117356916462E-01 
    6.3979755961775120E-01 
    6.3863879917661681E-01 
    6.3743833064417366E-01 
    6.3643420699786568E-01 
    6.3594268823708788E-01 
    6.0637547557166982E-01 
    6.0605729220532578E-01 
    6.0542860453189939E-01 
    6.0450652579650621E-01 
    6.0331642268094776E-01 
    6.0189151575884647E-01 
    6.0027253026138772E-01 
    5.9850709338371322E-01 
    5.9664858047156688E-01 
    5.9475384052330715E-01 
    5.9287828126816300E-01 
    5.9106311448648607E-01 
    5.8929732536058166E-01 
    5.8755552764811880E-01 
    5.8624347712361169E-01 
    5.8561890096542890E-01 
    5.6282947903402458E-01 
    5.6233129116440461E-01 
    5.6134405563134659E-01 
    5.5988927166795921E-01 
    5.5800000440102782E-01 
    5.5572117483143468E-01 
    5.5311007037296367E-01 
    5.5023670467363150E-01 
    5.4718356880146091E-01 
    5.4404384730893429E-01 
    5.4091560453299126E-01 
    5.3788356947935290E-01 
    5.3496232446090608E-01 
    5.3220721532428483E-01 
    5.3023668359279774E-01 
    5.2929223875534104E-01 
    5.2083350520524907E-01 
    5.2005056286736051E-01 
    5.1849299545235739E-01 
    5.1618260971985008E-01 
    5.1315478517785418E-01 
    5.0946040264052661E-01 
    5.0516860483977910E-01 
    5.0037012855781715E-01 
    4.9518074683062757E-01 
    4.8974364701705436E-01 
    4.8422725489039803E-01 
    4.7880656801743210E-01 
    4.7359002433368819E-01 
    4.6876823617401858E-01 
    4.6529969741529936E-01 
    4.6357751265474134E-01 
    4.8275223745477946E-01 
    4.8156698590184266E-01 
    4.7919706970561210E-01 
    4.7565061549371007E-01 
    4.7094420658987707E-01 
    4.6510671767497430E-01 
    4.5818522665294126E-01 
    4.5025339171000539E-01 
    4.4142265484178278E-01 
    4.3185606641353202E-01 
    4.2178194635815625E-01 
    4.1149389155900545E-01 
    4.0128682439613489E-01 
    3.9163120159965370E-01 
    3.8423180420726805E-01 
    3.8033740161447455E-01 
    4.5135593795393797E-01 
    4.4969600921917274E-01 
    4.4635958998877523E-01 
    4.4131727563402690E-01 
    4.3452578337153303E-01 
    4.2593008988545289E-01 
    4.1546763330443393E-01 
    4.0307587344785795E-01 
    3.8870523081232972E-01 
    3.7234028438137418E-01 
    3.5403206693326594E-01 
    3.3393688429980140E-01 
    3.1231591421018884E-01 
    2.8977820787817243E-01 
    2.6931899360268774E-01 
    2.5641001918242251E-01 
    4.3180496662448903E-01 
    4.2975734650199954E-01 
    4.2562105696671004E-01 
    4.1931031273346414E-01 
    4.1068833439173952E-01 
    3.9955846072389289E-01 
    3.8565120235805084E-01 
    3.6860547200985960E-01 
    3.4794080182414938E-01 
    3.2301462160418992E-01 
    2.9295252694007134E-01 
    2.5652035050401162E-01 
    2.1182769282576197E-01 
    1.5574446959503838E-01 
    8.4814006023458219E-02 
    0.0000000000000000E+00 

SCALARS Saturarion double 1 
LOOKUP_TABLE default 

    1.0000000000000000E+00 
    9.5895148877132241E-01 
    9.2988451248838477E-01 
    9.0010176235784523E-01 
    8.6912963882699967E-01 
    8.3701604966218712E-01 
    8.0386468701647640E-01 
    7.6970626413229637E-01 
    7.3443630421266581E-01 
    6.9775534076375967E-01 
    6.5906275854241847E-01 
    6.1720349883151238E-01 
    5.6972969601152323E-01 
    5.1032395839191247E-01 
    4.1812972809257054E-01 
    2.1055941237590897E-01 
    9.0870749502640047E-01 
    8.8929023311748367E-01 
    8.6713405312811853E-01 
    8.4308945431652460E-01 
    8.1750377249264383E-01 
    7.9057704858311051E-01 
    7.6239858063800903E-01 
    7.3294757358172880E-01 
    7.0207266612190156E-01 
    6.6944220915079722E-01 
    6.3443267606773235E-01 
    5.9585270452345762E-01 
    5.5113403712154807E-01 
    4.9354197820150431E-01 
    4.0074370424102912E-01 
    1.8283578824984315E-01 
    8.3594240383944485E-01 
    8.2224424143595642E-01 
    8.0528916316921795E-01 
    7.8616211224443444E-01 
    7.6530349907352446E-01 
    7.4293077495880711E-01 
    7.1912428750528501E-01 
    6.9384556817729237E-01 
    6.6692344468987030E-01 
    6.3800416452722231E-01 
    6.0643068177661197E-01 
    5.7093383784023988E-01 
    5.2871836508069170E-01 
    4.7236748031745901E-01 
    3.7713906011112591E-01 
    1.4251004322745728E-01 
    7.7507013135230685E-01 
    7.6455724542364145E-01 
    7.5103230770922669E-01 
    7.3543086024410553E-01 
    7.1811540817150288E-01 
    6.9925085027288925E-01 
    6.7887958757442990E-01 
    6.5693370098027914E-01 
    6.3321581624800238E-01 
    6.0734159905884233E-01 
    5.7860153928167724E-01 
    5.4560245496405391E-01 
    5.0520989277326411E-01 
    4.4901922402519662E-01 
    3.4805204338338758E-01 
    9.4427646944815494E-02 
    7.2459792496322895E-01 
    7.1603683658433492E-01 
    7.0477622704961818E-01 
    6.9162626461885590E-01 
    6.7686929819538844E-01 
    6.6061180641513162E-01 
    6.4285193942876484E-01 
    6.2348590244305124E-01 
    6.0228234840689721E-01 
    5.7881411177741904E-01 
    5.5229496462975392E-01 
    5.2115371984455328E-01 
    4.8178564860937623E-01 
    4.2434984895334010E-01 
    3.1148773907194838E-01 
    5.0198967676358432E-02 
    6.8193619229722380E-01 
    6.7470363762893615E-01 
    6.6504498920542787E-01 
    6.5367714297396706E-01 
    6.4082355839108107E-01 
    6.2654466036537693E-01 
    6.1080031783200450E-01 
    5.9345205249199662E-01 
    5.7423111704824459E-01 
    5.5265729362836469E-01 
    5.2784384975983678E-01 
    4.9798640335752808E-01 
    4.5885795932319090E-01 
    3.9848578665904755E-01 
    2.6294886890987257E-01 
    2.1171570021954651E-02 
    6.4495690638115566E-01 
    6.3870398963785269E-01 
    6.3026229210457152E-01 
    6.2027015069130353E-01 
    6.0890635828281270E-01 
    5.9619541411226518E-01 
    5.8206479226814856E-01 
    5.6634310220633743E-01 
    5.4872123410637896E-01 
    5.2865552613354660E-01 
    5.0513358920982998E-01 
    4.7605443549075688E-01 
    4.3635079868542048E-01 
    3.7061580968575220E-01 
    1.9675839302730028E-01 
    6.8426319597064142E-03 
    6.1206346933481082E-01 
    6.0658107393760008E-01 
    5.9912653767902946E-01 
    5.9026420932750079E-01 
    5.8013537585775055E-01 
    5.6873407275075272E-01 
    5.5595815259230408E-01 
    5.4160269969822816E-01 
    5.2531286028824498E-01 
    5.0646741362730674E-01 
    4.8389400267565363E-01 
    4.5509472528384320E-01 
    4.1373900279126352E-01 
    3.3802230482632262E-01 
    1.1718489927181794E-01 
    1.4962063240229104E-03 
    5.8201999231275348E-01 
    5.7718231496817884E-01 
    5.7058448988440436E-01 
    5.6271515975419995E-01 
    5.5368062985359234E-01 
    5.4344649284181856E-01 
    5.3188117402384305E-01 
    5.1874357456622811E-01 
    5.0362577106610562E-01 
    4.8581185167791618E-01 
    4.6392421566148162E-01 
    4.3490942987356573E-01 
    3.9037766399901996E-01 
    2.9618339012261286E-01 
    5.4410228238724961E-02 
    2.3465564755271122E-04 
    5.5376205905470244E-01 
    5.4950265431466472E-01 
    5.4370755872887466E-01 
    5.3678338924189284E-01 
    5.2880117047029052E-01 
    5.1969833912505325E-01 
    5.0931317748517424E-01 
    4.9736570669626046E-01 
    4.8338849424637459E-01 
    4.6655524097932488E-01 
    4.4523289400320260E-01 
    4.1559012157966213E-01 
    3.6591187826743860E-01 
    2.4143454514706439E-01 
    2.3339641605284445E-02 
    3.3582403509114053E-05 
    5.2618124602630367E-01 
    5.2248399304243487E-01 
    5.1750679868301042E-01 
    5.1156559149919056E-01 
    5.0469486012888820E-01 
    4.9680468748224649E-01 
    4.8770423301275728E-01 
    4.7707518100842350E-01 
    4.6438950292119807E-01 
    4.4870286119131081E-01 
    4.2808126470165214E-01 
    3.9763542170269672E-01 
    3.4084019763931278E-01 
    1.7951898064809260E-01 
    1.0161085353615510E-02 
    5.3777993481717251E-06 
    4.9776292302735542E-01 
    4.9465874673128024E-01 
    4.9058025658442372E-01 
    4.8574700011843125E-01 
    4.8015785358490404E-01 
    4.7370063978542942E-01 
    4.6616333652236747E-01 
    4.5720057442261092E-01 
    4.4624016607870304E-01 
    4.3224302117643115E-01 
    4.1299048302933766E-01 
    3.8246546860000002E-01 
    3.1876274954774453E-01 
    1.3630868707868765E-01 
    6.1130520516007245E-03 
    2.1474494399942031E-06 
    4.6564066861520748E-01 
    4.6320045769320950E-01 
    4.6015551634249413E-01 
    4.5663525799784693E-01 
    4.5261047541433996E-01 
    4.4796024839356535E-01 
    4.4247207327059584E-01 
    4.3580504646474066E-01 
    4.2739463183958276E-01 
    4.1620487478041263E-01 
    3.9996719327463554E-01 
    3.7229472227457838E-01 
    3.0888938657593973E-01 
    1.3763078375873106E-01 
    8.8224569111665374E-03 
    6.4282623034205689E-06 
    4.2209212018810738E-01 
    4.2039838877722630E-01 
    4.1855225843439792E-01 
    4.1661947853638143E-01 
    4.1455999941330524E-01 
    4.1226573928544635E-01 
    4.0955477655123146E-01 
    4.0613885292956564E-01 
    4.0154504195863922E-01 
    3.9491598191815969E-01 
    3.8440003432900649E-01 
    3.6483127057927717E-01 
    3.1661577599862967E-01 
    1.8940090403275692E-01 
    3.2685987906061253E-02 
    1.8029182303540094E-04 
    3.3898445465992394E-01 
    3.3802284505278690E-01 
    3.3755037719066361E-01 
    3.3762120497872578E-01 
    3.3821747351802262E-01 
    3.3927476526478506E-01 
    3.4067615581383809E-01 
    3.4222977650867981E-01 
    3.4361974443924637E-01 
    3.4428983829305027E-01 
    3.4310844980673649E-01 
    3.3714745315992362E-01 
    3.1602926965196437E-01 
    2.5139759687442159E-01 
    1.2731584766509138E-01 
    9.9749791976589466E-03 
    1.3276153739906435E-01 
    1.3203293013101766E-01 
    1.3286474087288244E-01 
    1.3538747932882514E-01 
    1.3967857187474880E-01 
    1.4577191674247783E-01 
    1.5364368501834266E-01 
    1.6318866768380183E-01 
    1.7419070957417537E-01 
    1.8627519438980658E-01 
    1.9878175109502380E-01 
    2.1030136284646067E-01 
    2.1675450090509282E-01 
    2.0591158829947920E-01 
    1.5336773819933358E-01 
    5.1988440060231039E-02 
