# vtk DataFile Version 2.0
Pressure Field Data 
ASCII 
DATASET UNSTRUCTURED_GRID 

POINTS 289 double 

    0.0000000000000000E+00     0.0000000000000000E+00     0.0000000000000000E+00 
    1.0000000000000000E+00     0.0000000000000000E+00     0.0000000000000000E+00 
    1.0000000000000000E+00     1.0000000000000000E+00     0.0000000000000000E+00 
    0.0000000000000000E+00     1.0000000000000000E+00     0.0000000000000000E+00 
    6.2499999999872928E-02     0.0000000000000000E+00     0.0000000000000000E+00 
    1.2499999999977310E-01     0.0000000000000000E+00     0.0000000000000000E+00 
    1.8749999999959341E-01     0.0000000000000000E+00     0.0000000000000000E+00 
    2.4999999999941089E-01     0.0000000000000000E+00     0.0000000000000000E+00 
    3.1249999999922851E-01     0.0000000000000000E+00     0.0000000000000000E+00 
    3.7499999999904610E-01     0.0000000000000000E+00     0.0000000000000000E+00 
    4.3749999999886358E-01     0.0000000000000000E+00     0.0000000000000000E+00 
    4.9999999999869210E-01     0.0000000000000000E+00     0.0000000000000000E+00 
    5.6249999999884603E-01     0.0000000000000000E+00     0.0000000000000000E+00 
    6.2499999999901090E-01     0.0000000000000000E+00     0.0000000000000000E+00 
    6.8749999999917577E-01     0.0000000000000000E+00     0.0000000000000000E+00 
    7.4999999999934064E-01     0.0000000000000000E+00     0.0000000000000000E+00 
    8.1249999999950551E-01     0.0000000000000000E+00     0.0000000000000000E+00 
    8.7499999999967026E-01     0.0000000000000000E+00     0.0000000000000000E+00 
    9.3749999999983513E-01     0.0000000000000000E+00     0.0000000000000000E+00 
    1.0000000000000000E+00     6.2499999999872928E-02     0.0000000000000000E+00 
    1.0000000000000000E+00     1.2499999999977310E-01     0.0000000000000000E+00 
    1.0000000000000000E+00     1.8749999999959341E-01     0.0000000000000000E+00 
    1.0000000000000000E+00     2.4999999999941089E-01     0.0000000000000000E+00 
    1.0000000000000000E+00     3.1249999999922851E-01     0.0000000000000000E+00 
    1.0000000000000000E+00     3.7499999999904610E-01     0.0000000000000000E+00 
    1.0000000000000000E+00     4.3749999999886358E-01     0.0000000000000000E+00 
    1.0000000000000000E+00     4.9999999999869210E-01     0.0000000000000000E+00 
    1.0000000000000000E+00     5.6249999999884603E-01     0.0000000000000000E+00 
    1.0000000000000000E+00     6.2499999999901090E-01     0.0000000000000000E+00 
    1.0000000000000000E+00     6.8749999999917577E-01     0.0000000000000000E+00 
    1.0000000000000000E+00     7.4999999999934064E-01     0.0000000000000000E+00 
    1.0000000000000000E+00     8.1249999999950551E-01     0.0000000000000000E+00 
    1.0000000000000000E+00     8.7499999999967026E-01     0.0000000000000000E+00 
    1.0000000000000000E+00     9.3749999999983513E-01     0.0000000000000000E+00 
    9.3749999999973976E-01     1.0000000000000000E+00     0.0000000000000000E+00 
    8.7499999999950118E-01     1.0000000000000000E+00     0.0000000000000000E+00 
    8.1249999999991318E-01     1.0000000000000000E+00     0.0000000000000000E+00 
    7.5000000000034706E-01     1.0000000000000000E+00     0.0000000000000000E+00 
    6.8750000000078049E-01     1.0000000000000000E+00     0.0000000000000000E+00 
    6.2500000000121403E-01     1.0000000000000000E+00     0.0000000000000000E+00 
    5.6250000000164757E-01     1.0000000000000000E+00     0.0000000000000000E+00 
    5.0000000000205946E-01     1.0000000000000000E+00     0.0000000000000000E+00 
    4.3750000000182099E-01     1.0000000000000000E+00     0.0000000000000000E+00 
    3.7500000000156092E-01     1.0000000000000000E+00     0.0000000000000000E+00 
    3.1250000000130068E-01     1.0000000000000000E+00     0.0000000000000000E+00 
    2.5000000000104050E-01     1.0000000000000000E+00     0.0000000000000000E+00 
    1.8750000000078040E-01     1.0000000000000000E+00     0.0000000000000000E+00 
    1.2500000000052031E-01     1.0000000000000000E+00     0.0000000000000000E+00 
    6.2500000000260125E-02     1.0000000000000000E+00     0.0000000000000000E+00 
    0.0000000000000000E+00     9.3749999999973976E-01     0.0000000000000000E+00 
    0.0000000000000000E+00     8.7499999999950118E-01     0.0000000000000000E+00 
    0.0000000000000000E+00     8.1249999999991318E-01     0.0000000000000000E+00 
    0.0000000000000000E+00     7.5000000000034706E-01     0.0000000000000000E+00 
    0.0000000000000000E+00     6.8750000000078049E-01     0.0000000000000000E+00 
    0.0000000000000000E+00     6.2500000000121403E-01     0.0000000000000000E+00 
    0.0000000000000000E+00     5.6250000000164757E-01     0.0000000000000000E+00 
    0.0000000000000000E+00     5.0000000000205946E-01     0.0000000000000000E+00 
    0.0000000000000000E+00     4.3750000000182099E-01     0.0000000000000000E+00 
    0.0000000000000000E+00     3.7500000000156092E-01     0.0000000000000000E+00 
    0.0000000000000000E+00     3.1250000000130068E-01     0.0000000000000000E+00 
    0.0000000000000000E+00     2.5000000000104050E-01     0.0000000000000000E+00 
    0.0000000000000000E+00     1.8750000000078040E-01     0.0000000000000000E+00 
    0.0000000000000000E+00     1.2500000000052031E-01     0.0000000000000000E+00 
    0.0000000000000000E+00     6.2500000000260125E-02     0.0000000000000000E+00 
    6.2499999999897131E-02     6.2500000000235922E-02     0.0000000000000000E+00 
    6.2499999999921327E-02     1.2500000000047351E-01     0.0000000000000000E+00 
    6.2499999999945530E-02     1.8750000000070621E-01     0.0000000000000000E+00 
    6.2499999999969733E-02     2.5000000000093858E-01     0.0000000000000000E+00 
    6.2499999999993928E-02     3.1250000000117117E-01     0.0000000000000000E+00 
    6.2500000000018124E-02     3.7500000000140382E-01     0.0000000000000000E+00 
    6.2500000000042327E-02     4.3750000000163619E-01     0.0000000000000000E+00 
    6.2500000000066530E-02     5.0000000000184897E-01     0.0000000000000000E+00 
    6.2500000000090733E-02     5.6250000000147260E-01     0.0000000000000000E+00 
    6.2500000000114922E-02     6.2500000000107636E-01     0.0000000000000000E+00 
    6.2500000000139125E-02     6.8750000000068034E-01     0.0000000000000000E+00 
    6.2500000000163328E-02     7.5000000000028411E-01     0.0000000000000000E+00 
    6.2500000000187531E-02     8.1249999999988787E-01     0.0000000000000000E+00 
    6.2500000000211720E-02     8.7499999999951172E-01     0.0000000000000000E+00 
    6.2500000000235922E-02     9.3749999999974565E-01     0.0000000000000000E+00 
    1.2499999999981980E-01     6.2500000000211733E-02     0.0000000000000000E+00 
    1.2499999999986650E-01     1.2500000000042691E-01     0.0000000000000000E+00 
    1.2499999999991319E-01     1.8750000000063199E-01     0.0000000000000000E+00 
    1.2499999999995989E-01     2.5000000000083678E-01     0.0000000000000000E+00 
    1.2500000000000661E-01     3.1250000000104172E-01     0.0000000000000000E+00 
    1.2500000000005329E-01     3.7500000000124661E-01     0.0000000000000000E+00 
    1.2500000000010000E-01     4.3750000000145117E-01     0.0000000000000000E+00 
    1.2500000000014669E-01     5.0000000000163858E-01     0.0000000000000000E+00 
    1.2500000000019340E-01     5.6250000000129741E-01     0.0000000000000000E+00 
    1.2500000000024011E-01     6.2500000000093847E-01     0.0000000000000000E+00 
    1.2500000000028680E-01     6.8750000000057998E-01     0.0000000000000000E+00 
    1.2500000000033351E-01     7.5000000000022127E-01     0.0000000000000000E+00 
    1.2500000000038020E-01     8.1249999999986211E-01     0.0000000000000000E+00 
    1.2500000000042691E-01     8.7499999999952238E-01     0.0000000000000000E+00 
    1.2500000000047359E-01     9.3749999999975164E-01     0.0000000000000000E+00 
    1.8749999999966760E-01     6.2500000000187531E-02     0.0000000000000000E+00 
    1.8749999999974179E-01     1.2500000000038020E-01     0.0000000000000000E+00 
    1.8749999999981601E-01     1.8750000000055780E-01     0.0000000000000000E+00 
    1.8749999999989009E-01     2.5000000000073502E-01     0.0000000000000000E+00 
    1.8749999999996431E-01     3.1250000000091221E-01     0.0000000000000000E+00 
    1.8750000000003850E-01     3.7500000000108941E-01     0.0000000000000000E+00 
    1.8750000000011269E-01     4.3750000000126649E-01     0.0000000000000000E+00 
    1.8750000000018691E-01     5.0000000000142808E-01     0.0000000000000000E+00 
    1.8750000000026110E-01     5.6250000000112244E-01     0.0000000000000000E+00 
    1.8750000000033529E-01     6.2500000000080080E-01     0.0000000000000000E+00 
    1.8750000000040951E-01     6.8750000000047962E-01     0.0000000000000000E+00 
    1.8750000000048361E-01     7.5000000000015843E-01     0.0000000000000000E+00 
    1.8750000000055780E-01     8.1249999999983680E-01     0.0000000000000000E+00 
    1.8750000000063199E-01     8.7499999999953304E-01     0.0000000000000000E+00 
    1.8750000000070621E-01     9.3749999999975764E-01     0.0000000000000000E+00 
    2.4999999999951281E-01     6.2500000000163314E-02     0.0000000000000000E+00 
    2.4999999999961461E-01     1.2500000000033351E-01     0.0000000000000000E+00 
    2.4999999999971650E-01     1.8750000000048361E-01     0.0000000000000000E+00 
    2.4999999999981831E-01     2.5000000000063310E-01     0.0000000000000000E+00 
    2.4999999999992020E-01     3.1250000000078260E-01     0.0000000000000000E+00 
    2.5000000000002198E-01     3.7500000000093209E-01     0.0000000000000000E+00 
    2.5000000000012390E-01     4.3750000000108180E-01     0.0000000000000000E+00 
    2.5000000000022571E-01     5.0000000000121769E-01     0.0000000000000000E+00 
    2.5000000000032763E-01     5.6250000000094724E-01     0.0000000000000000E+00 
    2.5000000000042938E-01     6.2500000000066314E-01     0.0000000000000000E+00 
    2.5000000000053119E-01     6.8750000000037925E-01     0.0000000000000000E+00 
[...]
CELL_DATA 256 
SCALARS Pressure double 1 
LOOKUP_TABLE default 

    1.1814230373894092E+00 
    1.1639213142766349E+00 
    1.1485655990500689E+00 
    1.1352067463957523E+00 
    1.1234327378319027E+00 
    1.1129482639953447E+00 
    1.1035491987846746E+00 
    1.0950949714856502E+00 
    1.0874864485206766E+00 
    1.0806461722757372E+00 
    1.0744930062852054E+00 
    1.0688904850445682E+00 
    1.0636015889883426E+00 
    1.0591600288770824E+00 
    1.0563334689012793E+00 
    1.0549782765771178E+00 
    1.1184817873331312E+00 
    1.1151969460445312E+00 
    1.1099500382221028E+00 
    1.1037046885373636E+00 
    1.0970021473745339E+00 
    1.0901809092999621E+00 
    1.0834570422100118E+00 
    1.0769695552562497E+00 
    1.0708049366925272E+00 
    1.0650051290913392E+00 
    1.0595520257701883E+00 
    1.0543027645160254E+00 
    1.0492239197441118E+00 
    1.0451796962740201E+00 
    1.0426561872631177E+00 
    1.0414311080776524E+00 
    1.0702811650412960E+00 
    1.0690152686783096E+00 
    1.0666365645107432E+00 
    1.0633859808925361E+00 
    1.0594971737036505E+00 
    1.0551751713479285E+00 
    1.0505903048506109E+00 
    1.0458767987183633E+00 
    1.0411295721888114E+00 
    1.0363892676426170E+00 
    1.0315904392383071E+00 
    1.0266394768610889E+00 
    1.0220755307768121E+00 
    1.0187554326598127E+00 
    1.0166713240487626E+00 
    1.0156376950488817E+00 
    1.0227961946204149E+00 
    1.0220499482113061E+00 
    1.0205947955418062E+00 
    1.0185102701899533E+00 
    1.0158905911580960E+00 
    1.0128318754945949E+00 
    1.0094219693079973E+00 
    1.0057290699786290E+00 
    1.0017806494382042E+00 
    9.9751496214633428E-01 
    9.9287353332241668E-01 
    9.8827584208018893E-01 
    9.8459031455183266E-01 
    9.8201751034852680E-01 
    9.8034485590194897E-01 
    9.7950805811617980E-01 
    9.7235020262160055E-01 
    9.7178963051722400E-01 
    9.7068141816330411E-01 
    9.6905754846303338E-01 
    9.6695636754698322E-01 
    9.6441396404371715E-01 
    9.6145136078780513E-01 
    9.5804878031920238E-01 
    9.5412100582496984E-01 
    9.4970025212678244E-01 
    9.4528074217342817E-01 
    9.4161565570729178E-01 
    9.3891390545859077E-01 
    9.3696399627395266E-01 
    9.3566216224530052E-01 
    9.3501044332683103E-01 
    9.1746425577601121E-01 
    9.1695280716783678E-01 
    9.1592792108234322E-01 
    9.1439239730047950E-01 
    9.1234192640041090E-01 
    9.0974766656777273E-01 
    9.0654467599568056E-01 
    9.0272669637667580E-01 
    8.9852597395514955E-01 
    8.9452880994292061E-01 
    8.9127121998091585E-01 
    8.8879039143162741E-01 
    8.8688029668889368E-01 
    8.8544137217645502E-01 
    8.8447831750016315E-01 
    8.8399563935367065E-01 
    8.5698621471538849E-01 
    8.5640067417213406E-01 
    8.5520258614545430E-01 
    8.5335368572934966E-01 
    8.5082778412672722E-01 
    8.4768582993095176E-01 
    8.4414459471314252E-01 
    8.4059486098383096E-01 
    8.3748355980068812E-01 
    8.3501490228630182E-01 
    8.3306633364696370E-01 
    8.3146117102341932E-01 
    8.3015415951584326E-01 
    8.2916004977129498E-01 
    8.2849070745700570E-01 
    8.2815405391681285E-01 
    7.8922960355929295E-01 
    7.8844904707327579E-01 
    7.8696987458159728E-01 
    7.8494892733770372E-01 
    7.8260165593945241E-01 
    7.8019482533774798E-01 
    7.7799796868811233E-01 
    7.7617180064943381E-01 
    7.7468007075484835E-01 
    7.7337809652591638E-01 
    7.7219898441581158E-01 
    7.7116276156849117E-01 
    7.7029900478168434E-01 
    7.6963105306350776E-01 
    7.6917620967288214E-01 
    7.6894593307960801E-01 
    7.1791774048554458E-01 
    7.1749778221813276E-01 
    7.1676333088297017E-01 
    7.1587048072194059E-01 
    7.1496677734487046E-01 
    7.1412897204983072E-01 
    7.1332961721330190E-01 
    7.1250185827416479E-01 
    7.1162946229692403E-01 
    7.1074854671722087E-01 
    7.0990522334470707E-01 
    7.0913969152837575E-01 
    7.0848579936144540E-01 
    7.0797097308044510E-01 
    7.0761604391552502E-01 
    7.0743504631188669E-01 
    6.5291356028578662E-01 
    6.5283526142666382E-01 
    6.5265990336694701E-01 
    6.5235563990696011E-01 
    6.5189261273774202E-01 
    6.5126387791169504E-01 
    6.5049224175633980E-01 
    6.4961801710658695E-01 
    6.4868636842759497E-01 
    6.4774316824703493E-01 
    6.4683354671231441E-01 
    6.4600022499445431E-01 
    6.4528193508214260E-01 
    6.4471192193684079E-01 
    6.4431656254565894E-01 
    6.4411418351005945E-01 
    5.9337319115406484E-01 
    5.9314356971082638E-01 
    5.9268073391389076E-01 
    5.9198630761238880E-01 
    5.9107271938153416E-01 
    5.8996381039087786E-01 
    5.8869435727677122E-01 
    5.8730870428038240E-01 
    5.8585878979862349E-01 
    5.8440200331844550E-01 
    5.8299887191131861E-01 
    5.8171044040504916E-01 
    5.8059530313274887E-01 
    5.7970633325204279E-01 
    5.7908727762000245E-01 
    5.7876953035389378E-01 
    5.3632754972676910E-01 
    5.3590168404703853E-01 
    5.3505874045575819E-01 
    5.3381729010088630E-01 
    5.3220691585466262E-01 
    5.3026921062776877E-01 
    5.2805847170409281E-01 
    5.2564200630785896E-01 
    5.2309993115381603E-01 
    5.2052428765932235E-01 
    5.1801719810172808E-01 
    5.1568771347594156E-01 
    5.1364699726741259E-01 
    5.1200160208058043E-01 
    5.1084490903506141E-01 
    5.1024740453797546E-01 
    4.8354058632611319E-01 
    4.8283058663550815E-01 
    4.8142181561733544E-01 
    4.7933751153045467E-01 
    4.7661442213457361E-01 
    4.7330494783245908E-01 
    4.6947985085696448E-01 
    4.6523140591338524E-01 
    4.6067675591347046E-01 
    4.5596103263117704E-01 
    4.5125947497403690E-01 
    4.4677730237424601E-01 
    4.4274548118511547E-01 
    4.3940984949599715E-01 
    4.3701065496585995E-01 
    4.3575023375223965E-01 
    4.3785361983119875E-01 
    4.3674720249968152E-01 
    4.3454022146602345E-01 
    4.3124558605003421E-01 
    4.2688577747681872E-01 
    4.2149691177093612E-01 
    4.1513470969065980E-01 
    4.0788285608219788E-01 
    3.9986431349683293E-01 
    3.9125612135146653E-01 
    3.8230790127283393E-01 
    3.7336337716594725E-01 
    3.6488207010272095E-01 
    3.5745372532164549E-01 
    3.5178866773162804E-01 
    3.4864885083109359E-01 
    4.0323082665147625E-01 
    4.0166945538530990E-01 
    3.9853517113806941E-01 
    3.9380539214188642E-01 
    3.8744770414571317E-01 
    3.7942223945330722E-01 
    3.6968608380612966E-01 
    3.5820119601982153E-01 
    3.4494836667991946E-01 
    3.2995148940420893E-01 
    3.1331936785394654E-01 
    2.9531728152079723E-01 
    2.7648903619857135E-01 
    2.5786472923643816E-01 
    2.4131427360240840E-01 
    2.3014929890468538E-01 
    3.8422174613357230E-01 
    3.8232083808179912E-01 
    3.7848506829969286E-01 
    3.7264428823377310E-01 
    3.6468739777706521E-01 
    3.5445447668351765E-01 
    3.4172477931301826E-01 
    3.2619895149323708E-01 
    3.0747289922078591E-01 
    2.8499930020238062E-01 
    2.5803048226379777E-01 
    2.2553277576621134E-01 
    1.8605661869318377E-01 
    1.3753721986964323E-01 
    7.6985070109451853E-02 
    0.0000000000000000E+00 

SCALARS Saturarion double 1 
LOOKUP_TABLE default 

    1.0000000000000000E+00 
    9.0963896762897334E-01 
    8.5445823583306169E-01 
    8.0365658557371222E-01 
    7.5545437647264235E-01 
    7.0921250389266866E-01 
    6.6442028921134000E-01 
    6.2044940410068794E-01 
    5.7637741723911384E-01 
    5.3063048014092717E-01 
    4.7994937672861970E-01 
    4.1570563473402683E-01 
    3.0787631959237494E-01 
    1.0164084515864072E-01 
    2.1552742943627139E-03 
    6.9561363587795857E-08 
    8.3082990216021868E-01 
    7.9670432468687957E-01 
    7.6015490400801389E-01 
    7.2331230046835593E-01 
    6.8656874974894855E-01 
    6.4995474486793370E-01 
    6.1326333541323297E-01 
    5.7603124604146261E-01 
    5.3738250029790191E-01 
    4.9555089712953948E-01 
    4.4632410262197747E-01 
    3.7655734324633428E-01 
    2.3367230104673131E-01 
    3.0815272349928285E-02 
    5.9148407761443138E-05 
    6.4383814387709241E-12 
    7.1978772276766967E-01 
    6.9872740391583421E-01 
    6.7354552984984228E-01 
    6.4649009789545964E-01 
    6.1824350579377552E-01 
    5.8898651975502192E-01 
    5.5858040725906000E-01 
    5.2652959949574540E-01 
    4.9171921585437661E-01 
    4.5155409369318072E-01 
    3.9864008116225452E-01 
    3.0352278909851094E-01 
    9.2636370002684043E-02 
    1.1111389378159640E-03 
    6.3894740044365633E-09 
    1.8694211033226262E-22 
    6.3241951237081917E-01 
    6.1758351935244149E-01 
    5.9882148068730567E-01 
    5.7779724707567737E-01 
    5.5501901148100652E-01 
    5.3054849941013793E-01 
    5.0408467838162541E-01 
    4.7479384229952548E-01 
    4.4067881852218488E-01 
    3.9621270925026214E-01 
    3.2093618753689013E-01 
    1.4188868405615543E-01 
    4.3721744439213306E-03 
    1.4214649923077957E-07 
    1.4130527314218925E-19 
    8.7295632379614062E-52 
    5.5942319885505132E-01 
    5.4779113546801328E-01 
    5.3255129147007196E-01 
    5.1490795331274997E-01 
    4.9510531690481929E-01 
    4.7291325425259012E-01 
    4.4753141384117134E-01 
    4.1695724567124448E-01 
    3.7557573185693682E-01 
    3.0388971736685078E-01 
    1.4199723427342772E-01 
    6.8167573890683371E-03 
    5.3775016691015429E-07 
    2.4162180042093803E-18 
    2.9093266889762242E-49 
   6.2349043713023669E-133 
    4.9297162155082203E-01 
    4.8280642638246241E-01 
    4.6906974157161097E-01 
    4.5253866656402258E-01 
    4.3299329725360669E-01 
    4.0936711233014095E-01 
    3.7885341537798212E-01 
    3.3362780915529366E-01 
    2.4924831222197005E-01 
    9.6059782828560120E-02 
    4.8294959994891456E-03 
    7.0812101680080406E-07 
    8.3697471240218839E-18 
    4.2894886770033158E-48 
   1.5179513227653483E-130 
    0.0000000000000000E+00 
    4.2418894977050431E-01 
    4.1366227397474553E-01 
    3.9871727712686134E-01 
    3.7921709883262233E-01 
    3.5313342912037377E-01 
    3.1518949215704978E-01 
    2.5239078268720366E-01 
    1.4670714020601000E-01 
    3.8440411487864652E-02 
    1.3757706752136139E-03 
    2.6009268841550196E-07 
    9.0009960341755241E-18 
    1.4983487069998733E-47 
   2.4195084962213632E-129 
    0.0000000000000000E+00 
    0.0000000000000000E+00 
    3.3322553508574720E-01 
    3.1718278549752349E-01 
    2.9181272652463563E-01 
    2.5361922550383065E-01 
    1.9629792982705374E-01 
    1.1953406253860883E-01 
    4.5320329369838666E-02 
    6.3651237873553783E-03 
    1.0796941753796431E-04 
    1.1237259376629813E-08 
    7.4366843352019225E-19 
    1.1720789729610427E-47 
   9.8790764301443307E-129 
    0.0000000000000000E+00 
    0.0000000000000000E+00 
    0.0000000000000000E+00 
    1.6474254880021191E-01 
    1.3577622280920265E-01 
    9.6344223675992990E-02 
    5.4286396418225039E-02 
    2.0661865220902152E-02 
    3.9537196370154721E-03 
    2.1491448983442551E-04 
    9.6591502231951078E-07 
    1.6858418117535051E-11 
    2.6339807793742665E-22 
    2.4261687102617644E-50 
   3.4479899615574963E-129 
    0.0000000000000000E+00 
    0.0000000000000000E+00 
    0.0000000000000000E+00 
    0.0000000000000000E+00 
    1.2889894209435728E-02 
    6.8207149193765231E-03 
    2.3315733458720163E-03 
    4.2751473106082037E-04 
    2.8841627988355315E-05 
    3.4505678289213922E-07 
    1.5867602354704535E-10 
    9.5075708045424573E-17 
    1.6762225819987387E-29 
    5.4733265243827012E-59 
   8.3531540714344770E-136 
    0.0000000000000000E+00 
    0.0000000000000000E+00 
    0.0000000000000000E+00 
    0.0000000000000000E+00 
    0.0000000000000000E+00 
    9.7938215750783609E-06 
    1.8255883229329296E-06 
    1.1084137873653544E-07 
    1.3621805969504495E-09 
    1.2643638129720768E-12 
    1.2215761840755181E-17 
    2.1128691180911151E-26 
    5.7618753223867549E-43 
    2.6690738785293426E-77 
   6.0819072478924864E-157 
    0.0000000000000000E+00 
    0.0000000000000000E+00 
    0.0000000000000000E+00 
    0.0000000000000000E+00 
    0.0000000000000000E+00 
    0.0000000000000000E+00 
    1.3441955058627478E-13 
    1.8153712946239420E-15 
    1.3586429687385186E-18 
    1.6224735758835481E-23 
    2.1865907595397842E-31 
    1.8155001412651608E-44 
    1.5248296542535541E-67 
   3.2071383642690658E-111 
   2.0879776091895018E-202 
    0.0000000000000000E+00 
    0.0000000000000000E+00 
    0.0000000000000000E+00 
    0.0000000000000000E+00 
    0.0000000000000000E+00 
    0.0000000000000000E+00 
    0.0000000000000000E+00 
    3.1634740941367151E-33 
    5.1124704912742222E-38 
    4.8337742986530697E-46 
    1.0012843366888563E-58 
    4.7021612516411300E-79 
   6.1760851985842339E-113 
   7.9442109113533707E-173 
   7.7659823339580638E-287 
    0.0000000000000000E+00 
    0.0000000000000000E+00 
    0.0000000000000000E+00 
    0.0000000000000000E+00 
    0.0000000000000000E+00 
    0.0000000000000000E+00 
    0.0000000000000000E+00 
    0.0000000000000000E+00 
    5.3606054089642892E-82 
    3.5349873595716581E-94 
   1.3345149033615041E-114 
   6.7003518714740777E-147 
   1.2050930856328008E-198 
   3.2258144799338940E-285 
    0.0000000000000000E+00 
    0.0000000000000000E+00 
    0.0000000000000000E+00 
    0.0000000000000000E+00 
    0.0000000000000000E+00 
    0.0000000000000000E+00 
    0.0000000000000000E+00 
    0.0000000000000000E+00 
    0.0000000000000000E+00 
    0.0000000000000000E+00 
   1.0502598618320154E-201 
   3.0717804882035540E-232 
   1.8791265546834467E-283 
    0.0000000000000000E+00 
    0.0000000000000000E+00 
    0.0000000000000000E+00 
    0.0000000000000000E+00 
    0.0000000000000000E+00 
    0.0000000000000000E+00 
    0.0000000000000000E+00 
    0.0000000000000000E+00 
    0.0000000000000000E+00 
    0.0000000000000000E+00 
    0.0000000000000000E+00 
    0.0000000000000000E+00 
    0.0000000000000000E+00 
    0.0000000000000000E+00 
    0.0000000000000000E+00 
    0.0000000000000000E+00 
    0.0000000000000000E+00 
    0.0000000000000000E+00 
    0.0000000000000000E+00 
    0.0000000000000000E+00 
    0.0000000000000000E+00 
    0.0000000000000000E+00 
    0.0000000000000000E+00 
    0.0000000000000000E+00 
    0.0000000000000000E+00 
    0.0000000000000000E+00 
    0.0000000000000000E+00 
    0.0000000000000000E+00 
    0.0000000000000000E+00 
