# vtk DataFile Version 2.0
Pressure Field Data 
ASCII 
DATASET UNSTRUCTURED_GRID 

POINTS 289 double 

    0.0000000000000000E+00     0.0000000000000000E+00     0.0000000000000000E+00 
    1.0000000000000000E+00     0.0000000000000000E+00     0.0000000000000000E+00 
    1.0000000000000000E+00     1.0000000000000000E+00     0.0000000000000000E+00 
    0.0000000000000000E+00     1.0000000000000000E+00     0.0000000000000000E+00 
    6.2499999999872928E-02     0.0000000000000000E+00     0.0000000000000000E+00 
    1.2499999999977310E-01     0.0000000000000000E+00     0.0000000000000000E+00 
    1.8749999999959341E-01     0.0000000000000000E+00     0.0000000000000000E+00 
    2.4999999999941089E-01     0.0000000000000000E+00     0.0000000000000000E+00 
    3.1249999999922851E-01     0.0000000000000000E+00     0.0000000000000000E+00 
    3.7499999999904610E-01     0.0000000000000000E+00     0.0000000000000000E+00 
    4.3749999999886358E-01     0.0000000000000000E+00     0.0000000000000000E+00 
    4.9999999999869210E-01     0.0000000000000000E+00     0.0000000000000000E+00 
    5.6249999999884603E-01     0.0000000000000000E+00     0.0000000000000000E+00 
    6.2499999999901090E-01     0.0000000000000000E+00     0.0000000000000000E+00 
    6.8749999999917577E-01     0.0000000000000000E+00     0.0000000000000000E+00 
    7.4999999999934064E-01     0.0000000000000000E+00     0.0000000000000000E+00 
    8.1249999999950551E-01     0.0000000000000000E+00     0.0000000000000000E+00 
    8.7499999999967026E-01     0.0000000000000000E+00     0.0000000000000000E+00 
    9.3749999999983513E-01     0.0000000000000000E+00     0.0000000000000000E+00 
    1.0000000000000000E+00     6.2499999999872928E-02     0.0000000000000000E+00 
    1.0000000000000000E+00     1.2499999999977310E-01     0.0000000000000000E+00 
    1.0000000000000000E+00     1.8749999999959341E-01     0.0000000000000000E+00 
    1.0000000000000000E+00     2.4999999999941089E-01     0.0000000000000000E+00 
    1.0000000000000000E+00     3.1249999999922851E-01     0.0000000000000000E+00 
    1.0000000000000000E+00     3.7499999999904610E-01     0.0000000000000000E+00 
    1.0000000000000000E+00     4.3749999999886358E-01     0.0000000000000000E+00 
    1.0000000000000000E+00     4.9999999999869210E-01     0.0000000000000000E+00 
    1.0000000000000000E+00     5.6249999999884603E-01     0.0000000000000000E+00 
    1.0000000000000000E+00     6.2499999999901090E-01     0.0000000000000000E+00 
    1.0000000000000000E+00     6.8749999999917577E-01     0.0000000000000000E+00 
    1.0000000000000000E+00     7.4999999999934064E-01     0.0000000000000000E+00 
    1.0000000000000000E+00     8.1249999999950551E-01     0.0000000000000000E+00 
    1.0000000000000000E+00     8.7499999999967026E-01     0.0000000000000000E+00 
    1.0000000000000000E+00     9.3749999999983513E-01     0.0000000000000000E+00 
    9.3749999999973976E-01     1.0000000000000000E+00     0.0000000000000000E+00 
    8.7499999999950118E-01     1.0000000000000000E+00     0.0000000000000000E+00 
    8.1249999999991318E-01     1.0000000000000000E+00     0.0000000000000000E+00 
    7.5000000000034706E-01     1.0000000000000000E+00     0.0000000000000000E+00 
    6.8750000000078049E-01     1.0000000000000000E+00     0.0000000000000000E+00 
    6.2500000000121403E-01     1.0000000000000000E+00     0.0000000000000000E+00 
    5.6250000000164757E-01     1.0000000000000000E+00     0.0000000000000000E+00 
    5.0000000000205946E-01     1.0000000000000000E+00     0.0000000000000000E+00 
    4.3750000000182099E-01     1.0000000000000000E+00     0.0000000000000000E+00 
    3.7500000000156092E-01     1.0000000000000000E+00     0.0000000000000000E+00 
    3.1250000000130068E-01     1.0000000000000000E+00     0.0000000000000000E+00 
    2.5000000000104050E-01     1.0000000000000000E+00     0.0000000000000000E+00 
    1.8750000000078040E-01     1.0000000000000000E+00     0.0000000000000000E+00 
    1.2500000000052031E-01     1.0000000000000000E+00     0.0000000000000000E+00 
    6.2500000000260125E-02     1.0000000000000000E+00     0.0000000000000000E+00 
    0.0000000000000000E+00     9.3749999999973976E-01     0.0000000000000000E+00 
    0.0000000000000000E+00     8.7499999999950118E-01     0.0000000000000000E+00 
    0.0000000000000000E+00     8.1249999999991318E-01     0.0000000000000000E+00 
    0.0000000000000000E+00     7.5000000000034706E-01     0.0000000000000000E+00 
    0.0000000000000000E+00     6.8750000000078049E-01     0.0000000000000000E+00 
    0.0000000000000000E+00     6.2500000000121403E-01     0.0000000000000000E+00 
    0.0000000000000000E+00     5.6250000000164757E-01     0.0000000000000000E+00 
    0.0000000000000000E+00     5.0000000000205946E-01     0.0000000000000000E+00 
    0.0000000000000000E+00     4.3750000000182099E-01     0.0000000000000000E+00 
    0.0000000000000000E+00     3.7500000000156092E-01     0.0000000000000000E+00 
    0.0000000000000000E+00     3.1250000000130068E-01     0.0000000000000000E+00 
    0.0000000000000000E+00     2.5000000000104050E-01     0.0000000000000000E+00 
    0.0000000000000000E+00     1.8750000000078040E-01     0.0000000000000000E+00 
    0.0000000000000000E+00     1.2500000000052031E-01     0.0000000000000000E+00 
    0.0000000000000000E+00     6.2500000000260125E-02     0.0000000000000000E+00 
    6.2499999999897131E-02     6.2500000000235922E-02     0.0000000000000000E+00 
    6.2499999999921327E-02     1.2500000000047351E-01     0.0000000000000000E+00 
    6.2499999999945530E-02     1.8750000000070621E-01     0.0000000000000000E+00 
    6.2499999999969733E-02     2.5000000000093858E-01     0.0000000000000000E+00 
    6.2499999999993928E-02     3.1250000000117117E-01     0.0000000000000000E+00 
    6.2500000000018124E-02     3.7500000000140382E-01     0.0000000000000000E+00 
    6.2500000000042327E-02     4.3750000000163619E-01     0.0000000000000000E+00 
    6.2500000000066530E-02     5.0000000000184897E-01     0.0000000000000000E+00 
    6.2500000000090733E-02     5.6250000000147260E-01     0.0000000000000000E+00 
    6.2500000000114922E-02     6.2500000000107636E-01     0.0000000000000000E+00 
    6.2500000000139125E-02     6.8750000000068034E-01     0.0000000000000000E+00 
    6.2500000000163328E-02     7.5000000000028411E-01     0.0000000000000000E+00 
    6.2500000000187531E-02     8.1249999999988787E-01     0.0000000000000000E+00 
    6.2500000000211720E-02     8.7499999999951172E-01     0.0000000000000000E+00 
    6.2500000000235922E-02     9.3749999999974565E-01     0.0000000000000000E+00 
    1.2499999999981980E-01     6.2500000000211733E-02     0.0000000000000000E+00 
    1.2499999999986650E-01     1.2500000000042691E-01     0.0000000000000000E+00 
    1.2499999999991319E-01     1.8750000000063199E-01     0.0000000000000000E+00 
    1.2499999999995989E-01     2.5000000000083678E-01     0.0000000000000000E+00 
    1.2500000000000661E-01     3.1250000000104172E-01     0.0000000000000000E+00 
    1.2500000000005329E-01     3.7500000000124661E-01     0.0000000000000000E+00 
    1.2500000000010000E-01     4.3750000000145117E-01     0.0000000000000000E+00 
    1.2500000000014669E-01     5.0000000000163858E-01     0.0000000000000000E+00 
    1.2500000000019340E-01     5.6250000000129741E-01     0.0000000000000000E+00 
    1.2500000000024011E-01     6.2500000000093847E-01     0.0000000000000000E+00 
    1.2500000000028680E-01     6.8750000000057998E-01     0.0000000000000000E+00 
    1.2500000000033351E-01     7.5000000000022127E-01     0.0000000000000000E+00 
    1.2500000000038020E-01     8.1249999999986211E-01     0.0000000000000000E+00 
    1.2500000000042691E-01     8.7499999999952238E-01     0.0000000000000000E+00 
    1.2500000000047359E-01     9.3749999999975164E-01     0.0000000000000000E+00 
    1.8749999999966760E-01     6.2500000000187531E-02     0.0000000000000000E+00 
    1.8749999999974179E-01     1.2500000000038020E-01     0.0000000000000000E+00 
    1.8749999999981601E-01     1.8750000000055780E-01     0.0000000000000000E+00 
    1.8749999999989009E-01     2.5000000000073502E-01     0.0000000000000000E+00 
    1.8749999999996431E-01     3.1250000000091221E-01     0.0000000000000000E+00 
    1.8750000000003850E-01     3.7500000000108941E-01     0.0000000000000000E+00 
    1.8750000000011269E-01     4.3750000000126649E-01     0.0000000000000000E+00 
    1.8750000000018691E-01     5.0000000000142808E-01     0.0000000000000000E+00 
    1.8750000000026110E-01     5.6250000000112244E-01     0.0000000000000000E+00 
    1.8750000000033529E-01     6.2500000000080080E-01     0.0000000000000000E+00 
    1.8750000000040951E-01     6.8750000000047962E-01     0.0000000000000000E+00 
    1.8750000000048361E-01     7.5000000000015843E-01     0.0000000000000000E+00 
    1.8750000000055780E-01     8.1249999999983680E-01     0.0000000000000000E+00 
    1.8750000000063199E-01     8.7499999999953304E-01     0.0000000000000000E+00 
    1.8750000000070621E-01     9.3749999999975764E-01     0.0000000000000000E+00 
    2.4999999999951281E-01     6.2500000000163314E-02     0.0000000000000000E+00 
    2.4999999999961461E-01     1.2500000000033351E-01     0.0000000000000000E+00 
    2.4999999999971650E-01     1.8750000000048361E-01     0.0000000000000000E+00 
    2.4999999999981831E-01     2.5000000000063310E-01     0.0000000000000000E+00 
    2.4999999999992020E-01     3.1250000000078260E-01     0.0000000000000000E+00 
    2.5000000000002198E-01     3.7500000000093209E-01     0.0000000000000000E+00 
    2.5000000000012390E-01     4.3750000000108180E-01     0.0000000000000000E+00 
    2.5000000000022571E-01     5.0000000000121769E-01     0.0000000000000000E+00 
    2.5000000000032763E-01     5.6250000000094724E-01     0.0000000000000000E+00 
    2.5000000000042938E-01     6.2500000000066314E-01     0.0000000000000000E+00 
    2.5000000000053119E-01     6.8750000000037925E-01     0.0000000000000000E+00 
[...]
CELL_DATA 256 
SCALARS Pressure double 1 
LOOKUP_TABLE default 

    1.0755080786268334E+00 
    1.0587673817528360E+00 
    1.0447375750345791E+00 
    1.0329230100485751E+00 
    1.0228215540693542E+00 
    1.0140836778608888E+00 
    1.0064690744165714E+00 
    9.9981300675529261E-01 
    9.9400303930980127E-01 
    9.8896305324580791E-01 
    9.8464170763571035E-01 
    9.8100245422309829E-01 
    9.7801027628884663E-01 
    9.7560676155292203E-01 
    9.7371572600438228E-01 
    9.7267136217637573E-01 
    1.0181179285914057E+00 
    1.0152846689151573E+00 
    1.0108956512009470E+00 
    1.0057796631886995E+00 
    1.0004072320067192E+00 
    9.9506204414591382E-01 
    9.8991822389242246E-01 
    9.8508500990605052E-01 
    9.8063302797809559E-01 
    9.7660963548167967E-01 
    9.7304720060725070E-01 
    9.6996536641544484E-01 
    9.6736438237019873E-01 
    9.6520170794504301E-01 
    9.6343579261222689E-01 
    9.6245505472100046E-01 
    9.7787254872225471E-01 
    9.7690879115660956E-01 
    9.7512361312493423E-01 
    9.7271975147442324E-01 
    9.6989252380697621E-01 
    9.6681270108863504E-01 
    9.6362298444160788E-01 
    9.6043998272014375E-01 
    9.5735794720203882E-01 
    9.5445235346563906E-01 
    9.5178196508223667E-01 
    9.4938714279825531E-01 
    9.4727874845845195E-01 
    9.4540745239944812E-01 
    9.4382036748203968E-01 
    9.4296443377052308E-01 
    9.3995129935750332E-01 
    9.3945664185172539E-01 
    9.3850089063129016E-01 
    9.3714872456081122E-01 
    9.3547805987385235E-01 
    9.3357128738451478E-01 
    9.3150949557896967E-01 
    9.2936893152629574E-01 
    9.2721888193405377E-01 
    9.2512003090324035E-01 
    9.2312184850217238E-01 
    9.2125582444718568E-01 
    9.1951640115893096E-01 
    9.1782770252308465E-01 
    9.1638737244143165E-01 
    9.1566024470753304E-01 
    9.0081039914613459E-01 
    9.0049109011479522E-01 
    8.9986723351005926E-01 
    8.9896895960613554E-01 
    8.9783506588801465E-01 
    8.9650991297050442E-01 
    8.9504069218957238E-01 
    8.9347501616370983E-01 
    8.9185861458348226E-01 
    8.9023249532482129E-01 
    8.8862789086344773E-01 
    8.8705434091596713E-01 
    8.8546789740686693E-01 
    8.8382760077206046E-01 
    8.8252742982993249E-01 
    8.8191337837531014E-01 
    8.5928653319446102E-01 
    8.5904234580202321E-01 
    8.5856300902070759E-01 
    8.5786684137039693E-01 
    8.5697760963148950E-01 
    8.5592304094151728E-01 
    8.5473332786380474E-01 
    8.5343941370059428E-01 
    8.5207069010940240E-01 
    8.5065110310115311E-01 
    8.4919083073631840E-01 
    8.4766488959719966E-01 
    8.4597452789961369E-01 
    8.4427108216187907E-01 
    8.4311626406835438E-01 
    8.4260241421157001E-01 
    8.1494784737709569E-01 
    8.1473048410972837E-01 
    8.1430207851758940E-01 
    8.1367556068178537E-01 
    8.1286768372815932E-01 
    8.1189788255728390E-01 
    8.1078697895117791E-01 
    8.0955530497408235E-01 
    8.0821947697664775E-01 
    8.0678577385244343E-01 
    8.0523398787903144E-01 
    8.0347741799375805E-01 
    8.0150124857211502E-01 
    7.9980394249672715E-01 
    7.9878325514682935E-01 
    7.9832025704333387E-01 
    7.6765904038462973E-01 
    7.6743591087974838E-01 
    7.6699412038440196E-01 
    7.6634344369506613E-01 
    7.6549665933532174E-01 
    7.6446822596042641E-01 
    7.6327251034151056E-01 
    7.6192074649368757E-01 
    7.6041493479099465E-01 
    7.5873354263769421E-01 
    7.5679696318274181E-01 
    7.5453652185021636E-01 
    7.5233513663552332E-01 
    7.5078606175562068E-01 
    7.4986871880011030E-01 
    7.4941907837397204E-01 
    7.1742504204702440E-01 
    7.1716373538952938E-01 
    7.1664370226199248E-01 
    7.1587209262732088E-01 
    7.1485848995925605E-01 
    7.1361279432067104E-01 
    7.1214179957984503E-01 
    7.1044242768941523E-01 
    7.0848653202184264E-01 
    7.0619013882620119E-01 
    7.0350732876305933E-01 
    7.0079679502423653E-01 
    6.9870472552605267E-01 
    6.9732827982246515E-01 
    6.9645745615817889E-01 
    6.9602154134138750E-01 
    6.6430298291073542E-01 
    6.6395826897192989E-01 
    6.6326838897133233E-01 
    6.6223653954342432E-01 
    6.6086695824442110E-01 
    6.5916037502321501E-01 
    6.5710497314905914E-01 
    6.5465702504397694E-01 
    6.5174546329065575E-01 
    6.4844754899178914E-01 
    6.4522157476273756E-01 
    6.4265572276529659E-01 
    6.4084633935086410E-01 
    6.3956232129996826E-01 
    6.3869907564788719E-01 
    6.3826485614326189E-01 
    6.0825647090394752E-01 
    6.0774723886816873E-01 
    6.0672243783744617E-01 
    6.0517533700046966E-01 
    6.0309144645488633E-01 
    6.0044331806291340E-01 
    5.9721928793791146E-01 
    5.9351427432632353E-01 
    5.8960823001121898E-01 
    5.8599260800526209E-01 
    5.8305756918945262E-01 
    5.8079091616421585E-01 
    5.7899656133187183E-01 
    5.7760382313455028E-01 
    5.7665043369035873E-01 
    5.7616597590047502E-01 
    5.4878113818045715E-01 
    5.4793170540667524E-01 
    5.4624991669465151E-01 
    5.4378083547227618E-01 
    5.4060817390339111E-01 
    5.3686977741809394E-01 
    5.3277748683719450E-01 
    5.2863842880392720E-01 
    5.2477093645911377E-01 
    5.2134060780354829E-01 
    5.1829505229111961E-01 
    5.1555189639928700E-01 
    5.1316537786310312E-01 
    5.1125183771619354E-01 
    5.0991247518981109E-01 
    5.0922251776017147E-01 
    4.8818536821437930E-01 
    4.8717598435702086E-01 
    4.8521467773570232E-01 
    4.8240255607840232E-01 
    4.7888007281008288E-01 
    4.7482373571253206E-01 
    4.7041991576622849E-01 
    4.6581741738079818E-01 
    4.6108190228381518E-01 
    4.5623888178140976E-01 
    4.5139785298438229E-01 
    4.4677045083484279E-01 
    4.4260441121266958E-01 
    4.3915807609258717E-01 
    4.3668046572192010E-01 
    4.3537948532451853E-01 
    4.3817715141870783E-01 
    4.3703029537168703E-01 
    4.3476021735632259E-01 
    4.3140456386716292E-01 
    4.2700806916427297E-01 
    4.2161534460717170E-01 
    4.1526916306252032E-01 
    4.0802753091782418E-01 
    3.9999820226356170E-01 
    3.9135974735645013E-01 
    3.8236855462526581E-01 
    3.7337538020417238E-01 
    3.6484639954135734E-01 
    3.5737706697487265E-01 
    3.5168215652151830E-01 
    3.4852664891564800E-01 
    4.0331000987181786E-01 
    4.0174798496442271E-01 
    3.9861338132545987E-01 
    3.9388407476399778E-01 
    3.8752784179456945E-01 
    3.7950400053672850E-01 
    3.6976790632271350E-01 
    3.5827948477087096E-01 
    3.4501821731706372E-01 
    3.3000807315844094E-01 
    3.1335907316671680E-01 
    2.9533837199047019E-01 
    2.7649190690649678E-01 
    2.5785183672557971E-01 
    2.4128981884612200E-01 
    2.3011873644815950E-01 
    3.8429737156037791E-01 
    3.8239611138925939E-01 
    3.7855966807137820E-01 
    3.7271785543692398E-01 
    3.6475942135474737E-01 
    3.5452414527680853E-01 
    3.4179088367414751E-01 
    3.2625991980666247E-01 
    3.0752699944274514E-01 
    2.8504495729135526E-01 
    2.5806660355326205E-01 
    2.2555900285383468E-01 
    1.8607346524076118E-01 
    1.3754608346113992E-01 
    7.6988126355103284E-02 
    0.0000000000000000E+00 

SCALARS Saturarion double 1 
LOOKUP_TABLE default 

    1.0000000000000000E+00 
    9.4304594757243709E-01 
    9.0470528381931392E-01 
    8.6692414269060625E-01 
    8.2899620704259658E-01 
    7.9089467379294631E-01 
    7.5263972608432006E-01 
    7.1414656433763590E-01 
    6.7515829626195278E-01 
    6.3516564135059994E-01 
    5.9322358955397592E-01 
    5.4743226844296211E-01 
    4.9320414011998559E-01 
    4.1692099689316514E-01 
    2.7211290166845009E-01 
    4.5377828257178253E-02 
    8.8164371832455923E-01 
    8.5688924271516709E-01 
    8.2927907740365470E-01 
    8.0014061766105993E-01 
    7.6993132206623227E-01 
    7.3887751425305603E-01 
    7.0704632343698937E-01 
    6.7435728924122185E-01 
    6.4055746366159649E-01 
    6.0514149560420327E-01 
    5.6714067696432258E-01 
    5.2451147405530341E-01 
    4.7208003862573245E-01 
    3.9400290681661854E-01 
    2.3342348591463694E-01 
    2.4032630270490168E-02 
    7.9450682110095605E-01 
    7.7793261308596773E-01 
    7.5770899556452387E-01 
    7.3535399516923960E-01 
    7.1144376583662228E-01 
    6.8624269580286379E-01 
    6.5983064640586242E-01 
    6.3212966169414908E-01 
    6.0287911965687646E-01 
    5.7154152757311272E-01 
    5.3704289696943541E-01 
    4.9699364480105296E-01 
    4.4508358265714321E-01 
    3.6113225746379812E-01 
    1.7006532439689093E-01 
    7.0637009656975818E-03 
    7.2398623594296818E-01 
    7.1174827421687936E-01 
    6.9614418004237788E-01 
    6.7841054189257455E-01 
    6.5901083002536964E-01 
    6.3814389175935993E-01 
    6.1584638918538448E-01 
    5.9200485545080506E-01 
    5.6631429911753428E-01 
    5.3815111273739358E-01 
    5.0622154980333167E-01 
    4.6750168779127244E-01 
    4.1367220528837551E-01 
    3.1520953902030668E-01 
    8.7919944677121165E-02 
    8.3433207098131752E-04 
    6.6619040348755731E-01 
    6.5651006963875713E-01 
    6.4384584026446656E-01 
    6.2921140940599951E-01 
    6.1295560436524588E-01 
    5.9519925251345485E-01 
    5.7591795649604527E-01 
    5.5493864777551194E-01 
    5.3187386596283848E-01 
    5.0593975402999669E-01 
    4.7545258663627915E-01 
    4.3629978825708399E-01 
    3.7638578282471552E-01 
    2.4350963789835911E-01 
    2.4513729515707655E-02 
    2.3750425574156442E-05 
    6.1719785565699237E-01 
    6.0917652976678149E-01 
    5.9849968123318886E-01 
    5.8601888953346681E-01 
    5.7199490649251106E-01 
    5.5648014034598148E-01 
    5.3938468293457087E-01 
    5.2045495812281306E-01 
    4.9917178777328397E-01 
    4.7447756065412960E-01 
    4.4401272426383304E-01 
    4.0164746973798654E-01 
    3.2649420784368027E-01 
    1.2797607392060856E-01 
    2.2156918502260776E-03 
    4.9782463156344197E-08 
    5.7405028109512779E-01 
    5.6716993137657135E-01 
    5.5789907315790765E-01 
    5.4696047024585537E-01 
    5.3454174242098884E-01 
    5.2062944819300960E-01 
    5.0505561110581731E-01 
    4.8744907907536988E-01 
    4.6707326353506545E-01 
    4.4238573123061520E-01 
    4.0973337316163561E-01 
    3.5840962155470341E-01 
    2.4140152903542811E-01 
    2.5827178954988681E-02 
    2.1965610277395422E-05 
    5.9193865298824341E-13 
    5.3443069421341838E-01 
    5.2834831731131016E-01 
    5.2008142270447510E-01 
    5.1023869311310188E-01 
    4.9893459455145367E-01 
    4.8607636389865588E-01 
    4.7138258417993362E-01 
    4.5428401511140437E-01 
    4.3363864714760464E-01 
    4.0690225678369057E-01 
    3.6728225710992557E-01 
    2.8957587003878366E-01 
    9.0850170480206396E-02 
    6.8569067294148767E-04 
    1.6054365714627217E-09 
    2.0493301542939908E-23 
    4.9615010476834748E-01 
    4.9059072701578743E-01 
    4.8298822379271922E-01 
    4.7383597738755168E-01 
    4.6315533580987500E-01 
    4.5072988158889071E-01 
    4.3607226070818511E-01 
    4.1820531525575816E-01 
    3.9503218411429564E-01 
    3.6121381758032145E-01 
    2.9874922427372202E-01 
    1.4143148120477045E-01 
    4.3245034750864740E-03 
    1.1935703644648412E-07 
    2.5171947649276724E-19 
    6.1619732137418919E-49 
    4.5636135249032433E-01 
    4.5101879870935602E-01 
    4.4367419909197542E-01 
    4.3467869309400808E-01 
    4.2389455301513529E-01 
    4.1084663928840948E-01 
    3.9454471305582595E-01 
    3.7284570111338067E-01 
    3.4029699588728046E-01 
    2.7930447472958009E-01 
    1.3891879164003237E-01 
    8.7101227594266785E-03 
    1.0550945331294356E-06 
    3.1266671778822148E-17 
    1.8692756269305358E-44 
   1.3211168858097727E-114 
    4.0959504242706452E-01 
    4.0390068167748899E-01 
    3.9599100219788980E-01 
    3.8595874584057671E-01 
    3.7324723384044967E-01 
    3.5653065302231512E-01 
    3.3278212244071803E-01 
    2.9417281660484895E-01 
    2.1869484027884931E-01 
    8.8681302337696402E-02 
    6.1124954439372601E-03 
    2.2961550004457667E-06 
    3.3570722587028899E-16 
    3.6986511210149024E-42 
   1.2442875600787754E-109 
   1.4350794468153162E-284 
    3.4034980320424912E-01 
    3.3237517199483047E-01 
    3.2081749284619393E-01 
    3.0478032257004189E-01 
    2.8168811709593777E-01 
    2.4602329904771386E-01 
    1.8795597575131118E-01 
    1.0457761503465757E-01 
    2.8442465494539292E-02 
    1.3638887250358195E-03 
    7.5413018599022516E-07 
    7.1770652595929402E-16 
    4.5479908744784759E-41 
   4.3322872759205920E-107 
   6.5741620721696562E-279 
    0.0000000000000000E+00 
    1.9621601607739747E-01 
    1.7997640866181183E-01 
    1.5650140422572584E-01 
    1.2556972946035888E-01 
    8.8059459680027083E-02 
    4.8582387987306457E-02 
    1.6982912457244988E-02 
    2.4225122446878637E-03 
    5.2719669585106627E-05 
    1.4601942835355272E-08 
    3.7263519408621981E-17 
    8.2540986944052108E-41 
   4.8081599515536959E-106 
   2.4236163662102417E-276 
    0.0000000000000000E+00 
    0.0000000000000000E+00 
    2.2770851027997453E-02 
    1.6682628908331925E-02 
    1.0234948758083715E-02 
    4.9121742194986693E-03 
    1.6067464146663252E-03 
    2.7432058373486946E-04 
    1.4437663520779108E-05 
    7.6687552291678834E-08 
    3.0757543802973274E-12 
    1.2724437640760526E-21 
    3.4975447515940732E-44 
   5.7125966693380162E-106 
   1.4179911314230671E-275 
    0.0000000000000000E+00 
    0.0000000000000000E+00 
    0.0000000000000000E+00 
    3.7668356739301571E-05 
    1.6256677907712277E-05 
    4.4039084548783256E-06 
    6.3076805126590821E-07 
    3.3258206376647764E-08 
    3.2058220846377786E-10 
    1.4121544577620499E-13 
    1.4339682951157377E-19 
    3.9136862306432045E-31 
    9.2816651785109376E-56 
   8.0889535873659990E-115 
   8.0438601086826947E-276 
    0.0000000000000000E+00 
    0.0000000000000000E+00 
    0.0000000000000000E+00 
    0.0000000000000000E+00 
    3.0294906278287067E-12 
    3.5407122661483616E-13 
    1.2282631094419480E-14 
    7.9702763719797056E-17 
    3.7124221503401039E-20 
    1.9795134741099217E-25 
    2.9802987763524858E-34 
    5.6788702413672473E-50 
    2.4106339816084468E-80 
   8.3250722798756076E-145 
   5.7786353841508833E-299 
    0.0000000000000000E+00 
    0.0000000000000000E+00 
    0.0000000000000000E+00 
    0.0000000000000000E+00 
    0.0000000000000000E+00 
