# vtk DataFile Version 2.0
Pressure Field Data 
ASCII 
DATASET UNSTRUCTURED_GRID 

POINTS 289 double 

    0.0000000000000000E+00     0.0000000000000000E+00     0.0000000000000000E+00 
    1.0000000000000000E+00     0.0000000000000000E+00     0.0000000000000000E+00 
    1.0000000000000000E+00     1.0000000000000000E+00     0.0000000000000000E+00 
    0.0000000000000000E+00     1.0000000000000000E+00     0.0000000000000000E+00 
    6.2499999999872928E-02     0.0000000000000000E+00     0.0000000000000000E+00 
    1.2499999999977310E-01     0.0000000000000000E+00     0.0000000000000000E+00 
    1.8749999999959341E-01     0.0000000000000000E+00     0.0000000000000000E+00 
    2.4999999999941089E-01     0.0000000000000000E+00     0.0000000000000000E+00 
    3.1249999999922851E-01     0.0000000000000000E+00     0.0000000000000000E+00 
    3.7499999999904610E-01     0.0000000000000000E+00     0.0000000000000000E+00 
    4.3749999999886358E-01     0.0000000000000000E+00     0.0000000000000000E+00 
    4.9999999999869210E-01     0.0000000000000000E+00     0.0000000000000000E+00 
    5.6249999999884603E-01     0.0000000000000000E+00     0.0000000000000000E+00 
    6.2499999999901090E-01     0.0000000000000000E+00     0.0000000000000000E+00 
    6.8749999999917577E-01     0.0000000000000000E+00     0.0000000000000000E+00 
    7.4999999999934064E-01     0.0000000000000000E+00     0.0000000000000000E+00 
    8.1249999999950551E-01     0.0000000000000000E+00     0.0000000000000000E+00 
    8.7499999999967026E-01     0.0000000000000000E+00     0.0000000000000000E+00 
    9.3749999999983513E-01     0.0000000000000000E+00     0.0000000000000000E+00 
    1.0000000000000000E+00     6.2499999999872928E-02     0.0000000000000000E+00 
    1.0000000000000000E+00     1.2499999999977310E-01     0.0000000000000000E+00 
    1.0000000000000000E+00     1.8749999999959341E-01     0.0000000000000000E+00 
    1.0000000000000000E+00     2.4999999999941089E-01     0.0000000000000000E+00 
    1.0000000000000000E+00     3.1249999999922851E-01     0.0000000000000000E+00 
    1.0000000000000000E+00     3.7499999999904610E-01     0.0000000000000000E+00 
    1.0000000000000000E+00     4.3749999999886358E-01     0.0000000000000000E+00 
    1.0000000000000000E+00     4.9999999999869210E-01     0.0000000000000000E+00 
    1.0000000000000000E+00     5.6249999999884603E-01     0.0000000000000000E+00 
    1.0000000000000000E+00     6.2499999999901090E-01     0.0000000000000000E+00 
    1.0000000000000000E+00     6.8749999999917577E-01     0.0000000000000000E+00 
    1.0000000000000000E+00     7.4999999999934064E-01     0.0000000000000000E+00 
    1.0000000000000000E+00     8.1249999999950551E-01     0.0000000000000000E+00 
    1.0000000000000000E+00     8.7499999999967026E-01     0.0000000000000000E+00 
    1.0000000000000000E+00     9.3749999999983513E-01     0.0000000000000000E+00 
    9.3749999999973976E-01     1.0000000000000000E+00     0.0000000000000000E+00 
    8.7499999999950118E-01     1.0000000000000000E+00     0.0000000000000000E+00 
    8.1249999999991318E-01     1.0000000000000000E+00     0.0000000000000000E+00 
    7.5000000000034706E-01     1.0000000000000000E+00     0.0000000000000000E+00 
    6.8750000000078049E-01     1.0000000000000000E+00     0.0000000000000000E+00 
    6.2500000000121403E-01     1.0000000000000000E+00     0.0000000000000000E+00 
    5.6250000000164757E-01     1.0000000000000000E+00     0.0000000000000000E+00 
    5.0000000000205946E-01     1.0000000000000000E+00     0.0000000000000000E+00 
    4.3750000000182099E-01     1.0000000000000000E+00     0.0000000000000000E+00 
    3.7500000000156092E-01     1.0000000000000000E+00     0.0000000000000000E+00 
    3.1250000000130068E-01     1.0000000000000000E+00     0.0000000000000000E+00 
    2.5000000000104050E-01     1.0000000000000000E+00     0.0000000000000000E+00 
    1.8750000000078040E-01     1.0000000000000000E+00     0.0000000000000000E+00 
    1.2500000000052031E-01     1.0000000000000000E+00     0.0000000000000000E+00 
    6.2500000000260125E-02     1.0000000000000000E+00     0.0000000000000000E+00 
    0.0000000000000000E+00     9.3749999999973976E-01     0.0000000000000000E+00 
    0.0000000000000000E+00     8.7499999999950118E-01     0.0000000000000000E+00 
    0.0000000000000000E+00     8.1249999999991318E-01     0.0000000000000000E+00 
    0.0000000000000000E+00     7.5000000000034706E-01     0.0000000000000000E+00 
    0.0000000000000000E+00     6.8750000000078049E-01     0.0000000000000000E+00 
    0.0000000000000000E+00     6.2500000000121403E-01     0.0000000000000000E+00 
    0.0000000000000000E+00     5.6250000000164757E-01     0.0000000000000000E+00 
    0.0000000000000000E+00     5.0000000000205946E-01     0.0000000000000000E+00 
    0.0000000000000000E+00     4.3750000000182099E-01     0.0000000000000000E+00 
    0.0000000000000000E+00     3.7500000000156092E-01     0.0000000000000000E+00 
    0.0000000000000000E+00     3.1250000000130068E-01     0.0000000000000000E+00 
    0.0000000000000000E+00     2.5000000000104050E-01     0.0000000000000000E+00 
    0.0000000000000000E+00     1.8750000000078040E-01     0.0000000000000000E+00 
    0.0000000000000000E+00     1.2500000000052031E-01     0.0000000000000000E+00 
    0.0000000000000000E+00     6.2500000000260125E-02     0.0000000000000000E+00 
    6.2499999999897131E-02     6.2500000000235922E-02     0.0000000000000000E+00 
    6.2499999999921327E-02     1.2500000000047351E-01     0.0000000000000000E+00 
    6.2499999999945530E-02     1.8750000000070621E-01     0.0000000000000000E+00 
    6.2499999999969733E-02     2.5000000000093858E-01     0.0000000000000000E+00 
    6.2499999999993928E-02     3.1250000000117117E-01     0.0000000000000000E+00 
    6.2500000000018124E-02     3.7500000000140382E-01     0.0000000000000000E+00 
    6.2500000000042327E-02     4.3750000000163619E-01     0.0000000000000000E+00 
    6.2500000000066530E-02     5.0000000000184897E-01     0.0000000000000000E+00 
    6.2500000000090733E-02     5.6250000000147260E-01     0.0000000000000000E+00 
    6.2500000000114922E-02     6.2500000000107636E-01     0.0000000000000000E+00 
    6.2500000000139125E-02     6.8750000000068034E-01     0.0000000000000000E+00 
    6.2500000000163328E-02     7.5000000000028411E-01     0.0000000000000000E+00 
    6.2500000000187531E-02     8.1249999999988787E-01     0.0000000000000000E+00 
    6.2500000000211720E-02     8.7499999999951172E-01     0.0000000000000000E+00 
    6.2500000000235922E-02     9.3749999999974565E-01     0.0000000000000000E+00 
    1.2499999999981980E-01     6.2500000000211733E-02     0.0000000000000000E+00 
    1.2499999999986650E-01     1.2500000000042691E-01     0.0000000000000000E+00 
    1.2499999999991319E-01     1.8750000000063199E-01     0.0000000000000000E+00 
    1.2499999999995989E-01     2.5000000000083678E-01     0.0000000000000000E+00 
    1.2500000000000661E-01     3.1250000000104172E-01     0.0000000000000000E+00 
    1.2500000000005329E-01     3.7500000000124661E-01     0.0000000000000000E+00 
    1.2500000000010000E-01     4.3750000000145117E-01     0.0000000000000000E+00 
    1.2500000000014669E-01     5.0000000000163858E-01     0.0000000000000000E+00 
    1.2500000000019340E-01     5.6250000000129741E-01     0.0000000000000000E+00 
    1.2500000000024011E-01     6.2500000000093847E-01     0.0000000000000000E+00 
    1.2500000000028680E-01     6.8750000000057998E-01     0.0000000000000000E+00 
    1.2500000000033351E-01     7.5000000000022127E-01     0.0000000000000000E+00 
    1.2500000000038020E-01     8.1249999999986211E-01     0.0000000000000000E+00 
    1.2500000000042691E-01     8.7499999999952238E-01     0.0000000000000000E+00 
    1.2500000000047359E-01     9.3749999999975164E-01     0.0000000000000000E+00 
    1.8749999999966760E-01     6.2500000000187531E-02     0.0000000000000000E+00 
    1.8749999999974179E-01     1.2500000000038020E-01     0.0000000000000000E+00 
    1.8749999999981601E-01     1.8750000000055780E-01     0.0000000000000000E+00 
    1.8749999999989009E-01     2.5000000000073502E-01     0.0000000000000000E+00 
    1.8749999999996431E-01     3.1250000000091221E-01     0.0000000000000000E+00 
    1.8750000000003850E-01     3.7500000000108941E-01     0.0000000000000000E+00 
    1.8750000000011269E-01     4.3750000000126649E-01     0.0000000000000000E+00 
    1.8750000000018691E-01     5.0000000000142808E-01     0.0000000000000000E+00 
    1.8750000000026110E-01     5.6250000000112244E-01     0.0000000000000000E+00 
    1.8750000000033529E-01     6.2500000000080080E-01     0.0000000000000000E+00 
    1.8750000000040951E-01     6.8750000000047962E-01     0.0000000000000000E+00 
    1.8750000000048361E-01     7.5000000000015843E-01     0.0000000000000000E+00 
    1.8750000000055780E-01     8.1249999999983680E-01     0.0000000000000000E+00 
    1.8750000000063199E-01     8.7499999999953304E-01     0.0000000000000000E+00 
    1.8750000000070621E-01     9.3749999999975764E-01     0.0000000000000000E+00 
    2.4999999999951281E-01     6.2500000000163314E-02     0.0000000000000000E+00 
    2.4999999999961461E-01     1.2500000000033351E-01     0.0000000000000000E+00 
    2.4999999999971650E-01     1.8750000000048361E-01     0.0000000000000000E+00 
    2.4999999999981831E-01     2.5000000000063310E-01     0.0000000000000000E+00 
    2.4999999999992020E-01     3.1250000000078260E-01     0.0000000000000000E+00 
    2.5000000000002198E-01     3.7500000000093209E-01     0.0000000000000000E+00 
    2.5000000000012390E-01     4.3750000000108180E-01     0.0000000000000000E+00 
    2.5000000000022571E-01     5.0000000000121769E-01     0.0000000000000000E+00 
    2.5000000000032763E-01     5.6250000000094724E-01     0.0000000000000000E+00 
    2.5000000000042938E-01     6.2500000000066314E-01     0.0000000000000000E+00 
    2.5000000000053119E-01     6.8750000000037925E-01     0.0000000000000000E+00 
[...]
CELL_DATA 256 
SCALARS Pressure double 1 
LOOKUP_TABLE default 

    1.0231708650064382E+00 
    1.0066318905771530E+00 
    9.9292757414414712E-01 
    9.8148406843807323E-01 
    9.7177795112566479E-01 
    9.6344586777525454E-01 
    9.5623729752203868E-01 
    9.4997949805967041E-01 
    9.4455361525097503E-01 
    9.3987853306319524E-01 
    9.3589971156978136E-01 
    9.3258073638983274E-01 
    9.2989473296021508E-01 
    9.2781050226783124E-01 
    9.2627199313269104E-01 
    9.2538131042456240E-01 
    9.6734158738140630E-01 
    9.6461524782433661E-01 
    9.6042468877859832E-01 
    9.5556764477230927E-01 
    9.5049677197334348E-01 
    9.4548112405323470E-01 
    9.4068265054594147E-01 
    9.3620048741247641E-01 
    9.3209699310989313E-01 
    9.2841307967839959E-01 
    9.2517698826881190E-01 
    9.2240841986544964E-01 
    9.2011758650318920E-01 
    9.1829533899593985E-01 
    9.1689474928390191E-01 
    9.1606246126464486E-01 
    9.2931965279680950E-01 
    9.2842293024405564E-01 
    9.2676822806454162E-01 
    9.2454847074197766E-01 
    9.2194868042670242E-01 
    9.1912962489925532E-01 
    9.1622467544457742E-01 
    9.1334204567012234E-01 
    9.1056878011219511E-01 
    9.0797477413261851E-01 
    9.0561590993999452E-01 
    9.0353534426600235E-01 
    9.0176074576556497E-01 
    9.0029244356258142E-01 
    8.9908705658756993E-01 
    8.9834739917713691E-01 
    8.9408488722409729E-01 
    8.9364289827249865E-01 
    8.9279046027796094E-01 
    8.9158725447701648E-01 
    8.9010527805501127E-01 
    8.8842064334103965E-01 
    8.8660819132515156E-01 
    8.8473831850750495E-01 
    8.8287531883115378E-01 
    8.8107655606331425E-01 
    8.7939171139660566E-01 
    8.7786087041772265E-01 
    8.7650869572417445E-01 
    8.7532845167590900E-01 
    8.7428817161712613E-01 
    8.7364644405602687E-01 
    8.5808787364306427E-01 
    8.5781531511060194E-01 
    8.5728359661134601E-01 
    8.5651971097876078E-01 
    8.5555867675290931E-01 
    8.5444078432035664E-01 
    8.5320915913346518E-01 
    8.5190772205933041E-01 
    8.5057949555093060E-01 
    8.4926502548687288E-01 
    8.4800036455858141E-01 
    8.4681325139025054E-01 
    8.4571390242159949E-01 
    8.4467061236901719E-01 
    8.4370476178736176E-01 
    8.4314853782270227E-01 
    8.2016883869315482E-01 
    8.1997010047903240E-01 
    8.1958088720095490E-01 
    8.1901761368620307E-01 
    8.1830177786266733E-01 
    8.1745878387917126E-01 
    8.1651677963699043E-01 
    8.1550546944535696E-01 
    8.1445483144091557E-01 
    8.1339349299979680E-01 
    8.1234608230870886E-01 
    8.1132768930177035E-01 
    8.1032986915215688E-01 
    8.0928516891500890E-01 
    8.0831604785304623E-01 
    8.0781435594130235E-01 
    7.7990979420483830E-01 
    7.7974010423421936E-01 
    7.7940695515826264E-01 
    7.7892260152836523E-01 
    7.7830311028990540E-01 
    7.7756761961378462E-01 
    7.7673760189272101E-01 
    7.7583599738428510E-01 
    7.7488607248221153E-01 
    7.7390963966010751E-01 
    7.7292365962068321E-01 
    7.7193232007598622E-01 
    7.7090474958766453E-01 
    7.6977587150697269E-01 
    7.6880590999234455E-01 
    7.6833770617252428E-01 
    7.3721099932448453E-01 
    7.3704125348715188E-01 
    7.3670708899267423E-01 
    7.3621918928711305E-01 
    7.3559176367445256E-01 
    7.3484186987285216E-01 
    7.3398871860325710E-01 
    7.3305273973647289E-01 
    7.3205414067279673E-01 
    7.3101032390099230E-01 
    7.2993039903394796E-01 
    7.2880102341147823E-01 
    7.2754565614654443E-01 
    7.2621425545475649E-01 
    7.2525850361472632E-01 
    7.2483190442959489E-01 
    6.9216509862123632E-01 
    6.9196782155915293E-01 
    6.9157832515616602E-01 
    6.9100730292754242E-01 
    6.9026945952760443E-01 
    6.8938276018887823E-01 
    6.8836760664403274E-01 
    6.8724561612091961E-01 
    6.8603753714911986E-01 
    6.8475913280382250E-01 
    6.8341142541723399E-01 
    6.8195249910620759E-01 
    6.8028750523111992E-01 
    6.7870924974845248E-01 
    6.7772265562995981E-01 
    6.7729023368476493E-01 
    6.4504100367725792E-01 
    6.4478094259300622E-01 
    6.4426603807791116E-01 
    6.4350824529122619E-01 
    6.4252477122814911E-01 
    6.4133718154499098E-01 
    6.3997030270395949E-01 
    6.3845040047166979E-01 
    6.3680169856463598E-01 
    6.3503860802055123E-01 
    6.3314460549058560E-01 
    6.3102120928186922E-01 
    6.2876623234784113E-01 
    6.2700557128118650E-01 
    6.2595638525812780E-01 
    6.2545498950213141E-01 
    5.9632698994468514E-01 
    5.9595200428900263E-01 
    5.9520748906663457E-01 
    5.9410745547981714E-01 
    5.9267316228371403E-01 
    5.9093208977402190E-01 
    5.8891643721912623E-01 
    5.8666012578483562E-01 
    5.8419192623464544E-01 
    5.8151710967075854E-01 
    5.7856692832670709E-01 
    5.7534213359530306E-01 
    5.7244968169429022E-01 
    5.7045795338156180E-01 
    5.6922628724243063E-01 
    5.6860661239208332E-01 
    5.4679075433334023E-01 
    5.4622186326489663E-01 
    5.4508875684266367E-01 
    5.4340656705917567E-01 
    5.4119981458635580E-01 
    5.3850131944498403E-01 
    5.3535026923699003E-01 
    5.3178670463851241E-01 
    5.2783255394257700E-01 
    5.2344556611538573E-01 
    5.1868084306948925E-01 
    5.1414948171774932E-01 
    5.1062663763289584E-01 
    5.0811674373389437E-01 
    5.0642400952879740E-01 
    5.0556148788507838E-01 
    4.9742304555396966E-01 
    4.9654246363482341E-01 
    4.9478246834902145E-01 
    4.9215392350255327E-01 
    4.8867420613539941E-01 
    4.8436300198909993E-01 
    4.7923738935380400E-01 
    4.7331783887868123E-01 
    4.6668980565436546E-01 
    4.5960044395121108E-01 
    4.5269458323119538E-01 
    4.4674140547555924E-01 
    4.4189904510652450E-01 
    4.3805606063161556E-01 
    4.3531983175178490E-01 
    4.3389114694192477E-01 
    4.4911415670309318E-01 
    4.4774724141595357E-01 
    4.4502286303039079E-01 
    4.4095872554955401E-01 
    4.3557861916122803E-01 
    4.2892034266235191E-01 
    4.2104910401334844E-01 
    4.1209186737703868E-01 
    4.0234408726118526E-01 
    3.9232217034450451E-01 
    3.8253172227240695E-01 
    3.7321861032987036E-01 
    3.6453504054379510E-01 
    3.5693216189515214E-01 
    3.5114021327550121E-01 
    3.4793395790098303E-01 
    4.0885369996053017E-01 
    4.0707164709922172E-01 
    4.0351066316610429E-01 
    3.9817071347405414E-01 
    3.9105159370674653E-01 
    3.8216154065625990E-01 
    3.7152797023064432E-01 
    3.5920862991074576E-01 
    3.4531634378322545E-01 
    3.3000652790077406E-01 
    3.1330295969232547E-01 
    2.9526393918293858E-01 
    2.7638007492556582E-01 
    2.5769896287362393E-01 
    2.4110366234774444E-01 
    2.2991421511495599E-01 
    3.8777171212406980E-01 
    3.8573217802311499E-01 
    3.8163191126733115E-01 
    3.7542196682873752E-01 
    3.6702284151198072E-01 
    3.5631722089973500E-01 
    3.4313593497253980E-01 
    3.2722835781748261E-01 
    3.0821121818261776E-01 
    2.8552263404470407E-01 
    2.5839150088094143E-01 
    2.2576927717344494E-01 
    1.8619758726518829E-01 
    1.3760764859091959E-01 
    7.7008578488408988E-02 
    0.0000000000000000E+00 

SCALARS Saturarion double 1 
LOOKUP_TABLE default 

    1.0000000000000000E+00 
    9.5181847622860227E-01 
    9.1847582091479385E-01 
    8.8492414924252127E-01 
    8.5060711360498864E-01 
    8.1555917928198129E-01 
    7.7986404152424760E-01 
    7.4351504629937959E-01 
    7.0635206050428667E-01 
    6.6799637680112389E-01 
    6.2772038118121043E-01 
    5.8410790743124030E-01 
    5.3399203347352286E-01 
    4.6864739307434627E-01 
    3.5831569729862006E-01 
    1.2323927530273035E-01 
    8.9626436254059916E-01 
    8.7436240450185732E-01 
    8.4963113383365618E-01 
    8.2313992301951044E-01 
    7.9529740121889170E-01 
    7.6632644926026960E-01 
    7.3631621182795670E-01 
    7.0522820827485666E-01 
    6.7287561026780784E-01 
    6.3886447775805677E-01 
    6.0245055060263009E-01 
    5.6215679793786222E-01 
    5.1457370276192671E-01 
    4.5012207525022863E-01 
    3.3531235138519011E-01 
    9.2416206405049772E-02 
    8.1669692804783656E-01 
    8.0162325550512004E-01 
    7.8309218892940358E-01 
    7.6238940861933890E-01 
    7.4002333472795989E-01 
    7.1623931528036111E-01 
    6.9112416674957622E-01 
    6.6462915625780550E-01 
    6.3655355226851118E-01 
    6.0648112154865008E-01 
    5.7361624523748278E-01 
    5.3633229432149521E-01 
    4.9075525655516866E-01 
    4.2582619938770833E-01 
    3.0051419057677975E-01 
    5.4118810423788077E-02 
    7.5125697283840864E-01 
    7.3990236671444654E-01 
    7.2535870767046728E-01 
    7.0870479321021562E-01 
    6.9035385119349379E-01 
    6.7049128458091523E-01 
    6.4916294591594026E-01 
    6.2628884685866248E-01 
    6.0163784727843983E-01 
    5.7474953964827880E-01 
    5.4473409006896889E-01 
    5.0971558292109620E-01 
    4.6510609409318154E-01 
    3.9749159252856148E-01 
    2.5028092620271458E-01 
    2.2424496375395078E-02 
    6.9738128532803323E-01 
    6.8826965062385692E-01 
    6.7631793069206647E-01 
    6.6243635808202250E-01 
    6.4694228291098033E-01 
    6.2995403594413890E-01 
    6.1146701861611918E-01 
    5.9135858794762042E-01 
    5.6935166347135491E-01 
    5.4491547959529940E-01 
    5.1701234610193880E-01 
    4.8339421228487978E-01 
    4.3841785985684689E-01 
    3.6463244441543285E-01 
    1.7724157896705067E-01 
    5.6534263383894159E-03 
    6.5187695432787607E-01 
    6.4426284871608519E-01 
    6.3411295856117633E-01 
    6.2221322241890353E-01 
    6.0880980671137830E-01 
    5.9396683942326445E-01 
    5.7763338718753487E-01 
    5.5964062201983866E-01 
    5.3965238019937556E-01 
    5.1703678118834706E-01 
    4.9053799713753388E-01 
    4.5735683952757261E-01 
    4.1016057941392203E-01 
    3.2297203364404120E-01 
    8.8973598591405856E-02 
    6.7782897443695984E-04 
    6.1226190365471678E-01 
    6.0572416669989060E-01 
    5.9690946455135874E-01 
    5.8650271523821063E-01 
    5.7469523328408045E-01 
    5.6150686942586603E-01 
    5.4684370958094852E-01 
    5.3048637567889867E-01 
    5.1202373195041218E-01 
    4.9068382225657825E-01 
    4.6489733630013569E-01 
    4.3102630741041498E-01 
    3.7875553568168002E-01 
    2.6142634832367151E-01 
    2.7486414905185295E-02 
    3.0798133356442228E-05 
    5.7668101122469373E-01 
    5.7095989456216889E-01 
    5.6318870347411731E-01 
    5.5396199400102275E-01 
    5.4342398120875479E-01 
    5.3155407834621649E-01 
    5.1821389764755654E-01 
    5.0312383824968987E-01 
    4.8577354852501586E-01 
    4.6519305825557022E-01 
    4.3934229371512640E-01 
    4.0317248334619143E-01 
    3.4016104902788774E-01 
    1.6219642058549305E-01 
    4.2397935798314844E-03 
    2.7065887975755400E-07 
    5.4363506745308032E-01 
    5.3856068532863677E-01 
    5.3164448002527587E-01 
    5.2339331953681323E-01 
    5.1390570194577478E-01 
    5.0311864032874454E-01 
    4.9084154669389896E-01 
    4.7671602484139269E-01 
    4.6009059984729533E-01 
    4.3969270546400058E-01 
    4.1268359757275686E-01 
    3.7120100687296775E-01 
    2.8223568608788302E-01 
    5.3709836181558626E-02 
    1.7581297385505792E-04 
    1.3485811980388738E-10 
    5.1168287794513534E-01 
    5.0713954349752755E-01 
    5.0095669129885623E-01 
    4.9355032034921237E-01 
    4.8496959429722192E-01 
    4.7510168473463554E-01 
    4.6368840029886838E-01 
    4.5025990133774568E-01 
    4.3394649958034293E-01 
    4.1295705971880442E-01 
    3.8286879144908459E-01 
    3.2888634836482811E-01 
    1.7640959288009200E-01 
    6.6862296108670480E-03 
    7.7795694790674411E-07 
    2.1512272755625144E-16 
    4.7900553395193779E-01 
    4.7490741595394254E-01 
    4.6937841717151452E-01 
    4.6273665407683712E-01 
    4.5497390972072621E-01 
    4.4591369988949947E-01 
    4.3520233412589732E-01 
    4.2219613179873133E-01 
    4.0564309021541417E-01 
    3.8269800550028082E-01 
    3.4498174019738681E-01 
    2.5521319662483838E-01 
    4.5414187047136984E-02 
    1.0025507429725697E-04 
    1.3762828331170942E-11 
    4.6735220448576463E-29 
    4.4238707784178299E-01 
    4.3863856539400387E-01 
    4.3368145703286515E-01 
    4.2772806718190520E-01 
    4.2069847659250548E-01 
    4.1232575543403538E-01 
    4.0210156294489358E-01 
    3.8905909936616373E-01 
    3.7110556075498846E-01 
    3.4246361850087215E-01 
    2.8013336397649530E-01 
    1.0478540925915933E-01 
    1.3922880382884343E-03 
    5.6572908303779696E-09 
    1.7477462847460724E-23 
    1.5519384181398749E-62 
    3.9372559772452032E-01 
    3.9006388969598943E-01 
    3.8540103134686621E-01 
    3.7982998395661211E-01 
    3.7315451736895361E-01 
    3.6492018171538898E-01 
    3.5422396891285352E-01 
    3.3906886870869607E-01 
    3.1394319350432343E-01 
    2.5822566345099290E-01 
    1.1281791539041230E-01 
    3.7231550034325166E-03 
    7.8445693150706932E-08 
    5.7655328309133955E-21 
    3.4514257683518936E-57 
   1.0492850867001737E-155 
    3.0479427724957076E-01 
    2.9978579126323374E-01 
    2.9358005716577218E-01 
    2.8597795621436289E-01 
    2.7626259453353946E-01 
    2.6292097121493702E-01 
    2.4262474058135777E-01 
    2.0740215085760991E-01 
    1.4166790702890492E-01 
    5.0149049117650168E-02 
    2.1835467207356450E-03 
    1.2187867902817616E-07 
    3.5996076049539613E-20 
    3.0777481203455715E-55 
   2.6754639561727764E-151 
    0.0000000000000000E+00 
    1.1158034412814402E-01 
    1.0411626811054935E-01 
    9.5182059442422626E-02 
    8.4674473840654144E-02 
    7.2143149075071897E-02 
    5.6979012868226944E-02 
    3.8901319918851748E-02 
    1.9467792558069914E-02 
    4.6827725726692705E-03 
    1.6729270820941679E-04 
    1.9391466429689042E-08 
    2.2501927342133455E-20 
    5.9148323284730932E-55 
   3.3770389306405058E-150 
    0.0000000000000000E+00 
    0.0000000000000000E+00 
    2.6707893200114642E-03 
    2.1450586521657294E-03 
    1.6164891821746198E-03 
    1.1211490203853966E-03 
    6.8336280590618702E-04 
    3.3298181456310337E-04 
    1.0616944120620455E-04 
    1.4013943796252584E-05 
    2.4210244885636838E-07 
    1.7841129545042223E-11 
    1.4444851114532881E-22 
    9.0710101320597038E-56 
   1.5376498585091180E-150 
    0.0000000000000000E+00 
    0.0000000000000000E+00 
    0.0000000000000000E+00 
