# vtk DataFile Version 2.0
Pressure Field Data 
ASCII 
DATASET UNSTRUCTURED_GRID 

POINTS 289 double 

    0.0000000000000000E+00     0.0000000000000000E+00     0.0000000000000000E+00 
    1.0000000000000000E+00     0.0000000000000000E+00     0.0000000000000000E+00 
    1.0000000000000000E+00     1.0000000000000000E+00     0.0000000000000000E+00 
    0.0000000000000000E+00     1.0000000000000000E+00     0.0000000000000000E+00 
    6.2499999999872928E-02     0.0000000000000000E+00     0.0000000000000000E+00 
    1.2499999999977310E-01     0.0000000000000000E+00     0.0000000000000000E+00 
    1.8749999999959341E-01     0.0000000000000000E+00     0.0000000000000000E+00 
    2.4999999999941089E-01     0.0000000000000000E+00     0.0000000000000000E+00 
    3.1249999999922851E-01     0.0000000000000000E+00     0.0000000000000000E+00 
    3.7499999999904610E-01     0.0000000000000000E+00     0.0000000000000000E+00 
    4.3749999999886358E-01     0.0000000000000000E+00     0.0000000000000000E+00 
    4.9999999999869210E-01     0.0000000000000000E+00     0.0000000000000000E+00 
    5.6249999999884603E-01     0.0000000000000000E+00     0.0000000000000000E+00 
    6.2499999999901090E-01     0.0000000000000000E+00     0.0000000000000000E+00 
    6.8749999999917577E-01     0.0000000000000000E+00     0.0000000000000000E+00 
    7.4999999999934064E-01     0.0000000000000000E+00     0.0000000000000000E+00 
    8.1249999999950551E-01     0.0000000000000000E+00     0.0000000000000000E+00 
    8.7499999999967026E-01     0.0000000000000000E+00     0.0000000000000000E+00 
    9.3749999999983513E-01     0.0000000000000000E+00     0.0000000000000000E+00 
    1.0000000000000000E+00     6.2499999999872928E-02     0.0000000000000000E+00 
    1.0000000000000000E+00     1.2499999999977310E-01     0.0000000000000000E+00 
    1.0000000000000000E+00     1.8749999999959341E-01     0.0000000000000000E+00 
    1.0000000000000000E+00     2.4999999999941089E-01     0.0000000000000000E+00 
    1.0000000000000000E+00     3.1249999999922851E-01     0.0000000000000000E+00 
    1.0000000000000000E+00     3.7499999999904610E-01     0.0000000000000000E+00 
    1.0000000000000000E+00     4.3749999999886358E-01     0.0000000000000000E+00 
    1.0000000000000000E+00     4.9999999999869210E-01     0.0000000000000000E+00 
    1.0000000000000000E+00     5.6249999999884603E-01     0.0000000000000000E+00 
    1.0000000000000000E+00     6.2499999999901090E-01     0.0000000000000000E+00 
    1.0000000000000000E+00     6.8749999999917577E-01     0.0000000000000000E+00 
    1.0000000000000000E+00     7.4999999999934064E-01     0.0000000000000000E+00 
    1.0000000000000000E+00     8.1249999999950551E-01     0.0000000000000000E+00 
    1.0000000000000000E+00     8.7499999999967026E-01     0.0000000000000000E+00 
    1.0000000000000000E+00     9.3749999999983513E-01     0.0000000000000000E+00 
    9.3749999999973976E-01     1.0000000000000000E+00     0.0000000000000000E+00 
    8.7499999999950118E-01     1.0000000000000000E+00     0.0000000000000000E+00 
    8.1249999999991318E-01     1.0000000000000000E+00     0.0000000000000000E+00 
    7.5000000000034706E-01     1.0000000000000000E+00     0.0000000000000000E+00 
    6.8750000000078049E-01     1.0000000000000000E+00     0.0000000000000000E+00 
    6.2500000000121403E-01     1.0000000000000000E+00     0.0000000000000000E+00 
    5.6250000000164757E-01     1.0000000000000000E+00     0.0000000000000000E+00 
    5.0000000000205946E-01     1.0000000000000000E+00     0.0000000000000000E+00 
    4.3750000000182099E-01     1.0000000000000000E+00     0.0000000000000000E+00 
    3.7500000000156092E-01     1.0000000000000000E+00     0.0000000000000000E+00 
    3.1250000000130068E-01     1.0000000000000000E+00     0.0000000000000000E+00 
    2.5000000000104050E-01     1.0000000000000000E+00     0.0000000000000000E+00 
    1.8750000000078040E-01     1.0000000000000000E+00     0.0000000000000000E+00 
    1.2500000000052031E-01     1.0000000000000000E+00     0.0000000000000000E+00 
    6.2500000000260125E-02     1.0000000000000000E+00     0.0000000000000000E+00 
    0.0000000000000000E+00     9.3749999999973976E-01     0.0000000000000000E+00 
    0.0000000000000000E+00     8.7499999999950118E-01     0.0000000000000000E+00 
    0.0000000000000000E+00     8.1249999999991318E-01     0.0000000000000000E+00 
    0.0000000000000000E+00     7.5000000000034706E-01     0.0000000000000000E+00 
    0.0000000000000000E+00     6.8750000000078049E-01     0.0000000000000000E+00 
    0.0000000000000000E+00     6.2500000000121403E-01     0.0000000000000000E+00 
    0.0000000000000000E+00     5.6250000000164757E-01     0.0000000000000000E+00 
    0.0000000000000000E+00     5.0000000000205946E-01     0.0000000000000000E+00 
    0.0000000000000000E+00     4.3750000000182099E-01     0.0000000000000000E+00 
    0.0000000000000000E+00     3.7500000000156092E-01     0.0000000000000000E+00 
    0.0000000000000000E+00     3.1250000000130068E-01     0.0000000000000000E+00 
    0.0000000000000000E+00     2.5000000000104050E-01     0.0000000000000000E+00 
    0.0000000000000000E+00     1.8750000000078040E-01     0.0000000000000000E+00 
    0.0000000000000000E+00     1.2500000000052031E-01     0.0000000000000000E+00 
    0.0000000000000000E+00     6.2500000000260125E-02     0.0000000000000000E+00 
    6.2499999999897131E-02     6.2500000000235922E-02     0.0000000000000000E+00 
    6.2499999999921327E-02     1.2500000000047351E-01     0.0000000000000000E+00 
    6.2499999999945530E-02     1.8750000000070621E-01     0.0000000000000000E+00 
    6.2499999999969733E-02     2.5000000000093858E-01     0.0000000000000000E+00 
    6.2499999999993928E-02     3.1250000000117117E-01     0.0000000000000000E+00 
    6.2500000000018124E-02     3.7500000000140382E-01     0.0000000000000000E+00 
    6.2500000000042327E-02     4.3750000000163619E-01     0.0000000000000000E+00 
    6.2500000000066530E-02     5.0000000000184897E-01     0.0000000000000000E+00 
    6.2500000000090733E-02     5.6250000000147260E-01     0.0000000000000000E+00 
    6.2500000000114922E-02     6.2500000000107636E-01     0.0000000000000000E+00 
    6.2500000000139125E-02     6.8750000000068034E-01     0.0000000000000000E+00 
    6.2500000000163328E-02     7.5000000000028411E-01     0.0000000000000000E+00 
    6.2500000000187531E-02     8.1249999999988787E-01     0.0000000000000000E+00 
    6.2500000000211720E-02     8.7499999999951172E-01     0.0000000000000000E+00 
    6.2500000000235922E-02     9.3749999999974565E-01     0.0000000000000000E+00 
    1.2499999999981980E-01     6.2500000000211733E-02     0.0000000000000000E+00 
    1.2499999999986650E-01     1.2500000000042691E-01     0.0000000000000000E+00 
    1.2499999999991319E-01     1.8750000000063199E-01     0.0000000000000000E+00 
    1.2499999999995989E-01     2.5000000000083678E-01     0.0000000000000000E+00 
    1.2500000000000661E-01     3.1250000000104172E-01     0.0000000000000000E+00 
    1.2500000000005329E-01     3.7500000000124661E-01     0.0000000000000000E+00 
    1.2500000000010000E-01     4.3750000000145117E-01     0.0000000000000000E+00 
    1.2500000000014669E-01     5.0000000000163858E-01     0.0000000000000000E+00 
    1.2500000000019340E-01     5.6250000000129741E-01     0.0000000000000000E+00 
    1.2500000000024011E-01     6.2500000000093847E-01     0.0000000000000000E+00 
    1.2500000000028680E-01     6.8750000000057998E-01     0.0000000000000000E+00 
    1.2500000000033351E-01     7.5000000000022127E-01     0.0000000000000000E+00 
    1.2500000000038020E-01     8.1249999999986211E-01     0.0000000000000000E+00 
    1.2500000000042691E-01     8.7499999999952238E-01     0.0000000000000000E+00 
    1.2500000000047359E-01     9.3749999999975164E-01     0.0000000000000000E+00 
    1.8749999999966760E-01     6.2500000000187531E-02     0.0000000000000000E+00 
    1.8749999999974179E-01     1.2500000000038020E-01     0.0000000000000000E+00 
    1.8749999999981601E-01     1.8750000000055780E-01     0.0000000000000000E+00 
    1.8749999999989009E-01     2.5000000000073502E-01     0.0000000000000000E+00 
    1.8749999999996431E-01     3.1250000000091221E-01     0.0000000000000000E+00 
    1.8750000000003850E-01     3.7500000000108941E-01     0.0000000000000000E+00 
    1.8750000000011269E-01     4.3750000000126649E-01     0.0000000000000000E+00 
    1.8750000000018691E-01     5.0000000000142808E-01     0.0000000000000000E+00 
    1.8750000000026110E-01     5.6250000000112244E-01     0.0000000000000000E+00 
    1.8750000000033529E-01     6.2500000000080080E-01     0.0000000000000000E+00 
    1.8750000000040951E-01     6.8750000000047962E-01     0.0000000000000000E+00 
    1.8750000000048361E-01     7.5000000000015843E-01     0.0000000000000000E+00 
    1.8750000000055780E-01     8.1249999999983680E-01     0.0000000000000000E+00 
    1.8750000000063199E-01     8.7499999999953304E-01     0.0000000000000000E+00 
    1.8750000000070621E-01     9.3749999999975764E-01     0.0000000000000000E+00 
    2.4999999999951281E-01     6.2500000000163314E-02     0.0000000000000000E+00 
    2.4999999999961461E-01     1.2500000000033351E-01     0.0000000000000000E+00 
    2.4999999999971650E-01     1.8750000000048361E-01     0.0000000000000000E+00 
    2.4999999999981831E-01     2.5000000000063310E-01     0.0000000000000000E+00 
    2.4999999999992020E-01     3.1250000000078260E-01     0.0000000000000000E+00 
    2.5000000000002198E-01     3.7500000000093209E-01     0.0000000000000000E+00 
    2.5000000000012390E-01     4.3750000000108180E-01     0.0000000000000000E+00 
    2.5000000000022571E-01     5.0000000000121769E-01     0.0000000000000000E+00 
    2.5000000000032763E-01     5.6250000000094724E-01     0.0000000000000000E+00 
    2.5000000000042938E-01     6.2500000000066314E-01     0.0000000000000000E+00 
    2.5000000000053119E-01     6.8750000000037925E-01     0.0000000000000000E+00 
[...]
CELL_DATA 256 
SCALARS Pressure double 1 
LOOKUP_TABLE default 

    1.2769590680504947E+00 
    1.2577903062376072E+00 
    1.2389781627801808E+00 
    1.2214253447534362E+00 
    1.2049352494055767E+00 
    1.1892856339688578E+00 
    1.1742273436258914E+00 
    1.1593807962548386E+00 
    1.1442450252303651E+00 
    1.1296229256162389E+00 
    1.1177952111685254E+00 
    1.1087138928387650E+00 
    1.1016148074742440E+00 
    1.0963737982500521E+00 
    1.0929183674277292E+00 
    1.0912020128448270E+00 
    1.2020807449071282E+00 
    1.1975506094793735E+00 
    1.1897889386166054E+00 
    1.1801625300480005E+00 
    1.1693320775450950E+00 
    1.1576407090188690E+00 
    1.1451416955005447E+00 
    1.1318706878087101E+00 
    1.1184144901964130E+00 
    1.1064295226655871E+00 
    1.0968109617750357E+00 
    1.0891124816298690E+00 
    1.0830340578923285E+00 
    1.0785180142308504E+00 
    1.0755276050333529E+00 
    1.0740384670158181E+00 
    1.1353444572098761E+00 
    1.1331109220978082E+00 
    1.1287564779131440E+00 
    1.1225363844688852E+00 
    1.1146339100594884E+00 
    1.1052167733074147E+00 
    1.0946628097965543E+00 
    1.0839012502927619E+00 
    1.0741482526631358E+00 
    1.0659476464931623E+00 
    1.0590996427087180E+00 
    1.0533949127460291E+00 
    1.0488295123760163E+00 
    1.0454058855714301E+00 
    1.0431241308392136E+00 
    1.0419835410115992E+00 
    1.0642755147635872E+00 
    1.0624553084757073E+00 
    1.0588017817682578E+00 
    1.0534519963496496E+00 
    1.0467473408093828E+00 
    1.0393027247524622E+00 
    1.0319758162842654E+00 
    1.0253803213900268E+00 
    1.0196173587907047E+00 
    1.0145363482343202E+00 
    1.0100745568480005E+00 
    1.0062840570498239E+00 
    1.0032072312052749E+00 
    1.0008750361880356E+00 
    9.9930900759897068E-01 
    9.9852271673160731E-01 
    9.8490165716724098E-01 
    9.8343714904707025E-01 
    9.8074928375446901E-01 
    9.7726602767083215E-01 
    9.7348117417815827E-01 
    9.6978767993546500E-01 
    9.6633446961839187E-01 
    9.6305986444157043E-01 
    9.5992215025222338E-01 
    9.5698711826874683E-01 
    9.5433655972435205E-01 
    9.5203646181728641E-01 
    9.5013864176134810E-01 
    9.4868252252274010E-01 
    9.4769650714165932E-01 
    9.4719898377865164E-01 
    9.0796740020853639E-01 
    9.0748883940678715E-01 
    9.0666759963992383E-01 
    9.0564148609498463E-01 
    9.0445245254161277E-01 
    9.0307927481467287E-01 
    9.0153287173309482E-01 
    8.9988180603214818E-01 
    8.9821034596037586E-01 
    8.9659315473372070E-01 
    8.9509395622741361E-01 
    8.9376608807346414E-01 
    8.9265304414408331E-01 
    8.9178897028209081E-01 
    8.9119908650359214E-01 
    8.9090001719661682E-01 
    8.4073994368927207E-01 
    8.4064889382731989E-01 
    8.4042025060053904E-01 
    8.4001419684827194E-01 
    8.3942805776569962E-01 
    8.3868818446101090E-01 
    8.3783378894411753E-01 
    8.3690826680766595E-01 
    8.3595585324356636E-01 
    8.3501926399524329E-01 
    8.3413804920691459E-01 
    8.3334747208395954E-01 
    8.3267774585292409E-01 
    8.3215351720646491E-01 
    8.3179352115027927E-01 
    8.3161035754615609E-01 
    7.7707901667032842E-01 
    7.7696889127045521E-01 
    7.7674607162892129E-01 
    7.7641124779870685E-01 
    7.7597215714889767E-01 
    7.7544358873832986E-01 
    7.7484597654352372E-01 
    7.7420364185976154E-01 
    7.7354311736903547E-01 
    7.7289162865684402E-01 
    7.7227576553269917E-01 
    7.7172034717526661E-01 
    7.7124747171600883E-01 
    7.7087573822809030E-01 
    7.7061963127634581E-01 
    7.7048906185611987E-01 
    7.1454792219677499E-01 
    7.1442886961241969E-01 
    7.1419418327382189E-01 
    7.1385110847468147E-01 
    7.1341103583001486E-01 
    7.1288943085892087E-01 
    7.1230538903253426E-01 
    7.1168091498158403E-01 
    7.1104002370927377E-01 
    7.1040773743811692E-01 
    7.0980903419152463E-01 
    7.0926779328501455E-01 
    7.0880577786592269E-01 
    7.0844169388821965E-01 
    7.0819036608751451E-01 
    7.0806207196609894E-01 
    6.5320735413391151E-01 
    6.5304518569961911E-01 
    6.5272617952931977E-01 
    6.5226094760586639E-01 
    6.5166523777537222E-01 
    6.5095964153243790E-01 
    6.5016912376721270E-01 
    6.4932236031707702E-01 
    6.4845088003808016E-01 
    6.4758801597387239E-01 
    6.4676767944968472E-01 
    6.4602298452077167E-01 
    6.4538476960217617E-01 
    6.4488008777862615E-01 
    6.4453076410608723E-01 
    6.4435214086421511E-01 
    5.9348847041245656E-01 
    5.9322987914688496E-01 
    5.9272043331635338E-01 
    5.9197556580744370E-01 
    5.9101830384511922E-01 
    5.8987906742885154E-01 
    5.8859531535097687E-01 
    5.8721097394117427E-01 
    5.8577557421898518E-01 
    5.8434301910941489E-01 
    5.8296990875509347E-01 
    5.8171337565335002E-01 
    5.8062843038797607E-01 
    5.7976490015892534E-01 
    5.7916415781802166E-01 
    5.7885597734526784E-01 
    5.3635549934561522E-01 
    5.3592311824374939E-01 
    5.3506890388716866E-01 
    5.3381412854315557E-01 
    5.3219111445428280E-01 
    5.3024364994131101E-01 
    5.2802740025399697E-01 
    5.2561017068911331E-01 
    5.2307182227367577E-01 
    5.2050357469244335E-01 
    5.1800636553470147E-01 
    5.1568788842221913E-01 
    5.1365794081054206E-01 
    5.1202183365774601E-01 
    5.1087193284848798E-01 
    5.1027800910011567E-01 
    4.8354633929673263E-01 
    4.8283468988777445E-01 
    4.8142298433231057E-01 
    4.7933507872746178E-01 
    4.7660842930441827E-01 
    4.7329608419717190E-01 
    4.6946928393268339E-01 
    4.6522055594255030E-01 
    4.6066706198627122E-01 
    4.5595374604053757E-01 
    4.5125550186169072E-01 
    4.4677710618302247E-01 
    4.4274904664430531E-01 
    4.3941670372119718E-01 
    4.3701993727016575E-01 
    4.3576080337228312E-01 
    4.3785367333712322E-01 
    4.3674682299688278E-01 
    4.3453906527133046E-01 
    4.3124346709372363E-01 
    4.2688270099658271E-01 
    4.2149307002543879E-01 
    4.1513044486779410E-01 
    4.0787860085737615E-01 
    3.9986052159333574E-01 
    3.9125319971972977E-01 
    3.8230615318687400E-01 
    3.7336296254431522E-01 
    3.6488298632200306E-01 
    3.5745580906392271E-01 
    3.5179161616049331E-01 
    3.4865225866641841E-01 
    4.0322951077993885E-01 
    4.0166802995915513E-01 
    3.9853355073094160E-01 
    3.9380353465533563E-01 
    3.8744562142875683E-01 
    3.7941999771866830E-01 
    3.6968379433055465E-01 
    3.5819899830820678E-01 
    3.4494640729576531E-01 
    3.2994989999121005E-01 
    3.1331824560886323E-01 
    2.9531667470289452E-01 
    2.7648893635713473E-01 
    2.5786507085986304E-01 
    2.4131494095711811E-01 
    2.3015013901988721E-01 
    3.8422015643074708E-01 
    3.8231922099584514E-01 
    3.7848340466463032E-01 
    3.7264257372680859E-01 
    3.6468564669615727E-01 
    3.5445272219227125E-01 
    3.4172307013577269E-01 
    3.2619734565982528E-01 
    3.0747145591902819E-01 
    2.8499807104051655E-01 
    2.5802950326694085E-01 
    2.2553206125918410E-01 
    1.8605615790707380E-01 
    1.3753697670998319E-01 
    7.6984986097933236E-02 
    0.0000000000000000E+00 

SCALARS Saturarion double 1 
LOOKUP_TABLE default 

    1.0000000000000000E+00 
    8.3374901486272124E-01 
    7.4929560337221079E-01 
    6.7901486541052691E-01 
    6.1636721581478127E-01 
    5.5768696623182479E-01 
    4.9919240954034494E-01 
    4.3424639785410724E-01 
    3.4421896008028596E-01 
    1.7076853798233421E-01 
    1.1989155112855409E-02 
    5.6227692694913282E-06 
    1.9863749599415732E-14 
    1.3902543882833242E-35 
    1.5114837903105162E-88 
   9.0501018612610777E-221 
    7.3146535977254523E-01 
    6.8098958735596804E-01 
    6.2977751437761331E-01 
    5.8058242226449197E-01 
    5.3219514637996101E-01 
    4.8224363235892603E-01 
    4.2549811803515680E-01 
    3.4610296494803444E-01 
    1.8763260381043326E-01 
    1.6359366055542463E-02 
    1.0870249248518247E-05 
    6.1651070737657904E-14 
    6.7518700117475084E-35 
    8.4442797573895293E-88 
   6.1990138543717860E-220 
    0.0000000000000000E+00 
    5.7678066297349784E-01 
    5.4765083220189015E-01 
    5.1244853447440986E-01 
    4.7359520239125813E-01 
    4.2939540061148862E-01 
    3.7340732186385711E-01 
    2.8472859133190342E-01 
    1.2211983225915921E-01 
    8.4591184231638146E-03 
    5.8307690744213053E-06 
    4.0095526810020570E-14 
    5.6847610535710601E-35 
    9.2430046938401228E-88 
   8.8214543057125416E-220 
    0.0000000000000000E+00 
    0.0000000000000000E+00 
    4.4324198655868119E-01 
    4.1882938210024095E-01 
    3.8458900490108511E-01 
    3.3822898863811379E-01 
    2.6921296102473846E-01 
    1.6004724524278177E-01 
    4.5381789211269570E-02 
    2.1361425351240659E-03 
    1.2558649741165976E-06 
    9.7980993389905134E-15 
    1.7975398261348281E-35 
    3.7194985284332989E-88 
   4.1108279593375164E-220 
    0.0000000000000000E+00 
    0.0000000000000000E+00 
    0.0000000000000000E+00 
    2.8439267896739323E-01 
    2.4840012732089886E-01 
    1.9217498612791928E-01 
    1.1854915689991161E-01 
    4.7197810032248794E-02 
    7.5688863038277220E-03 
    1.8776934777115672E-04 
    6.0763298259803966E-08 
    4.0359170448620943E-16 
    9.4022116484773688E-37 
    2.5144362110689817E-89 
   2.6345836004394606E-221 
    0.0000000000000000E+00 
    0.0000000000000000E+00 
    0.0000000000000000E+00 
    0.0000000000000000E+00 
    7.5559143574576576E-02 
    4.6603677156173390E-02 
    1.9304189400483909E-02 
    4.2439328959257838E-03 
    3.0820769484436045E-04 
    2.6324526335057157E-06 
    2.5819773686215653E-10 
    5.3042513201643757E-19 
    1.0688237212815952E-39 
    3.5299437154697205E-92 
   2.5214778320050222E-224 
    0.0000000000000000E+00 
    0.0000000000000000E+00 
    0.0000000000000000E+00 
    0.0000000000000000E+00 
    0.0000000000000000E+00 
    1.4791710508903180E-03 
    3.9580024614983323E-04 
    4.0081861322412798E-05 
    9.3176950085225472E-07 
    1.5786560255522940E-09 
    1.6457388692664973E-14 
    2.3034402974214313E-24 
    6.0532800853353890E-46 
    1.5029807717747448E-98 
   4.8472645939921898E-231 
    0.0000000000000000E+00 
    0.0000000000000000E+00 
    0.0000000000000000E+00 
    0.0000000000000000E+00 
    0.0000000000000000E+00 
    0.0000000000000000E+00 
    1.0764048137832159E-07 
    4.7015091001079069E-09 
    2.1182719488172772E-11 
    2.9987985300620273E-15 
    7.8952393497319313E-22 
    9.1259223571504820E-34 
    5.3273519845739851E-58 
   5.9782383744847217E-112 
   3.7794754882847706E-245 
    0.0000000000000000E+00 
    0.0000000000000000E+00 
    0.0000000000000000E+00 
    0.0000000000000000E+00 
    0.0000000000000000E+00 
    0.0000000000000000E+00 
    0.0000000000000000E+00 
    4.3690453652696182E-17 
    3.0946035206603561E-20 
    1.0907722428312710E-25 
    1.0329325925732860E-34 
    2.7721913144946085E-50 
    4.0428246338311716E-79 
   1.6765020908481406E-138 
   5.8508866864552294E-274 
    0.0000000000000000E+00 
    0.0000000000000000E+00 
    0.0000000000000000E+00 
    0.0000000000000000E+00 
    0.0000000000000000E+00 
    0.0000000000000000E+00 
    0.0000000000000000E+00 
    0.0000000000000000E+00 
    3.7211379272945398E-38 
    2.0097389676369683E-45 
    4.3845336283135965E-58 
    2.8994773161049114E-79 
   4.0599613037562949E-116 
   4.4314851160454371E-186 
    0.0000000000000000E+00 
    0.0000000000000000E+00 
    0.0000000000000000E+00 
    0.0000000000000000E+00 
    0.0000000000000000E+00 
    0.0000000000000000E+00 
    0.0000000000000000E+00 
    0.0000000000000000E+00 
    0.0000000000000000E+00 
    0.0000000000000000E+00 
    2.6893767908730835E-85 
   4.7211471677477881E-102 
   1.7831785265787834E-131 
   4.1144137847063742E-181 
   1.9928913072111244E-268 
    0.0000000000000000E+00 
    0.0000000000000000E+00 
    0.0000000000000000E+00 
    0.0000000000000000E+00 
    0.0000000000000000E+00 
    0.0000000000000000E+00 
    0.0000000000000000E+00 
    0.0000000000000000E+00 
    0.0000000000000000E+00 
    0.0000000000000000E+00 
    0.0000000000000000E+00 
   1.5089356632591595E-190 
   4.1577590136694016E-229 
   2.2538381853697514E-297 
    0.0000000000000000E+00 
    0.0000000000000000E+00 
    0.0000000000000000E+00 
    0.0000000000000000E+00 
    0.0000000000000000E+00 
    0.0000000000000000E+00 
    0.0000000000000000E+00 
    0.0000000000000000E+00 
    0.0000000000000000E+00 
    0.0000000000000000E+00 
    0.0000000000000000E+00 
    0.0000000000000000E+00 
    0.0000000000000000E+00 
    0.0000000000000000E+00 
    0.0000000000000000E+00 
    0.0000000000000000E+00 
    0.0000000000000000E+00 
    0.0000000000000000E+00 
    0.0000000000000000E+00 
    0.0000000000000000E+00 
    0.0000000000000000E+00 
    0.0000000000000000E+00 
    0.0000000000000000E+00 
    0.0000000000000000E+00 
    0.0000000000000000E+00 
    0.0000000000000000E+00 
    0.0000000000000000E+00 
    0.0000000000000000E+00 
    0.0000000000000000E+00 
    0.0000000000000000E+00 
    0.0000000000000000E+00 
    0.0000000000000000E+00 
    0.0000000000000000E+00 
    0.0000000000000000E+00 
    0.0000000000000000E+00 
    0.0000000000000000E+00 
    0.0000000000000000E+00 
    0.0000000000000000E+00 
    0.0000000000000000E+00 
    0.0000000000000000E+00 
    0.0000000000000000E+00 
    0.0000000000000000E+00 
    0.0000000000000000E+00 
    0.0000000000000000E+00 
    0.0000000000000000E+00 
    0.0000000000000000E+00 
    0.0000000000000000E+00 
    0.0000000000000000E+00 
    0.0000000000000000E+00 
    0.0000000000000000E+00 
    0.0000000000000000E+00 
    0.0000000000000000E+00 
    0.0000000000000000E+00 
    0.0000000000000000E+00 
    0.0000000000000000E+00 
    0.0000000000000000E+00 
    0.0000000000000000E+00 
    0.0000000000000000E+00 
    0.0000000000000000E+00 
    0.0000000000000000E+00 
    0.0000000000000000E+00 
    0.0000000000000000E+00 
    0.0000000000000000E+00 
    0.0000000000000000E+00 
    0.0000000000000000E+00 
    0.0000000000000000E+00 
    0.0000000000000000E+00 
    0.0000000000000000E+00 
    0.0000000000000000E+00 
    0.0000000000000000E+00 
    0.0000000000000000E+00 
    0.0000000000000000E+00 
    0.0000000000000000E+00 
    0.0000000000000000E+00 
    0.0000000000000000E+00 
    0.0000000000000000E+00 
    0.0000000000000000E+00 
