# vtk DataFile Version 2.0
Pressure Field Data 
ASCII 
DATASET UNSTRUCTURED_GRID 

POINTS 289 double 

    0.0000000000000000E+00     0.0000000000000000E+00     0.0000000000000000E+00 
    1.0000000000000000E+00     0.0000000000000000E+00     0.0000000000000000E+00 
    1.0000000000000000E+00     1.0000000000000000E+00     0.0000000000000000E+00 
    0.0000000000000000E+00     1.0000000000000000E+00     0.0000000000000000E+00 
    6.2499999999872928E-02     0.0000000000000000E+00     0.0000000000000000E+00 
    1.2499999999977310E-01     0.0000000000000000E+00     0.0000000000000000E+00 
    1.8749999999959341E-01     0.0000000000000000E+00     0.0000000000000000E+00 
    2.4999999999941089E-01     0.0000000000000000E+00     0.0000000000000000E+00 
    3.1249999999922851E-01     0.0000000000000000E+00     0.0000000000000000E+00 
    3.7499999999904610E-01     0.0000000000000000E+00     0.0000000000000000E+00 
    4.3749999999886358E-01     0.0000000000000000E+00     0.0000000000000000E+00 
    4.9999999999869210E-01     0.0000000000000000E+00     0.0000000000000000E+00 
    5.6249999999884603E-01     0.0000000000000000E+00     0.0000000000000000E+00 
    6.2499999999901090E-01     0.0000000000000000E+00     0.0000000000000000E+00 
    6.8749999999917577E-01     0.0000000000000000E+00     0.0000000000000000E+00 
    7.4999999999934064E-01     0.0000000000000000E+00     0.0000000000000000E+00 
    8.1249999999950551E-01     0.0000000000000000E+00     0.0000000000000000E+00 
    8.7499999999967026E-01     0.0000000000000000E+00     0.0000000000000000E+00 
    9.3749999999983513E-01     0.0000000000000000E+00     0.0000000000000000E+00 
    1.0000000000000000E+00     6.2499999999872928E-02     0.0000000000000000E+00 
    1.0000000000000000E+00     1.2499999999977310E-01     0.0000000000000000E+00 
    1.0000000000000000E+00     1.8749999999959341E-01     0.0000000000000000E+00 
    1.0000000000000000E+00     2.4999999999941089E-01     0.0000000000000000E+00 
    1.0000000000000000E+00     3.1249999999922851E-01     0.0000000000000000E+00 
    1.0000000000000000E+00     3.7499999999904610E-01     0.0000000000000000E+00 
    1.0000000000000000E+00     4.3749999999886358E-01     0.0000000000000000E+00 
    1.0000000000000000E+00     4.9999999999869210E-01     0.0000000000000000E+00 
    1.0000000000000000E+00     5.6249999999884603E-01     0.0000000000000000E+00 
    1.0000000000000000E+00     6.2499999999901090E-01     0.0000000000000000E+00 
    1.0000000000000000E+00     6.8749999999917577E-01     0.0000000000000000E+00 
    1.0000000000000000E+00     7.4999999999934064E-01     0.0000000000000000E+00 
    1.0000000000000000E+00     8.1249999999950551E-01     0.0000000000000000E+00 
    1.0000000000000000E+00     8.7499999999967026E-01     0.0000000000000000E+00 
    1.0000000000000000E+00     9.3749999999983513E-01     0.0000000000000000E+00 
    9.3749999999973976E-01     1.0000000000000000E+00     0.0000000000000000E+00 
    8.7499999999950118E-01     1.0000000000000000E+00     0.0000000000000000E+00 
    8.1249999999991318E-01     1.0000000000000000E+00     0.0000000000000000E+00 
    7.5000000000034706E-01     1.0000000000000000E+00     0.0000000000000000E+00 
    6.8750000000078049E-01     1.0000000000000000E+00     0.0000000000000000E+00 
    6.2500000000121403E-01     1.0000000000000000E+00     0.0000000000000000E+00 
    5.6250000000164757E-01     1.0000000000000000E+00     0.0000000000000000E+00 
    5.0000000000205946E-01     1.0000000000000000E+00     0.0000000000000000E+00 
    4.3750000000182099E-01     1.0000000000000000E+00     0.0000000000000000E+00 
    3.7500000000156092E-01     1.0000000000000000E+00     0.0000000000000000E+00 
    3.1250000000130068E-01     1.0000000000000000E+00     0.0000000000000000E+00 
    2.5000000000104050E-01     1.0000000000000000E+00     0.0000000000000000E+00 
    1.8750000000078040E-01     1.0000000000000000E+00     0.0000000000000000E+00 
    1.2500000000052031E-01     1.0000000000000000E+00     0.0000000000000000E+00 
    6.2500000000260125E-02     1.0000000000000000E+00     0.0000000000000000E+00 
    0.0000000000000000E+00     9.3749999999973976E-01     0.0000000000000000E+00 
    0.0000000000000000E+00     8.7499999999950118E-01     0.0000000000000000E+00 
    0.0000000000000000E+00     8.1249999999991318E-01     0.0000000000000000E+00 
    0.0000000000000000E+00     7.5000000000034706E-01     0.0000000000000000E+00 
    0.0000000000000000E+00     6.8750000000078049E-01     0.0000000000000000E+00 
    0.0000000000000000E+00     6.2500000000121403E-01     0.0000000000000000E+00 
    0.0000000000000000E+00     5.6250000000164757E-01     0.0000000000000000E+00 
    0.0000000000000000E+00     5.0000000000205946E-01     0.0000000000000000E+00 
    0.0000000000000000E+00     4.3750000000182099E-01     0.0000000000000000E+00 
    0.0000000000000000E+00     3.7500000000156092E-01     0.0000000000000000E+00 
    0.0000000000000000E+00     3.1250000000130068E-01     0.0000000000000000E+00 
    0.0000000000000000E+00     2.5000000000104050E-01     0.0000000000000000E+00 
    0.0000000000000000E+00     1.8750000000078040E-01     0.0000000000000000E+00 
    0.0000000000000000E+00     1.2500000000052031E-01     0.0000000000000000E+00 
    0.0000000000000000E+00     6.2500000000260125E-02     0.0000000000000000E+00 
    6.2499999999897131E-02     6.2500000000235922E-02     0.0000000000000000E+00 
    6.2499999999921327E-02     1.2500000000047351E-01     0.0000000000000000E+00 
    6.2499999999945530E-02     1.8750000000070621E-01     0.0000000000000000E+00 
    6.2499999999969733E-02     2.5000000000093858E-01     0.0000000000000000E+00 
    6.2499999999993928E-02     3.1250000000117117E-01     0.0000000000000000E+00 
    6.2500000000018124E-02     3.7500000000140382E-01     0.0000000000000000E+00 
    6.2500000000042327E-02     4.3750000000163619E-01     0.0000000000000000E+00 
    6.2500000000066530E-02     5.0000000000184897E-01     0.0000000000000000E+00 
    6.2500000000090733E-02     5.6250000000147260E-01     0.0000000000000000E+00 
    6.2500000000114922E-02     6.2500000000107636E-01     0.0000000000000000E+00 
    6.2500000000139125E-02     6.8750000000068034E-01     0.0000000000000000E+00 
    6.2500000000163328E-02     7.5000000000028411E-01     0.0000000000000000E+00 
    6.2500000000187531E-02     8.1249999999988787E-01     0.0000000000000000E+00 
    6.2500000000211720E-02     8.7499999999951172E-01     0.0000000000000000E+00 
    6.2500000000235922E-02     9.3749999999974565E-01     0.0000000000000000E+00 
    1.2499999999981980E-01     6.2500000000211733E-02     0.0000000000000000E+00 
    1.2499999999986650E-01     1.2500000000042691E-01     0.0000000000000000E+00 
    1.2499999999991319E-01     1.8750000000063199E-01     0.0000000000000000E+00 
    1.2499999999995989E-01     2.5000000000083678E-01     0.0000000000000000E+00 
    1.2500000000000661E-01     3.1250000000104172E-01     0.0000000000000000E+00 
    1.2500000000005329E-01     3.7500000000124661E-01     0.0000000000000000E+00 
    1.2500000000010000E-01     4.3750000000145117E-01     0.0000000000000000E+00 
    1.2500000000014669E-01     5.0000000000163858E-01     0.0000000000000000E+00 
    1.2500000000019340E-01     5.6250000000129741E-01     0.0000000000000000E+00 
    1.2500000000024011E-01     6.2500000000093847E-01     0.0000000000000000E+00 
    1.2500000000028680E-01     6.8750000000057998E-01     0.0000000000000000E+00 
    1.2500000000033351E-01     7.5000000000022127E-01     0.0000000000000000E+00 
    1.2500000000038020E-01     8.1249999999986211E-01     0.0000000000000000E+00 
    1.2500000000042691E-01     8.7499999999952238E-01     0.0000000000000000E+00 
    1.2500000000047359E-01     9.3749999999975164E-01     0.0000000000000000E+00 
    1.8749999999966760E-01     6.2500000000187531E-02     0.0000000000000000E+00 
    1.8749999999974179E-01     1.2500000000038020E-01     0.0000000000000000E+00 
    1.8749999999981601E-01     1.8750000000055780E-01     0.0000000000000000E+00 
    1.8749999999989009E-01     2.5000000000073502E-01     0.0000000000000000E+00 
    1.8749999999996431E-01     3.1250000000091221E-01     0.0000000000000000E+00 
    1.8750000000003850E-01     3.7500000000108941E-01     0.0000000000000000E+00 
    1.8750000000011269E-01     4.3750000000126649E-01     0.0000000000000000E+00 
    1.8750000000018691E-01     5.0000000000142808E-01     0.0000000000000000E+00 
    1.8750000000026110E-01     5.6250000000112244E-01     0.0000000000000000E+00 
    1.8750000000033529E-01     6.2500000000080080E-01     0.0000000000000000E+00 
    1.8750000000040951E-01     6.8750000000047962E-01     0.0000000000000000E+00 
    1.8750000000048361E-01     7.5000000000015843E-01     0.0000000000000000E+00 
    1.8750000000055780E-01     8.1249999999983680E-01     0.0000000000000000E+00 
    1.8750000000063199E-01     8.7499999999953304E-01     0.0000000000000000E+00 
    1.8750000000070621E-01     9.3749999999975764E-01     0.0000000000000000E+00 
    2.4999999999951281E-01     6.2500000000163314E-02     0.0000000000000000E+00 
    2.4999999999961461E-01     1.2500000000033351E-01     0.0000000000000000E+00 
    2.4999999999971650E-01     1.8750000000048361E-01     0.0000000000000000E+00 
    2.4999999999981831E-01     2.5000000000063310E-01     0.0000000000000000E+00 
    2.4999999999992020E-01     3.1250000000078260E-01     0.0000000000000000E+00 
    2.5000000000002198E-01     3.7500000000093209E-01     0.0000000000000000E+00 
    2.5000000000012390E-01     4.3750000000108180E-01     0.0000000000000000E+00 
    2.5000000000022571E-01     5.0000000000121769E-01     0.0000000000000000E+00 
    2.5000000000032763E-01     5.6250000000094724E-01     0.0000000000000000E+00 
    2.5000000000042938E-01     6.2500000000066314E-01     0.0000000000000000E+00 
    2.5000000000053119E-01     6.8750000000037925E-01     0.0000000000000000E+00 
[...]
CELL_DATA 256 
SCALARS Pressure double 1 
LOOKUP_TABLE default 

    1.2523047461120433E+00 
    1.2337055563515331E+00 
    1.2161668473331888E+00 
    1.2001844279329899E+00 
    1.1854896469502934E+00 
    1.1718523918760282E+00 
    1.1590833949409447E+00 
    1.1469979394057923E+00 
    1.1353384730076441E+00 
    1.1236644378898759E+00 
    1.1122311226230275E+00 
    1.1029601315262130E+00 
    1.0961310963803126E+00 
    1.0911126073712347E+00 
    1.0878008736882052E+00 
    1.0861550026175619E+00 
    1.1815984583109185E+00 
    1.1775375794234064E+00 
    1.1707499635460306E+00 
    1.1624476278579956E+00 
    1.1532670080590239E+00 
    1.1435949178650715E+00 
    1.1336384781566107E+00 
    1.1234248048618660E+00 
    1.1128015510743496E+00 
    1.1019145544324089E+00 
    1.0920774079539028E+00 
    1.0843373419086557E+00 
    1.0784269740168737E+00 
    1.0740451380017100E+00 
    1.0711422475641834E+00 
    1.0696962919111426E+00 
    1.1216751581006752E+00 
    1.1198369325491067E+00 
    1.1163063756616591E+00 
    1.1113621460346603E+00 
    1.1052545374750637E+00 
    1.0981530666871999E+00 
    1.0901038431077901E+00 
    1.0811788187343410E+00 
    1.0717902784877344E+00 
    1.0630696850522530E+00 
    1.0559033905475221E+00 
    1.0501602506763523E+00 
    1.0456025673989142E+00 
    1.0421882511197622E+00 
    1.0399142735951712E+00 
    1.0387780246744445E+00 
    1.0595693135028703E+00 
    1.0582591059571183E+00 
    1.0556391171337163E+00 
    1.0517411156987779E+00 
    1.0465843754060034E+00 
    1.0402517138554230E+00 
    1.0330435810643708E+00 
    1.0256360051770224E+00 
    1.0188907780847292E+00 
    1.0132291993201994E+00 
    1.0085061104944879E+00 
    1.0045445879875148E+00 
    1.0013447858327367E+00 
    9.9892797669193945E-01 
    9.9730901358742496E-01 
    9.9649726823083629E-01 
    9.9039149758742873E-01 
    9.8906589219672025E-01 
    9.8643777257700316E-01 
    9.8265010329062963E-01 
    9.7799827613938983E-01 
    9.7295327340048732E-01 
    9.6808418802623053E-01 
    9.6376824822795670E-01 
    9.6003953328253322E-01 
    9.5674571861276392E-01 
    9.5382210595667349E-01 
    9.5131199562472646E-01 
    9.4925707412666138E-01 
    9.4768924190112458E-01 
    9.4663157610036142E-01 
    9.4609905822199025E-01 
    9.1375497909181747E-01 
    9.1279944998701235E-01 
    9.1108334089068577E-01 
    9.0891616786201490E-01 
    9.0662141727994738E-01 
    9.0443097986163556E-01 
    9.0239461705242718E-01 
    9.0043456340281713E-01 
    8.9851483200852167E-01 
    8.9668318623210785E-01 
    8.9500317934609430E-01 
    8.9352751492309868E-01 
    8.9229846969525894E-01 
    8.9134884286248661E-01 
    8.9070265938935111E-01 
    8.9037566943041513E-01 
    8.4140790053399783E-01 
    8.4120347258995232E-01 
    8.4085085958465045E-01 
    8.4038892443443525E-01 
    8.3980035703693923E-01 
    8.3905351416932705E-01 
    8.3815773016670725E-01 
    8.3716269398786070E-01 
    8.3612713107511116E-01 
    8.3510427594679071E-01 
    8.3414082810535239E-01 
    8.3327684226991594E-01 
    8.3254568131317641E-01 
    8.3197401022743644E-01 
    8.3158180753632960E-01 
    8.3138238105079987E-01 
    7.7694988867592729E-01 
    7.7688862929342017E-01 
    7.7673393537390445E-01 
    7.7645882937151234E-01 
    7.7605968401368741E-01 
    7.7555006388443559E-01 
    7.7495297712400135E-01 
    7.7429673918453734E-01 
    7.7361235245944004E-01 
    7.7293129279267991E-01 
    7.7228385680460854E-01 
    7.7169792082977928E-01 
    7.7119799422110213E-01 
    7.7080449364604076E-01 
    7.7053319362754458E-01 
    7.7039482781753610E-01 
    7.1452361984018709E-01 
    7.1441336010259993E-01 
    7.1419266184613051E-01 
    7.1386425530012299E-01 
    7.1343611258063400E-01 
    7.1292178598034395E-01 
    7.1233973808319628E-01 
    7.1171227223772260E-01 
    7.1106430326051884E-01 
    7.1042207285181669E-01 
    7.0981188537161533E-01 
    7.0925890572831196E-01 
    7.0878604679309609E-01 
    7.0841297149923776E-01 
    7.0815523763416943E-01 
    7.0802361648645740E-01 
    6.5320512204806791E-01 
    6.5304476416672863E-01 
    6.5272882377498331E-01 
    6.5226706198505269E-01 
    6.5167438014806001E-01 
    6.5097072104492970E-01 
    6.5018067852568384E-01 
    6.4933283660827978E-01 
    6.4845886837668620E-01 
    6.4759242362607383E-01 
    6.4676783556980044E-01 
    6.4601868354615755E-01 
    6.4537626295174355E-01 
    6.4486803506479295E-01 
    6.4451615446753296E-01 
    6.4433619368055006E-01 
    5.9349020307740830E-01 
    5.9323199333832444E-01 
    5.9272319968574660E-01 
    5.9197906914059062E-01 
    5.9102242037685371E-01 
    5.8988349027065512E-01 
    5.8859961294973873E-01 
    5.8721466412072543E-01 
    5.8577819868302961E-01 
    5.8434420745692794E-01 
    5.8296942544167463E-01 
    5.8171114707171379E-01 
    5.8062455203575813E-01 
    5.7975962573344586E-01 
    5.7915787319815837E-01 
    5.7884916300647149E-01 
    5.3635738149648537E-01 
    5.3592506164485576E-01 
    5.3507094452229187E-01 
    5.3381625848192771E-01 
    5.3219327403024774E-01 
    5.3024573164353506E-01 
    5.2802926245473480E-01 
    5.2561165771997187E-01 
    5.2307278687340497E-01 
    5.2050389917927375E-01 
    5.1800597886060440E-01 
    5.1568677725720835E-01 
    5.1365615378333884E-01 
    5.1201947873184095E-01 
    5.1086916849281028E-01 
    5.1027503041685707E-01 
    4.8354775843116049E-01 
    4.8283610266074123E-01 
    4.8142437853684344E-01 
    4.7933643193641856E-01 
    4.7660970703394967E-01 
    4.7329724103727072E-01 
    4.6947026741932768E-01 
    4.6522131243721659E-01 
    4.6066754353938300E-01 
    4.5595391714696948E-01 
    4.5125534512677684E-01 
    4.4677662614742425E-01 
    4.4274827130720923E-01 
    4.3941568360557448E-01 
    4.3701874215675690E-01 
    4.3575951706875238E-01 
    4.3785469306971980E-01 
    4.3674782721143840E-01 
    4.3454003731669444E-01 
    4.3124438841135904E-01 
    4.2688355097975134E-01 
    4.2149382664363394E-01 
    4.1513108602557913E-01 
    4.0787910631161772E-01 
    3.9986087515108071E-01 
    3.9125339139242360E-01 
    3.8230618098452779E-01 
    3.7336283364626821E-01 
    3.6488271744530193E-01 
    3.5745542595117874E-01 
    3.5179115221270935E-01 
    3.4865175284139610E-01 
    4.0323028629111340E-01 
    4.0166879212680634E-01 
    3.9853428620250747E-01 
    3.9380423014903115E-01 
    3.8744626397062981E-01 
    3.7942057506932719E-01 
    3.6968429559081473E-01 
    3.5819941465155358E-01 
    3.4494673274368881E-01 
    3.2995013213005608E-01 
    3.1331838614569080E-01 
    2.9531672977193091E-01 
    2.7648891651471780E-01 
    2.5786499073996755E-01 
    2.4131481859694381E-01 
    2.3014999490099011E-01 
    3.8422082115573258E-01 
    3.8231987464221173E-01 
    3.7848403638024958E-01 
    3.7264317313608569E-01 
    3.6468620419065056E-01 
    3.5445322926724265E-01 
    3.4172351976365350E-01 
    3.2619773267737756E-01 
    3.0747177739367260E-01 
    2.8499832657492519E-01 
    2.5802969520066993E-01 
    2.2553219473192382E-01 
    1.8605624075919447E-01 
    1.3753701921093861E-01 
    7.6985000509808471E-02 
    0.0000000000000000E+00 

SCALARS Saturarion double 1 
LOOKUP_TABLE default 

    1.0000000000000000E+00 
    8.6008314531987451E-01 
    7.8472841105993396E-01 
    7.2025707600286115E-01 
    6.6207714850972688E-01 
    6.0784821803154598E-01 
    5.5550550671548959E-01 
    5.0229004435277447E-01 
    4.4282992423753531E-01 
    3.6207639636804134E-01 
    2.0799439707190101E-01 
    2.3775422067820011E-02 
    3.4599543120107250E-05 
    1.9038670633133911E-12 
    1.5345674612130886E-30 
    1.5193681773102612E-75 
    7.6430035001582786E-01 
    7.1901091763550273E-01 
    6.7247484267330260E-01 
    6.2742874063537291E-01 
    5.8351170424063958E-01 
    5.3977683092195583E-01 
    4.9447667036116294E-01 
    4.4385660398177534E-01 
    3.7731959395036213E-01 
    2.5400863364860138E-01 
    4.8281209893357713E-02 
    1.9625639988996518E-04 
    8.0896594087386382E-11 
    3.5030495203844838E-27 
    6.2573417948891005E-69 
   3.3843381955408271E-175 
    6.2438649572163984E-01 
    5.9816839673884725E-01 
    5.6695912478185662E-01 
    5.3353761693641821E-01 
    4.9799931317946489E-01 
    4.5904172845582802E-01 
    4.1291935366733623E-01 
    3.4818481161408282E-01 
    2.2342258354693198E-01 
    4.0320927079786475E-02 
    1.8369939103762308E-04 
    1.0296092529391512E-10 
    7.6105727751261600E-27 
    3.5938798766058417E-68 
   1.4341187132760573E-173 
    0.0000000000000000E+00 
    5.1043733376944811E-01 
    4.9109337856668089E-01 
    4.6581735743835606E-01 
    4.3574448914463271E-01 
    3.9918706971975143E-01 
    3.5035854128903182E-01 
    2.7211156162755801E-01 
    1.3426172880329834E-01 
    1.7974385241287617E-02 
    7.8132119063848519E-05 
    5.3395078343849403E-11 
    5.9494781736942513E-27 
    5.2088078493297267E-68 
   5.2526921377857822E-173 
    0.0000000000000000E+00 
    0.0000000000000000E+00 
    3.9695893210018096E-01 
    3.7662867725223509E-01 
    3.4658537758796865E-01 
    3.0380046126738885E-01 
    2.3907337961154862E-01 
    1.4321115752131730E-01 
    4.6601535155882015E-02 
    3.7365479831372823E-03 
    1.1664794525715130E-05 
    7.9322657309468070E-12 
    1.3326858110043419E-27 
    2.4385264910078460E-68 
   6.1456566245988364E-173 
    0.0000000000000000E+00 
    0.0000000000000000E+00 
    0.0000000000000000E+00 
    2.3969613245976312E-01 
    2.0545284411883163E-01 
    1.5410683237312350E-01 
    9.2129391818101550E-02 
    3.6376389580135754E-02 
    6.4290380648920628E-03 
    2.3963924046376762E-04 
    3.0611728876901708E-07 
    1.1625838989004296E-13 
    2.0572219661162089E-29 
    9.9030964701702861E-70 
   1.1399442070407779E-173 
    0.0000000000000000E+00 
    0.0000000000000000E+00 
    0.0000000000000000E+00 
    0.0000000000000000E+00 
    4.6199938878168874E-02 
    2.7056819748051752E-02 
    1.0533163240437180E-02 
    2.2209012513934550E-03 
    1.6620531390811516E-04 
    1.8814843626142500E-06 
    4.8590085142846297E-10 
    3.0093884601490492E-17 
    1.5191034684940166E-33 
    1.0808629220826746E-73 
   1.1465554056599721E-176 
    0.0000000000000000E+00 
    0.0000000000000000E+00 
    0.0000000000000000E+00 
    0.0000000000000000E+00 
    0.0000000000000000E+00 
    3.9887569426369285E-04 
    9.7108832417020885E-05 
    8.7956386313970257E-06 
    1.8671502196848462E-07 
    3.3338826150421774E-10 
    6.2357461208223768E-15 
    9.5023179632854054E-24 
    1.1313908712486099E-41 
    6.2259331790196391E-83 
   3.1366570701026165E-185 
    0.0000000000000000E+00 
    0.0000000000000000E+00 
    0.0000000000000000E+00 
    0.0000000000000000E+00 
    0.0000000000000000E+00 
    0.0000000000000000E+00 
    4.3141111390737304E-09 
    1.4785752703829884E-10 
    4.8620330886764352E-13 
    4.9695133563535333E-17 
    1.3286706461366781E-23 
    4.9495782595440610E-35 
    1.5248066998929691E-56 
   2.1377284875039037E-101 
   1.7780063975022297E-205 
    0.0000000000000000E+00 
    0.0000000000000000E+00 
    0.0000000000000000E+00 
    0.0000000000000000E+00 
    0.0000000000000000E+00 
    0.0000000000000000E+00 
    0.0000000000000000E+00 
    1.6055702065149003E-20 
    5.8270157737898819E-24 
    8.2288915614656091E-30 
    2.9139330396365626E-39 
    6.5467332047456196E-55 
    1.5230613724307680E-82 
   5.2498500987040168E-135 
   4.5375821839586073E-247 
    0.0000000000000000E+00 
    0.0000000000000000E+00 
    0.0000000000000000E+00 
    0.0000000000000000E+00 
    0.0000000000000000E+00 
    0.0000000000000000E+00 
    0.0000000000000000E+00 
    0.0000000000000000E+00 
    1.4049234955434058E-46 
    1.2873988793973719E-54 
    2.3525874800769311E-68 
    1.1709661525296176E-90 
   6.1802808483746080E-128 
   1.6311662338382559E-194 
    0.0000000000000000E+00 
    0.0000000000000000E+00 
    0.0000000000000000E+00 
    0.0000000000000000E+00 
    0.0000000000000000E+00 
    0.0000000000000000E+00 
    0.0000000000000000E+00 
    0.0000000000000000E+00 
    0.0000000000000000E+00 
    0.0000000000000000E+00 
   1.0179220015599561E-105 
   1.8517928890230113E-124 
   1.2015322416760901E-156 
   3.9246383801995447E-209 
   7.1038858902806397E-298 
    0.0000000000000000E+00 
    0.0000000000000000E+00 
    0.0000000000000000E+00 
    0.0000000000000000E+00 
    0.0000000000000000E+00 
    0.0000000000000000E+00 
    0.0000000000000000E+00 
    0.0000000000000000E+00 
    0.0000000000000000E+00 
    0.0000000000000000E+00 
    0.0000000000000000E+00 
   1.8805900054290555E-239 
   5.2554814012167145E-283 
    0.0000000000000000E+00 
    0.0000000000000000E+00 
    0.0000000000000000E+00 
    0.0000000000000000E+00 
    0.0000000000000000E+00 
    0.0000000000000000E+00 
    0.0000000000000000E+00 
    0.0000000000000000E+00 
    0.0000000000000000E+00 
    0.0000000000000000E+00 
    0.0000000000000000E+00 
    0.0000000000000000E+00 
    0.0000000000000000E+00 
    0.0000000000000000E+00 
    0.0000000000000000E+00 
    0.0000000000000000E+00 
    0.0000000000000000E+00 
    0.0000000000000000E+00 
    0.0000000000000000E+00 
    0.0000000000000000E+00 
    0.0000000000000000E+00 
    0.0000000000000000E+00 
    0.0000000000000000E+00 
    0.0000000000000000E+00 
    0.0000000000000000E+00 
    0.0000000000000000E+00 
    0.0000000000000000E+00 
    0.0000000000000000E+00 
    0.0000000000000000E+00 
    0.0000000000000000E+00 
    0.0000000000000000E+00 
    0.0000000000000000E+00 
    0.0000000000000000E+00 
    0.0000000000000000E+00 
    0.0000000000000000E+00 
    0.0000000000000000E+00 
    0.0000000000000000E+00 
    0.0000000000000000E+00 
    0.0000000000000000E+00 
    0.0000000000000000E+00 
    0.0000000000000000E+00 
    0.0000000000000000E+00 
    0.0000000000000000E+00 
    0.0000000000000000E+00 
    0.0000000000000000E+00 
    0.0000000000000000E+00 
    0.0000000000000000E+00 
    0.0000000000000000E+00 
    0.0000000000000000E+00 
    0.0000000000000000E+00 
    0.0000000000000000E+00 
    0.0000000000000000E+00 
    0.0000000000000000E+00 
    0.0000000000000000E+00 
    0.0000000000000000E+00 
    0.0000000000000000E+00 
    0.0000000000000000E+00 
    0.0000000000000000E+00 
    0.0000000000000000E+00 
    0.0000000000000000E+00 
    0.0000000000000000E+00 
    0.0000000000000000E+00 
