# vtk DataFile Version 2.0
Pressure Field Data 
ASCII 
DATASET UNSTRUCTURED_GRID 

POINTS 289 double 

    0.0000000000000000E+00     0.0000000000000000E+00     0.0000000000000000E+00 
    1.0000000000000000E+00     0.0000000000000000E+00     0.0000000000000000E+00 
    1.0000000000000000E+00     1.0000000000000000E+00     0.0000000000000000E+00 
    0.0000000000000000E+00     1.0000000000000000E+00     0.0000000000000000E+00 
    6.2499999999872928E-02     0.0000000000000000E+00     0.0000000000000000E+00 
    1.2499999999977310E-01     0.0000000000000000E+00     0.0000000000000000E+00 
    1.8749999999959341E-01     0.0000000000000000E+00     0.0000000000000000E+00 
    2.4999999999941089E-01     0.0000000000000000E+00     0.0000000000000000E+00 
    3.1249999999922851E-01     0.0000000000000000E+00     0.0000000000000000E+00 
    3.7499999999904610E-01     0.0000000000000000E+00     0.0000000000000000E+00 
    4.3749999999886358E-01     0.0000000000000000E+00     0.0000000000000000E+00 
    4.9999999999869210E-01     0.0000000000000000E+00     0.0000000000000000E+00 
    5.6249999999884603E-01     0.0000000000000000E+00     0.0000000000000000E+00 
    6.2499999999901090E-01     0.0000000000000000E+00     0.0000000000000000E+00 
    6.8749999999917577E-01     0.0000000000000000E+00     0.0000000000000000E+00 
    7.4999999999934064E-01     0.0000000000000000E+00     0.0000000000000000E+00 
    8.1249999999950551E-01     0.0000000000000000E+00     0.0000000000000000E+00 
    8.7499999999967026E-01     0.0000000000000000E+00     0.0000000000000000E+00 
    9.3749999999983513E-01     0.0000000000000000E+00     0.0000000000000000E+00 
    1.0000000000000000E+00     6.2499999999872928E-02     0.0000000000000000E+00 
    1.0000000000000000E+00     1.2499999999977310E-01     0.0000000000000000E+00 
    1.0000000000000000E+00     1.8749999999959341E-01     0.0000000000000000E+00 
    1.0000000000000000E+00     2.4999999999941089E-01     0.0000000000000000E+00 
    1.0000000000000000E+00     3.1249999999922851E-01     0.0000000000000000E+00 
    1.0000000000000000E+00     3.7499999999904610E-01     0.0000000000000000E+00 
    1.0000000000000000E+00     4.3749999999886358E-01     0.0000000000000000E+00 
    1.0000000000000000E+00     4.9999999999869210E-01     0.0000000000000000E+00 
    1.0000000000000000E+00     5.6249999999884603E-01     0.0000000000000000E+00 
    1.0000000000000000E+00     6.2499999999901090E-01     0.0000000000000000E+00 
    1.0000000000000000E+00     6.8749999999917577E-01     0.0000000000000000E+00 
    1.0000000000000000E+00     7.4999999999934064E-01     0.0000000000000000E+00 
    1.0000000000000000E+00     8.1249999999950551E-01     0.0000000000000000E+00 
    1.0000000000000000E+00     8.7499999999967026E-01     0.0000000000000000E+00 
    1.0000000000000000E+00     9.3749999999983513E-01     0.0000000000000000E+00 
    9.3749999999973976E-01     1.0000000000000000E+00     0.0000000000000000E+00 
    8.7499999999950118E-01     1.0000000000000000E+00     0.0000000000000000E+00 
    8.1249999999991318E-01     1.0000000000000000E+00     0.0000000000000000E+00 
    7.5000000000034706E-01     1.0000000000000000E+00     0.0000000000000000E+00 
    6.8750000000078049E-01     1.0000000000000000E+00     0.0000000000000000E+00 
    6.2500000000121403E-01     1.0000000000000000E+00     0.0000000000000000E+00 
    5.6250000000164757E-01     1.0000000000000000E+00     0.0000000000000000E+00 
    5.0000000000205946E-01     1.0000000000000000E+00     0.0000000000000000E+00 
    4.3750000000182099E-01     1.0000000000000000E+00     0.0000000000000000E+00 
    3.7500000000156092E-01     1.0000000000000000E+00     0.0000000000000000E+00 
    3.1250000000130068E-01     1.0000000000000000E+00     0.0000000000000000E+00 
    2.5000000000104050E-01     1.0000000000000000E+00     0.0000000000000000E+00 
    1.8750000000078040E-01     1.0000000000000000E+00     0.0000000000000000E+00 
    1.2500000000052031E-01     1.0000000000000000E+00     0.0000000000000000E+00 
    6.2500000000260125E-02     1.0000000000000000E+00     0.0000000000000000E+00 
    0.0000000000000000E+00     9.3749999999973976E-01     0.0000000000000000E+00 
    0.0000000000000000E+00     8.7499999999950118E-01     0.0000000000000000E+00 
    0.0000000000000000E+00     8.1249999999991318E-01     0.0000000000000000E+00 
    0.0000000000000000E+00     7.5000000000034706E-01     0.0000000000000000E+00 
    0.0000000000000000E+00     6.8750000000078049E-01     0.0000000000000000E+00 
    0.0000000000000000E+00     6.2500000000121403E-01     0.0000000000000000E+00 
    0.0000000000000000E+00     5.6250000000164757E-01     0.0000000000000000E+00 
    0.0000000000000000E+00     5.0000000000205946E-01     0.0000000000000000E+00 
    0.0000000000000000E+00     4.3750000000182099E-01     0.0000000000000000E+00 
    0.0000000000000000E+00     3.7500000000156092E-01     0.0000000000000000E+00 
    0.0000000000000000E+00     3.1250000000130068E-01     0.0000000000000000E+00 
    0.0000000000000000E+00     2.5000000000104050E-01     0.0000000000000000E+00 
    0.0000000000000000E+00     1.8750000000078040E-01     0.0000000000000000E+00 
    0.0000000000000000E+00     1.2500000000052031E-01     0.0000000000000000E+00 
    0.0000000000000000E+00     6.2500000000260125E-02     0.0000000000000000E+00 
    6.2499999999897131E-02     6.2500000000235922E-02     0.0000000000000000E+00 
    6.2499999999921327E-02     1.2500000000047351E-01     0.0000000000000000E+00 
    6.2499999999945530E-02     1.8750000000070621E-01     0.0000000000000000E+00 
    6.2499999999969733E-02     2.5000000000093858E-01     0.0000000000000000E+00 
    6.2499999999993928E-02     3.1250000000117117E-01     0.0000000000000000E+00 
    6.2500000000018124E-02     3.7500000000140382E-01     0.0000000000000000E+00 
    6.2500000000042327E-02     4.3750000000163619E-01     0.0000000000000000E+00 
    6.2500000000066530E-02     5.0000000000184897E-01     0.0000000000000000E+00 
    6.2500000000090733E-02     5.6250000000147260E-01     0.0000000000000000E+00 
    6.2500000000114922E-02     6.2500000000107636E-01     0.0000000000000000E+00 
    6.2500000000139125E-02     6.8750000000068034E-01     0.0000000000000000E+00 
    6.2500000000163328E-02     7.5000000000028411E-01     0.0000000000000000E+00 
    6.2500000000187531E-02     8.1249999999988787E-01     0.0000000000000000E+00 
    6.2500000000211720E-02     8.7499999999951172E-01     0.0000000000000000E+00 
    6.2500000000235922E-02     9.3749999999974565E-01     0.0000000000000000E+00 
    1.2499999999981980E-01     6.2500000000211733E-02     0.0000000000000000E+00 
    1.2499999999986650E-01     1.2500000000042691E-01     0.0000000000000000E+00 
    1.2499999999991319E-01     1.8750000000063199E-01     0.0000000000000000E+00 
    1.2499999999995989E-01     2.5000000000083678E-01     0.0000000000000000E+00 
    1.2500000000000661E-01     3.1250000000104172E-01     0.0000000000000000E+00 
    1.2500000000005329E-01     3.7500000000124661E-01     0.0000000000000000E+00 
    1.2500000000010000E-01     4.3750000000145117E-01     0.0000000000000000E+00 
    1.2500000000014669E-01     5.0000000000163858E-01     0.0000000000000000E+00 
    1.2500000000019340E-01     5.6250000000129741E-01     0.0000000000000000E+00 
    1.2500000000024011E-01     6.2500000000093847E-01     0.0000000000000000E+00 
    1.2500000000028680E-01     6.8750000000057998E-01     0.0000000000000000E+00 
    1.2500000000033351E-01     7.5000000000022127E-01     0.0000000000000000E+00 
    1.2500000000038020E-01     8.1249999999986211E-01     0.0000000000000000E+00 
    1.2500000000042691E-01     8.7499999999952238E-01     0.0000000000000000E+00 
    1.2500000000047359E-01     9.3749999999975164E-01     0.0000000000000000E+00 
    1.8749999999966760E-01     6.2500000000187531E-02     0.0000000000000000E+00 
    1.8749999999974179E-01     1.2500000000038020E-01     0.0000000000000000E+00 
    1.8749999999981601E-01     1.8750000000055780E-01     0.0000000000000000E+00 
    1.8749999999989009E-01     2.5000000000073502E-01     0.0000000000000000E+00 
    1.8749999999996431E-01     3.1250000000091221E-01     0.0000000000000000E+00 
    1.8750000000003850E-01     3.7500000000108941E-01     0.0000000000000000E+00 
    1.8750000000011269E-01     4.3750000000126649E-01     0.0000000000000000E+00 
    1.8750000000018691E-01     5.0000000000142808E-01     0.0000000000000000E+00 
    1.8750000000026110E-01     5.6250000000112244E-01     0.0000000000000000E+00 
    1.8750000000033529E-01     6.2500000000080080E-01     0.0000000000000000E+00 
    1.8750000000040951E-01     6.8750000000047962E-01     0.0000000000000000E+00 
    1.8750000000048361E-01     7.5000000000015843E-01     0.0000000000000000E+00 
    1.8750000000055780E-01     8.1249999999983680E-01     0.0000000000000000E+00 
    1.8750000000063199E-01     8.7499999999953304E-01     0.0000000000000000E+00 
    1.8750000000070621E-01     9.3749999999975764E-01     0.0000000000000000E+00 
    2.4999999999951281E-01     6.2500000000163314E-02     0.0000000000000000E+00 
    2.4999999999961461E-01     1.2500000000033351E-01     0.0000000000000000E+00 
    2.4999999999971650E-01     1.8750000000048361E-01     0.0000000000000000E+00 
    2.4999999999981831E-01     2.5000000000063310E-01     0.0000000000000000E+00 
    2.4999999999992020E-01     3.1250000000078260E-01     0.0000000000000000E+00 
    2.5000000000002198E-01     3.7500000000093209E-01     0.0000000000000000E+00 
    2.5000000000012390E-01     4.3750000000108180E-01     0.0000000000000000E+00 
    2.5000000000022571E-01     5.0000000000121769E-01     0.0000000000000000E+00 
    2.5000000000032763E-01     5.6250000000094724E-01     0.0000000000000000E+00 
    2.5000000000042938E-01     6.2500000000066314E-01     0.0000000000000000E+00 
    2.5000000000053119E-01     6.8750000000037925E-01     0.0000000000000000E+00 
[...]
CELL_DATA 256 
SCALARS Pressure double 1 
LOOKUP_TABLE default 

    1.0574652346406663E+00 
    1.0408010202145652E+00 
    1.0268959389193659E+00 
    1.0152239737811568E+00 
    1.0052747410349858E+00 
    9.9669339327978224E-01 
    9.8923572892848377E-01 
    9.8273398794588229E-01 
    9.7707334231966303E-01 
    9.7217586042470383E-01 
    9.6798915609899150E-01 
    9.6447711809376657E-01 
    9.6160880204689159E-01 
    9.5933837951520262E-01 
    9.5759068186177332E-01 
    9.5660362013535216E-01 
    1.0006615271259920E+00 
    9.9786947473866272E-01 
    9.9355716840576858E-01 
    9.8854137968473232E-01 
    9.8328578082861695E-01 
    9.7806847186935653E-01 
    9.7305896112639778E-01 
    9.6836269587584500E-01 
    9.6404725343454090E-01 
    9.6015770707980586E-01 
    9.5672516523405959E-01 
    9.5376994297600082E-01 
    9.5129762558565445E-01 
    9.4928185284451982E-01 
    9.4766265499987679E-01 
    9.4673261052132740E-01 
    9.6125156848045945E-01 
    9.6031391182646808E-01 
    9.5857958218040207E-01 
    9.5624754745121665E-01 
    9.5350918671846530E-01 
    9.5053147013114703E-01 
    9.4745358727070328E-01 
    9.4438903617536252E-01 
    9.4142948126817394E-01 
    9.3864856345692538E-01 
    9.3610452336027894E-01 
    9.3384004814646715E-01 
    9.3187545298742103E-01 
    9.3018701549777105E-01 
    9.2875385575422731E-01 
    9.2793430261913457E-01 
    9.2433830336550238E-01 
    9.2386433642688937E-01 
    9.2294921550899922E-01 
    9.2165572338270374E-01 
    9.2005953478498004E-01 
    9.1824067537658294E-01 
    9.1627789742550858E-01 
    9.1424528644467618E-01 
    9.1221033474781255E-01 
    9.1023266005923720E-01 
    9.0836225969104900E-01 
    9.0663508804658099E-01 
    9.0506053614470394E-01 
    9.0358967039172167E-01 
    9.0229363979790178E-01 
    9.0159402799133959E-01 
    8.8637691897492010E-01 
    8.8607617840962727E-01 
    8.8548898353940730E-01 
    8.8464432317280051E-01 
    8.8357962747545160E-01 
    8.8233780918650417E-01 
    8.8096466057670708E-01 
    8.7950661704680466E-01 
    8.7800875610371421E-01 
    8.7651260952585863E-01 
    8.7505271593440304E-01 
    8.7364907386126978E-01 
    8.7228747642962523E-01 
    8.7089163483257781E-01 
    8.6967687976583008E-01 
    8.6907174840146983E-01 
    8.4620688344701822E-01 
    8.4598096793711663E-01 
    8.4553795682644672E-01 
    8.4489555549559081E-01 
    8.4407681941789181E-01 
    8.4310880600402927E-01 
    8.4202124334340211E-01 
    8.4084508897283938E-01 
    8.3961077277465979E-01 
    8.3834554405011641E-01 
    8.3706832590671076E-01 
    8.3577738983398042E-01 
    8.3441679763704779E-01 
    8.3297158821574036E-01 
    8.3184935611577748E-01 
    8.3132871683806309E-01 
    8.0340439223459159E-01 
    8.0320642109036289E-01 
    8.0281689273431500E-01 
    8.0224867772706343E-01 
    8.0151854516246801E-01 
    8.0064621988205542E-01 
    7.9965338709148281E-01 
    7.9856237610298553E-01 
    7.9739411672640537E-01 
    7.9616433477020887E-01 
    7.9487502627103801E-01 
    7.9349171523078232E-01 
    7.9191233827895413E-01 
    7.9033368915216340E-01 
    7.8929847568068823E-01 
    7.8884482722822158E-01 
    7.5785409841632245E-01 
    7.5765299741993319E-01 
    7.5725581117597618E-01 
    7.5667300960420170E-01 
    7.5591841388127112E-01 
    7.5500822420907254E-01 
    7.5395986831239503E-01 
    7.5279021583864547E-01 
    7.5151234135135969E-01 
    7.5012864392950218E-01 
    7.4861347775662423E-01 
    7.4687151683726238E-01 
    7.4492650634939772E-01 
    7.4331675310197687E-01 
    7.4236282311191348E-01 
    7.4192514184346503E-01 
    7.0960935025673000E-01 
    7.0937526544263352E-01 
    7.0891106431135753E-01 
    7.0822596165115104E-01 
    7.0733254404392354E-01 
    7.0624546247741360E-01 
    7.0497962109453494E-01 
    7.0354698944781136E-01 
    7.0195004969766650E-01 
    7.0016598094875515E-01 
    6.9810906190679867E-01 
    6.9573938520586731E-01 
    6.9351655275495128E-01 
    6.9199113003851753E-01 
    6.9108270431875796E-01 
    6.9063306493637289E-01 
    6.5884331085649017E-01 
    6.5853704521174306E-01 
    6.5792725475489733E-01 
    6.5702224132949927E-01 
    6.5583405201153044E-01 
    6.5437630651208134E-01 
    6.5266056569946485E-01 
    6.5068903563528924E-01 
    6.4843767908463579E-01 
    6.4582401553700608E-01 
    6.4284124524450537E-01 
    6.3993794269970095E-01 
    6.3774071465144067E-01 
    6.3627006394503161E-01 
    6.3532099119098751E-01 
    6.3484460424645039E-01 
    6.0580945577588174E-01 
    6.0536905639741612E-01 
    6.0448832317667711E-01 
    6.0317308676845138E-01 
    6.0143276682212721E-01 
    5.9927557266977449E-01 
    5.9669755052634266E-01 
    5.9366203570365583E-01 
    5.9012974441721322E-01 
    5.8624905861227095E-01 
    5.8255519822475099E-01 
    5.7961782069079248E-01 
    5.7747258178662686E-01 
    5.7590134026326745E-01 
    5.7483308265380795E-01 
    5.7429227411272821E-01 
    5.5067891794927593E-01 
    5.4999287084969817E-01 
    5.4861364633510346E-01 
    5.4653505901067390E-01 
    5.4374949016892149E-01 
    5.4025747961591575E-01 
    5.3610868368700693E-01 
    5.3146050230809938E-01 
    5.2662757627173273E-01 
    5.2211866795811390E-01 
    5.1830741077752385E-01 
    5.1517493727430907E-01 
    5.1257549655483803E-01 
    5.1050926522284079E-01 
    5.0907068343511852E-01 
    5.0833185856951579E-01 
    4.9327442036471952E-01 
    4.9218925536428498E-01 
    4.9005483901663360E-01 
    4.8693538617883281E-01 
    4.8292062839711802E-01 
    4.7814318455469923E-01 
    4.7281237461517994E-01 
    4.6722695600001041E-01 
    4.6169046696127264E-01 
    4.5639878899800601E-01 
    4.5137019591201005E-01 
    4.4662754052612419E-01 
    4.4236361878397229E-01 
    4.3884069476836096E-01 
    4.3631071499532753E-01 
    4.3498319437132094E-01 
    4.4076025030212918E-01 
    4.3944458183142615E-01 
    4.3685526546847525E-01 
    4.3306353234925082E-01 
    4.2816663315312531E-01 
    4.2228534174441301E-01 
    4.1555467146930331E-01 
    4.0810083370355754E-01 
    4.0000582145023206E-01 
    3.9134964392517241E-01 
    3.8233220633829346E-01 
    3.7330513573996238E-01 
    3.6474176382902818E-01 
    3.5724268188815089E-01 
    3.5152615506541801E-01 
    3.4835932393386032E-01 
    4.0390284395611420E-01 
    4.0230221708208669E-01 
    3.9909787830709142E-01 
    3.9428090992902387E-01 
    3.8783616271644011E-01 
    3.7973712465098547E-01 
    3.6994334358354181E-01 
    3.5841015809550014E-01 
    3.4511196169736341E-01 
    3.3006990670291997E-01 
    3.1339222607105732E-01 
    2.9534574410138054E-01 
    2.7647700917326978E-01 
    2.5781911782622463E-01 
    2.4124463822360337E-01 
    2.3006714218091168E-01 
    3.8472146409816937E-01 
    3.8280434553423354E-01 
    3.7893863700252645E-01 
    3.7305800847088111E-01 
    3.6505571748898058E-01 
    3.5477564338344708E-01 
    3.4199948127835650E-01 
    3.2642893827202063E-01 
    3.0766027336653240E-01 
    2.8514643962796232E-01 
    2.5814025918190170E-01 
    2.2560888204693677E-01 
    1.8610381870654488E-01 
    1.3756143631950632E-01 
    7.6993285781824516E-02 
    0.0000000000000000E+00 

SCALARS Saturarion double 1 
LOOKUP_TABLE default 

    1.0000000000000000E+00 
    9.4643521179778034E-01 
    9.0999336248789886E-01 
    8.7379761534077871E-01 
    8.3720610903999837E-01 
    8.0022135251732140E-01 
    7.6289270694969047E-01 
    7.2516928880244369E-01 
    6.8683497287204487E-01 
    6.4743538433478420E-01 
    6.0611874812211008E-01 
    5.6119794337133322E-01 
    5.0872191269545153E-01 
    4.3728820050793993E-01 
    3.0761761735956789E-01 
    7.0605176515225229E-02 
    8.8721303799021622E-01 
    8.6353665101608990E-01 
    8.3700510464209632E-01 
    8.0884793294378865E-01 
    7.7950718265159036E-01 
    7.4921089644943739E-01 
    7.1803734529025187E-01 
    6.8592477511137118E-01 
    6.5264877313517677E-01 
    6.1775214766128095E-01 
    5.8036485136071758E-01 
    5.3869737529057549E-01 
    4.8838085975706208E-01 
    4.1648648771223312E-01 
    2.7624825282938986E-01 
    4.4080917034493010E-02 
    8.0291209680343212E-01 
    7.8689586994629224E-01 
    7.6729860790472948E-01 
    7.4555053825694417E-01 
    7.2220367092629090E-01 
    6.9751696820110820E-01 
    6.7157492307952082E-01 
    6.4431320509089984E-01 
    6.1549796986893435E-01 
    5.8464593659931008E-01 
    5.5080929112251431E-01 
    5.1195080894662659E-01 
    4.6290721803274826E-01 
    3.8797510415491399E-01 
    2.2514107658410915E-01 
    1.8080186465297583E-02 
    7.3429859496946825E-01 
    7.2238550794968259E-01 
    7.0717066404078566E-01 
    6.8983200778237153E-01 
    6.7081517072315300E-01 
    6.5031540135987354E-01 
    6.2837487312447238E-01 
    6.0489601692494666E-01 
    5.7960789066942586E-01 
    5.5196241943831759E-01 
    5.2085579316366359E-01 
    4.8381454690524678E-01 
    4.3436084901092470E-01 
    3.5156903344521240E-01 
    1.4946786445223484E-01 
    3.9139119248871087E-03 
    6.7799531714542072E-01 
    6.6852413527371224E-01 
    6.5612217958387020E-01 
    6.4176556358321812E-01 
    6.2579252895409998E-01 
    6.0832472915274138E-01 
    5.8934802819510512E-01 
    5.6871342881054987E-01 
    5.4608566735738240E-01 
    5.2080172952945902E-01 
    4.9149172854154149E-01 
    4.5497081553569940E-01 
    4.0251387467922778E-01 
    3.0140681966658883E-01 
    6.5319491488883344E-02 
    3.2068736063199877E-04 
    6.3036295262824671E-01 
    6.2249487649210655E-01 
    6.1201724575445926E-01 
    5.9975867240132363E-01 
    5.8597632656150178E-01 
    5.7072995097136259E-01 
    5.5394941860364666E-01 
    5.3542298703114233E-01 
    5.1472201560044362E-01 
    4.9100236738963993E-01 
    4.6246997240435378E-01 
    4.2476852232357121E-01 
    3.6486789285677718E-01 
    2.2135285791255610E-01 
    1.4701187104690663E-02 
    5.8744300275364198E-06 
    5.8863734370665921E-01 
    5.8189349985906391E-01 
    5.7280611758332001E-01 
    5.6208600900045336E-01 
    5.4992561496867109E-01 
    5.3632973486399860E-01 
    5.2116876525006661E-01 
    5.0414980874885640E-01 
    4.8470572724450139E-01 
    4.6170365449969947E-01 
    4.3263729423920860E-01 
    3.9093977881422914E-01 
    3.1297824953273662E-01 
    1.0059308090382364E-01 
    9.6917809006542659E-04 
    6.3248903484060140E-09 
    5.5071024430989990E-01 
    5.4478439711635818E-01 
    5.3673529007183141E-01 
    5.2717003908845250E-01 
    5.1622137839669180E-01 
    5.0383613728970711E-01 
    4.8981027747542333E-01 
    4.7373269044890265E-01 
    4.5481341055967056E-01 
    4.3141687277750357E-01 
    3.9965068002729559E-01 
    3.4771389448341550E-01 
    2.2033433685691634E-01 
    1.6086742768830025E-02 
    6.0719847454703461E-06 
    2.4561048605957186E-14 
    5.1473824034551707E-01 
    5.0940794775116949E-01 
    5.0213478320115656E-01 
    4.9342513790363618E-01 
    4.8334587447965838E-01 
    4.7176870786148151E-01 
    4.5837823667591843E-01 
    4.4256459373778384E-01 
    4.2312210679616902E-01 
    3.9736020668519439E-01 
    3.5789086503646789E-01 
    2.7563852357059526E-01 
    6.9683187240318772E-02 
    2.8714669064118346E-04 
    1.6267398785560913E-10 
    4.8220515381430865E-26 
    4.7863646461457404E-01 
    4.7370295870134338E-01 
    4.6696319512186635E-01 
    4.5881410505914805E-01 
    4.4923380167848759E-01 
    4.3797340081077252E-01 
    4.2451294558112135E-01 
    4.0783049797672982E-01 
    3.8572197126108815E-01 
    3.5242972596795752E-01 
    2.8751553752585213E-01 
    1.2023066915929261E-01 
    2.2608751365692523E-03 
    1.9454815689426753E-08 
    1.5874557409632153E-21 
    4.1573933647133147E-55 
    4.3906057893785377E-01 
    4.3426093049324838E-01 
    4.2771482140946759E-01 
    4.1967857292616889E-01 
    4.0997474401465855E-01 
    3.9809796214669674E-01 
    3.8301700611396450E-01 
    3.6248436495021835E-01 
    3.3060171184744569E-01 
    2.6734306476444719E-01 
    1.1974549200451007E-01 
    5.0858051142955623E-03 
    2.0913920953832069E-07 
    3.1084939639485361E-19 
    3.4904538577011394E-50 
   8.0402414344507782E-131 
    3.8820149107344970E-01 
    3.8290611778238737E-01 
    3.7567006655149304E-01 
    3.6647890726767168E-01 
    3.5470590141552905E-01 
    3.3890766297709324E-01 
    3.1575141875878748E-01 
    2.7641406611577446E-01 
    1.9676160226343864E-01 
    7.0450523927625242E-02 
    3.4649183202590879E-03 
    4.6337576952910672E-07 
    3.5686013423083741E-18 
    9.1365427498716853E-48 
   1.6378107746291727E-125 
    0.0000000000000000E+00 
    3.0006825360604422E-01 
    2.9152467975312379E-01 
    2.7934693874307803E-01 
    2.6242407370841431E-01 
    2.3802049304580061E-01 
    2.0102378140939253E-01 
    1.4517667945155813E-01 
    7.4554703544513046E-02 
    1.7468193980735007E-02 
    6.0322896992232771E-04 
    1.3156055559531500E-07 
    6.2807569912155330E-18 
    8.6809238056649118E-47 
   3.9880863050047258E-123 
    0.0000000000000000E+00 
    0.0000000000000000E+00 
    1.1459248031636918E-01 
    1.0146808684842573E-01 
    8.4290720411657277E-02 
    6.3942295774606514E-02 
    4.1867667299512586E-02 
    2.1147325909676863E-02 
    6.5763895629489220E-03 
    7.8450489422446520E-04 
    1.1722882367631086E-05 
    1.2485766241696916E-09 
    2.1139601477065245E-19 
    9.7152941549196067E-47 
   2.0833442553387077E-122 
   1.2648080533535912E-321 
    0.0000000000000000E+00 
    0.0000000000000000E+00 
    3.5545550073459954E-03 
    2.4195715721510450E-03 
    1.3602672655760686E-03 
    5.8947447639251353E-04 
    1.7005283021086391E-04 
    2.4518987464602757E-05 
    9.9132084629552171E-07 
    3.1196591055843560E-09 
    4.0083174832924234E-14 
    9.7181924730593691E-25 
    1.1548739542236990E-50 
   1.1130435569991354E-122 
   2.5296161067071823E-321 
    0.0000000000000000E+00 
    0.0000000000000000E+00 
    0.0000000000000000E+00 
    2.4730912974571428E-07 
    9.1010984406281578E-08 
    2.0220738980515217E-08 
    2.2536308208434965E-09 
    8.5041372058253007E-11 
    5.0240581966150284E-13 
    9.4731536511691375E-17 
    1.9384712970631132E-23 
    1.5919437855070134E-36 
    1.0389251284164084E-64 
   3.7215642551869623E-133 
    0.0000000000000000E+00 
    0.0000000000000000E+00 
    0.0000000000000000E+00 
    0.0000000000000000E+00 
    0.0000000000000000E+00 
