# vtk DataFile Version 2.0
Pressure Field Data 
ASCII 
DATASET UNSTRUCTURED_GRID 

POINTS 289 double 

    0.0000000000000000E+00     0.0000000000000000E+00     0.0000000000000000E+00 
    1.0000000000000000E+00     0.0000000000000000E+00     0.0000000000000000E+00 
    1.0000000000000000E+00     1.0000000000000000E+00     0.0000000000000000E+00 
    0.0000000000000000E+00     1.0000000000000000E+00     0.0000000000000000E+00 
    6.2499999999872928E-02     0.0000000000000000E+00     0.0000000000000000E+00 
    1.2499999999977310E-01     0.0000000000000000E+00     0.0000000000000000E+00 
    1.8749999999959341E-01     0.0000000000000000E+00     0.0000000000000000E+00 
    2.4999999999941089E-01     0.0000000000000000E+00     0.0000000000000000E+00 
    3.1249999999922851E-01     0.0000000000000000E+00     0.0000000000000000E+00 
    3.7499999999904610E-01     0.0000000000000000E+00     0.0000000000000000E+00 
    4.3749999999886358E-01     0.0000000000000000E+00     0.0000000000000000E+00 
    4.9999999999869210E-01     0.0000000000000000E+00     0.0000000000000000E+00 
    5.6249999999884603E-01     0.0000000000000000E+00     0.0000000000000000E+00 
    6.2499999999901090E-01     0.0000000000000000E+00     0.0000000000000000E+00 
    6.8749999999917577E-01     0.0000000000000000E+00     0.0000000000000000E+00 
    7.4999999999934064E-01     0.0000000000000000E+00     0.0000000000000000E+00 
    8.1249999999950551E-01     0.0000000000000000E+00     0.0000000000000000E+00 
    8.7499999999967026E-01     0.0000000000000000E+00     0.0000000000000000E+00 
    9.3749999999983513E-01     0.0000000000000000E+00     0.0000000000000000E+00 
    1.0000000000000000E+00     6.2499999999872928E-02     0.0000000000000000E+00 
    1.0000000000000000E+00     1.2499999999977310E-01     0.0000000000000000E+00 
    1.0000000000000000E+00     1.8749999999959341E-01     0.0000000000000000E+00 
    1.0000000000000000E+00     2.4999999999941089E-01     0.0000000000000000E+00 
    1.0000000000000000E+00     3.1249999999922851E-01     0.0000000000000000E+00 
    1.0000000000000000E+00     3.7499999999904610E-01     0.0000000000000000E+00 
    1.0000000000000000E+00     4.3749999999886358E-01     0.0000000000000000E+00 
    1.0000000000000000E+00     4.9999999999869210E-01     0.0000000000000000E+00 
    1.0000000000000000E+00     5.6249999999884603E-01     0.0000000000000000E+00 
    1.0000000000000000E+00     6.2499999999901090E-01     0.0000000000000000E+00 
    1.0000000000000000E+00     6.8749999999917577E-01     0.0000000000000000E+00 
    1.0000000000000000E+00     7.4999999999934064E-01     0.0000000000000000E+00 
    1.0000000000000000E+00     8.1249999999950551E-01     0.0000000000000000E+00 
    1.0000000000000000E+00     8.7499999999967026E-01     0.0000000000000000E+00 
    1.0000000000000000E+00     9.3749999999983513E-01     0.0000000000000000E+00 
    9.3749999999973976E-01     1.0000000000000000E+00     0.0000000000000000E+00 
    8.7499999999950118E-01     1.0000000000000000E+00     0.0000000000000000E+00 
    8.1249999999991318E-01     1.0000000000000000E+00     0.0000000000000000E+00 
    7.5000000000034706E-01     1.0000000000000000E+00     0.0000000000000000E+00 
    6.8750000000078049E-01     1.0000000000000000E+00     0.0000000000000000E+00 
    6.2500000000121403E-01     1.0000000000000000E+00     0.0000000000000000E+00 
    5.6250000000164757E-01     1.0000000000000000E+00     0.0000000000000000E+00 
    5.0000000000205946E-01     1.0000000000000000E+00     0.0000000000000000E+00 
    4.3750000000182099E-01     1.0000000000000000E+00     0.0000000000000000E+00 
    3.7500000000156092E-01     1.0000000000000000E+00     0.0000000000000000E+00 
    3.1250000000130068E-01     1.0000000000000000E+00     0.0000000000000000E+00 
    2.5000000000104050E-01     1.0000000000000000E+00     0.0000000000000000E+00 
    1.8750000000078040E-01     1.0000000000000000E+00     0.0000000000000000E+00 
    1.2500000000052031E-01     1.0000000000000000E+00     0.0000000000000000E+00 
    6.2500000000260125E-02     1.0000000000000000E+00     0.0000000000000000E+00 
    0.0000000000000000E+00     9.3749999999973976E-01     0.0000000000000000E+00 
    0.0000000000000000E+00     8.7499999999950118E-01     0.0000000000000000E+00 
    0.0000000000000000E+00     8.1249999999991318E-01     0.0000000000000000E+00 
    0.0000000000000000E+00     7.5000000000034706E-01     0.0000000000000000E+00 
    0.0000000000000000E+00     6.8750000000078049E-01     0.0000000000000000E+00 
    0.0000000000000000E+00     6.2500000000121403E-01     0.0000000000000000E+00 
    0.0000000000000000E+00     5.6250000000164757E-01     0.0000000000000000E+00 
    0.0000000000000000E+00     5.0000000000205946E-01     0.0000000000000000E+00 
    0.0000000000000000E+00     4.3750000000182099E-01     0.0000000000000000E+00 
    0.0000000000000000E+00     3.7500000000156092E-01     0.0000000000000000E+00 
    0.0000000000000000E+00     3.1250000000130068E-01     0.0000000000000000E+00 
    0.0000000000000000E+00     2.5000000000104050E-01     0.0000000000000000E+00 
    0.0000000000000000E+00     1.8750000000078040E-01     0.0000000000000000E+00 
    0.0000000000000000E+00     1.2500000000052031E-01     0.0000000000000000E+00 
    0.0000000000000000E+00     6.2500000000260125E-02     0.0000000000000000E+00 
    6.2499999999897131E-02     6.2500000000235922E-02     0.0000000000000000E+00 
    6.2499999999921327E-02     1.2500000000047351E-01     0.0000000000000000E+00 
    6.2499999999945530E-02     1.8750000000070621E-01     0.0000000000000000E+00 
    6.2499999999969733E-02     2.5000000000093858E-01     0.0000000000000000E+00 
    6.2499999999993928E-02     3.1250000000117117E-01     0.0000000000000000E+00 
    6.2500000000018124E-02     3.7500000000140382E-01     0.0000000000000000E+00 
    6.2500000000042327E-02     4.3750000000163619E-01     0.0000000000000000E+00 
    6.2500000000066530E-02     5.0000000000184897E-01     0.0000000000000000E+00 
    6.2500000000090733E-02     5.6250000000147260E-01     0.0000000000000000E+00 
    6.2500000000114922E-02     6.2500000000107636E-01     0.0000000000000000E+00 
    6.2500000000139125E-02     6.8750000000068034E-01     0.0000000000000000E+00 
    6.2500000000163328E-02     7.5000000000028411E-01     0.0000000000000000E+00 
    6.2500000000187531E-02     8.1249999999988787E-01     0.0000000000000000E+00 
    6.2500000000211720E-02     8.7499999999951172E-01     0.0000000000000000E+00 
    6.2500000000235922E-02     9.3749999999974565E-01     0.0000000000000000E+00 
    1.2499999999981980E-01     6.2500000000211733E-02     0.0000000000000000E+00 
    1.2499999999986650E-01     1.2500000000042691E-01     0.0000000000000000E+00 
    1.2499999999991319E-01     1.8750000000063199E-01     0.0000000000000000E+00 
    1.2499999999995989E-01     2.5000000000083678E-01     0.0000000000000000E+00 
    1.2500000000000661E-01     3.1250000000104172E-01     0.0000000000000000E+00 
    1.2500000000005329E-01     3.7500000000124661E-01     0.0000000000000000E+00 
    1.2500000000010000E-01     4.3750000000145117E-01     0.0000000000000000E+00 
    1.2500000000014669E-01     5.0000000000163858E-01     0.0000000000000000E+00 
    1.2500000000019340E-01     5.6250000000129741E-01     0.0000000000000000E+00 
    1.2500000000024011E-01     6.2500000000093847E-01     0.0000000000000000E+00 
    1.2500000000028680E-01     6.8750000000057998E-01     0.0000000000000000E+00 
    1.2500000000033351E-01     7.5000000000022127E-01     0.0000000000000000E+00 
    1.2500000000038020E-01     8.1249999999986211E-01     0.0000000000000000E+00 
    1.2500000000042691E-01     8.7499999999952238E-01     0.0000000000000000E+00 
    1.2500000000047359E-01     9.3749999999975164E-01     0.0000000000000000E+00 
    1.8749999999966760E-01     6.2500000000187531E-02     0.0000000000000000E+00 
    1.8749999999974179E-01     1.2500000000038020E-01     0.0000000000000000E+00 
    1.8749999999981601E-01     1.8750000000055780E-01     0.0000000000000000E+00 
    1.8749999999989009E-01     2.5000000000073502E-01     0.0000000000000000E+00 
    1.8749999999996431E-01     3.1250000000091221E-01     0.0000000000000000E+00 
    1.8750000000003850E-01     3.7500000000108941E-01     0.0000000000000000E+00 
    1.8750000000011269E-01     4.3750000000126649E-01     0.0000000000000000E+00 
    1.8750000000018691E-01     5.0000000000142808E-01     0.0000000000000000E+00 
    1.8750000000026110E-01     5.6250000000112244E-01     0.0000000000000000E+00 
    1.8750000000033529E-01     6.2500000000080080E-01     0.0000000000000000E+00 
    1.8750000000040951E-01     6.8750000000047962E-01     0.0000000000000000E+00 
    1.8750000000048361E-01     7.5000000000015843E-01     0.0000000000000000E+00 
    1.8750000000055780E-01     8.1249999999983680E-01     0.0000000000000000E+00 
    1.8750000000063199E-01     8.7499999999953304E-01     0.0000000000000000E+00 
    1.8750000000070621E-01     9.3749999999975764E-01     0.0000000000000000E+00 
    2.4999999999951281E-01     6.2500000000163314E-02     0.0000000000000000E+00 
    2.4999999999961461E-01     1.2500000000033351E-01     0.0000000000000000E+00 
    2.4999999999971650E-01     1.8750000000048361E-01     0.0000000000000000E+00 
    2.4999999999981831E-01     2.5000000000063310E-01     0.0000000000000000E+00 
    2.4999999999992020E-01     3.1250000000078260E-01     0.0000000000000000E+00 
    2.5000000000002198E-01     3.7500000000093209E-01     0.0000000000000000E+00 
    2.5000000000012390E-01     4.3750000000108180E-01     0.0000000000000000E+00 
    2.5000000000022571E-01     5.0000000000121769E-01     0.0000000000000000E+00 
    2.5000000000032763E-01     5.6250000000094724E-01     0.0000000000000000E+00 
    2.5000000000042938E-01     6.2500000000066314E-01     0.0000000000000000E+00 
    2.5000000000053119E-01     6.8750000000037925E-01     0.0000000000000000E+00 
[...]
CELL_DATA 256 
SCALARS Pressure double 1 
LOOKUP_TABLE default 

    1.0395674790460767E+00 
    1.0229713302788310E+00 
    1.0091758973656493E+00 
    9.9762886642442605E-01 
    9.8781268806628098E-01 
    9.7936785457320497E-01 
    9.7204671539588738E-01 
    9.6567880179652654E-01 
    9.6014710757389066E-01 
    9.5537199504090997E-01 
    9.5129996308633891E-01 
    9.4789487065250555E-01 
    9.4512833695310272E-01 
    9.4296332882966472E-01 
    9.4133409341731711E-01 
    9.4039959492283309E-01 
    9.8329122622584342E-01 
    9.8053515969803740E-01 
    9.7628961329035824E-01 
    9.7136091038956385E-01 
    9.6620669935019099E-01 
    9.6110014260987719E-01 
    9.5620663390086647E-01 
    9.5162819736215865E-01 
    9.4742959503849788E-01 
    9.4365367947243461E-01 
    9.4033007974094907E-01 
    9.3747895035808904E-01 
    9.3510882380405125E-01 
    9.3320372531033058E-01 
    9.3170715982371544E-01 
    9.3082841972172881E-01 
    9.4463260176929364E-01 
    9.4371747010543894E-01 
    9.4202697420065951E-01 
    9.3975677552198200E-01 
    9.3709478229266374E-01 
    9.3420458954850538E-01 
    9.3122223551047489E-01 
    9.2825837724256788E-01 
    9.2540223001712807E-01 
    9.2272551385349588E-01 
    9.2028540745112863E-01 
    9.1812531049792057E-01 
    9.1627058111232829E-01 
    9.1471299395503702E-01 
    9.1340902312924299E-01 
    9.1262962770910228E-01 
    9.0862732101453048E-01 
    9.0817102106999681E-01 
    9.0729054661965980E-01 
    9.0604699143574174E-01 
    9.0451403015215959E-01 
    9.0276956647765882E-01 
    9.0089024153307184E-01 
    8.9894816596263982E-01 
    8.9700915207472254E-01 
    8.9513170979938761E-01 
    8.9336592027793660E-01 
    8.9175059397167700E-01 
    8.9030499763783455E-01 
    8.8900661594081876E-01 
    8.8785369160415784E-01 
    8.8718329361470072E-01 
    8.7172853997634459E-01 
    8.7144344159885168E-01 
    8.7088706048817432E-01 
    8.7008731125850547E-01 
    8.6908032596833407E-01 
    8.6790760846905735E-01 
    8.6661352225569144E-01 
    8.6524316168393811E-01 
    8.6384052154435031E-01 
    8.6244665678636534E-01 
    8.6109707440437255E-01 
    8.5981643183064427E-01 
    8.5860531018202979E-01 
    8.5740676178563169E-01 
    8.5631545160226408E-01 
    8.5573493000943779E-01 
    8.3277674978622906E-01 
    8.3256601070006520E-01 
    8.3215307711954389E-01 
    8.3155499266060373E-01 
    8.3079402249608647E-01 
    8.2989640836975964E-01 
    8.2889114677529974E-01 
    8.2780871991828775E-01 
    8.2667966693482964E-01 
    8.2553264513667834E-01 
    8.2439101507308343E-01 
    8.2326521660515095E-01 
    8.2213244985676071E-01 
    8.2091840808057326E-01 
    8.1985602164181903E-01 
    8.1933476718302845E-01 
    7.9135221238699227E-01 
    7.9117011030465689E-01 
    7.9081226291439533E-01 
    7.9029126916763737E-01 
    7.8962360079344041E-01 
    7.8882877779067095E-01 
    7.8792852905326660E-01 
    7.8694575195134608E-01 
    7.8590303038493592E-01 
    7.8482011769260240E-01 
    7.8370876107149445E-01 
    7.8255985648400817E-01 
    7.8130725734314865E-01 
    7.7996461781285542E-01 
    7.7895604425839660E-01 
    7.7849687818494340E-01 
    7.4735028871832521E-01 
    7.4716687978229412E-01 
    7.4680532705983615E-01 
    7.4627634673465371E-01 
    7.4559415810637852E-01 
    7.4477570451683872E-01 
    7.4383981209517047E-01 
    7.4280599165619332E-01 
    7.4169245259069450E-01 
    7.4051225421536904E-01 
    7.3926441395851694E-01 
    7.3790924960991833E-01 
    7.3634598626402470E-01 
    7.3481413994792699E-01 
    7.3383699364563870E-01 
    7.3341182975542019E-01 
    7.0085056533992574E-01 
    7.0063738032570744E-01 
    7.0021571427211604E-01 
    6.9959581707753393E-01 
    6.9879175933806481E-01 
    6.9782050150165309E-01 
    6.9670076913806411E-01 
    6.9545125877359715E-01 
    6.9408731385259170E-01 
    6.9261371016190820E-01 
    6.9100586073467929E-01 
    6.8916526772718101E-01 
    6.8715043198066517E-01 
    6.8553431417350164E-01 
    6.8457910898280872E-01 
    6.8413293182074275E-01 
    6.5209013247738978E-01 
    6.5181055089060203E-01 
    6.5125577758706155E-01 
    6.5043657818290979E-01 
    6.4936848935950797E-01 
    6.4807053955068927E-01 
    6.4656345427025097E-01 
    6.4486642074225742E-01 
    6.4299023963903335E-01 
    6.4092020718532494E-01 
    6.3857380437030509E-01 
    6.3593359746173728E-01 
    6.3352374239882614E-01 
    6.3188122595569762E-01 
    6.3088920447583097E-01 
    6.3039412447917931E-01 
    6.0147891516553409E-01 
    6.0107789965552916E-01 
    6.0027970807293030E-01 
    5.9909601506847776E-01 
    5.9754473089801752E-01 
    5.9564794055200010E-01 
    5.9342851203136004E-01 
    5.9090313960057628E-01 
    5.8806457459615946E-01 
    5.8484373369463083E-01 
    5.8126443667337802E-01 
    5.7784978601639647E-01 
    5.7525630378612180E-01 
    5.7347265885769261E-01 
    5.7229754114398768E-01 
    5.7170451991860660E-01 
    5.4958675332907625E-01 
    5.4897542607021510E-01 
    5.4775465648144339E-01 
    5.4593567323737935E-01 
    5.4353660809174753E-01 
    5.4057686012496142E-01 
    5.3706501929372130E-01 
    5.3298331856133907E-01 
    5.2834062205416155E-01 
    5.2334323283834527E-01 
    5.1858821308653436E-01 
    5.1469645007083342E-01 
    5.1171375232270411E-01 
    5.0945008894205790E-01 
    5.0788521208434767E-01 
    5.0708470310551257E-01 
    4.9691520032921471E-01 
    4.9593501754935959E-01 
    4.9397336401031011E-01 
    4.9103698242439392E-01 
    4.8714395770292557E-01 
    4.8233814469015146E-01 
    4.7671296643475314E-01 
    4.7043530078400159E-01 
    4.6382101897481709E-01 
    4.5740652237363350E-01 
    4.5162299269239342E-01 
    4.4653363637645893E-01 
    4.4209467065624874E-01 
    4.3844358201866773E-01 
    4.3582920423643118E-01 
    4.3445979650511174E-01 
    4.4499010191573246E-01 
    4.4360038317588846E-01 
    4.4084338699140513E-01 
    4.3675907199838904E-01 
    4.3140798408226871E-01 
    4.2489218400999129E-01 
    4.1738117469381192E-01 
    4.0911382804362406E-01 
    4.0036169664660315E-01 
    3.9137893208370034E-01 
    3.8228073990899686E-01 
    3.7321634465382875E-01 
    3.6460923085156488E-01 
    3.5706996654790846E-01 
    3.5132349587949874E-01 
    3.4814081259232182E-01 
    4.0558317835731827E-01 
    4.0388275251429623E-01 
    4.0048988097839616E-01 
    3.9541302407211759E-01 
    3.8866178422409114E-01 
    3.8024962966632958E-01 
    3.7019503713758217E-01 
    3.5850796902939480E-01 
    3.4515642748470438E-01 
    3.3009860484944953E-01 
    3.1340327248108996E-01 
    2.9533560525390040E-01 
    2.7644529607785184E-01 
    2.5776841472441109E-01 
    2.4117991371008823E-01 
    2.2999499580785412E-01 
    3.8574535471992727E-01 
    3.8378088450157222E-01 
    3.7982779238444442E-01 
    3.7383086688751332E-01 
    3.6569761192454597E-01 
    3.5528679458930201E-01 
    3.4239246265882944E-01 
    3.2672355322434155E-01 
    3.0787744294398972E-01 
    2.8530350421633449E-01 
    2.5825005562417253E-01 
    2.2568128534633042E-01 
    1.8614708307774874E-01 
    1.3758305950918251E-01 
    7.7000500419121987E-02 
    0.0000000000000000E+00 

SCALARS Saturarion double 1 
LOOKUP_TABLE default 

    1.0000000000000000E+00 
    9.4945200754828107E-01 
    9.1473390760536610E-01 
    8.7999989111508969E-01 
    8.4465856355577440E-01 
    8.0873261762062010E-01 
    7.7229257370303461E-01 
    7.3531389040006623E-01 
    6.9761320292012596E-01 
    6.5878025206022706E-01 
    6.1803620463329234E-01 
    5.7385496315779694E-01 
    5.2275548655771897E-01 
    4.5494685191942469E-01 
    3.3681080440352418E-01 
    9.8324573351733127E-02 
    8.9225238049354327E-01 
    8.6956045528804360E-01 
    8.4402378261472955E-01 
    8.1678280080666266E-01 
    7.8826220063325536E-01 
    7.5868836812830809E-01 
    7.2814674313875993E-01 
    6.9658961081857484E-01 
    6.6381476289311714E-01 
    6.2940230722022583E-01 
    5.9255688130537665E-01 
    5.5167620626360780E-01 
    5.0297067081468105E-01 
    4.3554916916806452E-01 
    3.1064425269684454E-01 
    6.8666081335299306E-02 
    8.1056650225318216E-01 
    7.9506932187687318E-01 
    7.7605786528111631E-01 
    7.5488212327620119E-01 
    7.3207048765680516E-01 
    7.0787506195738692E-01 
    6.8238240009668483E-01 
    6.5553778171685939E-01 
    6.2712720101104424E-01 
    5.9670744476038362E-01 
    5.6342215120286399E-01 
    5.2548284797270850E-01 
    4.7851334716098348E-01 
    4.0968912081124381E-01 
    2.6956367190882363E-01 
    3.5090007976063098E-02 
    7.4370699138423557E-01 
    7.3209978785892038E-01 
    7.1725216499389322E-01 
    7.0028743904944923E-01 
    6.8163370627714359E-01 
    6.6148131692137080E-01 
    6.3987524148301811E-01 
    6.1672883147020896E-01 
    5.9179537077213384E-01 
    5.6458013175663813E-01 
    5.3411033913673678E-01 
    4.9828140188932812E-01 
    4.5179509367972959E-01 
    3.7857289821198042E-01 
    2.0809720417297595E-01 
    1.1415901753472027E-02 
    6.8875324410086725E-01 
    6.7947872638599172E-01 
    6.6732303753574462E-01 
    6.5322634341006214E-01 
    6.3751577850598629E-01 
    6.2031178514619656E-01 
    6.0160648714267362E-01 
    5.8126721817249760E-01 
    5.5899449234661092E-01 
    5.3420689017167511E-01 
    5.0574099438736042E-01 
    4.7099995408074796E-01 
    4.2323065763083156E-01 
    3.4001829619482277E-01 
    1.2329493129093697E-01 
    1.8589969973320649E-03 
    6.4231586186685030E-01 
    6.3458773616358166E-01 
    6.2429094274979835E-01 
    6.1223113139879648E-01 
    5.9866002549466824E-01 
    5.8364074344370054E-01 
    5.6711539610171258E-01 
    5.4889905917520165E-01 
    5.2862081069023725E-01 
    5.0556965296628698E-01 
    4.7829197000277668E-01 
    4.4343108741955234E-01 
    3.9173476540364599E-01 
    2.8578855505853956E-01 
    4.5540312309915176E-02 
    1.1257836233628274E-04 
    6.0179166277203011E-01 
    5.9516392199848067E-01 
    5.8623066645393662E-01 
    5.7568919572459787E-01 
    5.6373243297618492E-01 
    5.5037529280432784E-01 
    5.3551113394285810E-01 
    5.1889406063512666E-01 
    5.0005692012929703E-01 
    4.7809994642393283E-01 
    4.5113016286172075E-01 
    4.1454698792657596E-01 
    3.5416756558840290E-01 
    1.9749667403847457E-01 
    8.5861251698296139E-03 
    1.4318288798470338E-06 
    5.6522331387356606E-01 
    5.5941708600532725E-01 
    5.5153129475986773E-01 
    5.4216728183409257E-01 
    5.3146623093806555E-01 
    5.1939658203660521E-01 
    5.0579722238270863E-01 
    4.9034310703563527E-01 
    4.7242851920087847E-01 
    4.5086234289079719E-01 
    4.2301749344417400E-01 
    3.8189012754584511E-01 
    3.0066769623201550E-01 
    7.7810149943751350E-02 
    4.4139596500009944E-04 
    9.3846594722697349E-10 
    5.3098331188573356E-01 
    5.2580885136579114E-01 
    5.1875462300598041E-01 
    5.1032942723344632E-01 
    5.0062205329581722E-01 
    4.8954821796979126E-01 
    4.7687650917771573E-01 
    4.6216756805206344E-01 
    4.4459685491626411E-01 
    4.2247129104097780E-01 
    3.9171807705365047E-01 
    3.3953380777148667E-01 
    2.0257216279878343E-01 
    1.0714835435440453E-02 
    2.1030712071688226E-06 
    1.6931223961297434E-15 
    4.9740713319646751E-01 
    4.9272055755582528E-01 
    4.8633602346755167E-01 
    4.7866592443332645E-01 
    4.6973821716885433E-01 
    4.5939896793637069E-01 
    4.4731252793471754E-01 
    4.3285217799212056E-01 
    4.1479333906158361E-01 
    3.9039418176384189E-01 
    3.5194238839254477E-01 
    2.6740082275863791E-01 
    5.7215915097611120E-02 
    1.5686911730558429E-04 
    3.1116471668711435E-11 
    4.1860501433152613E-28 
    4.6218183623963766E-01 
    4.5784453372818046E-01 
    4.5197501201479579E-01 
    4.4487803278243598E-01 
    4.3650038371393796E-01 
    4.2658012870381318E-01 
    4.1459751545511869E-01 
    3.9955050767530953E-01 
    3.7928310556652722E-01 
    3.4807417097860344E-01 
    2.8459578708245414E-01 
    1.1205363087825157E-01 
    1.5917878420515905E-03 
    6.5093381370028552E-09 
    4.3209270895122877E-23 
    4.0911883868045079E-60 
    4.2071944834627473E-01 
    4.1650219967783553E-01 
    4.1087670618462002E-01 
    4.0401389632226209E-01 
    3.9572368604660041E-01 
    3.8552352820365388E-01 
    3.7244980064413535E-01 
    3.5440755679791008E-01 
    3.2579264734310992E-01 
    2.6626467064700898E-01 
    1.1648132858433291E-01 
    3.9894763300475991E-03 
    8.3203735828037108E-08 
    1.2507337033559513E-20 
    7.8178510279712662E-55 
   1.9893791049922957E-145 
    3.5997571531965955E-01 
    3.5510135925612529E-01 
    3.4869068508154250E-01 
    3.4064722088753147E-01 
    3.3033464984789818E-01 
    3.1633869641916146E-01 
    2.9539803251209384E-01 
    2.5867536412395609E-01 
    1.8206332025739189E-01 
    6.3200755755236260E-02 
    2.6429473818291331E-03 
    1.6753167137658576E-07 
    1.2352049300542844E-19 
    1.6647548632422885E-52 
   2.9082303621056769E-140 
    0.0000000000000000E+00 
    2.3260314999003445E-01 
    2.2335722636794933E-01 
    2.1086646254798028E-01 
    1.9426283182678894E-01 
    1.7168688956532846E-01 
    1.4041879940435320E-01 
    9.8393376770430613E-02 
    4.9491875923537376E-02 
    1.1206729292998704E-02 
    3.4252604724193059E-04 
    3.9310674219173305E-08 
    1.4538227721807627E-19 
    8.3931222915139019E-52 
   2.2002205893574822E-138 
    0.0000000000000000E+00 
    0.0000000000000000E+00 
    3.8050502670066010E-02 
    3.2325019572834096E-02 
    2.5650239628130372E-02 
    1.8549483872692188E-02 
    1.1591400598633289E-02 
    5.6322097089653179E-03 
    1.7114919631901582E-03 
    1.9776060799020867E-04 
    2.6201324740018385E-06 
    1.5504972716830709E-10 
    2.8067838040707831E-21 
    4.4660425387740800E-52 
   3.9307534754609460E-138 
    0.0000000000000000E+00 
    0.0000000000000000E+00 
    0.0000000000000000E+00 
    1.1480672240783955E-04 
    7.2405023134996450E-05 
    3.7717031155862908E-05 
    1.5208546165865149E-05 
    4.1152666980449761E-06 
    5.5984153347701795E-07 
    2.0706473961580451E-08 
    5.2878079165715269E-11 
    3.4821955249760482E-16 
    9.7726819154991194E-28 
    9.7090607753051971E-57 
   5.3969938087491624E-139 
    0.0000000000000000E+00 
    0.0000000000000000E+00 
    0.0000000000000000E+00 
    0.0000000000000000E+00 
