# vtk DataFile Version 2.0
Pressure Field Data 
ASCII 
DATASET UNSTRUCTURED_GRID 

POINTS 289 double 

    0.0000000000000000E+00     0.0000000000000000E+00     0.0000000000000000E+00 
    1.0000000000000000E+00     0.0000000000000000E+00     0.0000000000000000E+00 
    1.0000000000000000E+00     1.0000000000000000E+00     0.0000000000000000E+00 
    0.0000000000000000E+00     1.0000000000000000E+00     0.0000000000000000E+00 
    6.2499999999872928E-02     0.0000000000000000E+00     0.0000000000000000E+00 
    1.2499999999977310E-01     0.0000000000000000E+00     0.0000000000000000E+00 
    1.8749999999959341E-01     0.0000000000000000E+00     0.0000000000000000E+00 
    2.4999999999941089E-01     0.0000000000000000E+00     0.0000000000000000E+00 
    3.1249999999922851E-01     0.0000000000000000E+00     0.0000000000000000E+00 
    3.7499999999904610E-01     0.0000000000000000E+00     0.0000000000000000E+00 
    4.3749999999886358E-01     0.0000000000000000E+00     0.0000000000000000E+00 
    4.9999999999869210E-01     0.0000000000000000E+00     0.0000000000000000E+00 
    5.6249999999884603E-01     0.0000000000000000E+00     0.0000000000000000E+00 
    6.2499999999901090E-01     0.0000000000000000E+00     0.0000000000000000E+00 
    6.8749999999917577E-01     0.0000000000000000E+00     0.0000000000000000E+00 
    7.4999999999934064E-01     0.0000000000000000E+00     0.0000000000000000E+00 
    8.1249999999950551E-01     0.0000000000000000E+00     0.0000000000000000E+00 
    8.7499999999967026E-01     0.0000000000000000E+00     0.0000000000000000E+00 
    9.3749999999983513E-01     0.0000000000000000E+00     0.0000000000000000E+00 
    1.0000000000000000E+00     6.2499999999872928E-02     0.0000000000000000E+00 
    1.0000000000000000E+00     1.2499999999977310E-01     0.0000000000000000E+00 
    1.0000000000000000E+00     1.8749999999959341E-01     0.0000000000000000E+00 
    1.0000000000000000E+00     2.4999999999941089E-01     0.0000000000000000E+00 
    1.0000000000000000E+00     3.1249999999922851E-01     0.0000000000000000E+00 
    1.0000000000000000E+00     3.7499999999904610E-01     0.0000000000000000E+00 
    1.0000000000000000E+00     4.3749999999886358E-01     0.0000000000000000E+00 
    1.0000000000000000E+00     4.9999999999869210E-01     0.0000000000000000E+00 
    1.0000000000000000E+00     5.6249999999884603E-01     0.0000000000000000E+00 
    1.0000000000000000E+00     6.2499999999901090E-01     0.0000000000000000E+00 
    1.0000000000000000E+00     6.8749999999917577E-01     0.0000000000000000E+00 
    1.0000000000000000E+00     7.4999999999934064E-01     0.0000000000000000E+00 
    1.0000000000000000E+00     8.1249999999950551E-01     0.0000000000000000E+00 
    1.0000000000000000E+00     8.7499999999967026E-01     0.0000000000000000E+00 
    1.0000000000000000E+00     9.3749999999983513E-01     0.0000000000000000E+00 
    9.3749999999973976E-01     1.0000000000000000E+00     0.0000000000000000E+00 
    8.7499999999950118E-01     1.0000000000000000E+00     0.0000000000000000E+00 
    8.1249999999991318E-01     1.0000000000000000E+00     0.0000000000000000E+00 
    7.5000000000034706E-01     1.0000000000000000E+00     0.0000000000000000E+00 
    6.8750000000078049E-01     1.0000000000000000E+00     0.0000000000000000E+00 
    6.2500000000121403E-01     1.0000000000000000E+00     0.0000000000000000E+00 
    5.6250000000164757E-01     1.0000000000000000E+00     0.0000000000000000E+00 
    5.0000000000205946E-01     1.0000000000000000E+00     0.0000000000000000E+00 
    4.3750000000182099E-01     1.0000000000000000E+00     0.0000000000000000E+00 
    3.7500000000156092E-01     1.0000000000000000E+00     0.0000000000000000E+00 
    3.1250000000130068E-01     1.0000000000000000E+00     0.0000000000000000E+00 
    2.5000000000104050E-01     1.0000000000000000E+00     0.0000000000000000E+00 
    1.8750000000078040E-01     1.0000000000000000E+00     0.0000000000000000E+00 
    1.2500000000052031E-01     1.0000000000000000E+00     0.0000000000000000E+00 
    6.2500000000260125E-02     1.0000000000000000E+00     0.0000000000000000E+00 
    0.0000000000000000E+00     9.3749999999973976E-01     0.0000000000000000E+00 
    0.0000000000000000E+00     8.7499999999950118E-01     0.0000000000000000E+00 
    0.0000000000000000E+00     8.1249999999991318E-01     0.0000000000000000E+00 
    0.0000000000000000E+00     7.5000000000034706E-01     0.0000000000000000E+00 
    0.0000000000000000E+00     6.8750000000078049E-01     0.0000000000000000E+00 
    0.0000000000000000E+00     6.2500000000121403E-01     0.0000000000000000E+00 
    0.0000000000000000E+00     5.6250000000164757E-01     0.0000000000000000E+00 
    0.0000000000000000E+00     5.0000000000205946E-01     0.0000000000000000E+00 
    0.0000000000000000E+00     4.3750000000182099E-01     0.0000000000000000E+00 
    0.0000000000000000E+00     3.7500000000156092E-01     0.0000000000000000E+00 
    0.0000000000000000E+00     3.1250000000130068E-01     0.0000000000000000E+00 
    0.0000000000000000E+00     2.5000000000104050E-01     0.0000000000000000E+00 
    0.0000000000000000E+00     1.8750000000078040E-01     0.0000000000000000E+00 
    0.0000000000000000E+00     1.2500000000052031E-01     0.0000000000000000E+00 
    0.0000000000000000E+00     6.2500000000260125E-02     0.0000000000000000E+00 
    6.2499999999897131E-02     6.2500000000235922E-02     0.0000000000000000E+00 
    6.2499999999921327E-02     1.2500000000047351E-01     0.0000000000000000E+00 
    6.2499999999945530E-02     1.8750000000070621E-01     0.0000000000000000E+00 
    6.2499999999969733E-02     2.5000000000093858E-01     0.0000000000000000E+00 
    6.2499999999993928E-02     3.1250000000117117E-01     0.0000000000000000E+00 
    6.2500000000018124E-02     3.7500000000140382E-01     0.0000000000000000E+00 
    6.2500000000042327E-02     4.3750000000163619E-01     0.0000000000000000E+00 
    6.2500000000066530E-02     5.0000000000184897E-01     0.0000000000000000E+00 
    6.2500000000090733E-02     5.6250000000147260E-01     0.0000000000000000E+00 
    6.2500000000114922E-02     6.2500000000107636E-01     0.0000000000000000E+00 
    6.2500000000139125E-02     6.8750000000068034E-01     0.0000000000000000E+00 
    6.2500000000163328E-02     7.5000000000028411E-01     0.0000000000000000E+00 
    6.2500000000187531E-02     8.1249999999988787E-01     0.0000000000000000E+00 
    6.2500000000211720E-02     8.7499999999951172E-01     0.0000000000000000E+00 
    6.2500000000235922E-02     9.3749999999974565E-01     0.0000000000000000E+00 
    1.2499999999981980E-01     6.2500000000211733E-02     0.0000000000000000E+00 
    1.2499999999986650E-01     1.2500000000042691E-01     0.0000000000000000E+00 
    1.2499999999991319E-01     1.8750000000063199E-01     0.0000000000000000E+00 
    1.2499999999995989E-01     2.5000000000083678E-01     0.0000000000000000E+00 
    1.2500000000000661E-01     3.1250000000104172E-01     0.0000000000000000E+00 
    1.2500000000005329E-01     3.7500000000124661E-01     0.0000000000000000E+00 
    1.2500000000010000E-01     4.3750000000145117E-01     0.0000000000000000E+00 
    1.2500000000014669E-01     5.0000000000163858E-01     0.0000000000000000E+00 
    1.2500000000019340E-01     5.6250000000129741E-01     0.0000000000000000E+00 
    1.2500000000024011E-01     6.2500000000093847E-01     0.0000000000000000E+00 
    1.2500000000028680E-01     6.8750000000057998E-01     0.0000000000000000E+00 
    1.2500000000033351E-01     7.5000000000022127E-01     0.0000000000000000E+00 
    1.2500000000038020E-01     8.1249999999986211E-01     0.0000000000000000E+00 
    1.2500000000042691E-01     8.7499999999952238E-01     0.0000000000000000E+00 
    1.2500000000047359E-01     9.3749999999975164E-01     0.0000000000000000E+00 
    1.8749999999966760E-01     6.2500000000187531E-02     0.0000000000000000E+00 
    1.8749999999974179E-01     1.2500000000038020E-01     0.0000000000000000E+00 
    1.8749999999981601E-01     1.8750000000055780E-01     0.0000000000000000E+00 
    1.8749999999989009E-01     2.5000000000073502E-01     0.0000000000000000E+00 
    1.8749999999996431E-01     3.1250000000091221E-01     0.0000000000000000E+00 
    1.8750000000003850E-01     3.7500000000108941E-01     0.0000000000000000E+00 
    1.8750000000011269E-01     4.3750000000126649E-01     0.0000000000000000E+00 
    1.8750000000018691E-01     5.0000000000142808E-01     0.0000000000000000E+00 
    1.8750000000026110E-01     5.6250000000112244E-01     0.0000000000000000E+00 
    1.8750000000033529E-01     6.2500000000080080E-01     0.0000000000000000E+00 
    1.8750000000040951E-01     6.8750000000047962E-01     0.0000000000000000E+00 
    1.8750000000048361E-01     7.5000000000015843E-01     0.0000000000000000E+00 
    1.8750000000055780E-01     8.1249999999983680E-01     0.0000000000000000E+00 
    1.8750000000063199E-01     8.7499999999953304E-01     0.0000000000000000E+00 
    1.8750000000070621E-01     9.3749999999975764E-01     0.0000000000000000E+00 
    2.4999999999951281E-01     6.2500000000163314E-02     0.0000000000000000E+00 
    2.4999999999961461E-01     1.2500000000033351E-01     0.0000000000000000E+00 
    2.4999999999971650E-01     1.8750000000048361E-01     0.0000000000000000E+00 
    2.4999999999981831E-01     2.5000000000063310E-01     0.0000000000000000E+00 
    2.4999999999992020E-01     3.1250000000078260E-01     0.0000000000000000E+00 
    2.5000000000002198E-01     3.7500000000093209E-01     0.0000000000000000E+00 
    2.5000000000012390E-01     4.3750000000108180E-01     0.0000000000000000E+00 
    2.5000000000022571E-01     5.0000000000121769E-01     0.0000000000000000E+00 
    2.5000000000032763E-01     5.6250000000094724E-01     0.0000000000000000E+00 
    2.5000000000042938E-01     6.2500000000066314E-01     0.0000000000000000E+00 
    2.5000000000053119E-01     6.8750000000037925E-01     0.0000000000000000E+00 
[...]
CELL_DATA 256 
SCALARS Pressure double 1 
LOOKUP_TABLE default 

    1.1691245464139512E+00 
    1.1517515554073565E+00 
    1.1366307670404243E+00 
    1.1235488344189244E+00 
    1.1120777089324958E+00 
    1.1019129970680634E+00 
    1.0928450878292926E+00 
    1.0847305314502758E+00 
    1.0774700960545711E+00 
    1.0709907236257254E+00 
    1.0652255787314204E+00 
    1.0600784228059756E+00 
    1.0553536014191700E+00 
    1.0511796858124778E+00 
    1.0483961862759186E+00 
    1.0470890387386000E+00 
    1.1070963394143876E+00 
    1.1038929071860439E+00 
    1.0988028588270808E+00 
    1.0927650442779491E+00 
    1.0863086413363856E+00 
    1.0797632840056843E+00 
    1.0733389095437222E+00 
    1.0671712543828187E+00 
    1.0613473886531377E+00 
    1.0559169074988339E+00 
    1.0508866123919562E+00 
    1.0461797499854342E+00 
    1.0416325517951914E+00 
    1.0377346107482841E+00 
    1.0352366034185547E+00 
    1.0340516203279564E+00 
    1.0602162301086056E+00 
    1.0590064871889697E+00 
    1.0567387801706356E+00 
    1.0536476936875503E+00 
    1.0499608121361028E+00 
    1.0458783106688478E+00 
    1.0415676130055613E+00 
    1.0371632366325709E+00 
    1.0327665328926743E+00 
    1.0284391854877906E+00 
    1.0241749266007438E+00 
    1.0198437053601637E+00 
    1.0155789798015664E+00 
    1.0122584865047586E+00 
    1.0101994809974675E+00 
    1.0091976496462218E+00 
    1.0143233167583570E+00 
    1.0136251667779703E+00 
    1.0122662580405590E+00 
    1.0103244714776838E+00 
    1.0078925718833009E+00 
    1.0050665329221991E+00 
    1.0019369330039158E+00 
    9.9858092841125212E-01 
    9.9505023852329455E-01 
    9.9134276311241643E-01 
    9.8735215464008930E-01 
    9.8312394406790904E-01 
    9.7940781784476527E-01 
    9.7679759316490777E-01 
    9.7514993331671396E-01 
    9.7432799048677332E-01 
    9.6579239546006945E-01 
    9.6528048460401572E-01 
    9.6427123736281362E-01 
    9.6279839708128589E-01 
    9.6090366556927254E-01 
    9.5863030526501847E-01 
    9.5601507584066514E-01 
    9.5307420615287552E-01 
    9.4977293697187726E-01 
    9.4601083137331254E-01 
    9.4188048050994921E-01 
    9.3807834602496287E-01 
    9.3522114958603664E-01 
    9.3321963013331466E-01 
    9.3189947941559725E-01 
    9.3123890581544821E-01 
    9.1325824254119470E-01 
    9.1280752237890284E-01 
    9.1190914079273822E-01 
    9.1057408512218152E-01 
    9.0881280417202581E-01 
    9.0662603225376492E-01 
    9.0398707063651573E-01 
    9.0081976392542062E-01 
    8.9709796987645052E-01 
    8.9308158027379503E-01 
    8.8944549274226115E-01 
    8.8665687140702010E-01 
    8.8459305291560675E-01 
    8.8307049038851559E-01 
    8.8205333083875581E-01 
    8.8154408514349181E-01 
    8.5583080021237645E-01 
    8.5535039204656016E-01 
    8.5437765642990904E-01 
    8.5289439506985587E-01 
    8.5086311797931136E-01 
    8.4822828429171448E-01 
    8.4499372514604465E-01 
    8.4134743896264697E-01 
    8.3772264613040359E-01 
    8.3463089607196816E-01 
    8.3225905834034830E-01 
    8.3042701505634531E-01 
    8.2897007008320867E-01 
    8.2786767229550728E-01 
    8.2712804371692650E-01 
    8.2675680752009484E-01 
    7.9226404508469195E-01 
    7.9159485303474098E-01 
    7.9024683803186779E-01 
    7.8824493723533318E-01 
    7.8569275389471882E-01 
    7.8279621032287738E-01 
    7.7986054319661136E-01 
    7.7722621080336229E-01 
    7.7509321724587210E-01 
    7.7341168671053662E-01 
    7.7200681593308962E-01 
    7.7079874566239526E-01 
    7.6980214789174939E-01 
    7.6903716211125717E-01 
    7.6851883277760025E-01 
    7.6825716792993815E-01 
    7.2178739500895939E-01 
    7.2116591851043055E-01 
    7.2003422110239812E-01 
    7.1856731773578897E-01 
    7.1696873839776354E-01 
    7.1544047192002114E-01 
    7.1411245398484624E-01 
    7.1297186823505454E-01 
    7.1191614409678261E-01 
    7.1089295398418195E-01 
    7.0992587671035412E-01 
    7.0905599907562378E-01 
    7.0831810579897481E-01 
    7.0774008745888350E-01 
    7.0734297697860438E-01 
    7.0714087986536656E-01 
    6.5376773443257197E-01 
    6.5355114030918460E-01 
    6.5317382633489851E-01 
    6.5269771618854466E-01 
    6.5214398218675085E-01 
    6.5148783224698237E-01 
    6.5070220148950575E-01 
    6.4979925301438657E-01 
    6.4882473716426869E-01 
    6.4783234316279392E-01 
    6.4687296181632870E-01 
    6.4599340890824875E-01 
    6.4523531434086179E-01 
    6.4463393420864412E-01 
    6.4421698750950684E-01 
    6.4400362067068850E-01 
    5.9325265500336555E-01 
    5.9305536769312595E-01 
    5.9264005435126488E-01 
    5.9199035410952239E-01 
    5.9110976095694945E-01 
    5.9002064158701883E-01 
    5.8875921749302973E-01 
    5.8737178056051187E-01 
    5.8591259572947818E-01 
    5.8444160592413186E-01 
    5.8302176253845228E-01 
    5.8171623533394767E-01 
    5.8058537853106562E-01 
    5.7968344662761062E-01 
    5.7905519943725725E-01 
    5.7873269308948261E-01 
    5.3629168752240608E-01 
    5.3587243396320827E-01 
    5.3504040064966296E-01 
    5.3381110704479207E-01 
    5.3221169191184592E-01 
    5.3028228202566630E-01 
    5.2807655176965695E-01 
    5.2566178764386295E-01 
    5.2311850403779914E-01 
    5.2053940448878000E-01 
    5.1802740144880599E-01 
    5.1569235774340905E-01 
    5.1364619372699949E-01 
    5.1199611191555583E-01 
    5.1083600293925380E-01 
    5.1023670203186366E-01 
    4.8352820434427807E-01 
    4.8281983165948872E-01 
    4.8141393118722769E-01 
    4.7933313734744160E-01 
    4.7661357248401731E-01 
    4.7330712617250809E-01 
    4.6948422474410018E-01 
    4.6523698952987458E-01 
    4.6068257177562782E-01 
    4.5596623796294944E-01 
    4.5126344701336607E-01 
    4.4677968326298123E-01 
    4.4274618687328060E-01 
    4.3940904885209697E-01 
    4.3700872575220151E-01 
    4.3574770190138545E-01 
    4.3784844801580658E-01 
    4.3674250723137087E-01 
    4.3453639540010558E-01 
    4.3124287788648380E-01 
    4.2688426753703768E-01 
    4.2149652148832212E-01 
    4.1513523557669985E-01 
    4.0788401681602970E-01 
    3.9986580009769213E-01 
    3.9125764280613728E-01 
    3.8230922058591965E-01 
    3.7336433517571233E-01 
    3.6488259633441839E-01 
    3.5745383657579988E-01 
    3.5178845607449200E-01 
    3.4864846326354071E-01 
    4.0322809953171251E-01 
    4.0166689327159238E-01 
    3.9853291643659394E-01 
    3.9380354678377993E-01 
    3.8744631958273001E-01 
    3.7942131543316016E-01 
    3.6968557489969672E-01 
    3.5820102367863593E-01 
    3.4494843415164023E-01 
    3.2995169693574550E-01 
    3.1331962605814417E-01 
    2.9531752139906203E-01 
    2.7648921496855439E-01 
    2.5786483172612046E-01 
    2.4131430949306001E-01 
    2.3014929651626567E-01 
    3.8421981364897428E-01 
    3.8231898506071765E-01 
    3.7848336565139168E-01 
    3.7264279116356958E-01 
    3.6468614111374975E-01 
    3.5445347321705711E-01 
    3.4172402109878131E-01 
    3.2619841360044344E-01 
    3.0747254509427480E-01 
    2.8499908768232884E-01 
    2.5803036934504647E-01 
    2.2553272533646559E-01 
    1.8605660172164248E-01 
    1.3753721678215400E-01 
    7.6985070348297532E-02 
    0.0000000000000000E+00 

SCALARS Saturarion double 1 
LOOKUP_TABLE default 

    1.0000000000000000E+00 
    9.1515366396605791E-01 
    8.6254077597965673E-01 
    8.1361308089224149E-01 
    7.6682069287137988E-01 
    7.2166077255275274E-01 
    6.7773626026196321E-01 
    6.3453473269269833E-01 
    5.9128700636506815E-01 
    5.4669793911229003E-01 
    4.9819229000776100E-01 
    4.3935564158133322E-01 
    3.4931811811137492E-01 
    1.6759906632941785E-01 
    1.0669288895641116E-02 
    4.2087784980643279E-06 
    8.3879245705414596E-01 
    8.0608202769873061E-01 
    7.7083752108720749E-01 
    7.3507887832697805E-01 
    6.9923456170918008E-01 
    6.6338823684452475E-01 
    6.2739976251092666E-01 
    5.9090132913148485E-01 
    5.5318648099479328E-01 
    5.1286953528781276E-01 
    4.6682610387571838E-01 
    4.0615214031898300E-01 
    2.9723451180073829E-01 
    8.3173390429000946E-02 
    1.0546197149893955E-03 
    1.0728361457699518E-08 
    7.3131457545821388E-01 
    7.1089983276519697E-01 
    6.8642984415321762E-01 
    6.6004914812773408E-01 
    6.3243958739231343E-01 
    6.0381570683835639E-01 
    5.7410498727260206E-01 
    5.4293877208241514E-01 
    5.0947937941958710E-01 
    4.7186317704286657E-01 
    4.2523844560095153E-01 
    3.5287300237584507E-01 
    1.8787735705346872E-01 
    1.2220996823780033E-02 
    4.1239046727022941E-06 
    6.4331284508803522E-15 
    6.4660923415764771E-01 
    6.3216393780269409E-01 
    6.1389134178508908E-01 
    5.9340474181184821E-01 
    5.7122669060116804E-01 
    5.4747542771957791E-01 
    5.2196951155415328E-01 
    4.9413641585657547E-01 
    4.6264146808693030E-01 
    4.2411345559211833E-01 
    3.6785606476168170E-01 
    2.4957263920768089E-01 
    3.9453004793022814E-02 
    7.6138868430655196E-05 
    4.6626254377254355E-12 
    8.7260239952244338E-31 
    5.7635667411824898E-01 
    5.6508615407199991E-01 
    5.5035011694612745E-01 
    5.3335142205752628E-01 
    5.1439779658964702E-01 
    4.9340430708248506E-01 
    4.6989087072725094E-01 
    4.4266650584632544E-01 
    4.0870859057796211E-01 
    3.5894104564585638E-01 
    2.5850846161225327E-01 
    6.1392060077070168E-02 
    3.0736489259225149E-04 
    1.0069749731166449E-10 
    5.4124863562509912E-28 
    3.7111731657768166E-74 
    5.1368001447907030E-01 
    5.0405715109084037E-01 
    4.9114154009559824E-01 
    4.7579762301332246E-01 
    4.5803808680850405E-01 
    4.3733122488119014E-01 
    4.1227045421954311E-01 
    3.7929002143139540E-01 
    3.2796845040379657E-01 
    2.2309043976182083E-01 
    5.3552985937507763E-02 
    4.5798993588744470E-04 
    4.0457951354609258E-10 
    1.0764626527047595E-26 
    1.7268894104398739E-71 
   1.6616836597866878E-193 
    4.5180438373581688E-01 
    4.4252264290187138E-01 
    4.2964120438266334E-01 
    4.1352725892289793E-01 
    3.9339356477898996E-01 
    3.6700791288164758E-01 
    3.2865674081464946E-01 
    2.6271828814381459E-01 
    1.4277737313206240E-01 
    2.6128903175840965E-02 
    2.4914154590441166E-04 
    5.2790620363390247E-10 
    4.3838822717831242E-26 
    3.5629187148883447E-70 
   8.0954698585177237E-191 
    0.0000000000000000E+00 
    3.7880129972163712E-01 
    3.6725200128418550E-01 
    3.4998642084141118E-01 
    3.2559989056589583E-01 
    2.8958017562447935E-01 
    2.3257649167608158E-01 
    1.4574781099593193E-01 
    5.3083927870530609E-02 
    5.7035597565734484E-03 
    3.5537773406889742E-05 
    1.1040746543883280E-10 
    4.9141400358344505E-26 
    1.6385441426738770E-69 
   2.1659937222466712E-189 
    0.0000000000000000E+00 
    0.0000000000000000E+00 
    2.5822684031463655E-01 
    2.3536174007946709E-01 
    1.9928586333486945E-01 
    1.4939188593506963E-01 
    9.0313315568226249E-02 
    3.6907710152521249E-02 
    7.1535597747847532E-03 
    3.2687573979991026E-04 
    6.8528644031555415E-07 
    7.9962079701447589E-13 
    9.7697673286227417E-28 
    1.3699004294508187E-69 
   1.2847831273346619E-188 
    0.0000000000000000E+00 
    0.0000000000000000E+00 
    0.0000000000000000E+00 
    6.3525434456524421E-02 
    4.4478951994623574E-02 
    2.4104923728054201E-02 
    8.9936180703495943E-03 
    1.8477377784616737E-03 
    1.3678639512365188E-04 
    1.5720218392734016E-06 
    4.2798687329984587E-10 
    3.2055672805791194E-17 
    3.6904635598802787E-33 
    6.9916234272623847E-74 
   4.2724975095249903E-189 
    0.0000000000000000E+00 
    0.0000000000000000E+00 
    0.0000000000000000E+00 
    0.0000000000000000E+00 
    7.3195762839125991E-04 
    2.6475674007673606E-04 
    4.8777882489507411E-05 
    3.4807473743855551E-06 
    5.4221371139613935E-08 
    6.0667076479621189E-11 
    4.9748120365309409E-16 
    2.0223767442807924E-25 
    1.8908186250134096E-44 
    1.1360087234957857E-87 
   8.2448988376229191E-200 
    0.0000000000000000E+00 
    0.0000000000000000E+00 
    0.0000000000000000E+00 
    0.0000000000000000E+00 
    0.0000000000000000E+00 
    6.5953820521903584E-09 
    4.8077034273208642E-10 
    6.1935679489037658E-12 
    6.8233563236015748E-15 
    1.4225101510814390E-19 
    2.9889104043413048E-27 
    1.3792743550541358E-40 
    1.8373316169769942E-65 
   1.8356655277859507E-116 
   2.1573781283817339E-234 
    0.0000000000000000E+00 
    0.0000000000000000E+00 
    0.0000000000000000E+00 
    0.0000000000000000E+00 
    0.0000000000000000E+00 
    0.0000000000000000E+00 
    1.4855949489111192E-21 
    1.8108715255888271E-24 
    2.5180301363842638E-29 
    5.9467965610310470E-37 
    4.6146825197724854E-49 
    4.2382491182957610E-69 
   4.0250137942818331E-104 
   2.3742863437122060E-170 
   1.1698811284773921E-307 
    0.0000000000000000E+00 
    0.0000000000000000E+00 
    0.0000000000000000E+00 
    0.0000000000000000E+00 
    0.0000000000000000E+00 
    0.0000000000000000E+00 
    0.0000000000000000E+00 
    3.8918601469684412E-53 
    1.3201661222456878E-60 
    4.3045812621722918E-73 
    9.2664474752020277E-93 
   3.2918479824790169E-124 
   1.7114704866874022E-176 
   9.4478862711951867E-269 
    0.0000000000000000E+00 
    0.0000000000000000E+00 
    0.0000000000000000E+00 
    0.0000000000000000E+00 
    0.0000000000000000E+00 
    0.0000000000000000E+00 
    0.0000000000000000E+00 
    0.0000000000000000E+00 
    0.0000000000000000E+00 
   6.7796557971477566E-132 
   4.7671760522089093E-151 
   4.0472026898239845E-183 
   8.1542041057440544E-234 
   4.4669934312798657E-315 
    0.0000000000000000E+00 
    0.0000000000000000E+00 
    0.0000000000000000E+00 
    0.0000000000000000E+00 
    0.0000000000000000E+00 
    0.0000000000000000E+00 
    0.0000000000000000E+00 
    0.0000000000000000E+00 
    0.0000000000000000E+00 
    0.0000000000000000E+00 
    0.0000000000000000E+00 
    0.0000000000000000E+00 
    0.0000000000000000E+00 
    0.0000000000000000E+00 
    0.0000000000000000E+00 
    0.0000000000000000E+00 
    0.0000000000000000E+00 
    0.0000000000000000E+00 
    0.0000000000000000E+00 
    0.0000000000000000E+00 
    0.0000000000000000E+00 
    0.0000000000000000E+00 
    0.0000000000000000E+00 
    0.0000000000000000E+00 
    0.0000000000000000E+00 
    0.0000000000000000E+00 
    0.0000000000000000E+00 
