# vtk DataFile Version 2.0
Pressure Field Data 
ASCII 
DATASET UNSTRUCTURED_GRID 

POINTS 289 double 

    0.0000000000000000E+00     0.0000000000000000E+00     0.0000000000000000E+00 
    1.0000000000000000E+00     0.0000000000000000E+00     0.0000000000000000E+00 
    1.0000000000000000E+00     1.0000000000000000E+00     0.0000000000000000E+00 
    0.0000000000000000E+00     1.0000000000000000E+00     0.0000000000000000E+00 
    6.2499999999872928E-02     0.0000000000000000E+00     0.0000000000000000E+00 
    1.2499999999977310E-01     0.0000000000000000E+00     0.0000000000000000E+00 
    1.8749999999959341E-01     0.0000000000000000E+00     0.0000000000000000E+00 
    2.4999999999941089E-01     0.0000000000000000E+00     0.0000000000000000E+00 
    3.1249999999922851E-01     0.0000000000000000E+00     0.0000000000000000E+00 
    3.7499999999904610E-01     0.0000000000000000E+00     0.0000000000000000E+00 
    4.3749999999886358E-01     0.0000000000000000E+00     0.0000000000000000E+00 
    4.9999999999869210E-01     0.0000000000000000E+00     0.0000000000000000E+00 
    5.6249999999884603E-01     0.0000000000000000E+00     0.0000000000000000E+00 
    6.2499999999901090E-01     0.0000000000000000E+00     0.0000000000000000E+00 
    6.8749999999917577E-01     0.0000000000000000E+00     0.0000000000000000E+00 
    7.4999999999934064E-01     0.0000000000000000E+00     0.0000000000000000E+00 
    8.1249999999950551E-01     0.0000000000000000E+00     0.0000000000000000E+00 
    8.7499999999967026E-01     0.0000000000000000E+00     0.0000000000000000E+00 
    9.3749999999983513E-01     0.0000000000000000E+00     0.0000000000000000E+00 
    1.0000000000000000E+00     6.2499999999872928E-02     0.0000000000000000E+00 
    1.0000000000000000E+00     1.2499999999977310E-01     0.0000000000000000E+00 
    1.0000000000000000E+00     1.8749999999959341E-01     0.0000000000000000E+00 
    1.0000000000000000E+00     2.4999999999941089E-01     0.0000000000000000E+00 
    1.0000000000000000E+00     3.1249999999922851E-01     0.0000000000000000E+00 
    1.0000000000000000E+00     3.7499999999904610E-01     0.0000000000000000E+00 
    1.0000000000000000E+00     4.3749999999886358E-01     0.0000000000000000E+00 
    1.0000000000000000E+00     4.9999999999869210E-01     0.0000000000000000E+00 
    1.0000000000000000E+00     5.6249999999884603E-01     0.0000000000000000E+00 
    1.0000000000000000E+00     6.2499999999901090E-01     0.0000000000000000E+00 
    1.0000000000000000E+00     6.8749999999917577E-01     0.0000000000000000E+00 
    1.0000000000000000E+00     7.4999999999934064E-01     0.0000000000000000E+00 
    1.0000000000000000E+00     8.1249999999950551E-01     0.0000000000000000E+00 
    1.0000000000000000E+00     8.7499999999967026E-01     0.0000000000000000E+00 
    1.0000000000000000E+00     9.3749999999983513E-01     0.0000000000000000E+00 
    9.3749999999973976E-01     1.0000000000000000E+00     0.0000000000000000E+00 
    8.7499999999950118E-01     1.0000000000000000E+00     0.0000000000000000E+00 
    8.1249999999991318E-01     1.0000000000000000E+00     0.0000000000000000E+00 
    7.5000000000034706E-01     1.0000000000000000E+00     0.0000000000000000E+00 
    6.8750000000078049E-01     1.0000000000000000E+00     0.0000000000000000E+00 
    6.2500000000121403E-01     1.0000000000000000E+00     0.0000000000000000E+00 
    5.6250000000164757E-01     1.0000000000000000E+00     0.0000000000000000E+00 
    5.0000000000205946E-01     1.0000000000000000E+00     0.0000000000000000E+00 
    4.3750000000182099E-01     1.0000000000000000E+00     0.0000000000000000E+00 
    3.7500000000156092E-01     1.0000000000000000E+00     0.0000000000000000E+00 
    3.1250000000130068E-01     1.0000000000000000E+00     0.0000000000000000E+00 
    2.5000000000104050E-01     1.0000000000000000E+00     0.0000000000000000E+00 
    1.8750000000078040E-01     1.0000000000000000E+00     0.0000000000000000E+00 
    1.2500000000052031E-01     1.0000000000000000E+00     0.0000000000000000E+00 
    6.2500000000260125E-02     1.0000000000000000E+00     0.0000000000000000E+00 
    0.0000000000000000E+00     9.3749999999973976E-01     0.0000000000000000E+00 
    0.0000000000000000E+00     8.7499999999950118E-01     0.0000000000000000E+00 
    0.0000000000000000E+00     8.1249999999991318E-01     0.0000000000000000E+00 
    0.0000000000000000E+00     7.5000000000034706E-01     0.0000000000000000E+00 
    0.0000000000000000E+00     6.8750000000078049E-01     0.0000000000000000E+00 
    0.0000000000000000E+00     6.2500000000121403E-01     0.0000000000000000E+00 
    0.0000000000000000E+00     5.6250000000164757E-01     0.0000000000000000E+00 
    0.0000000000000000E+00     5.0000000000205946E-01     0.0000000000000000E+00 
    0.0000000000000000E+00     4.3750000000182099E-01     0.0000000000000000E+00 
    0.0000000000000000E+00     3.7500000000156092E-01     0.0000000000000000E+00 
    0.0000000000000000E+00     3.1250000000130068E-01     0.0000000000000000E+00 
    0.0000000000000000E+00     2.5000000000104050E-01     0.0000000000000000E+00 
    0.0000000000000000E+00     1.8750000000078040E-01     0.0000000000000000E+00 
    0.0000000000000000E+00     1.2500000000052031E-01     0.0000000000000000E+00 
    0.0000000000000000E+00     6.2500000000260125E-02     0.0000000000000000E+00 
    6.2499999999897131E-02     6.2500000000235922E-02     0.0000000000000000E+00 
    6.2499999999921327E-02     1.2500000000047351E-01     0.0000000000000000E+00 
    6.2499999999945530E-02     1.8750000000070621E-01     0.0000000000000000E+00 
    6.2499999999969733E-02     2.5000000000093858E-01     0.0000000000000000E+00 
    6.2499999999993928E-02     3.1250000000117117E-01     0.0000000000000000E+00 
    6.2500000000018124E-02     3.7500000000140382E-01     0.0000000000000000E+00 
    6.2500000000042327E-02     4.3750000000163619E-01     0.0000000000000000E+00 
    6.2500000000066530E-02     5.0000000000184897E-01     0.0000000000000000E+00 
    6.2500000000090733E-02     5.6250000000147260E-01     0.0000000000000000E+00 
    6.2500000000114922E-02     6.2500000000107636E-01     0.0000000000000000E+00 
    6.2500000000139125E-02     6.8750000000068034E-01     0.0000000000000000E+00 
    6.2500000000163328E-02     7.5000000000028411E-01     0.0000000000000000E+00 
    6.2500000000187531E-02     8.1249999999988787E-01     0.0000000000000000E+00 
    6.2500000000211720E-02     8.7499999999951172E-01     0.0000000000000000E+00 
    6.2500000000235922E-02     9.3749999999974565E-01     0.0000000000000000E+00 
    1.2499999999981980E-01     6.2500000000211733E-02     0.0000000000000000E+00 
    1.2499999999986650E-01     1.2500000000042691E-01     0.0000000000000000E+00 
    1.2499999999991319E-01     1.8750000000063199E-01     0.0000000000000000E+00 
    1.2499999999995989E-01     2.5000000000083678E-01     0.0000000000000000E+00 
    1.2500000000000661E-01     3.1250000000104172E-01     0.0000000000000000E+00 
    1.2500000000005329E-01     3.7500000000124661E-01     0.0000000000000000E+00 
    1.2500000000010000E-01     4.3750000000145117E-01     0.0000000000000000E+00 
    1.2500000000014669E-01     5.0000000000163858E-01     0.0000000000000000E+00 
    1.2500000000019340E-01     5.6250000000129741E-01     0.0000000000000000E+00 
    1.2500000000024011E-01     6.2500000000093847E-01     0.0000000000000000E+00 
    1.2500000000028680E-01     6.8750000000057998E-01     0.0000000000000000E+00 
    1.2500000000033351E-01     7.5000000000022127E-01     0.0000000000000000E+00 
    1.2500000000038020E-01     8.1249999999986211E-01     0.0000000000000000E+00 
    1.2500000000042691E-01     8.7499999999952238E-01     0.0000000000000000E+00 
    1.2500000000047359E-01     9.3749999999975164E-01     0.0000000000000000E+00 
    1.8749999999966760E-01     6.2500000000187531E-02     0.0000000000000000E+00 
    1.8749999999974179E-01     1.2500000000038020E-01     0.0000000000000000E+00 
    1.8749999999981601E-01     1.8750000000055780E-01     0.0000000000000000E+00 
    1.8749999999989009E-01     2.5000000000073502E-01     0.0000000000000000E+00 
    1.8749999999996431E-01     3.1250000000091221E-01     0.0000000000000000E+00 
    1.8750000000003850E-01     3.7500000000108941E-01     0.0000000000000000E+00 
    1.8750000000011269E-01     4.3750000000126649E-01     0.0000000000000000E+00 
    1.8750000000018691E-01     5.0000000000142808E-01     0.0000000000000000E+00 
    1.8750000000026110E-01     5.6250000000112244E-01     0.0000000000000000E+00 
    1.8750000000033529E-01     6.2500000000080080E-01     0.0000000000000000E+00 
    1.8750000000040951E-01     6.8750000000047962E-01     0.0000000000000000E+00 
    1.8750000000048361E-01     7.5000000000015843E-01     0.0000000000000000E+00 
    1.8750000000055780E-01     8.1249999999983680E-01     0.0000000000000000E+00 
    1.8750000000063199E-01     8.7499999999953304E-01     0.0000000000000000E+00 
    1.8750000000070621E-01     9.3749999999975764E-01     0.0000000000000000E+00 
    2.4999999999951281E-01     6.2500000000163314E-02     0.0000000000000000E+00 
    2.4999999999961461E-01     1.2500000000033351E-01     0.0000000000000000E+00 
    2.4999999999971650E-01     1.8750000000048361E-01     0.0000000000000000E+00 
    2.4999999999981831E-01     2.5000000000063310E-01     0.0000000000000000E+00 
    2.4999999999992020E-01     3.1250000000078260E-01     0.0000000000000000E+00 
    2.5000000000002198E-01     3.7500000000093209E-01     0.0000000000000000E+00 
    2.5000000000012390E-01     4.3750000000108180E-01     0.0000000000000000E+00 
    2.5000000000022571E-01     5.0000000000121769E-01     0.0000000000000000E+00 
    2.5000000000032763E-01     5.6250000000094724E-01     0.0000000000000000E+00 
    2.5000000000042938E-01     6.2500000000066314E-01     0.0000000000000000E+00 
    2.5000000000053119E-01     6.8750000000037925E-01     0.0000000000000000E+00 
[...]
CELL_DATA 256 
SCALARS Pressure double 1 
LOOKUP_TABLE default 

    1.1051552957613713E+00 
    1.0882648773477039E+00 
    1.0739863094292801E+00 
    1.0618858164299170E+00 
    1.0514779455584808E+00 
    1.0424237463044643E+00 
    1.0344905050279849E+00 
    1.0275192278259671E+00 
    1.0214018332377901E+00 
    1.0160651736156627E+00 
    1.0114588605210932E+00 
    1.0075431428428165E+00 
    1.0042693661588689E+00 
    1.0015435832294919E+00 
    9.9936400838940709E-01 
    9.9822450953599617E-01 
    1.0466355395979101E+00 
    1.0437193047869517E+00 
    1.0391749835312269E+00 
    1.0338557113594480E+00 
    1.0282456535758364E+00 
    1.0226395027142934E+00 
    1.0172203502345600E+00 
    1.0121046381276770E+00 
    1.0073685345263854E+00 
    1.0030630701153758E+00 
    9.9922146653648614E-01 
    9.9585837643647701E-01 
    9.9295432399222761E-01 
    9.9041873125596769E-01 
    9.8836438276705241E-01 
    9.8731028361496220E-01 
    1.0047801454646721E+00 
    1.0037629216294934E+00 
    1.0018733846330357E+00 
    9.9932177381161669E-01 
    9.9631119395287882E-01 
    9.9301984662547349E-01 
    9.8959719826867609E-01 
    9.8616571563947464E-01 
    9.8282429321490783E-01 
    9.7965120016591445E-01 
    9.7670447704966257E-01 
    9.7401540257107055E-01 
    9.7156363929021217E-01 
    9.6925772578519587E-01 
    9.6740820592372900E-01 
    9.6650182150548258E-01 
    9.6492063412331397E-01 
    9.6438291607733684E-01 
    9.6334239374902031E-01 
    9.6186736318156596E-01 
    9.6003997912511096E-01 
    9.5794700539519184E-01 
    9.5567368143148712E-01 
    9.5329979317750979E-01 
    9.5089694980939188E-01 
    9.4852567697528978E-01 
    9.4622958170699401E-01 
    9.4401950113126254E-01 
    9.4183158706354630E-01 
    9.3966920660651432E-01 
    9.3806510094353734E-01 
    9.3731785595324635E-01 
    9.2351090556997117E-01 
    9.2315228157778340E-01 
    9.2245051384313403E-01 
    9.2143769241265250E-01 
    9.2015491349022160E-01 
    9.1864882301924911E-01 
    9.1696852213271185E-01 
    9.1516260225620127E-01 
    9.1327575675431016E-01 
    9.1134342434570925E-01 
    9.0938010442631301E-01 
    9.0734884481192712E-01 
    9.0514878686000200E-01 
    9.0306388876785548E-01 
    9.0170486076042577E-01 
    9.0109039436717309E-01 
    8.7937419946313578E-01 
    8.7909055140718173E-01 
    8.7853236683215408E-01 
    8.7771864406430278E-01 
    8.7667381894356233E-01 
    8.7542587064288246E-01 
    8.7400425142521987E-01 
    8.7243709426482574E-01 
    8.7074657306745107E-01 
    8.6893925039724407E-01 
    8.6698216860472888E-01 
    8.6476507738459107E-01 
    8.6238322532929634E-01 
    8.6048506706883598E-01 
    8.5935050599917118E-01 
    8.5881668459851979E-01 
    8.3204648726004760E-01 
    8.3178604820637847E-01 
    8.3127066534576843E-01 
    8.3051237506697573E-01 
    8.2952644296607569E-01 
    8.2832949988175109E-01 
    8.2693697831999580E-01 
    8.2535861419675183E-01 
    8.2358911835464688E-01 
    8.2158612850251667E-01 
    8.1923853715061279E-01 
    8.1658567326850229E-01 
    8.1423171771520342E-01 
    8.1264684689956823E-01 
    8.1168590372517602E-01 
    8.1120818011861828E-01 
    7.8131661441000000E-01 
    7.8104187008765225E-01 
    7.8049440668096837E-01 
    7.7968038487373759E-01 
    7.7860711297595908E-01 
    7.7727997519783432E-01 
    7.7569717278049422E-01 
    7.7383900698594132E-01 
    7.7164479069796865E-01 
    7.6901605362915681E-01 
    7.6605328073226586E-01 
    7.6335648615659568E-01 
    7.6141299788005801E-01 
    7.6010369905552155E-01 
    7.5924947156744338E-01 
    7.5882244225987017E-01 
    7.2700452761796008E-01 
    7.2667179025449291E-01 
    7.2600285325418035E-01 
    7.2499509047266375E-01 
    7.2364283885848313E-01 
    7.2192972744165074E-01 
    7.1981382893304824E-01 
    7.1722247393600802E-01 
    7.1416130530507105E-01 
    7.1090680433564235E-01 
    7.0804327650394849E-01 
    7.0592420738172501E-01 
    7.0440237937212147E-01 
    7.0328808217955896E-01 
    7.0254115972937792E-01 
    7.0216641132740554E-01 
    6.6870100210497363E-01 
    6.6822963590783624E-01 
    6.6727186975584574E-01 
    6.6580412338825701E-01 
    6.6379274785720721E-01 
    6.6121782778024474E-01 
    6.5814578210230590E-01 
    6.5479593032658923E-01 
    6.5155721775236153E-01 
    6.4883544932032200E-01 
    6.4675068916547740E-01 
    6.4512618249058473E-01 
    6.4381196592977397E-01 
    6.4279940486217346E-01 
    6.4211110740954969E-01 
    6.4176289637739026E-01 
    6.0532008940277393E-01 
    6.0455821415176725E-01 
    6.0307571097317825E-01 
    6.0095936692782514E-01 
    5.9834387212855811E-01 
    5.9542024643619607E-01 
    5.9244007479057204E-01 
    5.8966744217982658E-01 
    5.8726032431283315E-01 
    5.8518709649300860E-01 
    5.8332552106587143E-01 
    5.8164587952894065E-01 
    5.8020636397666647E-01 
    5.7906809139512294E-01 
    5.7828019088513505E-01 
    5.7787727110741260E-01 
    5.3993271260725040E-01 
    5.3922049399252370E-01 
    5.3787208475859150E-01 
    5.3601339160610650E-01 
    5.3379854547709982E-01 
    5.3138215918158604E-01 
    5.2887112993070262E-01 
    5.2629016891384650E-01 
    5.2362405702212689E-01 
    5.2090821227379824E-01 
    5.1824647997897155E-01 
    5.1576496521497295E-01 
    5.1358833231643641E-01 
    5.1183305721252070E-01 
    5.1059946703811498E-01 
    5.0996244806154101E-01 
    4.8331519190921396E-01 
    4.8262850570251664E-01 
    4.8127007541134614E-01 
    4.7926263758945548E-01 
    4.7663171138261579E-01 
    4.7340793557791438E-01 
    4.6964109222340888E-01 
    4.6541572478135779E-01 
    4.6085386695836789E-01 
    4.5610919537123390E-01 
    4.5136531122405399E-01 
    4.4683523224640331E-01 
    4.4275672271001010E-01 
    4.3938117373483476E-01 
    4.3695303121285406E-01 
    4.3567743525097408E-01 
    4.3768762109442505E-01 
    4.3659933152342306E-01 
    4.3442416921993637E-01 
    4.3116836070233383E-01 
    4.2684811515087451E-01 
    4.2149430316913644E-01 
    4.1515893051758002E-01 
    4.0792387569340294E-01 
    3.9991217625523279E-01 
    3.9130230427341905E-01 
    3.8234609077382470E-01 
    3.7338980486526241E-01 
    3.6489550749143074E-01 
    3.5745522572524641E-01 
    3.5178112978672649E-01 
    3.4863646282240329E-01 
    4.0314709723041292E-01 
    4.0159138712289283E-01 
    3.9846748692585010E-01 
    3.9375122564653514E-01 
    3.8740835630136478E-01 
    3.7939726492502990E-01 
    3.6967362522639718E-01 
    3.5819847286884976E-01 
    3.4495221098824946E-01 
    3.2995882835319990E-01 
    3.1332759441304853E-01 
    2.9532449213656742E-01 
    2.7649413619613111E-01 
    2.5786741943873820E-01 
    2.4131493861847583E-01 
    2.3014882075068405E-01 
    3.8416370196919691E-01 
    3.8226536244309256E-01 
    3.7843442044902620E-01 
    3.7260017180730165E-01 
    3.6465081778167691E-01 
    3.5442570990410854E-01 
    3.4170344652447521E-01 
    3.2618416527467892E-01 
    3.0746345326545416E-01 
    2.8499386548390909E-01 
    2.5802778141544019E-01 
    2.2553171604722169E-01 
    1.8605637307008613E-01 
    1.3753725378037190E-01 
    7.6985117924849647E-02 
    0.0000000000000000E+00 

SCALARS Saturarion double 1 
LOOKUP_TABLE default 

    1.0000000000000000E+00 
    9.3639187593346951E-01 
    8.9443446156685169E-01 
    8.5370335779148743E-01 
    8.1334144336984970E-01 
    7.7324478296082444E-01 
    7.3336096764628700E-01 
    6.9352642607869586E-01 
    6.5339219566059137E-01 
    6.1232269003064010E-01 
    5.6914725826005896E-01 
    5.2142348236024127E-01 
    4.6287322939950387E-01 
    3.7381435210444180E-01 
    1.9440646782238824E-01 
    1.4363070056183253E-02 
    8.7096857170778852E-01 
    8.4417656312127332E-01 
    8.1455816952800519E-01 
    7.8362510347337644E-01 
    7.5185265574199822E-01 
    7.1945324456554383E-01 
    6.8646303473823256E-01 
    6.5275569108888243E-01 
    6.1800974855201540E-01 
    5.8160129655832160E-01 
    5.4230811722249683E-01 
    4.9740365227687333E-01 
    4.3944553509220896E-01 
    3.4383248916118148E-01 
    1.4114596556460537E-01 
    4.6610548188866768E-03 
    7.7853909096972174E-01 
    7.6093811168341219E-01 
    7.3957022283149709E-01 
    7.1611849526081006E-01 
    6.9119928246711415E-01 
    6.6508070398349173E-01 
    6.3782614817570671E-01 
    6.0932109571965942E-01 
    5.7923535582206331E-01 
    5.4688787211076417E-01 
    5.1085731778170196E-01 
    4.6773328592049473E-01 
    4.0766218978404528E-01 
    2.9477760857648566E-01 
    6.9748393176300799E-02 
    5.1194590334365181E-04 
    7.0443360390454701E-01 
    6.9160605324059288E-01 
    6.7529625044212194E-01 
    6.5684774584900374E-01 
    6.3675317345119864E-01 
    6.1521209932222154E-01 
    5.9224187340634227E-01 
    5.6768385962324530E-01 
    5.4113840482399211E-01 
    5.1176671193200973E-01 
    4.7770767056538466E-01 
    4.3419141336090050E-01 
    3.6638683097895242E-01 
    2.1244484343187411E-01 
    1.6418522579633364E-02 
    9.3124632536007105E-06 
    6.4374472738148625E-01 
    6.3367929570218939E-01 
    6.2052923102491175E-01 
    6.0537355906120149E-01 
    5.8857518565964240E-01 
    5.7024467934711909E-01 
    5.5032365842735897E-01 
    5.2856564422972063E-01 
    5.0442273392289005E-01 
    4.7672520714913769E-01 
    4.4272848419110516E-01 
    3.9488394779480790E-01 
    3.0567918345570949E-01 
    9.0362929472829534E-02 
    8.7911981395480008E-04 
    5.5918716168105684E-09 
    5.9198090998995356E-01 
    5.8365740283579370E-01 
    5.7258172919238681E-01 
    5.5964144637529722E-01 
    5.4509411171103184E-01 
    5.2896193019359350E-01 
    5.1108743606232920E-01 
    4.9107608712220435E-01 
    4.6809448067132559E-01 
    4.4030176282563105E-01 
    4.0306909452967388E-01 
    3.4180547761397290E-01 
    1.9312785164347562E-01 
    1.0874847023466507E-02 
    2.3599997650011428E-06 
    2.3203322228101651E-15 
    5.4573263306969755E-01 
    5.3854425338654033E-01 
    5.2884869843458804E-01 
    5.1737944430475402E-01 
    5.0429410550053411E-01 
    4.8950762537048714E-01 
    4.7270708546790163E-01 
    4.5321749363142766E-01 
    4.2960492886783952E-01 
    3.9846351252421353E-01 
    3.4995948305307517E-01 
    2.4494990160740421E-01 
    4.0839741587229930E-02 
    6.8073321705688683E-05 
    4.4765316182065101E-12 
    6.0724642550147398E-30 
    5.0206984393638865E-01 
    4.9556701133354580E-01 
    4.8669512918004576E-01 
    4.7603996615917532E-01 
    4.6362947699078416E-01 
    4.4919810562975498E-01 
    4.3211687020277351E-01 
    4.1105011366569294E-01 
    3.8292860695465508E-01 
    3.3918748396242354E-01 
    2.4898040834813087E-01 
    6.6090199241495964E-02 
    3.9903674883025412E-04 
    2.4482754871288703E-10 
    3.2401453145468381E-26 
    1.0526663130460511E-66 
    4.5753614174322749E-01 
    4.5123628237757352E-01 
    4.4252457428716618E-01 
    4.3179505035423343E-01 
    4.1882545169889990E-01 
    4.0291140879378651E-01 
    3.8251062267138930E-01 
    3.5399554764642416E-01 
    3.0734534664183633E-01 
    2.1161306358729312E-01 
    5.6899666576484147E-02 
    7.3814439508527530E-04 
    1.8172521255306150E-09 
    2.5402063344998765E-24 
    1.0783271434434429E-62 
   8.0101021108002429E-162 
    4.0584905141729988E-01 
    3.9885330030576549E-01 
    3.8891721640753357E-01 
    3.7600402550597595E-01 
    3.5907970628086039E-01 
    3.3566551591579852E-01 
    2.9987862895998740E-01 
    2.3721697742753026E-01 
    1.2924975090562757E-01 
    2.6351271183926991E-02 
    3.9466672856269043E-04 
    3.6130196924047299E-09 
    2.3349599462313224E-23 
    1.3518171633797659E-60 
   2.4101621685473484E-157 
    0.0000000000000000E+00 
    3.2944181644220905E-01 
    3.1867688080830731E-01 
    3.0226544257271681E-01 
    2.7837891478907451E-01 
    2.4261607809579397E-01 
    1.8813888196333434E-01 
    1.1372470471908605E-01 
    4.1201181370192443E-02 
    4.8778246693900714E-03 
    4.6491704849728875E-05 
    6.8389776145049712E-10 
    5.1898435859053514E-23 
    1.7092614645190851E-59 
   7.2130409996413803E-155 
    0.0000000000000000E+00 
    0.0000000000000000E+00 
    1.7407031616724633E-01 
    1.5315351586677375E-01 
    1.2331740362696939E-01 
    8.6922709815498572E-02 
    4.9136754706578273E-02 
    1.8834373877177756E-02 
    3.5731012199778974E-03 
    1.7799825069292243E-04 
    5.5917107136430449E-07 
    2.8644829935634189E-12 
    7.0498558946668242E-25 
    4.1870715290403617E-59 
   1.2607046919714397E-153 
    0.0000000000000000E+00 
    0.0000000000000000E+00 
    0.0000000000000000E+00 
    1.5890647235916558E-02 
    1.0300861007318883E-02 
    5.0901997076963608E-03 
    1.7272090770948964E-03 
    3.2594967811988047E-04 
    2.3009871322338637E-05 
    2.7982084228551994E-07 
    1.1191651554386949E-10 
    3.4335269740145380E-17 
    5.6534672342453393E-31 
    6.2708249862259287E-64 
   2.6968872754004563E-153 
    0.0000000000000000E+00 
    0.0000000000000000E+00 
    0.0000000000000000E+00 
    0.0000000000000000E+00 
    1.6552094475226413E-05 
    5.2638532695425741E-06 
    8.3379109643270674E-07 
    5.0567410909767096E-08 
    6.8375655682059928E-10 
    7.3896086661355698E-13 
    8.1615984403963799E-18 
    1.2766240548646089E-26 
    1.3796581502401329E-43 
    1.3727912588312532E-79 
   1.0074992549732399E-165 
    0.0000000000000000E+00 
    0.0000000000000000E+00 
    0.0000000000000000E+00 
    0.0000000000000000E+00 
    0.0000000000000000E+00 
    5.0612575990437586E-13 
    2.7499744319955241E-14 
    2.4888646136580822E-16 
    1.8924802630568567E-19 
    2.9769797966465152E-24 
    6.4454211736186070E-32 
    9.4861835225738228E-45 
    1.1724821585775032E-67 
   8.8213661914017489E-112 
   9.3323976084864967E-206 
    0.0000000000000000E+00 
    0.0000000000000000E+00 
    0.0000000000000000E+00 
    0.0000000000000000E+00 
    0.0000000000000000E+00 
    0.0000000000000000E+00 
    1.0600828895740171E-31 
    6.2741674790393568E-35 
    3.6520818804749204E-40 
    3.5449206907903124E-48 
    1.4380275897204927E-60 
    2.1868525742621170E-80 
   1.2461906199469426E-113 
   4.1577387656936156E-173 
   3.7598787089193636E-288 
    0.0000000000000000E+00 
    0.0000000000000000E+00 
    0.0000000000000000E+00 
    0.0000000000000000E+00 
    0.0000000000000000E+00 
    0.0000000000000000E+00 
    0.0000000000000000E+00 
