# vtk DataFile Version 2.0
Pressure Field Data 
ASCII 
DATASET UNSTRUCTURED_GRID 

POINTS 289 double 

    0.0000000000000000E+00     0.0000000000000000E+00     0.0000000000000000E+00 
    1.0000000000000000E+00     0.0000000000000000E+00     0.0000000000000000E+00 
    1.0000000000000000E+00     1.0000000000000000E+00     0.0000000000000000E+00 
    0.0000000000000000E+00     1.0000000000000000E+00     0.0000000000000000E+00 
    6.2499999999872928E-02     0.0000000000000000E+00     0.0000000000000000E+00 
    1.2499999999977310E-01     0.0000000000000000E+00     0.0000000000000000E+00 
    1.8749999999959341E-01     0.0000000000000000E+00     0.0000000000000000E+00 
    2.4999999999941089E-01     0.0000000000000000E+00     0.0000000000000000E+00 
    3.1249999999922851E-01     0.0000000000000000E+00     0.0000000000000000E+00 
    3.7499999999904610E-01     0.0000000000000000E+00     0.0000000000000000E+00 
    4.3749999999886358E-01     0.0000000000000000E+00     0.0000000000000000E+00 
    4.9999999999869210E-01     0.0000000000000000E+00     0.0000000000000000E+00 
    5.6249999999884603E-01     0.0000000000000000E+00     0.0000000000000000E+00 
    6.2499999999901090E-01     0.0000000000000000E+00     0.0000000000000000E+00 
    6.8749999999917577E-01     0.0000000000000000E+00     0.0000000000000000E+00 
    7.4999999999934064E-01     0.0000000000000000E+00     0.0000000000000000E+00 
    8.1249999999950551E-01     0.0000000000000000E+00     0.0000000000000000E+00 
    8.7499999999967026E-01     0.0000000000000000E+00     0.0000000000000000E+00 
    9.3749999999983513E-01     0.0000000000000000E+00     0.0000000000000000E+00 
    1.0000000000000000E+00     6.2499999999872928E-02     0.0000000000000000E+00 
    1.0000000000000000E+00     1.2499999999977310E-01     0.0000000000000000E+00 
    1.0000000000000000E+00     1.8749999999959341E-01     0.0000000000000000E+00 
    1.0000000000000000E+00     2.4999999999941089E-01     0.0000000000000000E+00 
    1.0000000000000000E+00     3.1249999999922851E-01     0.0000000000000000E+00 
    1.0000000000000000E+00     3.7499999999904610E-01     0.0000000000000000E+00 
    1.0000000000000000E+00     4.3749999999886358E-01     0.0000000000000000E+00 
    1.0000000000000000E+00     4.9999999999869210E-01     0.0000000000000000E+00 
    1.0000000000000000E+00     5.6249999999884603E-01     0.0000000000000000E+00 
    1.0000000000000000E+00     6.2499999999901090E-01     0.0000000000000000E+00 
    1.0000000000000000E+00     6.8749999999917577E-01     0.0000000000000000E+00 
    1.0000000000000000E+00     7.4999999999934064E-01     0.0000000000000000E+00 
    1.0000000000000000E+00     8.1249999999950551E-01     0.0000000000000000E+00 
    1.0000000000000000E+00     8.7499999999967026E-01     0.0000000000000000E+00 
    1.0000000000000000E+00     9.3749999999983513E-01     0.0000000000000000E+00 
    9.3749999999973976E-01     1.0000000000000000E+00     0.0000000000000000E+00 
    8.7499999999950118E-01     1.0000000000000000E+00     0.0000000000000000E+00 
    8.1249999999991318E-01     1.0000000000000000E+00     0.0000000000000000E+00 
    7.5000000000034706E-01     1.0000000000000000E+00     0.0000000000000000E+00 
    6.8750000000078049E-01     1.0000000000000000E+00     0.0000000000000000E+00 
    6.2500000000121403E-01     1.0000000000000000E+00     0.0000000000000000E+00 
    5.6250000000164757E-01     1.0000000000000000E+00     0.0000000000000000E+00 
    5.0000000000205946E-01     1.0000000000000000E+00     0.0000000000000000E+00 
    4.3750000000182099E-01     1.0000000000000000E+00     0.0000000000000000E+00 
    3.7500000000156092E-01     1.0000000000000000E+00     0.0000000000000000E+00 
    3.1250000000130068E-01     1.0000000000000000E+00     0.0000000000000000E+00 
    2.5000000000104050E-01     1.0000000000000000E+00     0.0000000000000000E+00 
    1.8750000000078040E-01     1.0000000000000000E+00     0.0000000000000000E+00 
    1.2500000000052031E-01     1.0000000000000000E+00     0.0000000000000000E+00 
    6.2500000000260125E-02     1.0000000000000000E+00     0.0000000000000000E+00 
    0.0000000000000000E+00     9.3749999999973976E-01     0.0000000000000000E+00 
    0.0000000000000000E+00     8.7499999999950118E-01     0.0000000000000000E+00 
    0.0000000000000000E+00     8.1249999999991318E-01     0.0000000000000000E+00 
    0.0000000000000000E+00     7.5000000000034706E-01     0.0000000000000000E+00 
    0.0000000000000000E+00     6.8750000000078049E-01     0.0000000000000000E+00 
    0.0000000000000000E+00     6.2500000000121403E-01     0.0000000000000000E+00 
    0.0000000000000000E+00     5.6250000000164757E-01     0.0000000000000000E+00 
    0.0000000000000000E+00     5.0000000000205946E-01     0.0000000000000000E+00 
    0.0000000000000000E+00     4.3750000000182099E-01     0.0000000000000000E+00 
    0.0000000000000000E+00     3.7500000000156092E-01     0.0000000000000000E+00 
    0.0000000000000000E+00     3.1250000000130068E-01     0.0000000000000000E+00 
    0.0000000000000000E+00     2.5000000000104050E-01     0.0000000000000000E+00 
    0.0000000000000000E+00     1.8750000000078040E-01     0.0000000000000000E+00 
    0.0000000000000000E+00     1.2500000000052031E-01     0.0000000000000000E+00 
    0.0000000000000000E+00     6.2500000000260125E-02     0.0000000000000000E+00 
    6.2499999999897131E-02     6.2500000000235922E-02     0.0000000000000000E+00 
    6.2499999999921327E-02     1.2500000000047351E-01     0.0000000000000000E+00 
    6.2499999999945530E-02     1.8750000000070621E-01     0.0000000000000000E+00 
    6.2499999999969733E-02     2.5000000000093858E-01     0.0000000000000000E+00 
    6.2499999999993928E-02     3.1250000000117117E-01     0.0000000000000000E+00 
    6.2500000000018124E-02     3.7500000000140382E-01     0.0000000000000000E+00 
    6.2500000000042327E-02     4.3750000000163619E-01     0.0000000000000000E+00 
    6.2500000000066530E-02     5.0000000000184897E-01     0.0000000000000000E+00 
    6.2500000000090733E-02     5.6250000000147260E-01     0.0000000000000000E+00 
    6.2500000000114922E-02     6.2500000000107636E-01     0.0000000000000000E+00 
    6.2500000000139125E-02     6.8750000000068034E-01     0.0000000000000000E+00 
    6.2500000000163328E-02     7.5000000000028411E-01     0.0000000000000000E+00 
    6.2500000000187531E-02     8.1249999999988787E-01     0.0000000000000000E+00 
    6.2500000000211720E-02     8.7499999999951172E-01     0.0000000000000000E+00 
    6.2500000000235922E-02     9.3749999999974565E-01     0.0000000000000000E+00 
    1.2499999999981980E-01     6.2500000000211733E-02     0.0000000000000000E+00 
    1.2499999999986650E-01     1.2500000000042691E-01     0.0000000000000000E+00 
    1.2499999999991319E-01     1.8750000000063199E-01     0.0000000000000000E+00 
    1.2499999999995989E-01     2.5000000000083678E-01     0.0000000000000000E+00 
    1.2500000000000661E-01     3.1250000000104172E-01     0.0000000000000000E+00 
    1.2500000000005329E-01     3.7500000000124661E-01     0.0000000000000000E+00 
    1.2500000000010000E-01     4.3750000000145117E-01     0.0000000000000000E+00 
    1.2500000000014669E-01     5.0000000000163858E-01     0.0000000000000000E+00 
    1.2500000000019340E-01     5.6250000000129741E-01     0.0000000000000000E+00 
    1.2500000000024011E-01     6.2500000000093847E-01     0.0000000000000000E+00 
    1.2500000000028680E-01     6.8750000000057998E-01     0.0000000000000000E+00 
    1.2500000000033351E-01     7.5000000000022127E-01     0.0000000000000000E+00 
    1.2500000000038020E-01     8.1249999999986211E-01     0.0000000000000000E+00 
    1.2500000000042691E-01     8.7499999999952238E-01     0.0000000000000000E+00 
    1.2500000000047359E-01     9.3749999999975164E-01     0.0000000000000000E+00 
    1.8749999999966760E-01     6.2500000000187531E-02     0.0000000000000000E+00 
    1.8749999999974179E-01     1.2500000000038020E-01     0.0000000000000000E+00 
    1.8749999999981601E-01     1.8750000000055780E-01     0.0000000000000000E+00 
    1.8749999999989009E-01     2.5000000000073502E-01     0.0000000000000000E+00 
    1.8749999999996431E-01     3.1250000000091221E-01     0.0000000000000000E+00 
    1.8750000000003850E-01     3.7500000000108941E-01     0.0000000000000000E+00 
    1.8750000000011269E-01     4.3750000000126649E-01     0.0000000000000000E+00 
    1.8750000000018691E-01     5.0000000000142808E-01     0.0000000000000000E+00 
    1.8750000000026110E-01     5.6250000000112244E-01     0.0000000000000000E+00 
    1.8750000000033529E-01     6.2500000000080080E-01     0.0000000000000000E+00 
    1.8750000000040951E-01     6.8750000000047962E-01     0.0000000000000000E+00 
    1.8750000000048361E-01     7.5000000000015843E-01     0.0000000000000000E+00 
    1.8750000000055780E-01     8.1249999999983680E-01     0.0000000000000000E+00 
    1.8750000000063199E-01     8.7499999999953304E-01     0.0000000000000000E+00 
    1.8750000000070621E-01     9.3749999999975764E-01     0.0000000000000000E+00 
    2.4999999999951281E-01     6.2500000000163314E-02     0.0000000000000000E+00 
    2.4999999999961461E-01     1.2500000000033351E-01     0.0000000000000000E+00 
    2.4999999999971650E-01     1.8750000000048361E-01     0.0000000000000000E+00 
    2.4999999999981831E-01     2.5000000000063310E-01     0.0000000000000000E+00 
    2.4999999999992020E-01     3.1250000000078260E-01     0.0000000000000000E+00 
    2.5000000000002198E-01     3.7500000000093209E-01     0.0000000000000000E+00 
    2.5000000000012390E-01     4.3750000000108180E-01     0.0000000000000000E+00 
    2.5000000000022571E-01     5.0000000000121769E-01     0.0000000000000000E+00 
    2.5000000000032763E-01     5.6250000000094724E-01     0.0000000000000000E+00 
    2.5000000000042938E-01     6.2500000000066314E-01     0.0000000000000000E+00 
    2.5000000000053119E-01     6.8750000000037925E-01     0.0000000000000000E+00 
[...]
CELL_DATA 256 
SCALARS Pressure double 1 
LOOKUP_TABLE default 

    1.1398626532802716E+00 
    1.1227442936955985E+00 
    1.1080755136784726E+00 
    1.0955226984108402E+00 
    1.0846269127124020E+00 
    1.0750655424626239E+00 
    1.0666171658939154E+00 
    1.0591308619038589E+00 
    1.0525039947111192E+00 
    1.0466658152094857E+00 
    1.0415631496118090E+00 
    1.0371417377560905E+00 
    1.0333082025083924E+00 
    1.0299088608116569E+00 
    1.0273591743511077E+00 
    1.0261335294744836E+00 
    1.0796645223101990E+00 
    1.0766162637387886E+00 
    1.0718225994740112E+00 
    1.0661757733205000E+00 
    1.0601810942849970E+00 
    1.0541499811613224E+00 
    1.0482787718587319E+00 
    1.0426940499204831E+00 
    1.0374789734551506E+00 
    1.0326875016329380E+00 
    1.0283485805856769E+00 
    1.0244554603808349E+00 
    1.0209227701861923E+00 
    1.0176751363856513E+00 
    1.0153042556841088E+00 
    1.0141858422421184E+00 
    1.0354123836734626E+00 
    1.0343078865191568E+00 
    1.0322473749690377E+00 
    1.0294526239424682E+00 
    1.0261385140954844E+00 
    1.0224941474205078E+00 
    1.0186784439275143E+00 
    1.0148212989777470E+00 
    1.0110260502463724E+00 
    1.0073701855990815E+00 
    1.0038994532211694E+00 
    1.0006021301882384E+00 
    9.9736018168450613E-01 
    9.9436255060554624E-01 
    9.9233701333582791E-01 
    9.9139714381046540E-01 
    9.9267553850631418E-01 
    9.9206600475888507E-01 
    9.9088345171300962E-01 
    9.8920121271657324E-01 
    9.8710720712080957E-01 
    9.8469376681575282E-01 
    9.8205071575628977E-01 
    9.7926036414126350E-01 
    9.7639272337124683E-01 
    9.7349756454329839E-01 
    9.7058424541006694E-01 
    9.6757065023549360E-01 
    9.6443639015118410E-01 
    9.6179425561111176E-01 
    9.6014930213140193E-01 
    9.5937462555186714E-01 
    9.4788785520447294E-01 
    9.4746204139011059E-01 
    9.4662623606807950E-01 
    9.4541446060643985E-01 
    9.4386982376167272E-01 
    9.4204021277350292E-01 
    9.3997405515186894E-01 
    9.3771519895468569E-01 
    9.3529459348736665E-01 
    9.3271193915842410E-01 
    9.2989248671831959E-01 
    9.2676699328862500E-01 
    9.2377170866619707E-01 
    9.2160390569284456E-01 
    9.2027723755893243E-01 
    9.1962427783453982E-01 
    8.9981910374146923E-01 
    8.9946554947473878E-01 
    8.9876633111140947E-01 
    8.9773941640532640E-01 
    8.9640721262758671E-01 
    8.9479322737532441E-01 
    8.9291735829810170E-01 
    8.9078725872624887E-01 
    8.8837956531919471E-01 
    8.8560399059928718E-01 
    8.8241428451942283E-01 
    8.7920584141517955E-01 
    8.7668469075407884E-01 
    8.7498006265829631E-01 
    8.7388972889039529E-01 
    8.7334444820000923E-01 
    8.4788555751974992E-01 
    8.4754299842365521E-01 
    8.4685929574554375E-01 
    8.4584042700342854E-01 
    8.4449187667075631E-01 
    8.4281286462134108E-01 
    8.4078570165666666E-01 
    8.3835414640879680E-01 
    8.3542741490274941E-01 
    8.3207127862108032E-01 
    8.2877061481549463E-01 
    8.2613552643861676E-01 
    8.2426451966897463E-01 
    8.2293840167632071E-01 
    8.2205421550199043E-01 
    8.2161181166338970E-01 
    7.9159081679640142E-01 
    7.9119895459384315E-01 
    7.9040651324910183E-01 
    7.8920138625499459E-01 
    7.8755926356065598E-01 
    7.8543061431924133E-01 
    7.8275657461932791E-01 
    7.7958234129924409E-01 
    7.7618470510750037E-01 
    7.7308408108703752E-01 
    7.7066478106208292E-01 
    7.6887957985242672E-01 
    7.6751771099454824E-01 
    7.6648995587820246E-01 
    7.6580087877740000E-01 
    7.6545513674224464E-01 
    7.3003440084873117E-01 
    7.2947271759960552E-01 
    7.2832608391029430E-01 
    7.2657562113247243E-01 
    7.2424647803067865E-01 
    7.2145953543879948E-01 
    7.1845292949491912E-01 
    7.1556982142750891E-01 
    7.1313178650349140E-01 
    7.1123751780027411E-01 
    7.0974028204235562E-01 
    7.0848680223303229E-01 
    7.0745123606807514E-01 
    7.0665473004089219E-01 
    7.0611419139660858E-01 
    7.0584104147168314E-01 
    6.6191655354365797E-01 
    6.6123374852588312E-01 
    6.5996167015423224E-01 
    6.5825244497250102E-01 
    6.5629370231810902E-01 
    6.5429993725626068E-01 
    6.5246817762885623E-01 
    6.5089244426318638E-01 
    6.4951512907727349E-01 
    6.4823201299906519E-01 
    6.4702193869599200E-01 
    6.4592744199302476E-01 
    6.4499415995230491E-01 
    6.4425983037484780E-01 
    6.4375361682254950E-01 
    6.4349544695410965E-01 
    5.9476366449613960E-01 
    5.9436889976329721E-01 
    5.9365253601203383E-01 
    5.9271721947435696E-01 
    5.9164761757934892E-01 
    5.9047433498532886E-01 
    5.8917895560613609E-01 
    5.8774919050233543E-01 
    5.8622042710617861E-01 
    5.8466214771130565E-01 
    5.8314983493845896E-01 
    5.8175593517431345E-01 
    5.8054755920392165E-01 
    5.7958377045722931E-01 
    5.7891260540995060E-01 
    5.7856815375378878E-01 
    5.3601566960105951E-01 
    5.3565030327909424E-01 
    5.3490453623946632E-01 
    5.3376689111484632E-01 
    5.3224456925360475E-01 
    5.3036829431748533E-01 
    5.2819123844423954E-01 
    5.2578417890194151E-01 
    5.2323211881659182E-01 
    5.2063266568256172E-01 
    5.1809360109432157E-01 
    5.1572919041805698E-01 
    5.1365508621854994E-01 
    5.1198147354547185E-01 
    5.1080446008621916E-01 
    5.1019634399318403E-01 
    4.8342363538528743E-01 
    4.8272880892443976E-01 
    4.8134605439688311E-01 
    4.7929244660004033E-01 
    4.7659915379115286E-01 
    4.7331460445337958E-01 
    4.6950741192927969E-01 
    4.6526924070132941E-01 
    4.6071774106086694E-01 
    4.5599929819588669E-01 
    4.5129082813040766E-01 
    4.4679938089421445E-01 
    4.4275769796889625E-01 
    4.3941318449547523E-01 
    4.3700734110038286E-01 
    4.3574337330327295E-01 
    4.3780187550053906E-01 
    4.3669972830874032E-01 
    4.3450047436809319E-01 
    4.3121568723107406E-01 
    4.2686637462098626E-01 
    4.2148734803855947E-01 
    4.1513337245619114E-01 
    4.0788758662576918E-01 
    3.9987279555024324E-01 
    3.9126620271416646E-01 
    3.8231782687361687E-01 
    3.7337192826162235E-01 
    3.6488861520029564E-01 
    3.5745819466223355E-01 
    3.5179146613485962E-01 
    3.4865072464305696E-01 
    4.0320158762721953E-01 
    4.0164171522787456E-01 
    3.9851022630728733E-01 
    3.9378418259288533E-01 
    3.8743073517418758E-01 
    3.7940958162311117E-01 
    3.6967743546355719E-01 
    3.5819598500102806E-01 
    3.4494586764483604E-01 
    3.2995093727696523E-01 
    3.1332005333104984E-01 
    2.9531862012210452E-01 
    2.7649060719880225E-01 
    2.5786628472183409E-01 
    2.4131572081346675E-01 
    2.3015066106489765E-01 
    3.8420002374750500E-01 
    3.8229986735955074E-01 
    3.7846552618478219E-01 
    3.7262671499778721E-01 
    3.6467215705130573E-01 
    3.5444174129256123E-01 
    3.4171454150078878E-01 
    3.2619105231276896E-01 
    3.0746706985591160E-01 
    2.8499520762012120E-01 
    2.5802777241865160E-01 
    2.2553110912595348E-01 
    1.8605569473365768E-01 
    1.3753678909487321E-01 
    7.6984933893421273E-02 
    0.0000000000000000E+00 

SCALARS Saturarion double 1 
LOOKUP_TABLE default 

    1.0000000000000000E+00 
    9.2630507475166790E-01 
    8.7912731731842331E-01 
    8.3429213951480707E-01 
    7.9065272126450581E-01 
    7.4794253399943667E-01 
    7.0596500974366538E-01 
    6.6440906882315076E-01 
    6.2275349605639585E-01 
    5.8011064668591183E-01 
    5.3481415753725536E-01 
    4.8312189088734309E-01 
    4.1436978683662773E-01 
    2.9264660449799051E-01 
    7.8316892021795689E-02 
    9.0138592795757926E-04 
    8.5536096661717298E-01 
    8.2565716273127310E-01 
    7.9323437484872139E-01 
    7.5986161351088810E-01 
    7.2601093551493812E-01 
    6.9184893419697024E-01 
    6.5734294006988703E-01 
    6.2227239788118871E-01 
    5.8617249652084791E-01 
    5.4815421077771342E-01 
    5.0638126121909210E-01 
    4.5632170589854082E-01 
    3.8383512087227667E-01 
    2.3773798100932625E-01 
    3.2707097669271983E-02 
    7.3720904687128765E-05 
    7.5548409028023833E-01 
    7.3647151767355612E-01 
    7.1354409417063080E-01 
    6.8861646344301453E-01 
    6.6234811201451960E-01 
    6.3499503863534690E-01 
    6.0657471154394360E-01 
    5.7688539403159877E-01 
    5.4542981089443199E-01 
    5.1116277381527753E-01 
    4.7170723708234896E-01 
    4.2050302277686291E-01 
    3.3470879364335232E-01 
    1.3912013775588764E-01 
    4.4683734779081292E-03 
    3.8289265850148683E-07 
    6.7623386024967935E-01 
    6.6260258434340003E-01 
    6.4532639518737767E-01 
    6.2589079007224202E-01 
    6.0481630807257603E-01 
    5.8228369337424768E-01 
    5.5825079225656660E-01 
    5.3243509373839515E-01 
    5.0417271566022182E-01 
    4.7198015869938265E-01 
    4.3209569512232765E-01 
    3.7290362952700812E-01 
    2.4702493956426247E-01 
    3.3832355496922213E-02 
    6.1085943260069447E-05 
    7.6388087135314529E-12 
    6.1113100224964889E-01 
    6.0050864501395074E-01 
    5.8664165970527293E-01 
    5.7068609683796634E-01 
    5.5300379568573266E-01 
    5.3365645756582991E-01 
    5.1247488163445487E-01 
    4.8897821346055892E-01 
    4.6207318731097657E-01 
    4.2913351944110550E-01 
    3.8273662691381577E-01 
    2.9550920186003554E-01 
    9.2178650853838792E-02 
    9.3707869796908730E-04 
    4.1346306029133930E-09 
    1.5957099966076242E-22 
    5.5471435444280981E-01 
    5.4587490758378543E-01 
    5.3409299108668995E-01 
    5.2028149561269754E-01 
    5.0464982150631132E-01 
    4.8709795998205496E-01 
    4.6721158782118849E-01 
    4.4403019060439869E-01 
    4.1531660533335973E-01 
    3.7507843587875600E-01 
    3.0297261886215704E-01 
    1.3310934959812942E-01 
    3.9031913536919814E-03 
    1.1374066107376157E-07 
    2.0895536510878974E-19 
    1.4042821248214271E-49 
    5.0253431031598750E-01 
    4.9466912415241260E-01 
    4.8399271387780302E-01 
    4.7119404330475556E-01 
    4.5626907797334826E-01 
    4.3879621157243043E-01 
    4.1774132301991623E-01 
    3.9070292585664845E-01 
    3.5139598219625090E-01 
    2.7948147890260322E-01 
    1.2565248619712954E-01 
    6.3116631770816466E-03 
    5.7999451767785460E-07 
    7.2996120718014659E-18 
    2.4148056621150270E-46 
   6.1840301197040858E-121 
    4.4959526945933670E-01 
    4.4185890466053745E-01 
    4.3109540395130203E-01 
    4.1766170407914199E-01 
    4.0104126756275027E-01 
    3.7979985012993239E-01 
    3.5051549542348986E-01 
    3.0418415613932670E-01 
    2.1661770662013052E-01 
    7.8373389182051306E-02 
    4.1311662388609331E-03 
    9.2750441054534779E-07 
    4.2286406288500584E-17 
    1.0270855548439316E-44 
   1.4831946496431836E-117 
   1.3827961246431979E-311 
    3.8645232284188824E-01 
    3.7708245247280514E-01 
    3.6332701157939978E-01 
    3.4449246500187691E-01 
    3.1784775205916443E-01 
    2.7711558948516890E-01 
    2.1002955218136637E-01 
    1.1189978094679451E-01 
    2.6883773394055566E-02 
    9.6965819166337699E-04 
    2.8720557406714216E-07 
    6.8544028778303876E-17 
    7.1847950653662373E-44 
   9.2129564937590380E-116 
   7.4276758143670147E-308 
    0.0000000000000000E+00 
    2.8442173739226018E-01 
    2.6687936673440765E-01 
    2.3896662541889230E-01 
    1.9803725988726903E-01 
    1.4225120815520909E-01 
    7.8441132149670773E-02 
    2.6138920118212724E-02 
    3.2147361412353365E-03 
    5.1099513032782191E-05 
    7.2053389735268550E-09 
    3.4963953920807952E-18 
    1.2555050246783694E-43 
   8.5600921849826926E-115 
   8.8069000465427962E-306 
    0.0000000000000000E+00 
    0.0000000000000000E+00 
    9.5674151575189909E-02 
    7.4190269213087690E-02 
    4.8052347132596450E-02 
    2.3894966670142473E-02 
    7.7622029141464349E-03 
    1.2330180086284062E-03 
    5.4324469422691992E-05 
    2.0270301614448192E-07 
    3.8918702015466009E-12 
    2.8149596322868489E-22 
    6.4502783118482945E-47 
   1.6092423410752089E-114 
   9.8328490759053627E-305 
    0.0000000000000000E+00 
    0.0000000000000000E+00 
    0.0000000000000000E+00 
    2.4517873987545246E-03 
    1.1500279767815693E-03 
    3.3034179275682362E-04 
    4.8045782788261787E-05 
    2.4072086409527164E-06 
    1.9670292666803034E-08 
    5.9803116559414458E-12 
    2.7600599953129301E-18 
    1.2480185206178764E-30 
    2.3791304058261268E-57 
   6.3209027083725670E-123 
   1.5593071426914597E-304 
    0.0000000000000000E+00 
    0.0000000000000000E+00 
    0.0000000000000000E+00 
    0.0000000000000000E+00 
    1.4527034635839469E-07 
    2.0712866797286320E-08 
    8.4352685845006656E-10 
    6.0159397420341620E-12 
    2.7119981645497748E-15 
    1.0994145259327585E-20 
    8.1526029768867108E-30 
    2.5219307945503915E-46 
    8.9581759497824504E-79 
   1.2400132126178071E-149 
    0.0000000000000000E+00 
    0.0000000000000000E+00 
    0.0000000000000000E+00 
    0.0000000000000000E+00 
    0.0000000000000000E+00 
    0.0000000000000000E+00 
    3.7815675011799445E-18 
    2.6137328972195082E-20 
    7.2479083444317944E-24 
    2.2265116880789730E-29 
    5.3293018281443587E-38 
    6.2557537332698276E-52 
    1.1466277610269739E-75 
   7.9628902647897032E-119 
   1.7239898654296358E-204 
    0.0000000000000000E+00 
    0.0000000000000000E+00 
    0.0000000000000000E+00 
    0.0000000000000000E+00 
    0.0000000000000000E+00 
    0.0000000000000000E+00 
    0.0000000000000000E+00 
    1.4942820065240016E-44 
    4.5425618345698826E-50 
    3.5067726383823114E-59 
    2.4029332369143316E-73 
    1.4908199683065864E-95 
   1.0777113755656086E-131 
   1.4362717361114528E-193 
   2.0963047302600918E-307 
    0.0000000000000000E+00 
    0.0000000000000000E+00 
    0.0000000000000000E+00 
    0.0000000000000000E+00 
    0.0000000000000000E+00 
    0.0000000000000000E+00 
    0.0000000000000000E+00 
    0.0000000000000000E+00 
   2.4605444325303986E-110 
   1.8521485916481489E-124 
   7.3236721606037530E-148 
   2.3997365060157354E-184 
   6.7368776202329066E-242 
    0.0000000000000000E+00 
    0.0000000000000000E+00 
    0.0000000000000000E+00 
    0.0000000000000000E+00 
    0.0000000000000000E+00 
    0.0000000000000000E+00 
    0.0000000000000000E+00 
    0.0000000000000000E+00 
    0.0000000000000000E+00 
    0.0000000000000000E+00 
    0.0000000000000000E+00 
