# vtk DataFile Version 2.0
Pressure Field Data 
ASCII 
DATASET UNSTRUCTURED_GRID 

POINTS 289 double 

    0.0000000000000000E+00     0.0000000000000000E+00     0.0000000000000000E+00 
    1.0000000000000000E+00     0.0000000000000000E+00     0.0000000000000000E+00 
    1.0000000000000000E+00     1.0000000000000000E+00     0.0000000000000000E+00 
    0.0000000000000000E+00     1.0000000000000000E+00     0.0000000000000000E+00 
    6.2499999999872928E-02     0.0000000000000000E+00     0.0000000000000000E+00 
    1.2499999999977310E-01     0.0000000000000000E+00     0.0000000000000000E+00 
    1.8749999999959341E-01     0.0000000000000000E+00     0.0000000000000000E+00 
    2.4999999999941089E-01     0.0000000000000000E+00     0.0000000000000000E+00 
    3.1249999999922851E-01     0.0000000000000000E+00     0.0000000000000000E+00 
    3.7499999999904610E-01     0.0000000000000000E+00     0.0000000000000000E+00 
    4.3749999999886358E-01     0.0000000000000000E+00     0.0000000000000000E+00 
    4.9999999999869210E-01     0.0000000000000000E+00     0.0000000000000000E+00 
    5.6249999999884603E-01     0.0000000000000000E+00     0.0000000000000000E+00 
    6.2499999999901090E-01     0.0000000000000000E+00     0.0000000000000000E+00 
    6.8749999999917577E-01     0.0000000000000000E+00     0.0000000000000000E+00 
    7.4999999999934064E-01     0.0000000000000000E+00     0.0000000000000000E+00 
    8.1249999999950551E-01     0.0000000000000000E+00     0.0000000000000000E+00 
    8.7499999999967026E-01     0.0000000000000000E+00     0.0000000000000000E+00 
    9.3749999999983513E-01     0.0000000000000000E+00     0.0000000000000000E+00 
    1.0000000000000000E+00     6.2499999999872928E-02     0.0000000000000000E+00 
    1.0000000000000000E+00     1.2499999999977310E-01     0.0000000000000000E+00 
    1.0000000000000000E+00     1.8749999999959341E-01     0.0000000000000000E+00 
    1.0000000000000000E+00     2.4999999999941089E-01     0.0000000000000000E+00 
    1.0000000000000000E+00     3.1249999999922851E-01     0.0000000000000000E+00 
    1.0000000000000000E+00     3.7499999999904610E-01     0.0000000000000000E+00 
    1.0000000000000000E+00     4.3749999999886358E-01     0.0000000000000000E+00 
    1.0000000000000000E+00     4.9999999999869210E-01     0.0000000000000000E+00 
    1.0000000000000000E+00     5.6249999999884603E-01     0.0000000000000000E+00 
    1.0000000000000000E+00     6.2499999999901090E-01     0.0000000000000000E+00 
    1.0000000000000000E+00     6.8749999999917577E-01     0.0000000000000000E+00 
    1.0000000000000000E+00     7.4999999999934064E-01     0.0000000000000000E+00 
    1.0000000000000000E+00     8.1249999999950551E-01     0.0000000000000000E+00 
    1.0000000000000000E+00     8.7499999999967026E-01     0.0000000000000000E+00 
    1.0000000000000000E+00     9.3749999999983513E-01     0.0000000000000000E+00 
    9.3749999999973976E-01     1.0000000000000000E+00     0.0000000000000000E+00 
    8.7499999999950118E-01     1.0000000000000000E+00     0.0000000000000000E+00 
    8.1249999999991318E-01     1.0000000000000000E+00     0.0000000000000000E+00 
    7.5000000000034706E-01     1.0000000000000000E+00     0.0000000000000000E+00 
    6.8750000000078049E-01     1.0000000000000000E+00     0.0000000000000000E+00 
    6.2500000000121403E-01     1.0000000000000000E+00     0.0000000000000000E+00 
    5.6250000000164757E-01     1.0000000000000000E+00     0.0000000000000000E+00 
    5.0000000000205946E-01     1.0000000000000000E+00     0.0000000000000000E+00 
    4.3750000000182099E-01     1.0000000000000000E+00     0.0000000000000000E+00 
    3.7500000000156092E-01     1.0000000000000000E+00     0.0000000000000000E+00 
    3.1250000000130068E-01     1.0000000000000000E+00     0.0000000000000000E+00 
    2.5000000000104050E-01     1.0000000000000000E+00     0.0000000000000000E+00 
    1.8750000000078040E-01     1.0000000000000000E+00     0.0000000000000000E+00 
    1.2500000000052031E-01     1.0000000000000000E+00     0.0000000000000000E+00 
    6.2500000000260125E-02     1.0000000000000000E+00     0.0000000000000000E+00 
    0.0000000000000000E+00     9.3749999999973976E-01     0.0000000000000000E+00 
    0.0000000000000000E+00     8.7499999999950118E-01     0.0000000000000000E+00 
    0.0000000000000000E+00     8.1249999999991318E-01     0.0000000000000000E+00 
    0.0000000000000000E+00     7.5000000000034706E-01     0.0000000000000000E+00 
    0.0000000000000000E+00     6.8750000000078049E-01     0.0000000000000000E+00 
    0.0000000000000000E+00     6.2500000000121403E-01     0.0000000000000000E+00 
    0.0000000000000000E+00     5.6250000000164757E-01     0.0000000000000000E+00 
    0.0000000000000000E+00     5.0000000000205946E-01     0.0000000000000000E+00 
    0.0000000000000000E+00     4.3750000000182099E-01     0.0000000000000000E+00 
    0.0000000000000000E+00     3.7500000000156092E-01     0.0000000000000000E+00 
    0.0000000000000000E+00     3.1250000000130068E-01     0.0000000000000000E+00 
    0.0000000000000000E+00     2.5000000000104050E-01     0.0000000000000000E+00 
    0.0000000000000000E+00     1.8750000000078040E-01     0.0000000000000000E+00 
    0.0000000000000000E+00     1.2500000000052031E-01     0.0000000000000000E+00 
    0.0000000000000000E+00     6.2500000000260125E-02     0.0000000000000000E+00 
    6.2499999999897131E-02     6.2500000000235922E-02     0.0000000000000000E+00 
    6.2499999999921327E-02     1.2500000000047351E-01     0.0000000000000000E+00 
    6.2499999999945530E-02     1.8750000000070621E-01     0.0000000000000000E+00 
    6.2499999999969733E-02     2.5000000000093858E-01     0.0000000000000000E+00 
    6.2499999999993928E-02     3.1250000000117117E-01     0.0000000000000000E+00 
    6.2500000000018124E-02     3.7500000000140382E-01     0.0000000000000000E+00 
    6.2500000000042327E-02     4.3750000000163619E-01     0.0000000000000000E+00 
    6.2500000000066530E-02     5.0000000000184897E-01     0.0000000000000000E+00 
    6.2500000000090733E-02     5.6250000000147260E-01     0.0000000000000000E+00 
    6.2500000000114922E-02     6.2500000000107636E-01     0.0000000000000000E+00 
    6.2500000000139125E-02     6.8750000000068034E-01     0.0000000000000000E+00 
    6.2500000000163328E-02     7.5000000000028411E-01     0.0000000000000000E+00 
    6.2500000000187531E-02     8.1249999999988787E-01     0.0000000000000000E+00 
    6.2500000000211720E-02     8.7499999999951172E-01     0.0000000000000000E+00 
    6.2500000000235922E-02     9.3749999999974565E-01     0.0000000000000000E+00 
    1.2499999999981980E-01     6.2500000000211733E-02     0.0000000000000000E+00 
    1.2499999999986650E-01     1.2500000000042691E-01     0.0000000000000000E+00 
    1.2499999999991319E-01     1.8750000000063199E-01     0.0000000000000000E+00 
    1.2499999999995989E-01     2.5000000000083678E-01     0.0000000000000000E+00 
    1.2500000000000661E-01     3.1250000000104172E-01     0.0000000000000000E+00 
    1.2500000000005329E-01     3.7500000000124661E-01     0.0000000000000000E+00 
    1.2500000000010000E-01     4.3750000000145117E-01     0.0000000000000000E+00 
    1.2500000000014669E-01     5.0000000000163858E-01     0.0000000000000000E+00 
    1.2500000000019340E-01     5.6250000000129741E-01     0.0000000000000000E+00 
    1.2500000000024011E-01     6.2500000000093847E-01     0.0000000000000000E+00 
    1.2500000000028680E-01     6.8750000000057998E-01     0.0000000000000000E+00 
    1.2500000000033351E-01     7.5000000000022127E-01     0.0000000000000000E+00 
    1.2500000000038020E-01     8.1249999999986211E-01     0.0000000000000000E+00 
    1.2500000000042691E-01     8.7499999999952238E-01     0.0000000000000000E+00 
    1.2500000000047359E-01     9.3749999999975164E-01     0.0000000000000000E+00 
    1.8749999999966760E-01     6.2500000000187531E-02     0.0000000000000000E+00 
    1.8749999999974179E-01     1.2500000000038020E-01     0.0000000000000000E+00 
    1.8749999999981601E-01     1.8750000000055780E-01     0.0000000000000000E+00 
    1.8749999999989009E-01     2.5000000000073502E-01     0.0000000000000000E+00 
    1.8749999999996431E-01     3.1250000000091221E-01     0.0000000000000000E+00 
    1.8750000000003850E-01     3.7500000000108941E-01     0.0000000000000000E+00 
    1.8750000000011269E-01     4.3750000000126649E-01     0.0000000000000000E+00 
    1.8750000000018691E-01     5.0000000000142808E-01     0.0000000000000000E+00 
    1.8750000000026110E-01     5.6250000000112244E-01     0.0000000000000000E+00 
    1.8750000000033529E-01     6.2500000000080080E-01     0.0000000000000000E+00 
    1.8750000000040951E-01     6.8750000000047962E-01     0.0000000000000000E+00 
    1.8750000000048361E-01     7.5000000000015843E-01     0.0000000000000000E+00 
    1.8750000000055780E-01     8.1249999999983680E-01     0.0000000000000000E+00 
    1.8750000000063199E-01     8.7499999999953304E-01     0.0000000000000000E+00 
    1.8750000000070621E-01     9.3749999999975764E-01     0.0000000000000000E+00 
    2.4999999999951281E-01     6.2500000000163314E-02     0.0000000000000000E+00 
    2.4999999999961461E-01     1.2500000000033351E-01     0.0000000000000000E+00 
    2.4999999999971650E-01     1.8750000000048361E-01     0.0000000000000000E+00 
    2.4999999999981831E-01     2.5000000000063310E-01     0.0000000000000000E+00 
    2.4999999999992020E-01     3.1250000000078260E-01     0.0000000000000000E+00 
    2.5000000000002198E-01     3.7500000000093209E-01     0.0000000000000000E+00 
    2.5000000000012390E-01     4.3750000000108180E-01     0.0000000000000000E+00 
    2.5000000000022571E-01     5.0000000000121769E-01     0.0000000000000000E+00 
    2.5000000000032763E-01     5.6250000000094724E-01     0.0000000000000000E+00 
    2.5000000000042938E-01     6.2500000000066314E-01     0.0000000000000000E+00 
    2.5000000000053119E-01     6.8750000000037925E-01     0.0000000000000000E+00 
[...]
CELL_DATA 256 
SCALARS Pressure double 1 
LOOKUP_TABLE default 

    1.3482009533209134E+00 
    1.3265953479550072E+00 
    1.3007436632151885E+00 
    1.2736395996468759E+00 
    1.2449979655704480E+00 
    1.2153682531111132E+00 
    1.1893948368946852E+00 
    1.1686971513318465E+00 
    1.1514291022928149E+00 
    1.1369688065600838E+00 
    1.1250206997541818E+00 
    1.1153589193017535E+00 
    1.1078125248389321E+00 
    1.1022550801148825E+00 
    1.0985973494087351E+00 
    1.0967823622694963E+00 
    1.2534006816088434E+00 
    1.2459833196330774E+00 
    1.2314807982887563E+00 
    1.2126081626454610E+00 
    1.1912396854966207E+00 
    1.1703704898783118E+00 
    1.1522563619788910E+00 
    1.1367654327723724E+00 
    1.1233528748389021E+00 
    1.1118469172914314E+00 
    1.1021574362190774E+00 
    1.0942050594053043E+00 
    1.0879230274508407E+00 
    1.0832579399353144E+00 
    1.0801699137394758E+00 
    1.0786324908771223E+00 
    1.1502903658307821E+00 
    1.1457136144777160E+00 
    1.1371523669531576E+00 
    1.1263570858147902E+00 
    1.1150756269072519E+00 
    1.1042954519612591E+00 
    1.0942136525348500E+00 
    1.0848004673909410E+00 
    1.0762110757439307E+00 
    1.0685602632713769E+00 
    1.0619231300978986E+00 
    1.0563477509154982E+00 
    1.0518640856730945E+00 
    1.0484901865584457E+00 
    1.0462364447352241E+00 
    1.0451083908613599E+00 
    1.0532262109990118E+00 
    1.0514286077715773E+00 
    1.0483120284182950E+00 
    1.0443754227503694E+00 
    1.0398542462530769E+00 
    1.0348967457073910E+00 
    1.0297318731722751E+00 
    1.0245976699144141E+00 
    1.0196834849046963E+00 
    1.0151368162604903E+00 
    1.0110712840658402E+00 
    1.0075733030255973E+00 
    1.0047074826176499E+00 
    1.0025208602670406E+00 
    1.0010460962373127E+00 
    1.0003037521073408E+00 
    9.7543510520923171E-01 
    9.7491669003388093E-01 
    9.7383436769309395E-01 
    9.7219050107419958E-01 
    9.7007260269233830E-01 
    9.6761186912705111E-01 
    9.6494341149718688E-01 
    9.6219468995671298E-01 
    9.5948073041054149E-01 
    9.5690200475404774E-01 
    9.5454392648967512E-01 
    9.5247724881269358E-01 
    9.5075889898874466E-01 
    9.4943295076667877E-01 
    9.4853154874178858E-01 
    9.4807567205428667E-01 
    9.0664935110162470E-01 
    9.0634304668245458E-01 
    9.0573615151279696E-01 
    9.0484936497379576E-01 
    9.0372139050973099E-01 
    9.0240423347902543E-01 
    9.0095758892825162E-01 
    8.9944409005612624E-01 
    8.9792563701972850E-01 
    8.9646071932642035E-01 
    8.9510256303960500E-01 
    8.9389791606945701E-01 
    8.9288629934097841E-01 
    8.9209957929448791E-01 
    8.9156174787235720E-01 
    8.9128882512722452E-01 
    8.4097807688583226E-01 
    8.4079590721434716E-01 
    8.4043851600488517E-01 
    8.3992012090599655E-01 
    8.3926200399426443E-01 
    8.3849147303170890E-01 
    8.3764030957286773E-01 
    8.3674303179833953E-01 
    8.3583519019808949E-01 
    8.3495181983389266E-01 
    8.3412610642287299E-01 
    8.3338828090953387E-01 
    8.3276473287332298E-01 
    8.3227732157866241E-01 
    8.3194286023293318E-01 
    8.3177275075017232E-01 
    7.7712850095997354E-01 
    7.7700098367294190E-01 
    7.7675091939297047E-01 
    7.7638809496663608E-01 
    7.7592675798704713E-01 
    7.7538503754726318E-01 
    7.7478417337437655E-01 
    7.7414761179781222E-01 
    7.7350003101595921E-01 
    7.7286635080961041E-01 
    7.7227077082935147E-01 
    7.7173587097833585E-01 
    7.7128179899016858E-01 
    7.7092556437351456E-01 
    7.7068045396382723E-01 
    7.7055558154717108E-01 
    7.1455409790227054E-01 
    7.1443153006080740E-01 
    7.1419092424459629E-01 
    7.1384119455976414E-01 
    7.1339534658175752E-01 
    7.1287003939385551E-01 
    7.1228501121270826E-01 
    7.1166238385025860E-01 
    7.1102586607890395E-01 
    7.1039987952456329E-01 
    7.0980863394356219E-01 
    7.0927518241884280E-01 
    7.0882049139210224E-01 
    7.0846256509894368E-01 
    7.0821566776469680E-01 
    7.0808968817988549E-01 
    6.5320537325713846E-01 
    6.5304245619602974E-01 
    6.5272216778234671E-01 
    6.5225547708457243E-01 
    6.5165852727538742E-01 
    6.5095225117290090E-01 
    6.5016184086409690E-01 
    6.4931605999182562E-01 
    6.4844638897180906E-01 
    6.4758599850624954E-01 
    6.4676855649511134E-01 
    6.4602688887975346E-01 
    6.4539153645844194E-01 
    6.4488927623551151E-01 
    6.4454170407151035E-01 
    6.4436399896678032E-01 
    5.9348581922157906E-01 
    5.9322709585699218E-01 
    5.9271743416100442E-01 
    5.9197235072347210E-01 
    5.9101497090202093E-01 
    5.8987580501510817E-01 
    5.8859237615013915E-01 
    5.8720863761083730E-01 
    5.8577410632013149E-01 
    5.8434263294371391E-01 
    5.8297073508885011E-01 
    5.8171544340019543E-01 
    5.8063165954097473E-01 
    5.7976910678278915E-01 
    5.7916906978564109E-01 
    5.7886125870803340E-01 
    5.3635349883078687E-01 
    5.3592111883196192E-01 
    5.3506691795510963E-01 
    5.3381218820154663E-01 
    5.3218927518325421E-01 
    5.3024198863785477E-01 
    5.2802600817948608E-01 
    5.2560914274386650E-01 
    5.2307124452554210E-01 
    5.2050351216561774E-01 
    5.1800685202047703E-01 
    5.1568891962628349E-01 
    5.1365947161315428E-01 
    5.1202377971968238E-01 
    5.1087417630440002E-01 
    5.1028040767454275E-01 
    4.8354497842754557E-01 
    4.8283335058721666E-01 
    4.8142169051632383E-01 
    4.7933385832691333E-01 
    4.7660731473553852E-01 
    4.7329511139027503E-01 
    4.6946848998131030E-01 
    4.6521997570390350E-01 
    4.6066672414690940E-01 
    4.5595366923965569E-01 
    4.5125569144261030E-01 
    4.4677755204171565E-01 
    4.4274972248876604E-01 
    4.3941756787469238E-01 
    4.3702093496897609E-01 
    4.3576187034352193E-01 
    4.3785273642728567E-01 
    4.3674590464813579E-01 
    4.3453818426274310E-01 
    4.3124264247193217E-01 
    4.2688195182670968E-01 
    4.2149241477969229E-01 
    4.1512990046753440E-01 
    4.0787818145974325E-01 
    3.9986023727079495E-01 
    3.9125305521157716E-01 
    3.8230614690321607E-01 
    3.7336308597769874E-01 
    3.6488322397564371E-01 
    3.5745613894617095E-01 
    3.5179201083106715E-01 
    3.4865268675875188E-01 
    4.0322881221854379E-01 
    4.0166734477152893E-01 
    3.9853289206339032E-01 
    3.9380291516107641E-01 
    3.8744505293580866E-01 
    3.7941949082047055E-01 
    3.6968335791000861E-01 
    3.5819863902693422E-01 
    3.4494612909708466E-01 
    3.2994970367472098E-01 
    3.1331812853515884E-01 
    2.9531663067881170E-01 
    2.7648895573645105E-01 
    2.5786514087368345E-01 
    2.4131504626511438E-01 
    2.3015026245091191E-01 
    3.8421956248010514E-01 
    3.8231863750627848E-01 
    3.7848284180594483E-01 
    3.7264204107989074E-01 
    3.6468515294574133E-01 
    3.5445227481261038E-01 
    3.4172267507872051E-01 
    3.2619700706173116E-01 
    3.0747117584820988E-01 
    2.8499784930976046E-01 
    2.5802933733482020E-01 
    2.2553194623985745E-01 
    1.8605608670101670E-01 
    1.3753694025865829E-01 
    7.6984973754825964E-02 
    0.0000000000000000E+00 

SCALARS Saturarion double 1 
LOOKUP_TABLE default 

    1.0000000000000000E+00 
    7.1834569079837618E-01 
    6.0007568017010138E-01 
    5.0337652174709990E-01 
    4.0310680522137854E-01 
    2.5109100359719316E-01 
    4.2365895117322638E-02 
    1.4940324897770040E-04 
    4.5072133506326368E-11 
    5.9788565492647247E-28 
    1.1897249498410225E-71 
   1.8246466855282971E-186 
    0.0000000000000000E+00 
    0.0000000000000000E+00 
    0.0000000000000000E+00 
    0.0000000000000000E+00 
    5.9573428358957570E-01 
    5.2234324629891871E-01 
    4.4228331114891506E-01 
    3.4399190411519276E-01 
    1.7771402283431717E-01 
    1.8976696105227352E-02 
    4.3722090525850582E-05 
    1.1112805887655716E-11 
    1.4793244834782357E-28 
    3.1950771517349665E-72 
   5.6369401911558851E-187 
    0.0000000000000000E+00 
    0.0000000000000000E+00 
    0.0000000000000000E+00 
    0.0000000000000000E+00 
    0.0000000000000000E+00 
    3.5586641541162090E-01 
    2.9021422190922630E-01 
    1.8427953370015643E-01 
    6.3074112157984502E-02 
    4.6990122031842184E-03 
    6.8346671090750259E-06 
    1.0860729527552911E-12 
    1.2509560882393899E-29 
    2.8768123182594678E-73 
   5.9769849988577599E-188 
    0.0000000000000000E+00 
    0.0000000000000000E+00 
    0.0000000000000000E+00 
    0.0000000000000000E+00 
    0.0000000000000000E+00 
    0.0000000000000000E+00 
    9.6481390694908409E-02 
    4.6273314972440450E-02 
    9.5319477982709674E-03 
    3.8075481164354021E-04 
    3.2758604865399922E-07 
    2.0697628621426715E-14 
    1.1713317144321514E-31 
    2.4599618564527944E-75 
   6.1887239922717221E-190 
    0.0000000000000000E+00 
    0.0000000000000000E+00 
    0.0000000000000000E+00 
    0.0000000000000000E+00 
    0.0000000000000000E+00 
    0.0000000000000000E+00 
    0.0000000000000000E+00 
    2.0553379072796385E-03 
    2.6236426159604827E-04 
    4.2694165039738621E-06 
    1.4208008136479897E-09 
    2.4914299470176124E-17 
    2.1815201704213516E-35 
    1.7596537773358369E-79 
   4.7109872086802369E-194 
    0.0000000000000000E+00 
    0.0000000000000000E+00 
    0.0000000000000000E+00 
    0.0000000000000000E+00 
    0.0000000000000000E+00 
    0.0000000000000000E+00 
    0.0000000000000000E+00 
    0.0000000000000000E+00 
    1.8603916131945283E-07 
    1.3393550638642494E-09 
    7.1168751627783061E-14 
    2.0571409921091983E-22 
    7.1556792336397786E-42 
    1.9097935141799150E-87 
   1.8047703325202952E-202 
    0.0000000000000000E+00 
    0.0000000000000000E+00 
    0.0000000000000000E+00 
    0.0000000000000000E+00 
    0.0000000000000000E+00 
    0.0000000000000000E+00 
    0.0000000000000000E+00 
    0.0000000000000000E+00 
    0.0000000000000000E+00 
    1.5996250954905455E-16 
    1.5278861632166932E-21 
    1.0484585206583459E-31 
    6.3730326408935202E-53 
   1.0300619060254376E-101 
   4.2114235561409277E-219 
    0.0000000000000000E+00 
    0.0000000000000000E+00 
    0.0000000000000000E+00 
    0.0000000000000000E+00 
    0.0000000000000000E+00 
    0.0000000000000000E+00 
    0.0000000000000000E+00 
    0.0000000000000000E+00 
    0.0000000000000000E+00 
    0.0000000000000000E+00 
    1.2285252338164697E-36 
    2.0712610635075451E-48 
    9.2356234752321725E-73 
   4.5345506734867482E-126 
   6.5437028376910624E-250 
    0.0000000000000000E+00 
    0.0000000000000000E+00 
    0.0000000000000000E+00 
    0.0000000000000000E+00 
    0.0000000000000000E+00 
    0.0000000000000000E+00 
    0.0000000000000000E+00 
    0.0000000000000000E+00 
    0.0000000000000000E+00 
    0.0000000000000000E+00 
    0.0000000000000000E+00 
    2.9370100308787417E-81 
   5.7003261467711861E-109 
   1.9599190816418527E-168 
   1.0220537562826629E-303 
    0.0000000000000000E+00 
    0.0000000000000000E+00 
    0.0000000000000000E+00 
    0.0000000000000000E+00 
    0.0000000000000000E+00 
    0.0000000000000000E+00 
    0.0000000000000000E+00 
    0.0000000000000000E+00 
    0.0000000000000000E+00 
    0.0000000000000000E+00 
    0.0000000000000000E+00 
    0.0000000000000000E+00 
   1.7703024844856307E-180 
   2.0023690858547376E-246 
    0.0000000000000000E+00 
    0.0000000000000000E+00 
    0.0000000000000000E+00 
    0.0000000000000000E+00 
    0.0000000000000000E+00 
    0.0000000000000000E+00 
    0.0000000000000000E+00 
    0.0000000000000000E+00 
    0.0000000000000000E+00 
    0.0000000000000000E+00 
    0.0000000000000000E+00 
    0.0000000000000000E+00 
    0.0000000000000000E+00 
    0.0000000000000000E+00 
    0.0000000000000000E+00 
    0.0000000000000000E+00 
    0.0000000000000000E+00 
    0.0000000000000000E+00 
    0.0000000000000000E+00 
    0.0000000000000000E+00 
    0.0000000000000000E+00 
    0.0000000000000000E+00 
    0.0000000000000000E+00 
    0.0000000000000000E+00 
    0.0000000000000000E+00 
    0.0000000000000000E+00 
    0.0000000000000000E+00 
    0.0000000000000000E+00 
    0.0000000000000000E+00 
    0.0000000000000000E+00 
    0.0000000000000000E+00 
    0.0000000000000000E+00 
    0.0000000000000000E+00 
    0.0000000000000000E+00 
    0.0000000000000000E+00 
    0.0000000000000000E+00 
    0.0000000000000000E+00 
    0.0000000000000000E+00 
    0.0000000000000000E+00 
    0.0000000000000000E+00 
    0.0000000000000000E+00 
    0.0000000000000000E+00 
    0.0000000000000000E+00 
    0.0000000000000000E+00 
    0.0000000000000000E+00 
    0.0000000000000000E+00 
    0.0000000000000000E+00 
    0.0000000000000000E+00 
    0.0000000000000000E+00 
    0.0000000000000000E+00 
    0.0000000000000000E+00 
    0.0000000000000000E+00 
    0.0000000000000000E+00 
    0.0000000000000000E+00 
    0.0000000000000000E+00 
    0.0000000000000000E+00 
    0.0000000000000000E+00 
    0.0000000000000000E+00 
    0.0000000000000000E+00 
    0.0000000000000000E+00 
    0.0000000000000000E+00 
    0.0000000000000000E+00 
    0.0000000000000000E+00 
    0.0000000000000000E+00 
    0.0000000000000000E+00 
    0.0000000000000000E+00 
    0.0000000000000000E+00 
    0.0000000000000000E+00 
    0.0000000000000000E+00 
    0.0000000000000000E+00 
    0.0000000000000000E+00 
    0.0000000000000000E+00 
    0.0000000000000000E+00 
    0.0000000000000000E+00 
    0.0000000000000000E+00 
    0.0000000000000000E+00 
    0.0000000000000000E+00 
    0.0000000000000000E+00 
    0.0000000000000000E+00 
    0.0000000000000000E+00 
    0.0000000000000000E+00 
    0.0000000000000000E+00 
    0.0000000000000000E+00 
    0.0000000000000000E+00 
    0.0000000000000000E+00 
    0.0000000000000000E+00 
    0.0000000000000000E+00 
    0.0000000000000000E+00 
    0.0000000000000000E+00 
    0.0000000000000000E+00 
    0.0000000000000000E+00 
    0.0000000000000000E+00 
    0.0000000000000000E+00 
    0.0000000000000000E+00 
    0.0000000000000000E+00 
    0.0000000000000000E+00 
    0.0000000000000000E+00 
    0.0000000000000000E+00 
    0.0000000000000000E+00 
    0.0000000000000000E+00 
    0.0000000000000000E+00 
    0.0000000000000000E+00 
    0.0000000000000000E+00 
    0.0000000000000000E+00 
    0.0000000000000000E+00 
    0.0000000000000000E+00 
    0.0000000000000000E+00 
    0.0000000000000000E+00 
    0.0000000000000000E+00 
    0.0000000000000000E+00 
