# vtk DataFile Version 2.0
Pressure Field Data 
ASCII 
DATASET UNSTRUCTURED_GRID 

POINTS 289 double 

    0.0000000000000000E+00     0.0000000000000000E+00     0.0000000000000000E+00 
    1.0000000000000000E+00     0.0000000000000000E+00     0.0000000000000000E+00 
    1.0000000000000000E+00     1.0000000000000000E+00     0.0000000000000000E+00 
    0.0000000000000000E+00     1.0000000000000000E+00     0.0000000000000000E+00 
    6.2499999999872928E-02     0.0000000000000000E+00     0.0000000000000000E+00 
    1.2499999999977310E-01     0.0000000000000000E+00     0.0000000000000000E+00 
    1.8749999999959341E-01     0.0000000000000000E+00     0.0000000000000000E+00 
    2.4999999999941089E-01     0.0000000000000000E+00     0.0000000000000000E+00 
    3.1249999999922851E-01     0.0000000000000000E+00     0.0000000000000000E+00 
    3.7499999999904610E-01     0.0000000000000000E+00     0.0000000000000000E+00 
    4.3749999999886358E-01     0.0000000000000000E+00     0.0000000000000000E+00 
    4.9999999999869210E-01     0.0000000000000000E+00     0.0000000000000000E+00 
    5.6249999999884603E-01     0.0000000000000000E+00     0.0000000000000000E+00 
    6.2499999999901090E-01     0.0000000000000000E+00     0.0000000000000000E+00 
    6.8749999999917577E-01     0.0000000000000000E+00     0.0000000000000000E+00 
    7.4999999999934064E-01     0.0000000000000000E+00     0.0000000000000000E+00 
    8.1249999999950551E-01     0.0000000000000000E+00     0.0000000000000000E+00 
    8.7499999999967026E-01     0.0000000000000000E+00     0.0000000000000000E+00 
    9.3749999999983513E-01     0.0000000000000000E+00     0.0000000000000000E+00 
    1.0000000000000000E+00     6.2499999999872928E-02     0.0000000000000000E+00 
    1.0000000000000000E+00     1.2499999999977310E-01     0.0000000000000000E+00 
    1.0000000000000000E+00     1.8749999999959341E-01     0.0000000000000000E+00 
    1.0000000000000000E+00     2.4999999999941089E-01     0.0000000000000000E+00 
    1.0000000000000000E+00     3.1249999999922851E-01     0.0000000000000000E+00 
    1.0000000000000000E+00     3.7499999999904610E-01     0.0000000000000000E+00 
    1.0000000000000000E+00     4.3749999999886358E-01     0.0000000000000000E+00 
    1.0000000000000000E+00     4.9999999999869210E-01     0.0000000000000000E+00 
    1.0000000000000000E+00     5.6249999999884603E-01     0.0000000000000000E+00 
    1.0000000000000000E+00     6.2499999999901090E-01     0.0000000000000000E+00 
    1.0000000000000000E+00     6.8749999999917577E-01     0.0000000000000000E+00 
    1.0000000000000000E+00     7.4999999999934064E-01     0.0000000000000000E+00 
    1.0000000000000000E+00     8.1249999999950551E-01     0.0000000000000000E+00 
    1.0000000000000000E+00     8.7499999999967026E-01     0.0000000000000000E+00 
    1.0000000000000000E+00     9.3749999999983513E-01     0.0000000000000000E+00 
    9.3749999999973976E-01     1.0000000000000000E+00     0.0000000000000000E+00 
    8.7499999999950118E-01     1.0000000000000000E+00     0.0000000000000000E+00 
    8.1249999999991318E-01     1.0000000000000000E+00     0.0000000000000000E+00 
    7.5000000000034706E-01     1.0000000000000000E+00     0.0000000000000000E+00 
    6.8750000000078049E-01     1.0000000000000000E+00     0.0000000000000000E+00 
    6.2500000000121403E-01     1.0000000000000000E+00     0.0000000000000000E+00 
    5.6250000000164757E-01     1.0000000000000000E+00     0.0000000000000000E+00 
    5.0000000000205946E-01     1.0000000000000000E+00     0.0000000000000000E+00 
    4.3750000000182099E-01     1.0000000000000000E+00     0.0000000000000000E+00 
    3.7500000000156092E-01     1.0000000000000000E+00     0.0000000000000000E+00 
    3.1250000000130068E-01     1.0000000000000000E+00     0.0000000000000000E+00 
    2.5000000000104050E-01     1.0000000000000000E+00     0.0000000000000000E+00 
    1.8750000000078040E-01     1.0000000000000000E+00     0.0000000000000000E+00 
    1.2500000000052031E-01     1.0000000000000000E+00     0.0000000000000000E+00 
    6.2500000000260125E-02     1.0000000000000000E+00     0.0000000000000000E+00 
    0.0000000000000000E+00     9.3749999999973976E-01     0.0000000000000000E+00 
    0.0000000000000000E+00     8.7499999999950118E-01     0.0000000000000000E+00 
    0.0000000000000000E+00     8.1249999999991318E-01     0.0000000000000000E+00 
    0.0000000000000000E+00     7.5000000000034706E-01     0.0000000000000000E+00 
    0.0000000000000000E+00     6.8750000000078049E-01     0.0000000000000000E+00 
    0.0000000000000000E+00     6.2500000000121403E-01     0.0000000000000000E+00 
    0.0000000000000000E+00     5.6250000000164757E-01     0.0000000000000000E+00 
    0.0000000000000000E+00     5.0000000000205946E-01     0.0000000000000000E+00 
    0.0000000000000000E+00     4.3750000000182099E-01     0.0000000000000000E+00 
    0.0000000000000000E+00     3.7500000000156092E-01     0.0000000000000000E+00 
    0.0000000000000000E+00     3.1250000000130068E-01     0.0000000000000000E+00 
    0.0000000000000000E+00     2.5000000000104050E-01     0.0000000000000000E+00 
    0.0000000000000000E+00     1.8750000000078040E-01     0.0000000000000000E+00 
    0.0000000000000000E+00     1.2500000000052031E-01     0.0000000000000000E+00 
    0.0000000000000000E+00     6.2500000000260125E-02     0.0000000000000000E+00 
    6.2499999999897131E-02     6.2500000000235922E-02     0.0000000000000000E+00 
    6.2499999999921327E-02     1.2500000000047351E-01     0.0000000000000000E+00 
    6.2499999999945530E-02     1.8750000000070621E-01     0.0000000000000000E+00 
    6.2499999999969733E-02     2.5000000000093858E-01     0.0000000000000000E+00 
    6.2499999999993928E-02     3.1250000000117117E-01     0.0000000000000000E+00 
    6.2500000000018124E-02     3.7500000000140382E-01     0.0000000000000000E+00 
    6.2500000000042327E-02     4.3750000000163619E-01     0.0000000000000000E+00 
    6.2500000000066530E-02     5.0000000000184897E-01     0.0000000000000000E+00 
    6.2500000000090733E-02     5.6250000000147260E-01     0.0000000000000000E+00 
    6.2500000000114922E-02     6.2500000000107636E-01     0.0000000000000000E+00 
    6.2500000000139125E-02     6.8750000000068034E-01     0.0000000000000000E+00 
    6.2500000000163328E-02     7.5000000000028411E-01     0.0000000000000000E+00 
    6.2500000000187531E-02     8.1249999999988787E-01     0.0000000000000000E+00 
    6.2500000000211720E-02     8.7499999999951172E-01     0.0000000000000000E+00 
    6.2500000000235922E-02     9.3749999999974565E-01     0.0000000000000000E+00 
    1.2499999999981980E-01     6.2500000000211733E-02     0.0000000000000000E+00 
    1.2499999999986650E-01     1.2500000000042691E-01     0.0000000000000000E+00 
    1.2499999999991319E-01     1.8750000000063199E-01     0.0000000000000000E+00 
    1.2499999999995989E-01     2.5000000000083678E-01     0.0000000000000000E+00 
    1.2500000000000661E-01     3.1250000000104172E-01     0.0000000000000000E+00 
    1.2500000000005329E-01     3.7500000000124661E-01     0.0000000000000000E+00 
    1.2500000000010000E-01     4.3750000000145117E-01     0.0000000000000000E+00 
    1.2500000000014669E-01     5.0000000000163858E-01     0.0000000000000000E+00 
    1.2500000000019340E-01     5.6250000000129741E-01     0.0000000000000000E+00 
    1.2500000000024011E-01     6.2500000000093847E-01     0.0000000000000000E+00 
    1.2500000000028680E-01     6.8750000000057998E-01     0.0000000000000000E+00 
    1.2500000000033351E-01     7.5000000000022127E-01     0.0000000000000000E+00 
    1.2500000000038020E-01     8.1249999999986211E-01     0.0000000000000000E+00 
    1.2500000000042691E-01     8.7499999999952238E-01     0.0000000000000000E+00 
    1.2500000000047359E-01     9.3749999999975164E-01     0.0000000000000000E+00 
    1.8749999999966760E-01     6.2500000000187531E-02     0.0000000000000000E+00 
    1.8749999999974179E-01     1.2500000000038020E-01     0.0000000000000000E+00 
    1.8749999999981601E-01     1.8750000000055780E-01     0.0000000000000000E+00 
    1.8749999999989009E-01     2.5000000000073502E-01     0.0000000000000000E+00 
    1.8749999999996431E-01     3.1250000000091221E-01     0.0000000000000000E+00 
    1.8750000000003850E-01     3.7500000000108941E-01     0.0000000000000000E+00 
    1.8750000000011269E-01     4.3750000000126649E-01     0.0000000000000000E+00 
    1.8750000000018691E-01     5.0000000000142808E-01     0.0000000000000000E+00 
    1.8750000000026110E-01     5.6250000000112244E-01     0.0000000000000000E+00 
    1.8750000000033529E-01     6.2500000000080080E-01     0.0000000000000000E+00 
    1.8750000000040951E-01     6.8750000000047962E-01     0.0000000000000000E+00 
    1.8750000000048361E-01     7.5000000000015843E-01     0.0000000000000000E+00 
    1.8750000000055780E-01     8.1249999999983680E-01     0.0000000000000000E+00 
    1.8750000000063199E-01     8.7499999999953304E-01     0.0000000000000000E+00 
    1.8750000000070621E-01     9.3749999999975764E-01     0.0000000000000000E+00 
    2.4999999999951281E-01     6.2500000000163314E-02     0.0000000000000000E+00 
    2.4999999999961461E-01     1.2500000000033351E-01     0.0000000000000000E+00 
    2.4999999999971650E-01     1.8750000000048361E-01     0.0000000000000000E+00 
    2.4999999999981831E-01     2.5000000000063310E-01     0.0000000000000000E+00 
    2.4999999999992020E-01     3.1250000000078260E-01     0.0000000000000000E+00 
    2.5000000000002198E-01     3.7500000000093209E-01     0.0000000000000000E+00 
    2.5000000000012390E-01     4.3750000000108180E-01     0.0000000000000000E+00 
    2.5000000000022571E-01     5.0000000000121769E-01     0.0000000000000000E+00 
    2.5000000000032763E-01     5.6250000000094724E-01     0.0000000000000000E+00 
    2.5000000000042938E-01     6.2500000000066314E-01     0.0000000000000000E+00 
    2.5000000000053119E-01     6.8750000000037925E-01     0.0000000000000000E+00 
[...]
CELL_DATA 256 
SCALARS Pressure double 1 
LOOKUP_TABLE default 

    1.1456029244361499E+00 
    1.1284397487366284E+00 
    1.1136926379258569E+00 
    1.1010485023607877E+00 
    1.0900537559258396E+00 
    1.0803890057493304E+00 
    1.0718349872317443E+00 
    1.0642422401327516E+00 
    1.0575089835996148E+00 
    1.0515645486494640E+00 
    1.0463544075742457E+00 
    1.0418195200533791E+00 
    1.0378529716441340E+00 
    1.0343053933171569E+00 
    1.0316984458144955E+00 
    1.0304597560057072E+00 
    1.0850797944707840E+00 
    1.0820047962915991E+00 
    1.0771603074105833E+00 
    1.0714465472874084E+00 
    1.0653730131082830E+00 
    1.0592543749274597E+00 
    1.0532894689065990E+00 
    1.0476066766958292E+00 
    1.0422901838249046E+00 
    1.0373938669691150E+00 
    1.0329444139340225E+00 
    1.0289272732714962E+00 
    1.0252365226728410E+00 
    1.0218490025707214E+00 
    1.0194421082462342E+00 
    1.0183140253048368E+00 
    1.0403624342316313E+00 
    1.0392399810952455E+00 
    1.0371441977643892E+00 
    1.0342991297317579E+00 
    1.0309219450730829E+00 
    1.0272038076958379E+00 
    1.0233053405154215E+00 
    1.0193576221843832E+00 
    1.0154643497773177E+00 
    1.0117017895170772E+00 
    1.0081106448535806E+00 
    1.0046634736110496E+00 
    1.0012347312505565E+00 
    9.9813505309377160E-01 
    9.9609680687317426E-01 
    9.9514755358112827E-01 
    9.9706753113437341E-01 
    9.9644300092525084E-01 
    9.9523068843609974E-01 
    9.9350482761774173E-01 
    9.9135434369672326E-01 
    9.8887246478293300E-01 
    9.8614959517447787E-01 
    9.8326798578755148E-01 
    9.8029625062349357E-01 
    9.7727955342903727E-01 
    9.7421386023787326E-01 
    9.7099344645321861E-01 
    9.6768357294666529E-01 
    9.6501570690002414E-01 
    9.6337326554856528E-01 
    9.6258859533046792E-01 
    9.5162213934632556E-01 
    9.5118197681283245E-01 
    9.5031739383568470E-01 
    9.4906257412340633E-01 
    9.4746070381265812E-01 
    9.4555941304741709E-01 
    9.4340614402657341E-01 
    9.4104220678622585E-01 
    9.3849241491562108E-01 
    9.3574123225974093E-01 
    9.3268741920988718E-01 
    9.2933385245096312E-01 
    9.2629357553855685E-01 
    9.2416350257278534E-01 
    9.2284493104671728E-01 
    9.2218970953182267E-01 
    9.0277974861275656E-01 
    9.0241071080904844E-01 
    9.0168000259857795E-01 
    9.0060493259165042E-01 
    8.9920679627821443E-01 
    8.9750699757933028E-01 
    8.9552122512811339E-01 
    8.9324821608503224E-01 
    8.9064515922073184E-01 
    8.8760661673436969E-01 
    8.8417968364502464E-01 
    8.8095105771729854E-01 
    8.7852691875347289E-01 
    8.7686478437524662E-01 
    8.7578074380198190E-01 
    8.7523862003747266E-01 
    8.4991911301823952E-01 
    8.4955688592481182E-01 
    8.4883236988584143E-01 
    8.4774914110471822E-01 
    8.4630867456175207E-01 
    8.4450287710660299E-01 
    8.4229953282540704E-01 
    8.3962204356382464E-01 
    8.3642271879937602E-01 
    8.3290731773973725E-01 
    8.2968464322643087E-01 
    8.2722647038928676E-01 
    8.2545043374081251E-01 
    8.2415954578780959E-01 
    8.2329767151460032E-01 
    8.2286629289917013E-01 
    7.9245054562009942E-01 
    7.9202542730064107E-01 
    7.9116275258955393E-01 
    7.8984278797338181E-01 
    7.8802820347974323E-01 
    7.8566415914771293E-01 
    7.8274291256097128E-01 
    7.7942324106741401E-01 
    7.7609018035625765E-01 
    7.7323521367177706E-01 
    7.7106930229207360E-01 
    7.6943110712977669E-01 
    7.6814216956559478E-01 
    7.6716558897570242E-01 
    7.6650964264947608E-01 
    7.6618017960806550E-01 
    7.2925074309396032E-01 
    7.2861249890917135E-01 
    7.2733105410926779E-01 
    7.2543297268622209E-01 
    7.2301377055911775E-01 
    7.2026027225051470E-01 
    7.1744931224036312E-01 
    7.1490048510653603E-01 
    7.1282332847230900E-01 
    7.1119508422274524E-01 
    7.0984531155678043E-01 
    7.0868068986357147E-01 
    7.0771267799292448E-01 
    7.0696528952745763E-01 
    7.0645678093646358E-01 
    7.0619943590500722E-01 
    6.5983623736547803E-01 
    6.5922447010982244E-01 
    6.5809988228234628E-01 
    6.5661927970388179E-01 
    6.5496862419142621E-01 
    6.5333943375534120E-01 
    6.5186790724164267E-01 
    6.5056412144988818E-01 
    6.4934120917254612E-01 
    6.4814586821407061E-01 
    6.4700349796129564E-01 
    6.4596531384981648E-01 
    6.4507695236917628E-01 
    6.4437619133474489E-01 
    6.4389228362838680E-01 
    6.4364524188963645E-01 
    5.9383369463507107E-01 
    5.9353555441663131E-01 
    5.9298862187988088E-01 
    5.9225143158710769E-01 
    5.9135345053677113E-01 
    5.9028724717324144E-01 
    5.8904097640191666E-01 
    5.8763707399740217E-01 
    5.8613411619543176E-01 
    5.8460419529836238E-01 
    5.8311993174544030E-01 
    5.8175171152775518E-01 
    5.8056522228335450E-01 
    5.7961855986131183E-01 
    5.7895912664427351E-01 
    5.7862063048841561E-01 
    5.3609187947084824E-01 
    5.3571167413739729E-01 
    5.3494016486926532E-01 
    5.3377338428615251E-01 
    5.3222670324501309E-01 
    5.3033531606065454E-01 
    5.2815199333267293E-01 
    5.2574515005205502E-01 
    5.2319780308331409E-01 
    5.2060594988458631E-01 
    5.1807593217719894E-01 
    5.1572079947284066E-01 
    5.1365522397395791E-01 
    5.1198863633783098E-01 
    5.1081659904839150E-01 
    5.1021105752994844E-01 
    4.8345492110215693E-01 
    4.8275552042571923E-01 
    4.8136505694510201E-01 
    4.7930260684696330E-01 
    4.7660107093103909E-01 
    4.7331001868945632E-01 
    4.6949853705614791E-01 
    4.6525826469341203E-01 
    4.6070655227115370E-01 
    4.5598934955737780E-01 
    4.5128308257864258E-01 
    4.4679431536315900E-01 
    4.4275534703701036E-01 
    4.3941320934748929E-01 
    4.3700911374261547E-01 
    4.3574606938809252E-01 
    4.3781503338975841E-01 
    4.3671167282878970E-01 
    4.3451024736151073E-01 
    4.3122274206304195E-01 
    4.2687060423620327E-01 
    4.2148901525300220E-01 
    4.1513298807388166E-01 
    4.0788577992992314E-01 
    3.9987020437409349E-01 
    3.9126339187972958E-01 
    3.8231523534755013E-01 
    3.7336984236012899E-01 
    3.6488716373381341E-01 
    3.5745736151071567E-01 
    3.5179111593346934E-01 
    3.4865063770180027E-01 
    4.0320875128775613E-01 
    4.0164847429533568E-01 
    3.9851623608987857E-01 
    3.9378920256282740E-01 
    3.8743464910497205E-01 
    3.7941239377569874E-01 
    3.6967924873991265E-01 
    3.5819696928492567E-01 
    3.4494622586208395E-01 
    3.2995087458002709E-01 
    3.1331975266864809E-01 
    2.9531822574579658E-01 
    2.7649021639819099E-01 
    2.5786594721515249E-01 
    2.4131544466839425E-01 
    2.3015042369889913E-01 
    3.8420523911011428E-01 
    3.8230488789236733E-01 
    3.7847017803434152E-01 
    3.7263086237078630E-01 
    3.6467571268805016E-01 
    3.5444466936364694E-01 
    3.4171685359806570E-01 
    3.2619279831832915E-01 
    3.0746832594192147E-01 
    2.8499606357345680E-01 
    2.5802832010434024E-01 
    2.2553143337880424E-01 
    1.8605586741658642E-01 
    1.3753686655623393E-01 
    7.6984957630018155E-02 
    0.0000000000000000E+00 

SCALARS Saturarion double 1 
LOOKUP_TABLE default 

    1.0000000000000000E+00 
    9.2433991839554897E-01 
    8.7617964137961424E-01 
    8.3059141923467439E-01 
    7.8636359373962872E-01 
    7.4319207367325713E-01 
    7.0084792592886225E-01 
    6.5898756214430032E-01 
    6.1705101753626690E-01 
    5.7409055417069110E-01 
    5.2831350813358913E-01 
    4.7562702287078179E-01 
    4.0411062861583502E-01 
    2.7341534176415538E-01 
    6.0494208656197118E-02 
    4.3268866956912955E-04 
    8.5239216808461482E-01 
    8.2214332007921354E-01 
    7.8920367341281494E-01 
    7.5538907041587300E-01 
    7.2116686284537446E-01 
    6.8669144158929896E-01 
    6.5191367745190143E-01 
    6.1659076547735969E-01 
    5.8022290003668209E-01 
    5.4185282907425325E-01 
    4.9947719544644098E-01 
    4.4803990111365949E-01 
    3.7127584258377688E-01 
    2.1130153114421416E-01 
    2.1226632382644453E-02 
    2.3282532447348000E-05 
    7.5113243666398832E-01 
    7.3186196429164674E-01 
    7.0865068546149568E-01 
    6.8345575355944277E-01 
    6.5694256320129707E-01 
    6.2936210511018342E-01 
    6.0071942554525670E-01 
    5.7078990119203155E-01 
    5.3903128998369076E-01 
    5.0429590201202557E-01 
    4.6392034839380569E-01 
    4.1031101431234468E-01 
    3.1579710096386748E-01 
    1.0622965934978360E-01 
    1.9135400692846870E-03 
    4.5113161067008965E-08 
    6.7090828469153596E-01 
    6.5712942094775106E-01 
    6.3967435558924313E-01 
    6.2005340038885171E-01 
    5.9878992023587174E-01 
    5.7605743781774099E-01 
    5.5179626440424423E-01 
    5.2568797677158141E-01 
    4.9698966066166150E-01 
    4.6401317558402516E-01 
    4.2233792213096838E-01 
    3.5764428271392507E-01 
    2.1066040920047618E-01 
    1.7522304466591962E-02 
    9.9679716310095836E-06 
    7.3397869062896732E-14 
    6.0492635306525544E-01 
    5.9419460748304687E-01 
    5.8018389255360858E-01 
    5.6406184234756351E-01 
    5.4618581236017605E-01 
    5.2660093015379128E-01 
    5.0510282653911331E-01 
    4.8113455056933074E-01 
    4.5341482711550402E-01 
    4.1877043911900569E-01 
    3.6778745349873510E-01 
    2.6359773416387966E-01 
    5.3530687486412841E-02 
    1.7646004583738107E-04 
    4.9853849882188097E-11 
    1.3431903335026634E-27 
    5.4751045758912120E-01 
    5.3855442093558881E-01 
    5.2660824383533855E-01 
    5.1258398433917007E-01 
    4.9667160910452435E-01 
    4.7872788683816381E-01 
    4.5824573587540568E-01 
    4.3404726807206140E-01 
    4.0330510590632179E-01 
    3.5803336497117844E-01 
    2.6944560747783791E-01 
    8.1066957886806762E-02 
    7.6947893864068458E-04 
    1.3923319377423996E-09 
    1.6183964717806537E-24 
    2.6823274450448430E-63 
    4.9392240063858600E-01 
    4.8587594180592386E-01 
    4.7492764998873116E-01 
    4.6174135633754776E-01 
    4.4624741262791384E-01 
    4.2788537732001669E-01 
    4.0530157063569167E-01 
    3.7523937406649965E-01 
    3.2870692246432170E-01 
    2.3624115398871004E-01 
    7.1507133601618339E-02 
    1.2250376025508187E-03 
    6.9559735802642500E-09 
    5.2557482700329669E-23 
    3.7704582622585163E-60 
   1.0295024395211361E-158 
    4.3845769991075428E-01 
    4.3032375017289010E-01 
    4.1892286858462341E-01 
    4.0449630134284298E-01 
    3.8625699925659840E-01 
    3.6213605930336829E-01 
    3.2707525779416635E-01 
    2.6770346319773713E-01 
    1.5836053776959336E-01 
    3.6826942898962080E-02 
    6.8997325387400014E-04 
    1.0689873576171422E-08 
    2.9405129397532177E-22 
    1.4756384454942185E-58 
   2.0168385496546794E-155 
    0.0000000000000000E+00 
    3.6920830618811001E-01 
    3.5858820410972875E-01 
    3.4264358087502200E-01 
    3.2004454385463443E-01 
    2.8672325295855139E-01 
    2.3436797128809927E-01 
    1.5392439582335390E-01 
    6.2604972050573554E-02 
    8.8106501491724883E-03 
    1.0778887882181490E-04 
    2.3811345684686338E-09 
    4.5176546500967521E-22 
    1.0063807169609203E-57 
   1.1802748599293159E-153 
    0.0000000000000000E+00 
    0.0000000000000000E+00 
    2.4817136321528693E-01 
    2.2664539322796051E-01 
    1.9300831996254592E-01 
    1.4678989414570370E-01 
    9.1690460780750285E-02 
    4.0198604804137519E-02 
    9.0481942233683194E-03 
    5.6876887016766697E-04 
    2.5004335512704920E-06 
    2.1221671910593748E-11 
    1.0134508337385242E-23 
    1.5970138205430340E-57 
   1.0494679102548380E-152 
    0.0000000000000000E+00 
    0.0000000000000000E+00 
    0.0000000000000000E+00 
    5.6256381990345952E-02 
    3.9846707156881503E-02 
    2.2190837649266930E-02 
    8.7498287573654146E-03 
    1.9994048311401127E-03 
    1.8180815090129441E-04 
    3.1570546150754745E-06 
    2.1284017746208121E-09 
    1.4195464590167143E-15 
    6.1473536356043588E-29 
    9.9406357786050802E-62 
   1.5497975102291614E-152 
    0.0000000000000000E+00 
    0.0000000000000000E+00 
    0.0000000000000000E+00 
    0.0000000000000000E+00 
    5.2454430419201939E-04 
    1.9833759069350071E-04 
    3.9928110680236468E-05 
    3.3494817672608589E-06 
    7.0400021707696297E-08 
    1.3999329851171378E-10 
    3.7588760151932165E-15 
    2.0587535126190568E-23 
    1.2072269044488485E-39 
    4.4172688457095026E-75 
   3.1937761559818649E-163 
    0.0000000000000000E+00 
    0.0000000000000000E+00 
    0.0000000000000000E+00 
    0.0000000000000000E+00 
    0.0000000000000000E+00 
    2.9034004749565642E-09 
    2.4031479214334864E-10 
    3.9668045770124681E-12 
    6.8629993305367936E-15 
    3.3012838094054810E-19 
    3.5037231298368941E-26 
    4.6311035834547448E-38 
    1.1880039968767962E-59 
   1.6975562301560544E-102 
   2.1768913850999419E-197 
    0.0000000000000000E+00 
    0.0000000000000000E+00 
    0.0000000000000000E+00 
    0.0000000000000000E+00 
    0.0000000000000000E+00 
    0.0000000000000000E+00 
    2.0957790525652588E-22 
    3.6301606293843794E-25 
    9.9547521711891045E-30 
    8.0801845054634405E-37 
    6.2006500971324905E-48 
    5.1038036969155011E-66 
    5.6688121755946089E-97 
   6.5502032713991953E-154 
   8.2566222780463218E-268 
    0.0000000000000000E+00 
    0.0000000000000000E+00 
    0.0000000000000000E+00 
    0.0000000000000000E+00 
    0.0000000000000000E+00 
    0.0000000000000000E+00 
    0.0000000000000000E+00 
    3.6290253408542760E-55 
    3.1207429579977070E-62 
    6.0958424473732939E-74 
    3.3964013497799209E-92 
   5.4868847017046165E-121 
   4.7422721887911656E-168 
   2.9895407785556884E-249 
    0.0000000000000000E+00 
    0.0000000000000000E+00 
    0.0000000000000000E+00 
    0.0000000000000000E+00 
    0.0000000000000000E+00 
    0.0000000000000000E+00 
    0.0000000000000000E+00 
    0.0000000000000000E+00 
    0.0000000000000000E+00 
   5.5093795202144065E-137 
   3.9591060099708305E-155 
   2.9090132400007037E-185 
   1.9675559014597860E-232 
   4.0297078261678709E-307 
    0.0000000000000000E+00 
    0.0000000000000000E+00 
    0.0000000000000000E+00 
    0.0000000000000000E+00 
    0.0000000000000000E+00 
    0.0000000000000000E+00 
    0.0000000000000000E+00 
    0.0000000000000000E+00 
    0.0000000000000000E+00 
    0.0000000000000000E+00 
    0.0000000000000000E+00 
