# vtk DataFile Version 2.0
Pressure Field Data 
ASCII 
DATASET UNSTRUCTURED_GRID 

POINTS 289 double 

    0.0000000000000000E+00     0.0000000000000000E+00     0.0000000000000000E+00 
    1.0000000000000000E+00     0.0000000000000000E+00     0.0000000000000000E+00 
    1.0000000000000000E+00     1.0000000000000000E+00     0.0000000000000000E+00 
    0.0000000000000000E+00     1.0000000000000000E+00     0.0000000000000000E+00 
    6.2499999999872928E-02     0.0000000000000000E+00     0.0000000000000000E+00 
    1.2499999999977310E-01     0.0000000000000000E+00     0.0000000000000000E+00 
    1.8749999999959341E-01     0.0000000000000000E+00     0.0000000000000000E+00 
    2.4999999999941089E-01     0.0000000000000000E+00     0.0000000000000000E+00 
    3.1249999999922851E-01     0.0000000000000000E+00     0.0000000000000000E+00 
    3.7499999999904610E-01     0.0000000000000000E+00     0.0000000000000000E+00 
    4.3749999999886358E-01     0.0000000000000000E+00     0.0000000000000000E+00 
    4.9999999999869210E-01     0.0000000000000000E+00     0.0000000000000000E+00 
    5.6249999999884603E-01     0.0000000000000000E+00     0.0000000000000000E+00 
    6.2499999999901090E-01     0.0000000000000000E+00     0.0000000000000000E+00 
    6.8749999999917577E-01     0.0000000000000000E+00     0.0000000000000000E+00 
    7.4999999999934064E-01     0.0000000000000000E+00     0.0000000000000000E+00 
    8.1249999999950551E-01     0.0000000000000000E+00     0.0000000000000000E+00 
    8.7499999999967026E-01     0.0000000000000000E+00     0.0000000000000000E+00 
    9.3749999999983513E-01     0.0000000000000000E+00     0.0000000000000000E+00 
    1.0000000000000000E+00     6.2499999999872928E-02     0.0000000000000000E+00 
    1.0000000000000000E+00     1.2499999999977310E-01     0.0000000000000000E+00 
    1.0000000000000000E+00     1.8749999999959341E-01     0.0000000000000000E+00 
    1.0000000000000000E+00     2.4999999999941089E-01     0.0000000000000000E+00 
    1.0000000000000000E+00     3.1249999999922851E-01     0.0000000000000000E+00 
    1.0000000000000000E+00     3.7499999999904610E-01     0.0000000000000000E+00 
    1.0000000000000000E+00     4.3749999999886358E-01     0.0000000000000000E+00 
    1.0000000000000000E+00     4.9999999999869210E-01     0.0000000000000000E+00 
    1.0000000000000000E+00     5.6249999999884603E-01     0.0000000000000000E+00 
    1.0000000000000000E+00     6.2499999999901090E-01     0.0000000000000000E+00 
    1.0000000000000000E+00     6.8749999999917577E-01     0.0000000000000000E+00 
    1.0000000000000000E+00     7.4999999999934064E-01     0.0000000000000000E+00 
    1.0000000000000000E+00     8.1249999999950551E-01     0.0000000000000000E+00 
    1.0000000000000000E+00     8.7499999999967026E-01     0.0000000000000000E+00 
    1.0000000000000000E+00     9.3749999999983513E-01     0.0000000000000000E+00 
    9.3749999999973976E-01     1.0000000000000000E+00     0.0000000000000000E+00 
    8.7499999999950118E-01     1.0000000000000000E+00     0.0000000000000000E+00 
    8.1249999999991318E-01     1.0000000000000000E+00     0.0000000000000000E+00 
    7.5000000000034706E-01     1.0000000000000000E+00     0.0000000000000000E+00 
    6.8750000000078049E-01     1.0000000000000000E+00     0.0000000000000000E+00 
    6.2500000000121403E-01     1.0000000000000000E+00     0.0000000000000000E+00 
    5.6250000000164757E-01     1.0000000000000000E+00     0.0000000000000000E+00 
    5.0000000000205946E-01     1.0000000000000000E+00     0.0000000000000000E+00 
    4.3750000000182099E-01     1.0000000000000000E+00     0.0000000000000000E+00 
    3.7500000000156092E-01     1.0000000000000000E+00     0.0000000000000000E+00 
    3.1250000000130068E-01     1.0000000000000000E+00     0.0000000000000000E+00 
    2.5000000000104050E-01     1.0000000000000000E+00     0.0000000000000000E+00 
    1.8750000000078040E-01     1.0000000000000000E+00     0.0000000000000000E+00 
    1.2500000000052031E-01     1.0000000000000000E+00     0.0000000000000000E+00 
    6.2500000000260125E-02     1.0000000000000000E+00     0.0000000000000000E+00 
    0.0000000000000000E+00     9.3749999999973976E-01     0.0000000000000000E+00 
    0.0000000000000000E+00     8.7499999999950118E-01     0.0000000000000000E+00 
    0.0000000000000000E+00     8.1249999999991318E-01     0.0000000000000000E+00 
    0.0000000000000000E+00     7.5000000000034706E-01     0.0000000000000000E+00 
    0.0000000000000000E+00     6.8750000000078049E-01     0.0000000000000000E+00 
    0.0000000000000000E+00     6.2500000000121403E-01     0.0000000000000000E+00 
    0.0000000000000000E+00     5.6250000000164757E-01     0.0000000000000000E+00 
    0.0000000000000000E+00     5.0000000000205946E-01     0.0000000000000000E+00 
    0.0000000000000000E+00     4.3750000000182099E-01     0.0000000000000000E+00 
    0.0000000000000000E+00     3.7500000000156092E-01     0.0000000000000000E+00 
    0.0000000000000000E+00     3.1250000000130068E-01     0.0000000000000000E+00 
    0.0000000000000000E+00     2.5000000000104050E-01     0.0000000000000000E+00 
    0.0000000000000000E+00     1.8750000000078040E-01     0.0000000000000000E+00 
    0.0000000000000000E+00     1.2500000000052031E-01     0.0000000000000000E+00 
    0.0000000000000000E+00     6.2500000000260125E-02     0.0000000000000000E+00 
    6.2499999999897131E-02     6.2500000000235922E-02     0.0000000000000000E+00 
    6.2499999999921327E-02     1.2500000000047351E-01     0.0000000000000000E+00 
    6.2499999999945530E-02     1.8750000000070621E-01     0.0000000000000000E+00 
    6.2499999999969733E-02     2.5000000000093858E-01     0.0000000000000000E+00 
    6.2499999999993928E-02     3.1250000000117117E-01     0.0000000000000000E+00 
    6.2500000000018124E-02     3.7500000000140382E-01     0.0000000000000000E+00 
    6.2500000000042327E-02     4.3750000000163619E-01     0.0000000000000000E+00 
    6.2500000000066530E-02     5.0000000000184897E-01     0.0000000000000000E+00 
    6.2500000000090733E-02     5.6250000000147260E-01     0.0000000000000000E+00 
    6.2500000000114922E-02     6.2500000000107636E-01     0.0000000000000000E+00 
    6.2500000000139125E-02     6.8750000000068034E-01     0.0000000000000000E+00 
    6.2500000000163328E-02     7.5000000000028411E-01     0.0000000000000000E+00 
    6.2500000000187531E-02     8.1249999999988787E-01     0.0000000000000000E+00 
    6.2500000000211720E-02     8.7499999999951172E-01     0.0000000000000000E+00 
    6.2500000000235922E-02     9.3749999999974565E-01     0.0000000000000000E+00 
    1.2499999999981980E-01     6.2500000000211733E-02     0.0000000000000000E+00 
    1.2499999999986650E-01     1.2500000000042691E-01     0.0000000000000000E+00 
    1.2499999999991319E-01     1.8750000000063199E-01     0.0000000000000000E+00 
    1.2499999999995989E-01     2.5000000000083678E-01     0.0000000000000000E+00 
    1.2500000000000661E-01     3.1250000000104172E-01     0.0000000000000000E+00 
    1.2500000000005329E-01     3.7500000000124661E-01     0.0000000000000000E+00 
    1.2500000000010000E-01     4.3750000000145117E-01     0.0000000000000000E+00 
    1.2500000000014669E-01     5.0000000000163858E-01     0.0000000000000000E+00 
    1.2500000000019340E-01     5.6250000000129741E-01     0.0000000000000000E+00 
    1.2500000000024011E-01     6.2500000000093847E-01     0.0000000000000000E+00 
    1.2500000000028680E-01     6.8750000000057998E-01     0.0000000000000000E+00 
    1.2500000000033351E-01     7.5000000000022127E-01     0.0000000000000000E+00 
    1.2500000000038020E-01     8.1249999999986211E-01     0.0000000000000000E+00 
    1.2500000000042691E-01     8.7499999999952238E-01     0.0000000000000000E+00 
    1.2500000000047359E-01     9.3749999999975164E-01     0.0000000000000000E+00 
    1.8749999999966760E-01     6.2500000000187531E-02     0.0000000000000000E+00 
    1.8749999999974179E-01     1.2500000000038020E-01     0.0000000000000000E+00 
    1.8749999999981601E-01     1.8750000000055780E-01     0.0000000000000000E+00 
    1.8749999999989009E-01     2.5000000000073502E-01     0.0000000000000000E+00 
    1.8749999999996431E-01     3.1250000000091221E-01     0.0000000000000000E+00 
    1.8750000000003850E-01     3.7500000000108941E-01     0.0000000000000000E+00 
    1.8750000000011269E-01     4.3750000000126649E-01     0.0000000000000000E+00 
    1.8750000000018691E-01     5.0000000000142808E-01     0.0000000000000000E+00 
    1.8750000000026110E-01     5.6250000000112244E-01     0.0000000000000000E+00 
    1.8750000000033529E-01     6.2500000000080080E-01     0.0000000000000000E+00 
    1.8750000000040951E-01     6.8750000000047962E-01     0.0000000000000000E+00 
    1.8750000000048361E-01     7.5000000000015843E-01     0.0000000000000000E+00 
    1.8750000000055780E-01     8.1249999999983680E-01     0.0000000000000000E+00 
    1.8750000000063199E-01     8.7499999999953304E-01     0.0000000000000000E+00 
    1.8750000000070621E-01     9.3749999999975764E-01     0.0000000000000000E+00 
    2.4999999999951281E-01     6.2500000000163314E-02     0.0000000000000000E+00 
    2.4999999999961461E-01     1.2500000000033351E-01     0.0000000000000000E+00 
    2.4999999999971650E-01     1.8750000000048361E-01     0.0000000000000000E+00 
    2.4999999999981831E-01     2.5000000000063310E-01     0.0000000000000000E+00 
    2.4999999999992020E-01     3.1250000000078260E-01     0.0000000000000000E+00 
    2.5000000000002198E-01     3.7500000000093209E-01     0.0000000000000000E+00 
    2.5000000000012390E-01     4.3750000000108180E-01     0.0000000000000000E+00 
    2.5000000000022571E-01     5.0000000000121769E-01     0.0000000000000000E+00 
    2.5000000000032763E-01     5.6250000000094724E-01     0.0000000000000000E+00 
    2.5000000000042938E-01     6.2500000000066314E-01     0.0000000000000000E+00 
    2.5000000000053119E-01     6.8750000000037925E-01     0.0000000000000000E+00 
[...]
CELL_DATA 256 
SCALARS Pressure double 1 
LOOKUP_TABLE default 

    1.1225149635797007E+00 
    1.1055189603599760E+00 
    1.0910613483722651E+00 
    1.0787538593685579E+00 
    1.0681231695283466E+00 
    1.0588378743158375E+00 
    1.0506705439048594E+00 
    1.0434660390773809E+00 
    1.0371189995404724E+00 
    1.0315577478416951E+00 
    1.0267313382041148E+00 
    1.0225950242006190E+00 
    1.0190837894411102E+00 
    1.0160705511432171E+00 
    1.0137044333715211E+00 
    1.0125180187290408E+00 
    1.0632122064495346E+00 
    1.0602356513601319E+00 
    1.0555777405578977E+00 
    1.0501094210078652E+00 
    1.0443246108349060E+00 
    1.0385257776722927E+00 
    1.0329022419908847E+00 
    1.0275753166057604E+00 
    1.0226247087373179E+00 
    1.0181033656578371E+00 
    1.0140437148171539E+00 
    1.0104534626936039E+00 
    1.0072899879257677E+00 
    1.0044349645533537E+00 
    1.0022073239469707E+00 
    1.0011184906345034E+00 
    1.0202397087903508E+00 
    1.0191829033936204E+00 
    1.0172159194547288E+00 
    1.0145543353965323E+00 
    1.0114067406667515E+00 
    1.0079564734844189E+00 
    1.0043575431629066E+00 
    1.0007361370714547E+00 
    9.9719369633413990E-01 
    9.9380907448768530E-01 
    9.9063679492477874E-01 
    9.8769412901519782E-01 
    9.8491978641875755E-01 
    9.8227777226811963E-01 
    9.8031601964073545E-01 
    9.7939218267355266E-01 
    9.7903846311881682E-01 
    9.7846835682094813E-01 
    9.7736387846092110E-01 
    9.7579574696700666E-01 
    9.7384892115154820E-01 
    9.7161295922404389E-01 
    9.6917557627527795E-01 
    9.6661832860250674E-01 
    9.6401320228663834E-01 
    9.6141810798629068E-01 
    9.5886664262534671E-01 
    9.5633939059896400E-01 
    9.5372874208734348E-01 
    9.5126581863808235E-01 
    9.4962046142100232E-01 
    9.4886621117909209E-01 
    9.3605634769955215E-01 
    9.3566761609599880E-01 
    9.3490591512184240E-01 
    9.3380440381115748E-01 
    9.3240535951296899E-01 
    9.3075638864814314E-01 
    9.2890692673359676E-01 
    9.2690456545577460E-01 
    9.2479014243106517E-01 
    9.2258856416508950E-01 
    9.2028650925770861E-01 
    9.1778550080125731E-01 
    9.1511810443231512E-01 
    9.1291672445547956E-01 
    9.1157450547736596E-01 
    9.1094493284795042E-01 
    8.9009847050812041E-01 
    8.8978393743083084E-01 
    8.8916365303985667E-01 
    8.8825650749361929E-01 
    8.8708655436733030E-01 
    8.8568062637224476E-01 
    8.8406544352132121E-01 
    8.8226312239558213E-01 
    8.8028254873317147E-01 
    8.7809936242762010E-01 
    8.7561565731237767E-01 
    8.7280902173842767E-01 
    8.7020505437460172E-01 
    8.6838808369582343E-01 
    8.6728359224553941E-01 
    8.6673732469806664E-01 
    8.4065881403284903E-01 
    8.4036334047032779E-01 
    8.3977657215525447E-01 
    8.3890872766078306E-01 
    8.3777220866840274E-01 
    8.3637863952298142E-01 
    8.3473411846012657E-01 
    8.3282978106748229E-01 
    8.3062104112933133E-01 
    8.2800375945171945E-01 
    8.2499528145270185E-01 
    8.2210622030749481E-01 
    8.1993695503748010E-01 
    8.1847808294370406E-01 
    8.1753730959119886E-01 
    8.1706706253608641E-01 
    7.8742672993072182E-01 
    7.8710583762061648E-01 
    7.8646259144142561E-01 
    7.8549751746044250E-01 
    7.8420886668553080E-01 
    7.8258619754624381E-01 
    7.8059782704188752E-01 
    7.7817159112717482E-01 
    7.7524881091172138E-01 
    7.7199762178217735E-01 
    7.6897843935596566E-01 
    7.6667520223824692E-01 
    7.6504171132865317E-01 
    7.6386934703291520E-01 
    7.6308635458783358E-01 
    7.6269432982442442E-01 
    7.2997470110642804E-01 
    7.2956348449938535E-01 
    7.2872930086796917E-01 
    7.2745376007234819E-01 
    7.2570311405293397E-01 
    7.2342751882503664E-01 
    7.2061565122092752E-01 
    7.1740678040447170E-01 
    7.1415272585342715E-01 
    7.1133423604708379E-01 
    7.0919033711829194E-01 
    7.0758375420559827E-01 
    7.0632667935428972E-01 
    7.0537024552916161E-01 
    7.0472572276865009E-01 
    7.0440134948075139E-01 
    6.6729310381652451E-01 
    6.6664012429725983E-01 
    6.6533598702920749E-01 
    6.6341323097293270E-01 
    6.6096462352291674E-01 
    6.5816320686461027E-01 
    6.5526538898448794E-01 
    6.5257949195943332E-01 
    6.5033143575650976E-01 
    6.4853226145822385E-01 
    6.4702610672783034E-01 
    6.4571427115910174E-01 
    6.4461131952480444E-01 
    6.4375203338380849E-01 
    6.4316359622365271E-01 
    6.4286463626030388E-01 
    5.9942464346563806E-01 
    5.9876796590905512E-01 
    5.9754161388021632E-01 
    5.9588640954394989E-01 
    5.9397538302973540E-01 
    5.9199547421797072E-01 
    5.9009502717049422E-01 
    5.8831543407775344E-01 
    5.8659822668207728E-01 
    5.8490132527108252E-01 
    5.8326340161225776E-01 
    5.8175913208913310E-01 
    5.8045930477032581E-01 
    5.7942533143007158E-01 
    5.7870669771063654E-01 
    5.7833832340801228E-01 
    5.3652010731873712E-01 
    5.3605903314991299E-01 
    5.3518023688049465E-01 
    5.3394010179657980E-01 
    5.3237939725926953E-01 
    5.3051428449327998E-01 
    5.2835722932404661E-01 
    5.2595075109745026E-01 
    5.2337757788824502E-01 
    5.2074377794563120E-01 
    5.1816450900140476E-01 
    5.1575957097741154E-01 
    5.1364875023032464E-01 
    5.1194523326814390E-01 
    5.1074720502955506E-01 
    5.1012826753081142E-01 
    4.8329436513002955E-01 
    4.8262125378856396E-01 
    4.8127297447275691E-01 
    4.7925636035098362E-01 
    4.7659612800769341E-01 
    4.7333732206802387E-01 
    4.6954712112373248E-01 
    4.6531698253820053E-01 
    4.6076550962824120E-01 
    4.5604092463140411E-01 
    4.5132230718820732E-01 
    4.4681883709661840E-01 
    4.4276515784126980E-01 
    4.3941024787031346E-01 
    4.3699680495009380E-01 
    4.3572883666721729E-01 
    4.3774928300970850E-01 
    4.3665246591206464E-01 
    4.3446254244632676E-01 
    4.3118913443152473E-01 
    4.2685139888495632E-01 
    4.2148270477336913E-01 
    4.1513686783702458E-01 
    4.0789656126981289E-01 
    3.9988456223771524E-01 
    3.9127839578074058E-01 
    3.8232863185891258E-01 
    3.7338019485342394E-01 
    3.6489387260831768E-01 
    3.5746059196516072E-01 
    3.5179165849733951E-01 
    3.4864972297565233E-01 
    4.0317377505066432E-01 
    4.0161559176045974E-01 
    3.9848720698233148E-01 
    3.9376522145051052E-01 
    3.8741625748266251E-01 
    3.7939951574863029E-01 
    3.6967131085892230E-01 
    3.5819306465006301E-01 
    3.4494528909567013E-01 
    3.2995184157840013E-01 
    3.1332168736599908E-01 
    2.9532040500615714E-01 
    2.7649217135562459E-01 
    2.5786746430637536E-01 
    2.4131653258308783E-01 
    2.3015125406729814E-01 
    3.8418009999393443E-01 
    3.8228073248827865E-01 
    3.7844787905542276E-01 
    3.7261109282990024E-01 
    3.6465889374234001E-01 
    3.5443095828077265E-01 
    3.4170616707244678E-01 
    3.2618486148550274E-01 
    3.0746273558209114E-01 
    2.8499235432728087E-01 
    2.5802602434736394E-01 
    2.2553012806559466E-01 
    1.8605520408978662E-01 
    1.3753658338742059E-01 
    7.6984874593187702E-02 
    0.0000000000000000E+00 

SCALARS Saturarion double 1 
LOOKUP_TABLE default 

    1.0000000000000000E+00 
    9.3172350679770644E-01 
    8.8731211527011655E-01 
    8.4462970973542084E-01 
    8.0269418309766694E-01 
    7.6133287274065986E-01 
    7.2043142663921200E-01 
    6.7976207561786472E-01 
    6.3890137090169963E-01 
    5.9710762491881286E-01 
    5.5300860813424602E-01 
    5.0364940813516157E-01 
    4.4107617769444096E-01 
    3.3940512059893185E-01 
    1.3751296202443417E-01 
    4.7754960906857746E-03 
    8.6366467319212015E-01 
    8.3550019914514662E-01 
    8.0455064654900288E-01 
    7.7245027832413282E-01 
    7.3967732608719983E-01 
    7.0642657573700285E-01 
    6.7270557727945235E-01 
    6.3834831078742460E-01 
    6.0297373846243552E-01 
    5.6585062602339409E-01 
    5.2551537574606100E-01 
    4.7855553252615518E-01 
    4.1510143466106003E-01 
    3.0058211673619373E-01 
    8.1738048620379838E-02 
    9.2499389991685375E-04 
    7.6771067203407273E-01 
    7.4943679513546690E-01 
    7.2732393048273436E-01 
    7.0316512126113817E-01 
    6.7759934750497974E-01 
    6.5089186789635201E-01 
    6.2308827152983515E-01 
    5.9403928394124117E-01 
    5.6334881975044637E-01 
    5.3019550723235853E-01 
    4.9280175027307455E-01 
    4.4663916703177076E-01 
    3.7759516114908775E-01 
    2.3085092625922821E-01 
    2.5778099273202862E-02 
    3.4288904091397946E-05 
    6.9118895459279284E-01 
    6.7797834257510303E-01 
    6.6120916520606410E-01 
    6.4229368539560006E-01 
    6.2174006927933978E-01 
    5.9974257248345197E-01 
    5.7629646762791986E-01 
    5.5119626211594630E-01 
    5.2394374663357224E-01 
    4.9346712704049767E-01 
    4.5725121000316721E-01 
    4.0833753357974084E-01 
    3.2225783132421082E-01 
    1.1749599306046732E-01 
    2.2419593754005283E-03 
    6.0937268450959909E-08 
    6.2847137689968791E-01 
    6.1814720882382346E-01 
    6.0466683352563555E-01 
    5.8914838488590882E-01 
    5.7195826402883088E-01 
    5.5319072650352763E-01 
    5.3274781989865472E-01 
    5.1029990683457349E-01 
    4.8511164588192202E-01 
    4.5553641743409024E-01 
    4.1740779916260484E-01 
    3.5787779814422677E-01 
    2.2274325560316882E-01 
    2.0632662753923038E-02 
    1.4059323334040874E-05 
    1.9165898691202161E-13 
    5.7464000727391218E-01 
    5.6609132439600252E-01 
    5.5471164398232442E-01 
    5.4140548834819868E-01 
    5.2641674537353866E-01 
    5.0972704472461317E-01 
    4.9109376292458984E-01 
    4.6994081656962838E-01 
    4.4500798063255881E-01 
    4.1329598678140378E-01 
    3.6632557977953056E-01 
    2.7178441307071427E-01 
    6.4608363845423095E-02 
    2.8524491337667034E-04 
    1.8074487646697578E-10 
    6.6593685546382088E-26 
    5.2587730737360638E-01 
    5.1841848597505347E-01 
    5.0833816149965172E-01 
    4.9636218454775610E-01 
    4.8259932969569519E-01 
    4.6686200775548520E-01 
    4.4862623641340171E-01 
    4.2674616684839517E-01 
    3.9859639675573633E-01 
    3.5705470524917032E-01 
    2.7728448975286185E-01 
    9.7733348823002802E-02 
    1.3932862913435336E-03 
    6.8556826898691295E-09 
    1.6719945441181866E-22 
    3.1940834267738323E-57 
    4.7854424008364016E-01 
    4.7159753461547033E-01 
    4.6206218499333385E-01 
    4.5046637837079989E-01 
    4.3669195805343231E-01 
    4.2017730965960748E-01 
    3.9964948877030998E-01 
    3.7215931197125635E-01 
    3.2982604935562748E-01 
    2.4722126553973456E-01 
    8.8155415086010103E-02 
    2.3829360330218691E-03 
    4.1926642206656035E-08 
    8.5936239496847688E-21 
    1.2809770850408537E-53 
   5.7309520706966574E-139 
    4.2737450241349756E-01 
    4.2011723431206588E-01 
    4.0989800411794641E-01 
    3.9687948163129316E-01 
    3.8030881787146070E-01 
    3.5829713574064109E-01 
    3.2635925490112300E-01 
    2.7284285568628580E-01 
    1.7271880311313909E-01 
    4.7882052246085806E-02 
    1.4108459650580578E-03 
    7.4424184402001371E-08 
    6.2856684968932866E-20 
    9.1064957886485629E-52 
   4.4109617133660213E-135 
    0.0000000000000000E+00 
    3.6003229009396864E-01 
    3.5022132731107741E-01 
    3.3551116343255777E-01 
    3.1466227273151764E-01 
    2.8401166395219923E-01 
    2.3606972054306416E-01 
    1.6150527315314128E-01 
    7.1872634031760710E-02 
    1.2401607764714629E-02 
    2.4157246690906958E-04 
    1.8240463473297485E-08 
    1.2207606935290603E-19 
    8.6840930967923882E-51 
   5.8073123539828026E-133 
    0.0000000000000000E+00 
    0.0000000000000000E+00 
    2.3576079770667882E-01 
    2.1557361967881652E-01 
    1.8448742099928064E-01 
    1.4215226191230373E-01 
    9.1446876696775398E-02 
    4.2617636329590369E-02 
    1.0854053305689754E-02 
    8.7334801619879526E-04 
    6.5168864383699734E-06 
    2.0140022728387133E-10 
    3.3677272264546343E-21 
    1.9853234176051717E-50 
   8.1170389359617792E-132 
    0.0000000000000000E+00 
    0.0000000000000000E+00 
    0.0000000000000000E+00 
    4.6976899725858098E-02 
    3.3567905316013232E-02 
    1.9146816880481303E-02 
    7.9336719659446435E-03 
    1.9915377195913265E-03 
    2.1546956022098463E-04 
    5.1950836711611143E-06 
    6.8398319519834589E-09 
    1.9994682250271879E-14 
    3.4216831591321253E-26 
    1.9548982872852691E-54 
   2.0796054188446107E-131 
    0.0000000000000000E+00 
    0.0000000000000000E+00 
    0.0000000000000000E+00 
    0.0000000000000000E+00 
    3.1306833832249383E-04 
    1.2283297446482062E-04 
    2.6756281774641850E-05 
    2.5908752755887203E-06 
    7.0390630991689425E-08 
    2.2343376003937090E-10 
    1.4744002557685953E-14 
    5.0738148962787613E-22 
    1.9622050116311777E-36 
    3.2857282678956525E-67 
   1.0929759190375615E-141 
    0.0000000000000000E+00 
    0.0000000000000000E+00 
    0.0000000000000000E+00 
    0.0000000000000000E+00 
    0.0000000000000000E+00 
    7.9062665912703959E-10 
    7.2704761831789153E-11 
    1.4874590434815735E-12 
    3.7856792822583239E-15 
    3.6280598348881540E-19 
    1.3613424556089187E-25 
    2.0965189561435490E-36 
    9.2714877435423461E-56 
    2.0622190556712811E-93 
   1.8710963922027535E-174 
    0.0000000000000000E+00 
    0.0000000000000000E+00 
    0.0000000000000000E+00 
    0.0000000000000000E+00 
    0.0000000000000000E+00 
    0.0000000000000000E+00 
    9.0557878422916504E-24 
    2.0886474674235958E-26 
    1.0138524466013800E-30 
    2.2915425239535781E-37 
    1.1015044216330197E-47 
    2.7991461947674363E-64 
    2.7203774465400609E-92 
   7.7082536442702362E-143 
   1.9055115566639336E-241 
    0.0000000000000000E+00 
    0.0000000000000000E+00 
    0.0000000000000000E+00 
    0.0000000000000000E+00 
    0.0000000000000000E+00 
    0.0000000000000000E+00 
    0.0000000000000000E+00 
    2.0277629270722009E-58 
    3.7487427071798005E-65 
    3.3251879303954796E-76 
    2.8216805153063773E-93 
   6.5859128848213414E-120 
   7.0814092082357290E-163 
   1.0256084459817563E-235 
    0.0000000000000000E+00 
    0.0000000000000000E+00 
    0.0000000000000000E+00 
    0.0000000000000000E+00 
    0.0000000000000000E+00 
    0.0000000000000000E+00 
    0.0000000000000000E+00 
    0.0000000000000000E+00 
    0.0000000000000000E+00 
