# vtk DataFile Version 2.0
Pressure Field Data 
ASCII 
DATASET UNSTRUCTURED_GRID 

POINTS 289 double 

    0.0000000000000000E+00     0.0000000000000000E+00     0.0000000000000000E+00 
    1.0000000000000000E+00     0.0000000000000000E+00     0.0000000000000000E+00 
    1.0000000000000000E+00     1.0000000000000000E+00     0.0000000000000000E+00 
    0.0000000000000000E+00     1.0000000000000000E+00     0.0000000000000000E+00 
    6.2499999999872928E-02     0.0000000000000000E+00     0.0000000000000000E+00 
    1.2499999999977310E-01     0.0000000000000000E+00     0.0000000000000000E+00 
    1.8749999999959341E-01     0.0000000000000000E+00     0.0000000000000000E+00 
    2.4999999999941089E-01     0.0000000000000000E+00     0.0000000000000000E+00 
    3.1249999999922851E-01     0.0000000000000000E+00     0.0000000000000000E+00 
    3.7499999999904610E-01     0.0000000000000000E+00     0.0000000000000000E+00 
    4.3749999999886358E-01     0.0000000000000000E+00     0.0000000000000000E+00 
    4.9999999999869210E-01     0.0000000000000000E+00     0.0000000000000000E+00 
    5.6249999999884603E-01     0.0000000000000000E+00     0.0000000000000000E+00 
    6.2499999999901090E-01     0.0000000000000000E+00     0.0000000000000000E+00 
    6.8749999999917577E-01     0.0000000000000000E+00     0.0000000000000000E+00 
    7.4999999999934064E-01     0.0000000000000000E+00     0.0000000000000000E+00 
    8.1249999999950551E-01     0.0000000000000000E+00     0.0000000000000000E+00 
    8.7499999999967026E-01     0.0000000000000000E+00     0.0000000000000000E+00 
    9.3749999999983513E-01     0.0000000000000000E+00     0.0000000000000000E+00 
    1.0000000000000000E+00     6.2499999999872928E-02     0.0000000000000000E+00 
    1.0000000000000000E+00     1.2499999999977310E-01     0.0000000000000000E+00 
    1.0000000000000000E+00     1.8749999999959341E-01     0.0000000000000000E+00 
    1.0000000000000000E+00     2.4999999999941089E-01     0.0000000000000000E+00 
    1.0000000000000000E+00     3.1249999999922851E-01     0.0000000000000000E+00 
    1.0000000000000000E+00     3.7499999999904610E-01     0.0000000000000000E+00 
    1.0000000000000000E+00     4.3749999999886358E-01     0.0000000000000000E+00 
    1.0000000000000000E+00     4.9999999999869210E-01     0.0000000000000000E+00 
    1.0000000000000000E+00     5.6249999999884603E-01     0.0000000000000000E+00 
    1.0000000000000000E+00     6.2499999999901090E-01     0.0000000000000000E+00 
    1.0000000000000000E+00     6.8749999999917577E-01     0.0000000000000000E+00 
    1.0000000000000000E+00     7.4999999999934064E-01     0.0000000000000000E+00 
    1.0000000000000000E+00     8.1249999999950551E-01     0.0000000000000000E+00 
    1.0000000000000000E+00     8.7499999999967026E-01     0.0000000000000000E+00 
    1.0000000000000000E+00     9.3749999999983513E-01     0.0000000000000000E+00 
    9.3749999999973976E-01     1.0000000000000000E+00     0.0000000000000000E+00 
    8.7499999999950118E-01     1.0000000000000000E+00     0.0000000000000000E+00 
    8.1249999999991318E-01     1.0000000000000000E+00     0.0000000000000000E+00 
    7.5000000000034706E-01     1.0000000000000000E+00     0.0000000000000000E+00 
    6.8750000000078049E-01     1.0000000000000000E+00     0.0000000000000000E+00 
    6.2500000000121403E-01     1.0000000000000000E+00     0.0000000000000000E+00 
    5.6250000000164757E-01     1.0000000000000000E+00     0.0000000000000000E+00 
    5.0000000000205946E-01     1.0000000000000000E+00     0.0000000000000000E+00 
    4.3750000000182099E-01     1.0000000000000000E+00     0.0000000000000000E+00 
    3.7500000000156092E-01     1.0000000000000000E+00     0.0000000000000000E+00 
    3.1250000000130068E-01     1.0000000000000000E+00     0.0000000000000000E+00 
    2.5000000000104050E-01     1.0000000000000000E+00     0.0000000000000000E+00 
    1.8750000000078040E-01     1.0000000000000000E+00     0.0000000000000000E+00 
    1.2500000000052031E-01     1.0000000000000000E+00     0.0000000000000000E+00 
    6.2500000000260125E-02     1.0000000000000000E+00     0.0000000000000000E+00 
    0.0000000000000000E+00     9.3749999999973976E-01     0.0000000000000000E+00 
    0.0000000000000000E+00     8.7499999999950118E-01     0.0000000000000000E+00 
    0.0000000000000000E+00     8.1249999999991318E-01     0.0000000000000000E+00 
    0.0000000000000000E+00     7.5000000000034706E-01     0.0000000000000000E+00 
    0.0000000000000000E+00     6.8750000000078049E-01     0.0000000000000000E+00 
    0.0000000000000000E+00     6.2500000000121403E-01     0.0000000000000000E+00 
    0.0000000000000000E+00     5.6250000000164757E-01     0.0000000000000000E+00 
    0.0000000000000000E+00     5.0000000000205946E-01     0.0000000000000000E+00 
    0.0000000000000000E+00     4.3750000000182099E-01     0.0000000000000000E+00 
    0.0000000000000000E+00     3.7500000000156092E-01     0.0000000000000000E+00 
    0.0000000000000000E+00     3.1250000000130068E-01     0.0000000000000000E+00 
    0.0000000000000000E+00     2.5000000000104050E-01     0.0000000000000000E+00 
    0.0000000000000000E+00     1.8750000000078040E-01     0.0000000000000000E+00 
    0.0000000000000000E+00     1.2500000000052031E-01     0.0000000000000000E+00 
    0.0000000000000000E+00     6.2500000000260125E-02     0.0000000000000000E+00 
    6.2499999999897131E-02     6.2500000000235922E-02     0.0000000000000000E+00 
    6.2499999999921327E-02     1.2500000000047351E-01     0.0000000000000000E+00 
    6.2499999999945530E-02     1.8750000000070621E-01     0.0000000000000000E+00 
    6.2499999999969733E-02     2.5000000000093858E-01     0.0000000000000000E+00 
    6.2499999999993928E-02     3.1250000000117117E-01     0.0000000000000000E+00 
    6.2500000000018124E-02     3.7500000000140382E-01     0.0000000000000000E+00 
    6.2500000000042327E-02     4.3750000000163619E-01     0.0000000000000000E+00 
    6.2500000000066530E-02     5.0000000000184897E-01     0.0000000000000000E+00 
    6.2500000000090733E-02     5.6250000000147260E-01     0.0000000000000000E+00 
    6.2500000000114922E-02     6.2500000000107636E-01     0.0000000000000000E+00 
    6.2500000000139125E-02     6.8750000000068034E-01     0.0000000000000000E+00 
    6.2500000000163328E-02     7.5000000000028411E-01     0.0000000000000000E+00 
    6.2500000000187531E-02     8.1249999999988787E-01     0.0000000000000000E+00 
    6.2500000000211720E-02     8.7499999999951172E-01     0.0000000000000000E+00 
    6.2500000000235922E-02     9.3749999999974565E-01     0.0000000000000000E+00 
    1.2499999999981980E-01     6.2500000000211733E-02     0.0000000000000000E+00 
    1.2499999999986650E-01     1.2500000000042691E-01     0.0000000000000000E+00 
    1.2499999999991319E-01     1.8750000000063199E-01     0.0000000000000000E+00 
    1.2499999999995989E-01     2.5000000000083678E-01     0.0000000000000000E+00 
    1.2500000000000661E-01     3.1250000000104172E-01     0.0000000000000000E+00 
    1.2500000000005329E-01     3.7500000000124661E-01     0.0000000000000000E+00 
    1.2500000000010000E-01     4.3750000000145117E-01     0.0000000000000000E+00 
    1.2500000000014669E-01     5.0000000000163858E-01     0.0000000000000000E+00 
    1.2500000000019340E-01     5.6250000000129741E-01     0.0000000000000000E+00 
    1.2500000000024011E-01     6.2500000000093847E-01     0.0000000000000000E+00 
    1.2500000000028680E-01     6.8750000000057998E-01     0.0000000000000000E+00 
    1.2500000000033351E-01     7.5000000000022127E-01     0.0000000000000000E+00 
    1.2500000000038020E-01     8.1249999999986211E-01     0.0000000000000000E+00 
    1.2500000000042691E-01     8.7499999999952238E-01     0.0000000000000000E+00 
    1.2500000000047359E-01     9.3749999999975164E-01     0.0000000000000000E+00 
    1.8749999999966760E-01     6.2500000000187531E-02     0.0000000000000000E+00 
    1.8749999999974179E-01     1.2500000000038020E-01     0.0000000000000000E+00 
    1.8749999999981601E-01     1.8750000000055780E-01     0.0000000000000000E+00 
    1.8749999999989009E-01     2.5000000000073502E-01     0.0000000000000000E+00 
    1.8749999999996431E-01     3.1250000000091221E-01     0.0000000000000000E+00 
    1.8750000000003850E-01     3.7500000000108941E-01     0.0000000000000000E+00 
    1.8750000000011269E-01     4.3750000000126649E-01     0.0000000000000000E+00 
    1.8750000000018691E-01     5.0000000000142808E-01     0.0000000000000000E+00 
    1.8750000000026110E-01     5.6250000000112244E-01     0.0000000000000000E+00 
    1.8750000000033529E-01     6.2500000000080080E-01     0.0000000000000000E+00 
    1.8750000000040951E-01     6.8750000000047962E-01     0.0000000000000000E+00 
    1.8750000000048361E-01     7.5000000000015843E-01     0.0000000000000000E+00 
    1.8750000000055780E-01     8.1249999999983680E-01     0.0000000000000000E+00 
    1.8750000000063199E-01     8.7499999999953304E-01     0.0000000000000000E+00 
    1.8750000000070621E-01     9.3749999999975764E-01     0.0000000000000000E+00 
    2.4999999999951281E-01     6.2500000000163314E-02     0.0000000000000000E+00 
    2.4999999999961461E-01     1.2500000000033351E-01     0.0000000000000000E+00 
    2.4999999999971650E-01     1.8750000000048361E-01     0.0000000000000000E+00 
    2.4999999999981831E-01     2.5000000000063310E-01     0.0000000000000000E+00 
    2.4999999999992020E-01     3.1250000000078260E-01     0.0000000000000000E+00 
    2.5000000000002198E-01     3.7500000000093209E-01     0.0000000000000000E+00 
    2.5000000000012390E-01     4.3750000000108180E-01     0.0000000000000000E+00 
    2.5000000000022571E-01     5.0000000000121769E-01     0.0000000000000000E+00 
    2.5000000000032763E-01     5.6250000000094724E-01     0.0000000000000000E+00 
    2.5000000000042938E-01     6.2500000000066314E-01     0.0000000000000000E+00 
    2.5000000000053119E-01     6.8750000000037925E-01     0.0000000000000000E+00 
[...]
CELL_DATA 256 
SCALARS Pressure double 1 
LOOKUP_TABLE default 

    1.0515373133830970E+00 
    1.0348965458230563E+00 
    1.0210293801560042E+00 
    1.0094006626387186E+00 
    9.9949752137650505E-01 
    9.9096349488117430E-01 
    9.8355319051710921E-01 
    9.7709791571125593E-01 
    9.7148209551090547E-01 
    9.6662721793821482E-01 
    9.6248052860967614E-01 
    9.5900594401075412E-01 
    9.5617350226276621E-01 
    9.5394063970928822E-01 
    9.5223490271654143E-01 
    9.5126589510012838E-01 
    9.9491469253978571E-01 
    9.9213511092718187E-01 
    9.8784596495091603E-01 
    9.8286040080346537E-01 
    9.7764000694979858E-01 
    9.7246117812700594E-01 
    9.6749200491997789E-01 
    9.6283675909825694E-01 
    9.5856205659912452E-01 
    9.5471222128975697E-01 
    9.5131788145402663E-01 
    9.4839935912252982E-01 
    9.4596340367262599E-01 
    9.4398757317571114E-01 
    9.4241160467357399E-01 
    9.4149866659364889E-01 
    9.5576267079313149E-01 
    9.5483285155367537E-01 
    9.5311377882417825E-01 
    9.5080327621480332E-01 
    9.4809152329732760E-01 
    9.4514432664562320E-01 
    9.4209979321650295E-01 
    9.3907045082485985E-01 
    9.3614713748297140E-01 
    9.3340286591028687E-01 
    9.3089557812184398E-01 
    9.2866835229811562E-01 
    9.2674358385069378E-01 
    9.2510368160137568E-01 
    9.2371639290696339E-01 
    9.2290979922417427E-01 
    9.1916093022786516E-01 
    9.1869313410524478E-01 
    9.1779011960019430E-01 
    9.1651408694595082E-01 
    9.1494002114860640E-01 
    9.1314721699037349E-01 
    9.1121370078401620E-01 
    9.0921288082644713E-01 
    9.0721167727501606E-01 
    9.0526934153982419E-01 
    9.0343594029244190E-01 
    9.0174852878998224E-01 
    9.0022024921626176E-01 
    8.9881181003623833E-01 
    8.9756474849835532E-01 
    8.9687471713966105E-01 
    8.8156403830816810E-01 
    8.8126879140558623E-01 
    8.8069242591318986E-01 
    8.7986356472480654E-01 
    8.7881919591556579E-01 
    8.7760175394560302E-01 
    8.7625654910791262E-01 
    8.7482957027924246E-01 
    8.7336554720503012E-01 
    8.7190589388881823E-01 
    8.7048558262640896E-01 
    8.6912646919814485E-01 
    8.6782015314280836E-01 
    8.6649387192421445E-01 
    8.6531723844156128E-01 
    8.6471953325984752E-01 
    8.4181187741086727E-01 
    8.4159133194846181E-01 
    8.4115897406251050E-01 
    8.4053229198683532E-01 
    8.3973408375741487E-01 
    8.3879114779406672E-01 
    8.3773299515587041E-01 
    8.3659047891876814E-01 
    8.3539417328147414E-01 
    8.3417201737415947E-01 
    8.3294488860640170E-01 
    8.3171623510646653E-01 
    8.3044371473972944E-01 
    8.2908197790322413E-01 
    8.2797526507917607E-01 
    8.2745179223064158E-01 
    7.9948214239786275E-01 
    7.9928983679131682E-01 
    7.9891163127471576E-01 
    7.9836031776114424E-01 
    7.9765258066971068E-01 
    7.9680809702473576E-01 
    7.9584859958630394E-01 
    7.9479666695650109E-01 
    7.9367390200599675E-01 
    7.9249764836827530E-01 
    7.9127385072301326E-01 
    7.8997842538065610E-01 
    7.8851609646485077E-01 
    7.8700951853355627E-01 
    7.8598136000055874E-01 
    7.8552830562065568E-01 
    7.5446349794799139E-01 
    7.5426880476705160E-01 
    7.5388454504741120E-01 
    7.5332131109890377E-01 
    7.5259311133288387E-01 
    7.5171647094861627E-01 
    7.5070939965954042E-01 
    7.4958983573772853E-01 
    7.4837291040870202E-01 
    7.4706532129597936E-01 
    7.4565154561880298E-01 
    7.4405642984144937E-01 
    7.4223885002201773E-01 
    7.4063782088403429E-01 
    7.3967150692176220E-01 
    7.3923873988615352E-01 
    7.0681906974320186E-01 
    7.0659268890688798E-01 
    7.0614420636699371E-01 
    7.0548329015313760E-01 
    7.0462318625648324E-01 
    7.0357957809858940E-01 
    7.0236908061768666E-01 
    7.0100667389539839E-01 
    6.9950061069050795E-01 
    6.9784051022249605E-01 
    6.9596591791630713E-01 
    6.9378318626001179E-01 
    6.9159198830614588E-01 
    6.9001672879048992E-01 
    6.8908736302506945E-01 
    6.8863373922997195E-01 
    6.5674654541645217E-01 
    6.5645028185310228E-01 
    6.5586115629825725E-01 
    6.5498846656585397E-01 
    6.5384570047116508E-01 
    6.5244879086542074E-01 
    6.5081334958980885E-01 
    6.4894921484456380E-01 
    6.4684808658041348E-01 
    6.4445318773963345E-01 
    6.4168323325570575E-01 
    6.3878794680404072E-01 
    6.3647025129321666E-01 
    6.3493932215447546E-01 
    6.3397615663056961E-01 
    6.3349258432764322E-01 
    6.0456184607821384E-01 
    6.0413691840079708E-01 
    6.0328861814642887E-01 
    6.0202502569291694E-01 
    6.0035881918450396E-01 
    5.9830400047734578E-01 
    5.9586934663174129E-01 
    5.9304176358667726E-01 
    5.8976330068187988E-01 
    5.8604921216053518E-01 
    5.8225844511564118E-01 
    5.7908875083184230E-01 
    5.7680654830935330E-01 
    5.7517700128403915E-01 
    5.7407366177233643E-01 
    5.7351570640003224E-01 
    5.5059462822253735E-01 
    5.4994051252014797E-01 
    5.4862951720756559E-01 
    5.4666319668278152E-01 
    5.4404128654230399E-01 
    5.4075581843254261E-01 
    5.3680465619573015E-01 
    5.3225836078153743E-01 
    5.2734147416618860E-01 
    5.2252526366587415E-01 
    5.1836045472786108E-01 
    5.1501895129876718E-01 
    5.1232310720219376E-01 
    5.1019530502750143E-01 
    5.0871732586520291E-01 
    5.0795927475068159E-01 
    4.9483646534028758E-01 
    4.9376724294673829E-01 
    4.9165066396453855E-01 
    4.8853129040540982E-01 
    4.8447765251438735E-01 
    4.7959484234829264E-01 
    4.7405003403517992E-01 
    4.6812611781148405E-01 
    4.6220307304185287E-01 
    4.5659064044607811E-01 
    4.5139282847803386E-01 
    4.4658459552147711E-01 
    4.4227374952871434E-01 
    4.3871538315712416E-01 
    4.3616170948039429E-01 
    4.3482233195716419E-01 
    4.4206980569148580E-01 
    4.4071516282575374E-01 
    4.3804221580443881E-01 
    4.3411544894239673E-01 
    4.2902943130006532E-01 
    4.2291397961989219E-01 
    4.1592946393028418E-01 
    4.0825181863118204E-01 
    4.0002938754647221E-01 
    3.9133979620950526E-01 
    3.8231507508778884E-01 
    3.7327627059512308E-01 
    3.6469960875217333E-01 
    3.5718853433819342E-01 
    3.5146313156073766E-01 
    3.4829161393214797E-01 
    4.0427015272394567E-01 
    4.0264325693711200E-01 
    3.9939029689788708E-01 
    3.9450933903266350E-01 
    3.8799554350677540E-01 
    3.7983649069533881E-01 
    3.7000381036960933E-01 
    3.5845144091109737E-01 
    3.4514186310281786E-01 
    3.3008952351226090E-01 
    3.1340214387909854E-01 
    2.9534652455535709E-01 
    2.7646959368568857E-01 
    2.5780496915374917E-01 
    2.4122570215226921E-01 
    2.3004571962132384E-01 
    3.8495707923176842E-01 
    3.8302917269401054E-01 
    3.7914380605429815E-01 
    3.7323745551786325E-01 
    3.6520670000448885E-01 
    3.5489862447274950E-01 
    3.4209731902412027E-01 
    3.2650546069032621E-01 
    3.0771900899277210E-01 
    2.8519027190174301E-01 
    2.5817160964966773E-01 
    2.2562989397466057E-01 
    1.8611651524160117E-01 
    1.3756782866415879E-01 
    7.6995428037785973E-02 
    0.0000000000000000E+00 

SCALARS Saturarion double 1 
LOOKUP_TABLE default 

    1.0000000000000000E+00 
    9.4748277897651290E-01 
    9.1163584464037384E-01 
    8.7594213420207045E-01 
    8.3977804239629161E-01 
    8.0315372623112458E-01 
    7.6612642362373207E-01 
    7.2865482368799972E-01 
    6.9053456016637271E-01 
    6.5132707171636051E-01 
    6.1020692116769970E-01 
    5.6554570620162259E-01 
    5.1356501875827865E-01 
    4.4345677719273979E-01 
    3.1799809951037178E-01 
    7.9690175589818640E-02 
    8.8895386105219187E-01 
    8.6561658767309768E-01 
    8.3942666225567741E-01 
    8.1158288167075077E-01 
    7.8252165546026131E-01 
    7.5247079679911633E-01 
    7.2151136495533019E-01 
    6.8958676069502556E-01 
    6.5648061200248364E-01 
    6.2174923451383535E-01 
    5.8454979854526279E-01 
    5.4316156432106788E-01 
    4.9342987248510078E-01 
    4.2318498549873745E-01 
    2.8858570016399432E-01 
    5.1890628580789668E-02 
    8.0555082467166783E-01 
    7.8971234054917960E-01 
    7.7031533010571462E-01 
    7.4876238015419727E-01 
    7.2559752816864154E-01 
    7.0107757266601856E-01 
    6.7528794009044313E-01 
    6.4816789456125112E-01 
    6.1949087468990016E-01 
    5.8878829947905953E-01 
    5.5514608109353492E-01 
    5.1661940149856100E-01 
    4.6833950363567800E-01 
    3.9569736040516451E-01 
    2.4117604504090803E-01 
    2.3136960079154105E-02 
    7.3753992166246252E-01 
    7.2573115511603248E-01 
    7.1064145744630103E-01 
    6.9343006645863026E-01 
    6.7453670178506597E-01 
    6.5415508959136515E-01 
    6.3232859196415159E-01 
    6.0896375706148809E-01 
    5.8379865454629110E-01 
    5.5630507646846428E-01 
    5.2542831515747723E-01 
    4.8883420229583430E-01 
    4.4049543058971208E-01 
    3.6140214909936547E-01 
    1.7001403994355729E-01 
    5.8498002764856838E-03 
    6.8170261505676522E-01 
    6.7229847975442880E-01 
    6.5998049729481201E-01 
    6.4571256955384604E-01 
    6.2982925520987132E-01 
    6.1245198094246323E-01 
    5.9356906266150522E-01 
    5.7303765669853335E-01 
    5.5053591767814869E-01 
    5.2543154445418916E-01 
    4.9643290657721600E-01 
    4.6058014252134799E-01 
    4.0991732373566242E-01 
    3.1593895850911952E-01 
    8.3300614594470648E-02 
    6.1998565485961346E-04 
    6.3448640359094843E-01 
    6.2666639761897047E-01 
    6.1625096980947658E-01 
    6.0406102803212092E-01 
    5.9035207244599919E-01 
    5.7518531367094616E-01 
    5.5849536437383773E-01 
    5.4008072692566900E-01 
    5.1953481492979514E-01 
    4.9606463115229754E-01 
    4.6800799612626470E-01 
    4.3140193371758673E-01 
    3.7475665003281100E-01 
    2.4620172394439202E-01 
    2.2775843933354946E-02 
    1.8324573152203984E-05 
    5.9318405614879177E-01 
    5.8648089301973716E-01 
    5.7744769054596456E-01 
    5.6679086272471568E-01 
    5.5470337458214147E-01 
    5.4119409279081188E-01 
    5.2614238063338703E-01 
    5.0927363163434158E-01 
    4.9005974962268589E-01 
    4.6745963660561884E-01 
    4.3921191179339758E-01 
    3.9955628969557733E-01 
    3.2897467213322545E-01 
    1.3367268022225498E-01 
    2.3021021443291349E-03 
    5.2557997661285870E-08 
    5.5574283015232551E-01 
    5.4986022922301736E-01 
    5.4187047250348763E-01 
    5.3237907880680091E-01 
    5.2152240298234875E-01 
    5.0925594749807079E-01 
    4.9539275785296172E-01 
    4.7955608229572899E-01 
    4.6103012332102783E-01 
    4.3836092287768763E-01 
    4.0818639711216409E-01 
    3.6080990888762138E-01 
    2.5322183021613698E-01 
    3.0601617421377156E-02 
    3.3893468534046151E-05 
    1.7606340662300048E-12 
    5.2040225103180782E-01 
    5.1513026918297933E-01 
    5.0793954065437996E-01 
    4.9933804941617072E-01 
    4.8940176640789157E-01 
    4.7802037580896684E-01 
    4.6491285472530830E-01 
    4.4953983794520336E-01 
    4.3085594787426540E-01 
    4.0660144779778423E-01 
    3.7088127707913354E-01 
    3.0230629691402272E-01 
    1.1305818529678252E-01 
    1.3163233009297862E-03 
    8.4940829794129749E-09 
    1.3064594826870009E-21 
    4.8524479292512374E-01 
    4.8040685143768930E-01 
    4.7380555015046055E-01 
    4.6584504541344679E-01 
    4.5652460441499038E-01 
    4.4563565227229163E-01 
    4.3273747566141485E-01 
    4.1698166864476793E-01 
    3.9660782624052787E-01 
    3.6728616398523728E-01 
    3.1489479239752294E-01 
    1.7805432846994501E-01 
    9.3563966560479168E-03 
    9.1086360523467444E-07 
    3.9688393604005411E-17 
    1.3262124011575643E-43 
    4.4735052067907594E-01 
    4.4273694723417067E-01 
    4.3646576651376007E-01 
    4.2881620073092158E-01 
    4.1966672074626110E-01 
    4.0862292911763359E-01 
    3.9489307681627389E-01 
    3.7683727954974033E-01 
    3.5047225405594018E-01 
    3.0324850588482172E-01 
    1.8654882294437258E-01 
    2.0805596511814430E-02 
    9.8158130332942638E-06 
    7.9988526005823203E-15 
    1.1604304712811703E-38 
   7.3979548565005550E-101 
    4.0028712589444282E-01 
    3.9545151393363126E-01 
    3.8891341158165577E-01 
    3.8075321192661843E-01 
    3.7056534204128394E-01 
    3.5740686439672353E-01 
    3.3920616039273027E-01 
    3.1073038067289510E-01 
    2.5582200659321375E-01 
    1.3639333966252293E-01 
    1.6798362806119082E-02 
    2.2569071302010537E-05 
    9.3576845727246347E-14 
    3.0173407480554269E-36 
    1.3427913361933577E-95 
   2.2129639986231141E-251 
    3.2373582774410653E-01 
    3.1686540928471718E-01 
    3.0736516023915905E-01 
    2.9460813832334354E-01 
    2.7678800184125368E-01 
    2.4997421147731341E-01 
    2.0594870872912538E-01 
    1.3465137123062249E-01 
    5.0658122606918918E-02 
    4.5807412859396410E-03 
    9.0059836136533135E-06 
    1.6883357147198004E-13 
    2.8215370544749403E-35 
    2.9832444926554835E-93 
   4.4204218480903236E-246 
    0.0000000000000000E+00 
    1.5584480432831316E-01 
    1.4303119883092710E-01 
    1.2574479978923900E-01 
    1.0392712080568793E-01 
    7.7665015078237878E-02 
    4.8527543654978564E-02 
    2.1463447531124058E-02 
    4.6872834699082941E-03 
    2.2086787631531271E-04 
    2.5894409307815810E-07 
    1.3011605113837833E-14 
    3.1516055939663071E-35 
    1.5172107591060458E-92 
   3.6890262868276645E-244 
    0.0000000000000000E+00 
    0.0000000000000000E+00 
    9.4165235504676988E-03 
    7.0266616236877829E-03 
    4.5632116548911745E-03 
    2.4545308026492855E-03 
    9.8414409507982027E-04 
    2.3832436591274093E-04 
    2.2707031153896951E-05 
    3.3653237997636488E-07 
    8.2115593910171338E-11 
    1.0391684958006912E-18 
    3.3515270176159790E-38 
    8.0050416241026576E-93 
   6.7127034953590809E-244 
    0.0000000000000000E+00 
    0.0000000000000000E+00 
    0.0000000000000000E+00 
    2.9131055639242172E-06 
    1.3436702906004457E-06 
    4.2845142429791973E-07 
    8.2736297309363695E-08 
    7.2577404459298821E-09 
    1.6366108252971103E-10 
    2.9855059008655663E-13 
    3.3836177236936555E-18 
    6.5434915151105666E-28 
    4.6148597283209463E-49 
   8.0167220826295771E-101 
   9.3995945280194354E-245 
    0.0000000000000000E+00 
    0.0000000000000000E+00 
    0.0000000000000000E+00 
    0.0000000000000000E+00 
