# vtk DataFile Version 2.0
Pressure Field Data 
ASCII 
DATASET UNSTRUCTURED_GRID 

POINTS 289 double 

    0.0000000000000000E+00     0.0000000000000000E+00     0.0000000000000000E+00 
    1.0000000000000000E+00     0.0000000000000000E+00     0.0000000000000000E+00 
    1.0000000000000000E+00     1.0000000000000000E+00     0.0000000000000000E+00 
    0.0000000000000000E+00     1.0000000000000000E+00     0.0000000000000000E+00 
    6.2499999999872928E-02     0.0000000000000000E+00     0.0000000000000000E+00 
    1.2499999999977310E-01     0.0000000000000000E+00     0.0000000000000000E+00 
    1.8749999999959341E-01     0.0000000000000000E+00     0.0000000000000000E+00 
    2.4999999999941089E-01     0.0000000000000000E+00     0.0000000000000000E+00 
    3.1249999999922851E-01     0.0000000000000000E+00     0.0000000000000000E+00 
    3.7499999999904610E-01     0.0000000000000000E+00     0.0000000000000000E+00 
    4.3749999999886358E-01     0.0000000000000000E+00     0.0000000000000000E+00 
    4.9999999999869210E-01     0.0000000000000000E+00     0.0000000000000000E+00 
    5.6249999999884603E-01     0.0000000000000000E+00     0.0000000000000000E+00 
    6.2499999999901090E-01     0.0000000000000000E+00     0.0000000000000000E+00 
    6.8749999999917577E-01     0.0000000000000000E+00     0.0000000000000000E+00 
    7.4999999999934064E-01     0.0000000000000000E+00     0.0000000000000000E+00 
    8.1249999999950551E-01     0.0000000000000000E+00     0.0000000000000000E+00 
    8.7499999999967026E-01     0.0000000000000000E+00     0.0000000000000000E+00 
    9.3749999999983513E-01     0.0000000000000000E+00     0.0000000000000000E+00 
    1.0000000000000000E+00     6.2499999999872928E-02     0.0000000000000000E+00 
    1.0000000000000000E+00     1.2499999999977310E-01     0.0000000000000000E+00 
    1.0000000000000000E+00     1.8749999999959341E-01     0.0000000000000000E+00 
    1.0000000000000000E+00     2.4999999999941089E-01     0.0000000000000000E+00 
    1.0000000000000000E+00     3.1249999999922851E-01     0.0000000000000000E+00 
    1.0000000000000000E+00     3.7499999999904610E-01     0.0000000000000000E+00 
    1.0000000000000000E+00     4.3749999999886358E-01     0.0000000000000000E+00 
    1.0000000000000000E+00     4.9999999999869210E-01     0.0000000000000000E+00 
    1.0000000000000000E+00     5.6249999999884603E-01     0.0000000000000000E+00 
    1.0000000000000000E+00     6.2499999999901090E-01     0.0000000000000000E+00 
    1.0000000000000000E+00     6.8749999999917577E-01     0.0000000000000000E+00 
    1.0000000000000000E+00     7.4999999999934064E-01     0.0000000000000000E+00 
    1.0000000000000000E+00     8.1249999999950551E-01     0.0000000000000000E+00 
    1.0000000000000000E+00     8.7499999999967026E-01     0.0000000000000000E+00 
    1.0000000000000000E+00     9.3749999999983513E-01     0.0000000000000000E+00 
    9.3749999999973976E-01     1.0000000000000000E+00     0.0000000000000000E+00 
    8.7499999999950118E-01     1.0000000000000000E+00     0.0000000000000000E+00 
    8.1249999999991318E-01     1.0000000000000000E+00     0.0000000000000000E+00 
    7.5000000000034706E-01     1.0000000000000000E+00     0.0000000000000000E+00 
    6.8750000000078049E-01     1.0000000000000000E+00     0.0000000000000000E+00 
    6.2500000000121403E-01     1.0000000000000000E+00     0.0000000000000000E+00 
    5.6250000000164757E-01     1.0000000000000000E+00     0.0000000000000000E+00 
    5.0000000000205946E-01     1.0000000000000000E+00     0.0000000000000000E+00 
    4.3750000000182099E-01     1.0000000000000000E+00     0.0000000000000000E+00 
    3.7500000000156092E-01     1.0000000000000000E+00     0.0000000000000000E+00 
    3.1250000000130068E-01     1.0000000000000000E+00     0.0000000000000000E+00 
    2.5000000000104050E-01     1.0000000000000000E+00     0.0000000000000000E+00 
    1.8750000000078040E-01     1.0000000000000000E+00     0.0000000000000000E+00 
    1.2500000000052031E-01     1.0000000000000000E+00     0.0000000000000000E+00 
    6.2500000000260125E-02     1.0000000000000000E+00     0.0000000000000000E+00 
    0.0000000000000000E+00     9.3749999999973976E-01     0.0000000000000000E+00 
    0.0000000000000000E+00     8.7499999999950118E-01     0.0000000000000000E+00 
    0.0000000000000000E+00     8.1249999999991318E-01     0.0000000000000000E+00 
    0.0000000000000000E+00     7.5000000000034706E-01     0.0000000000000000E+00 
    0.0000000000000000E+00     6.8750000000078049E-01     0.0000000000000000E+00 
    0.0000000000000000E+00     6.2500000000121403E-01     0.0000000000000000E+00 
    0.0000000000000000E+00     5.6250000000164757E-01     0.0000000000000000E+00 
    0.0000000000000000E+00     5.0000000000205946E-01     0.0000000000000000E+00 
    0.0000000000000000E+00     4.3750000000182099E-01     0.0000000000000000E+00 
    0.0000000000000000E+00     3.7500000000156092E-01     0.0000000000000000E+00 
    0.0000000000000000E+00     3.1250000000130068E-01     0.0000000000000000E+00 
    0.0000000000000000E+00     2.5000000000104050E-01     0.0000000000000000E+00 
    0.0000000000000000E+00     1.8750000000078040E-01     0.0000000000000000E+00 
    0.0000000000000000E+00     1.2500000000052031E-01     0.0000000000000000E+00 
    0.0000000000000000E+00     6.2500000000260125E-02     0.0000000000000000E+00 
    6.2499999999897131E-02     6.2500000000235922E-02     0.0000000000000000E+00 
    6.2499999999921327E-02     1.2500000000047351E-01     0.0000000000000000E+00 
    6.2499999999945530E-02     1.8750000000070621E-01     0.0000000000000000E+00 
    6.2499999999969733E-02     2.5000000000093858E-01     0.0000000000000000E+00 
    6.2499999999993928E-02     3.1250000000117117E-01     0.0000000000000000E+00 
    6.2500000000018124E-02     3.7500000000140382E-01     0.0000000000000000E+00 
    6.2500000000042327E-02     4.3750000000163619E-01     0.0000000000000000E+00 
    6.2500000000066530E-02     5.0000000000184897E-01     0.0000000000000000E+00 
    6.2500000000090733E-02     5.6250000000147260E-01     0.0000000000000000E+00 
    6.2500000000114922E-02     6.2500000000107636E-01     0.0000000000000000E+00 
    6.2500000000139125E-02     6.8750000000068034E-01     0.0000000000000000E+00 
    6.2500000000163328E-02     7.5000000000028411E-01     0.0000000000000000E+00 
    6.2500000000187531E-02     8.1249999999988787E-01     0.0000000000000000E+00 
    6.2500000000211720E-02     8.7499999999951172E-01     0.0000000000000000E+00 
    6.2500000000235922E-02     9.3749999999974565E-01     0.0000000000000000E+00 
    1.2499999999981980E-01     6.2500000000211733E-02     0.0000000000000000E+00 
    1.2499999999986650E-01     1.2500000000042691E-01     0.0000000000000000E+00 
    1.2499999999991319E-01     1.8750000000063199E-01     0.0000000000000000E+00 
    1.2499999999995989E-01     2.5000000000083678E-01     0.0000000000000000E+00 
    1.2500000000000661E-01     3.1250000000104172E-01     0.0000000000000000E+00 
    1.2500000000005329E-01     3.7500000000124661E-01     0.0000000000000000E+00 
    1.2500000000010000E-01     4.3750000000145117E-01     0.0000000000000000E+00 
    1.2500000000014669E-01     5.0000000000163858E-01     0.0000000000000000E+00 
    1.2500000000019340E-01     5.6250000000129741E-01     0.0000000000000000E+00 
    1.2500000000024011E-01     6.2500000000093847E-01     0.0000000000000000E+00 
    1.2500000000028680E-01     6.8750000000057998E-01     0.0000000000000000E+00 
    1.2500000000033351E-01     7.5000000000022127E-01     0.0000000000000000E+00 
    1.2500000000038020E-01     8.1249999999986211E-01     0.0000000000000000E+00 
    1.2500000000042691E-01     8.7499999999952238E-01     0.0000000000000000E+00 
    1.2500000000047359E-01     9.3749999999975164E-01     0.0000000000000000E+00 
    1.8749999999966760E-01     6.2500000000187531E-02     0.0000000000000000E+00 
    1.8749999999974179E-01     1.2500000000038020E-01     0.0000000000000000E+00 
    1.8749999999981601E-01     1.8750000000055780E-01     0.0000000000000000E+00 
    1.8749999999989009E-01     2.5000000000073502E-01     0.0000000000000000E+00 
    1.8749999999996431E-01     3.1250000000091221E-01     0.0000000000000000E+00 
    1.8750000000003850E-01     3.7500000000108941E-01     0.0000000000000000E+00 
    1.8750000000011269E-01     4.3750000000126649E-01     0.0000000000000000E+00 
    1.8750000000018691E-01     5.0000000000142808E-01     0.0000000000000000E+00 
    1.8750000000026110E-01     5.6250000000112244E-01     0.0000000000000000E+00 
    1.8750000000033529E-01     6.2500000000080080E-01     0.0000000000000000E+00 
    1.8750000000040951E-01     6.8750000000047962E-01     0.0000000000000000E+00 
    1.8750000000048361E-01     7.5000000000015843E-01     0.0000000000000000E+00 
    1.8750000000055780E-01     8.1249999999983680E-01     0.0000000000000000E+00 
    1.8750000000063199E-01     8.7499999999953304E-01     0.0000000000000000E+00 
    1.8750000000070621E-01     9.3749999999975764E-01     0.0000000000000000E+00 
    2.4999999999951281E-01     6.2500000000163314E-02     0.0000000000000000E+00 
    2.4999999999961461E-01     1.2500000000033351E-01     0.0000000000000000E+00 
    2.4999999999971650E-01     1.8750000000048361E-01     0.0000000000000000E+00 
    2.4999999999981831E-01     2.5000000000063310E-01     0.0000000000000000E+00 
    2.4999999999992020E-01     3.1250000000078260E-01     0.0000000000000000E+00 
    2.5000000000002198E-01     3.7500000000093209E-01     0.0000000000000000E+00 
    2.5000000000012390E-01     4.3750000000108180E-01     0.0000000000000000E+00 
    2.5000000000022571E-01     5.0000000000121769E-01     0.0000000000000000E+00 
    2.5000000000032763E-01     5.6250000000094724E-01     0.0000000000000000E+00 
    2.5000000000042938E-01     6.2500000000066314E-01     0.0000000000000000E+00 
    2.5000000000053119E-01     6.8750000000037925E-01     0.0000000000000000E+00 
[...]
CELL_DATA 256 
SCALARS Pressure double 1 
LOOKUP_TABLE default 

    1.1632774753796595E+00 
    1.1459609119477414E+00 
    1.1309417430560997E+00 
    1.1179792052563566E+00 
    1.1066383079244793E+00 
    1.0966106454206632E+00 
    1.0876840962304988E+00 
    1.0797137515818227E+00 
    1.0725999715873207E+00 
    1.0662708714976541E+00 
    1.0606640818433137E+00 
    1.0556962615180572E+00 
    1.0511985363440448E+00 
    1.0471731801412909E+00 
    1.0444214558815494E+00 
    1.0431343485061306E+00 
    1.1016518278184673E+00 
    1.0984834507635080E+00 
    1.0934606571029246E+00 
    1.0875116927295903E+00 
    1.0811604319106642E+00 
    1.0747325311428531E+00 
    1.0684350528480595E+00 
    1.0624019632248600E+00 
    1.0567199526118491E+00 
    1.0514405999575451E+00 
    1.0465780860085576E+00 
    1.0420777918843407E+00 
    1.0377719493764399E+00 
    1.0339794901370845E+00 
    1.0314972482890741E+00 
    1.0303299293694748E+00 
    1.0553518650096716E+00 
    1.0541661107309683E+00 
    1.0519457201230566E+00 
    1.0489224497933822E+00 
    1.0453211153771178E+00 
    1.0413395505691152E+00 
    1.0371435116030125E+00 
    1.0328669048076531E+00 
    1.0286123737244368E+00 
    1.0244471401280679E+00 
    1.0203821614552746E+00 
    1.0163123960712463E+00 
    1.0122490745567241E+00 
    1.0089566127326137E+00 
    1.0069049105238406E+00 
    1.0059186458473686E+00 
    1.0101568439707156E+00 
    1.0094791096982023E+00 
    1.0081609387150043E+00 
    1.0062793293762160E+00 
    1.0039261607459500E+00 
    1.0011969132354777E+00 
    9.9818255770420339E-01 
    9.9496248897995065E-01 
    9.9159496191664931E-01 
    9.8809573301016385E-01 
    9.8438598675350686E-01 
    9.8041829685551229E-01 
    9.7675163342462867E-01 
    9.7411402050515838E-01 
    9.7246939427151646E-01 
    9.7165373386146081E-01 
    9.6245852024402201E-01 
    9.6196688189214763E-01 
    9.6099865744863366E-01 
    9.5958796557295079E-01 
    9.5777731332083182E-01 
    9.5561184929086396E-01 
    9.5313260496577168E-01 
    9.5036562632364874E-01 
    9.4729896891941845E-01 
    9.4384133227453382E-01 
    9.3997574003450945E-01 
    9.3620134351790829E-01 
    9.3325498215192237E-01 
    9.3121813833076461E-01 
    9.2989452740745859E-01 
    9.2923226151057292E-01 
    9.1092975378790542E-01 
    9.1050299074868279E-01 
    9.0965405899949325E-01 
    9.0839632560029426E-01 
    9.0674436131110558E-01 
    9.0470679853660652E-01 
    9.0227341123426885E-01 
    8.9938918053419326E-01 
    8.9597006996522710E-01 
    8.9212080787221826E-01 
    8.8840803397460666E-01 
    8.8545020481819270E-01 
    8.8329807267890059E-01 
    8.8174445477890318E-01 
    8.8070727238324820E-01 
    8.8018813019173203E-01 
    8.5476873785679630E-01 
    8.5432574492148383E-01 
    8.5343191384884121E-01 
    8.5207733201941060E-01 
    8.5023880360583981E-01 
    8.4786516024432679E-01 
    8.4489980871327308E-01 
    8.4141004994314983E-01 
    8.3771404603179744E-01 
    8.3437387717122358E-01 
    8.3176054718392622E-01 
    8.2979020718317142E-01 
    8.2826349030652502E-01 
    8.2711140701985675E-01 
    8.2633961531912570E-01 
    8.2595257695891422E-01 
    7.9293783490923730E-01 
    7.9235145832130649E-01 
    7.9115162828214103E-01 
    7.8931529007631107E-01 
    7.8686887661699811E-01 
    7.8394625532280771E-01 
    7.8080997046964284E-01 
    7.7783272948983917E-01 
    7.7533887520490807E-01 
    7.7340140627210130E-01 
    7.7185484540574778E-01 
    7.7055632556235720E-01 
    7.6949061036343036E-01 
    7.6867544340808669E-01 
    7.6812442484979848E-01 
    7.6784664012552839E-01 
    7.2394639405531458E-01 
    7.2325158455806549E-01 
    7.2196504076346790E-01 
    7.2025530620533251E-01 
    7.1832868762065605E-01 
    7.1641522779366684E-01 
    7.1471399071598940E-01 
    7.1329975221400632E-01 
    7.1208908852464858E-01 
    7.1097216179854539E-01 
    7.0993035086355194E-01 
    7.0899889234494784E-01 
    7.0821224799388194E-01 
    7.0759799582598926E-01 
    7.0717689604056944E-01 
    7.0696285605163600E-01 
    6.5479835670821085E-01 
    6.5447573313720742E-01 
    6.5391226154437487E-01 
    6.5321929170600879E-01 
    6.5248029765634841E-01 
    6.5171021136425833E-01 
    6.5086962261967818E-01 
    6.4993256337159722E-01 
    6.4892377410468427E-01 
    6.4789602670947877E-01 
    6.4690297481633663E-01 
    6.4599331745431998E-01 
    6.4520996379284068E-01 
    6.4458902441942434E-01 
    6.4415876926678817E-01 
    6.4393867209067657E-01 
    5.9316562081721269E-01 
    5.9298653596819295E-01 
    5.9260318845762705E-01 
    5.9198939007679929E-01 
    5.9113771654903702E-01 
    5.9006531169706133E-01 
    5.8880964587809359E-01 
    5.8742027126563290E-01 
    5.8595404288434128E-01 
    5.8447294916683312E-01 
    5.8304165345788161E-01 
    5.8172470555832234E-01 
    5.8058353671118235E-01 
    5.7967321080506740E-01 
    5.7903906272780059E-01 
    5.7871351637025548E-01 
    5.3625617459366548E-01 
    5.3584277864632845E-01 
    5.3502042233850633E-01 
    5.3380196538925273E-01 
    5.3221237432443369E-01 
    5.3029043742796866E-01 
    5.2808935591911688E-01 
    5.2567654688909493E-01 
    5.2313296503444673E-01 
    5.2055189153859716E-01 
    5.1803685400548793E-01 
    5.1569830313811937E-01 
    5.1364868021927546E-01 
    5.1199561890222378E-01 
    5.1083333899162531E-01 
    5.1023289707571828E-01 
    4.8351459630669430E-01 
    4.8280769808523977E-01 
    4.8140441023026359E-01 
    4.7932683849159330E-01 
    4.7661055707712341E-01 
    4.7330701035528283E-01 
    4.6948634117306737E-01 
    4.6524055075878235E-01 
    4.6068680359652242E-01 
    4.5597047428292814E-01 
    4.5126718789566633E-01 
    4.4678262123265416E-01 
    4.4274820770945550E-01 
    4.3941021293485905E-01 
    4.3700923530860497E-01 
    4.3574785862315296E-01 
    4.3784200048868127E-01 
    4.3673651397046676E-01 
    4.3453123696727924E-01 
    4.3123880835205558E-01 
    4.2688139290352201E-01 
    4.2149480788633165E-01 
    4.1513453874769385E-01 
    4.0788412210814662E-01 
    3.9986646367186390E-01 
    3.9125862776390108E-01 
    3.8231032454332708E-01 
    3.7336540792905559E-01 
    3.6488354771363968E-01 
    3.5745463548411338E-01 
    3.5178912221770109E-01 
    3.4864905331686130E-01 
    4.0322426985283422E-01 
    4.0166323470546900E-01 
    3.9852957982470205E-01 
    3.9380064654562769E-01 
    3.8744392441646780E-01 
    3.7941944663181199E-01 
    3.6968421133133328E-01 
    3.5820011142464370E-01 
    3.4494789846371682E-01 
    3.2995145437077694E-01 
    3.1331959512773838E-01 
    2.9531763063665289E-01 
    2.7648940785868081E-01 
    2.5786506840195150E-01 
    2.4131456547091512E-01 
    2.3014955900225495E-01 
    3.8421689069079479E-01 
    3.8231615277460801E-01 
    3.7848070666535327E-01 
    3.7264037324018773E-01 
    3.6468401248450150E-01 
    3.5445166053564386E-01 
    3.4172252997719660E-01 
    3.2619723128336520E-01 
    3.0747164457539433E-01 
    2.8499843247855050E-01 
    2.5802991819248933E-01 
    2.2553243621291452E-01 
    1.8605643479098333E-01 
    1.3753713606230819E-01 
    7.6985044099697392E-02 
    0.0000000000000000E+00 

SCALARS Saturarion double 1 
LOOKUP_TABLE default 

    1.0000000000000000E+00 
    9.1762788360893788E-01 
    8.6619229307649281E-01 
    8.1813627183630677E-01 
    7.7200658365681130E-01 
    7.2735750005348343E-01 
    6.8383987353345121E-01 
    6.4098956911341542E-01 
    5.9809878298464048E-01 
    5.5397829445974911E-01 
    5.0630026937354677E-01 
    4.4941010415865923E-01 
    3.6547124319516217E-01 
    1.9804160956164074E-01 
    1.8843627356384274E-02 
    1.8569946584935006E-05 
    8.4241259174729466E-01 
    8.1035189109610661E-01 
    7.7571128315206950E-01 
    7.4045813922541559E-01 
    7.0503406529517765E-01 
    6.6954395856755289E-01 
    6.3387454235862950E-01 
    5.9769539811034844E-01 
    5.6036368983692075E-01 
    5.2063000741309062E-01 
    4.7573911127202079E-01 
    4.1811499945727609E-01 
    3.2036638545982560E-01 
    1.1518367185394671E-01 
    2.8565631598560749E-03 
    1.3623982813300531E-07 
    7.3657267417740424E-01 
    7.1645704992743331E-01 
    6.9231624435880357E-01 
    6.6624615791940844E-01 
    6.3892605269114711E-01 
    6.1058254798273004E-01 
    5.8116756706271511E-01 
    5.5035826304862545E-01 
    5.1741319113243811E-01 
    4.8070953839678315E-01 
    4.3616645866302395E-01 
    3.7050638729439217E-01 
    2.2932004621492535E-01 
    2.6315208556072840E-02 
    3.4090297967178607E-05 
    1.6291381448425588E-12 
    6.5306580753417187E-01 
    6.3879721779867127E-01 
    6.2074325520352980E-01 
    6.0049166112190688E-01 
    5.7856773278516682E-01 
    5.5510866213868371E-01 
    5.2997358945791284E-01 
    5.0267588831699539E-01 
    4.7208706618660756E-01 
    4.3545050508240418E-01 
    3.8452507892653059E-01 
    2.8700722093359066E-01 
    7.5164757314247710E-02 
    5.3540336333937415E-04 
    9.3030076938181608E-10 
    1.7159583722868464E-24 
    5.8399470332010928E-01 
    5.7287534247274230E-01 
    5.5834580953877933E-01 
    5.4160292968663060E-01 
    5.2297336520302729E-01 
    5.0241782259611367E-01 
    4.7955379433735484E-01 
    4.5342205519769307E-01 
    4.2166942313800226E-01 
    3.7764464766133660E-01 
    2.9728549597041798E-01 
    1.1227719574155615E-01 
    2.1141071504368154E-03 
    2.0953270215100466E-08 
    1.3076978841030048E-21 
    1.8774410640612361E-56 
    5.2284452703594186E-01 
    5.1342510132803199E-01 
    5.0081024632182614E-01 
    4.8588623252789409E-01 
    4.6873199938389887E-01 
    4.4896209838183354E-01 
    4.2552169501383497E-01 
    3.9583203396225897E-01 
    3.5277205049523414E-01 
    2.7219022726664860E-01 
    1.0536459949704308E-01 
    3.2668172258695453E-03 
    8.8681154300148945E-08 
    2.9460745595084378E-20 
    1.1769609236256324E-53 
   1.4981917047332483E-143 
    4.6352939063830279E-01 
    4.5465964302128214E-01 
    4.4243693171575954E-01 
    4.2735022471848116E-01 
    4.0890633600387388E-01 
    3.8558680630046915E-01 
    3.5358989937824292E-01 
    3.0254147498732825E-01 
    2.0479861132158636E-01 
    6.2789814933672125E-02 
    2.0687851434513121E-03 
    1.2400919326989450E-07 
    1.2832956620653113E-19 
    2.7551817403002943E-52 
   9.6376928925916141E-141 
    0.0000000000000000E+00 
    3.9643008044596262E-01 
    3.8615277070275422E-01 
    3.7113840914532159E-01 
    3.5069242462191913E-01 
    3.2182760551646328E-01 
    2.7750452030430561E-01 
    2.0412649315412990E-01 
    1.0058169687848430E-01 
    1.9986254531828687E-02 
    4.5036688516336259E-04 
    3.6077351642009988E-08 
    1.6126287101606078E-19 
    1.3420593171153905E-51 
   2.8356892965748974E-139 
    0.0000000000000000E+00 
    0.0000000000000000E+00 
    2.9420331336676087E-01 
    2.7563200689622669E-01 
    2.4587413229132687E-01 
    2.0189210491570092E-01 
    1.4181576799706599E-01 
    7.4433785191478086E-02 
    2.2268776867380834E-02 
    2.1766843089229982E-03 
    2.0551065510223995E-05 
    7.6278113370241802E-10 
    7.3045328135737257E-21 
    1.4385819056378820E-51 
   1.7349023098246599E-138 
    0.0000000000000000E+00 
    0.0000000000000000E+00 
    0.0000000000000000E+00 
    1.0582801012882792E-01 
    8.1486221832486438E-02 
    5.1823540159988440E-02 
    2.4786035159807561E-02 
    7.4483448187098785E-03 
    1.0177712375491049E-03 
    3.3258870084635755E-05 
    6.5863894106731683E-08 
    2.8705790932578421E-13 
    3.9027095179187475E-25 
    5.8214440792383066E-55 
   1.1441686488670000E-138 
    0.0000000000000000E+00 
    0.0000000000000000E+00 
    0.0000000000000000E+00 
    0.0000000000000000E+00 
    3.2833809119424823E-03 
    1.4916993155478018E-03 
    4.0130580069983361E-04 
    5.1750764130250107E-05 
    2.0819435497536902E-06 
    1.1219155803014279E-08 
    1.4845456541097601E-12 
    1.1080516499890186E-19 
    6.2614467836981853E-34 
    8.3587669309119508E-66 
   3.0208351031313117E-147 
    0.0000000000000000E+00 
    0.0000000000000000E+00 
    0.0000000000000000E+00 
    0.0000000000000000E+00 
    0.0000000000000000E+00 
    3.0189130046297822E-07 
    3.9249688777102215E-08 
    1.3319817442576838E-09 
    6.8287048712201547E-12 
    1.6765351923808249E-15 
    2.1289157272101896E-21 
    1.4541869777416288E-31 
    2.4437119292264246E-50 
    2.1733926187758815E-88 
   7.9825260785112342E-175 
    0.0000000000000000E+00 
    0.0000000000000000E+00 
    0.0000000000000000E+00 
    0.0000000000000000E+00 
    0.0000000000000000E+00 
    0.0000000000000000E+00 
    2.2202156688505060E-17 
    1.1862555638770503E-19 
    1.9902605386619450E-23 
    2.4542987418091830E-29 
    1.0887616010764393E-38 
    4.9261475926058935E-54 
    1.0788332975364029E-80 
   1.9742577105284516E-130 
   2.0362256940105670E-232 
    0.0000000000000000E+00 
    0.0000000000000000E+00 
    0.0000000000000000E+00 
    0.0000000000000000E+00 
    0.0000000000000000E+00 
    0.0000000000000000E+00 
    0.0000000000000000E+00 
    9.7541534828481646E-43 
    1.4619674907358535E-48 
    2.8759363101192894E-58 
    1.6456452157684355E-73 
    1.0247734774545338E-97 
   9.0061271852245958E-138 
   8.5208272028282316E-208 
    0.0000000000000000E+00 
    0.0000000000000000E+00 
    0.0000000000000000E+00 
    0.0000000000000000E+00 
    0.0000000000000000E+00 
    0.0000000000000000E+00 
    0.0000000000000000E+00 
    0.0000000000000000E+00 
    0.0000000000000000E+00 
   5.0739491054655789E-106 
   5.9151614382626493E-121 
   6.4553140360611401E-146 
   3.1108145020084908E-185 
   4.1354391348703804E-248 
    0.0000000000000000E+00 
    0.0000000000000000E+00 
    0.0000000000000000E+00 
    0.0000000000000000E+00 
    0.0000000000000000E+00 
    0.0000000000000000E+00 
    0.0000000000000000E+00 
    0.0000000000000000E+00 
    0.0000000000000000E+00 
    0.0000000000000000E+00 
    0.0000000000000000E+00 
   8.4541624742627716E-264 
   4.2547193016059618E-302 
    0.0000000000000000E+00 
    0.0000000000000000E+00 
    0.0000000000000000E+00 
    0.0000000000000000E+00 
    0.0000000000000000E+00 
    0.0000000000000000E+00 
    0.0000000000000000E+00 
    0.0000000000000000E+00 
    0.0000000000000000E+00 
    0.0000000000000000E+00 
    0.0000000000000000E+00 
    0.0000000000000000E+00 
    0.0000000000000000E+00 
    0.0000000000000000E+00 
