# vtk DataFile Version 2.0
Pressure Field Data 
ASCII 
DATASET UNSTRUCTURED_GRID 

POINTS 1681 double 

    0.0000000000000000E+00     0.0000000000000000E+00     0.0000000000000000E+00 
    1.0000000000000000E+00     0.0000000000000000E+00     0.0000000000000000E+00 
    1.0000000000000000E+00     1.0000000000000000E+00     0.0000000000000000E+00 
    0.0000000000000000E+00     1.0000000000000000E+00     0.0000000000000000E+00 
    5.2499999999875258E-01     0.0000000000000000E+00     0.0000000000000000E+00 
    7.4999999999856765E-02     0.0000000000000000E+00     0.0000000000000000E+00 
    1.2499999999975850E-01     0.0000000000000000E+00     0.0000000000000000E+00 
    1.7499999999962990E-01     0.0000000000000000E+00     0.0000000000000000E+00 
    2.2499999999948389E-01     0.0000000000000000E+00     0.0000000000000000E+00 
    2.7499999999933789E-01     0.0000000000000000E+00     0.0000000000000000E+00 
    3.2499999999919210E-01     0.0000000000000000E+00     0.0000000000000000E+00 
    3.7499999999904610E-01     0.0000000000000000E+00     0.0000000000000000E+00 
    4.2499999999890020E-01     0.0000000000000000E+00     0.0000000000000000E+00 
    4.7499999999875958E-01     0.0000000000000000E+00     0.0000000000000000E+00 
    2.4999999999949701E-02     0.0000000000000000E+00     0.0000000000000000E+00 
    5.7499999999887907E-01     0.0000000000000000E+00     0.0000000000000000E+00 
    6.2499999999901101E-01     0.0000000000000000E+00     0.0000000000000000E+00 
    6.7499999999914273E-01     0.0000000000000000E+00     0.0000000000000000E+00 
    7.2499999999927467E-01     0.0000000000000000E+00     0.0000000000000000E+00 
    7.7499999999940661E-01     0.0000000000000000E+00     0.0000000000000000E+00 
    8.2499999999953844E-01     0.0000000000000000E+00     0.0000000000000000E+00 
    8.7499999999967026E-01     0.0000000000000000E+00     0.0000000000000000E+00 
    9.2499999999980220E-01     0.0000000000000000E+00     0.0000000000000000E+00 
    9.7499999999993414E-01     0.0000000000000000E+00     0.0000000000000000E+00 
    5.4999999999881310E-01     0.0000000000000000E+00     0.0000000000000000E+00 
    9.9999999999814140E-02     0.0000000000000000E+00     0.0000000000000000E+00 
    1.4999999999970290E-01     0.0000000000000000E+00     0.0000000000000000E+00 
    1.9999999999955689E-01     0.0000000000000000E+00     0.0000000000000000E+00 
    2.4999999999941089E-01     0.0000000000000000E+00     0.0000000000000000E+00 
    2.9999999999926502E-01     0.0000000000000000E+00     0.0000000000000000E+00 
    3.4999999999911913E-01     0.0000000000000000E+00     0.0000000000000000E+00 
    3.9999999999897312E-01     0.0000000000000000E+00     0.0000000000000000E+00 
    4.4999999999882723E-01     0.0000000000000000E+00     0.0000000000000000E+00 
    4.9999999999869210E-01     0.0000000000000000E+00     0.0000000000000000E+00 
    4.9999999999899403E-02     0.0000000000000000E+00     0.0000000000000000E+00 
    5.9999999999894504E-01     0.0000000000000000E+00     0.0000000000000000E+00 
    6.4999999999907687E-01     0.0000000000000000E+00     0.0000000000000000E+00 
    6.9999999999920870E-01     0.0000000000000000E+00     0.0000000000000000E+00 
    7.4999999999934064E-01     0.0000000000000000E+00     0.0000000000000000E+00 
    7.9999999999947247E-01     0.0000000000000000E+00     0.0000000000000000E+00 
    8.4999999999960441E-01     0.0000000000000000E+00     0.0000000000000000E+00 
    8.9999999999973623E-01     0.0000000000000000E+00     0.0000000000000000E+00 
    9.4999999999986817E-01     0.0000000000000000E+00     0.0000000000000000E+00 
    1.0000000000000000E+00     5.2499999999875258E-01     0.0000000000000000E+00 
    1.0000000000000000E+00     7.4999999999856765E-02     0.0000000000000000E+00 
    1.0000000000000000E+00     1.2499999999975850E-01     0.0000000000000000E+00 
    1.0000000000000000E+00     1.7499999999962990E-01     0.0000000000000000E+00 
    1.0000000000000000E+00     2.2499999999948389E-01     0.0000000000000000E+00 
    1.0000000000000000E+00     2.7499999999933789E-01     0.0000000000000000E+00 
    1.0000000000000000E+00     3.2499999999919210E-01     0.0000000000000000E+00 
    1.0000000000000000E+00     3.7499999999904610E-01     0.0000000000000000E+00 
    1.0000000000000000E+00     4.2499999999890020E-01     0.0000000000000000E+00 
    1.0000000000000000E+00     4.7499999999875958E-01     0.0000000000000000E+00 
    1.0000000000000000E+00     2.4999999999949701E-02     0.0000000000000000E+00 
    1.0000000000000000E+00     5.7499999999887907E-01     0.0000000000000000E+00 
    1.0000000000000000E+00     6.2499999999901101E-01     0.0000000000000000E+00 
    1.0000000000000000E+00     6.7499999999914273E-01     0.0000000000000000E+00 
    1.0000000000000000E+00     7.2499999999927467E-01     0.0000000000000000E+00 
    1.0000000000000000E+00     7.7499999999940661E-01     0.0000000000000000E+00 
    1.0000000000000000E+00     8.2499999999953844E-01     0.0000000000000000E+00 
    1.0000000000000000E+00     8.7499999999967026E-01     0.0000000000000000E+00 
    1.0000000000000000E+00     9.2499999999980220E-01     0.0000000000000000E+00 
    1.0000000000000000E+00     9.7499999999993414E-01     0.0000000000000000E+00 
    1.0000000000000000E+00     5.4999999999881310E-01     0.0000000000000000E+00 
    1.0000000000000000E+00     9.9999999999814140E-02     0.0000000000000000E+00 
    1.0000000000000000E+00     1.4999999999970290E-01     0.0000000000000000E+00 
    1.0000000000000000E+00     1.9999999999955689E-01     0.0000000000000000E+00 
    1.0000000000000000E+00     2.4999999999941089E-01     0.0000000000000000E+00 
    1.0000000000000000E+00     2.9999999999926502E-01     0.0000000000000000E+00 
    1.0000000000000000E+00     3.4999999999911913E-01     0.0000000000000000E+00 
    1.0000000000000000E+00     3.9999999999897312E-01     0.0000000000000000E+00 
    1.0000000000000000E+00     4.4999999999882723E-01     0.0000000000000000E+00 
    1.0000000000000000E+00     4.9999999999869210E-01     0.0000000000000000E+00 
    1.0000000000000000E+00     4.9999999999899403E-02     0.0000000000000000E+00 
    1.0000000000000000E+00     5.9999999999894504E-01     0.0000000000000000E+00 
    1.0000000000000000E+00     6.4999999999907687E-01     0.0000000000000000E+00 
    1.0000000000000000E+00     6.9999999999920870E-01     0.0000000000000000E+00 
    1.0000000000000000E+00     7.4999999999934064E-01     0.0000000000000000E+00 
    1.0000000000000000E+00     7.9999999999947247E-01     0.0000000000000000E+00 
    1.0000000000000000E+00     8.4999999999960441E-01     0.0000000000000000E+00 
    1.0000000000000000E+00     8.9999999999973623E-01     0.0000000000000000E+00 
    1.0000000000000000E+00     9.4999999999986817E-01     0.0000000000000000E+00 
    4.7500000000196618E-01     1.0000000000000000E+00     0.0000000000000000E+00 
    9.2499999999968763E-01     1.0000000000000000E+00     0.0000000000000000E+00 
    8.7499999999961831E-01     1.0000000000000000E+00     0.0000000000000000E+00 
    8.2499999999982654E-01     1.0000000000000000E+00     0.0000000000000000E+00 
    7.7500000000017355E-01     1.0000000000000000E+00     0.0000000000000000E+00 
    7.2500000000052045E-01     1.0000000000000000E+00     0.0000000000000000E+00 
    6.7500000000086724E-01     1.0000000000000000E+00     0.0000000000000000E+00 
    6.2500000000121403E-01     1.0000000000000000E+00     0.0000000000000000E+00 
    5.7500000000156093E-01     1.0000000000000000E+00     0.0000000000000000E+00 
    5.2500000000189684E-01     1.0000000000000000E+00     0.0000000000000000E+00 
    9.7499999999989595E-01     1.0000000000000000E+00     0.0000000000000000E+00 
    4.2500000000176902E-01     1.0000000000000000E+00     0.0000000000000000E+00 
    3.7500000000156092E-01     1.0000000000000000E+00     0.0000000000000000E+00 
    3.2500000000135282E-01     1.0000000000000000E+00     0.0000000000000000E+00 
    2.7500000000114472E-01     1.0000000000000000E+00     0.0000000000000000E+00 
    2.2500000000093659E-01     1.0000000000000000E+00     0.0000000000000000E+00 
    1.7500000000072849E-01     1.0000000000000000E+00     0.0000000000000000E+00 
    1.2500000000052039E-01     1.0000000000000000E+00     0.0000000000000000E+00 
    7.5000000000312261E-02     1.0000000000000000E+00     0.0000000000000000E+00 
    2.5000000000104109E-02     1.0000000000000000E+00     0.0000000000000000E+00 
    4.5000000000187301E-01     1.0000000000000000E+00     0.0000000000000000E+00 
    8.9999999999958358E-01     1.0000000000000000E+00     0.0000000000000000E+00 
    8.4999999999965303E-01     1.0000000000000000E+00     0.0000000000000000E+00 
    8.0000000000000004E-01     1.0000000000000000E+00     0.0000000000000000E+00 
    7.5000000000034706E-01     1.0000000000000000E+00     0.0000000000000000E+00 
    7.0000000000069384E-01     1.0000000000000000E+00     0.0000000000000000E+00 
    6.5000000000104063E-01     1.0000000000000000E+00     0.0000000000000000E+00 
    6.0000000000138742E-01     1.0000000000000000E+00     0.0000000000000000E+00 
    5.5000000000173432E-01     1.0000000000000000E+00     0.0000000000000000E+00 
    5.0000000000205946E-01     1.0000000000000000E+00     0.0000000000000000E+00 
    9.4999999999979179E-01     1.0000000000000000E+00     0.0000000000000000E+00 
    4.0000000000166491E-01     1.0000000000000000E+00     0.0000000000000000E+00 
    3.5000000000145681E-01     1.0000000000000000E+00     0.0000000000000000E+00 
    3.0000000000124871E-01     1.0000000000000000E+00     0.0000000000000000E+00 
    2.5000000000104061E-01     1.0000000000000000E+00     0.0000000000000000E+00 
    2.0000000000083251E-01     1.0000000000000000E+00     0.0000000000000000E+00 
    1.5000000000062441E-01     1.0000000000000000E+00     0.0000000000000000E+00 
    1.0000000000041630E-01     1.0000000000000000E+00     0.0000000000000000E+00 
[...]
CELL_DATA 1600 
SCALARS Pressure double 1 
LOOKUP_TABLE default 

    8.3279661520202319E-01 
    8.1399660058630396E-01 
    8.1390022107053972E-01 
    8.3088454366618969E-01 
    8.2911490398488585E-01 
    8.1372566802477175E-01 
    8.1348856182337426E-01 
    8.2747760867992048E-01 
    8.2595995523406585E-01 
    8.1320179657369829E-01 
    8.1287616046949174E-01 
    8.2455050495930138E-01 
    8.2323911630027757E-01 
    8.1252069016831485E-01 
    8.1214295868397834E-01 
    8.2201683323263930E-01 
    8.2087575483023578E-01 
    8.1174931387286553E-01 
    8.1134507720384552E-01 
    8.1980891084741059E-01 
    8.1881014930217122E-01 
    8.1093470991282868E-01 
    8.1052195214318601E-01 
    8.1787403696305894E-01 
    8.1699577205308238E-01 
    8.1010993961229338E-01 
    8.0970130153077857E-01 
    8.1617110799889026E-01 
    8.1539628696281075E-01 
    8.0929824285415009E-01 
    8.0890261342272685E-01 
    8.1466798195266743E-01 
    8.1398324641414432E-01 
    8.0851596611739596E-01 
    8.0813960580597188E-01 
    8.1333947033375187E-01 
    8.1273434200076000E-01 
    8.0777463056322607E-01 
    8.0742196640563957E-01 
    8.1216581468726023E-01 
    8.1163207760466849E-01 
    8.0708239658068359E-01 
    8.0675658628277158E-01 
    8.1113153058230258E-01 
    8.1066276198997278E-01 
    8.0644510352818910E-01 
    8.0614843680453019E-01 
    8.1022452949278601E-01 
    8.0981574328378181E-01 
    8.0586701001254868E-01 
    8.0560119513667228E-01 
    8.0943545148967877E-01 
    8.0908282748777449E-01 
    8.0535132301187240E-01 
    8.0511769249667897E-01 
    8.0875715890855993E-01 
    8.0845783812905547E-01 
    8.0490057831228734E-01 
    8.0470023776272548E-01 
    8.0818435408538392E-01 
    8.0793628524663663E-01 
    8.0451691650544221E-01 
    8.0435085348362423E-01 
    8.0771329358677479E-01 
    8.0751511934202436E-01 
    8.0420228503055835E-01 
    8.0407144792339336E-01 
    8.0734157617163460E-01 
    8.0719254579557331E-01 
    8.0395858051058533E-01 
    8.0386391894608933E-01 
    8.0706796932365232E-01 
    8.0696782557023827E-01 
    8.0378767826094955E-01 
    8.0372998214102431E-01 
    8.0689205987261048E-01 
    8.0684033344566142E-01 
    8.0369062790246593E-01 
    8.0366859824802916E-01 
    8.0681135701148732E-01 
    8.0289686813362093E-01 
    7.9282533617624373E-01 
    7.9281630979999618E-01 
    8.0287420975455925E-01 
    8.0282947053544707E-01 
    7.9279833660373833E-01 
    7.9277160210168973E-01 
    8.0276372534850116E-01 
    8.0267835079605865E-01 
    7.9273637627738425E-01 
    7.9269300649209495E-01 
    8.0257492259763319E-01 
    8.0245513564165238E-01 
    7.9264190776431986E-01 
    7.9258355239933787E-01 
    8.0232074273672627E-01 
    8.0217350853954372E-01 
    7.9251845976858504E-01 
    7.9244718663800906E-01 
    8.0201517556650825E-01 
    8.0184743973391159E-01 
    7.9237031825761173E-01 
    7.9228846031742151E-01 
    8.0167193335512910E-01 
    8.0149021392918207E-01 
    7.9220223180751803E-01 
    7.9211225877547364E-01 
    8.0130375738809123E-01 
    8.0111395474129565E-01 
    7.9201916894575752E-01 
    7.9192358714759992E-01 
    8.0092211127461266E-01 
    8.0072944763811282E-01 
    7.9182613148739089E-01 
    7.9172741019674708E-01 
    8.0053710229965647E-01 
    8.0034613495518725E-01 
    7.9162801908626845E-01 
    7.9152853953658298E-01 
    8.0015753057849448E-01 
    7.9997220386638546E-01 
    7.9142953696165141E-01 
    7.9133155968383373E-01 
    7.9979100389357494E-01 
    7.9961471883801016E-01 
    7.9123513816543667E-01 
    7.9114078454700731E-01 
    7.9944408067409067E-01 
    7.9927976976023241E-01 
    7.9104899244823157E-01 
    7.9096023699271134E-01 
    7.9912241926991334E-01 
    7.9897261943280851E-01 
    7.9087497502276805E-01 
    7.9079364547424724E-01 
    7.9883092156550861E-01 
    7.9869784187956050E-01 
    7.9071666988290945E-01 
    7.9064445299076014E-01 
    7.9857386505674044E-01 
    7.9845944757302001E-01 
    7.9057738340632711E-01 
    7.9051583423159422E-01 
    7.9835502072104403E-01 
    7.9826099319107635E-01 
    7.9046016345852177E-01 
    7.9041071364519722E-01 
    7.9817775282012382E-01 
    7.9810566639076463E-01 
    7.9036780957584185E-01 
    7.9033175032270842E-01 
    7.9804507411732706E-01 
    7.9799626828531423E-01 
    7.9030278564240597E-01 
    7.9028104996448389E-01 
    7.9795942339946291E-01 
    7.9793439560916746E-01 
    7.9026640624565181E-01 
    7.9025829827694238E-01 
    7.9792043507755828E-01 
    7.8263166685244456E-01 
    7.7197367592174915E-01 
    7.7197109061302072E-01 
    7.8262720115343887E-01 
    7.8261829664183513E-01 
    7.7196593641941824E-01 
    7.7195824716539529E-01 
    7.8260501640340818E-01 
    7.8258745266773089E-01 
    7.7194806942507788E-01 
    7.7193546384298051E-01 
    7.8256572752006859E-01 
    7.8253999166813371E-01 
    7.7192050511523491E-01 
    7.7190328151025767E-01 
    7.8251042250761504E-01 
    7.8247722186851454E-01 
    7.7188389418956227E-01 
    7.7186245642495444E-01 
    7.8244061360894801E-01 
    7.8240084115114472E-01 
    7.7183909275682694E-01 
    7.7181393811891141E-01 
    7.8235816502298705E-01 
    7.8231286045101189E-01 
    7.7178713694646084E-01 
    7.7175884228067426E-01 
    7.8226521503910229E-01 
    7.8221552655829640E-01 
    7.7172921487977075E-01 
    7.7169842234551689E-01 
    7.8216410086609356E-01 
    7.8211124996788806E-01 
    7.7166663827278048E-01 
    7.7163404142868575E-01 
    7.8205729022846726E-01 
    7.8200254073771791E-01 
    7.7160081496706345E-01 
    7.7156714568314344E-01 
    7.8194732183169502E-01 
    7.8189195376791953E-01 
    7.7153322331276275E-01 
    7.7149923987977553E-01 
    7.8183675555210386E-01 
    7.8178204391238015E-01 
    7.7146538909480478E-01 
    7.7143186580791090E-01 
    7.8172813241640393E-01 
    7.8167533072634432E-01 
    7.7139886551704007E-01 
    7.7136658393297974E-01 
    7.8162394398651647E-01 
    7.8157427233793497E-01 
    7.7133521659947391E-01 
    7.7130495856299497E-01 
    7.8152661055264150E-01 
    7.8148124777672612E-01 
    7.7127600407813568E-01 
    7.7124854631658535E-01 
    7.8143846736107780E-01 
    7.8139854673497544E-01 
    7.7122277700907449E-01 
    7.7119888586501728E-01 
    7.8136175722028745E-01 
    7.8132836354496082E-01 
    7.7117705942459047E-01 
    7.7115747856186434E-01 
    7.8129862246960191E-01 
    7.8127277906563664E-01 
    7.7114031284052775E-01 
    7.7112570755886500E-01 
    7.8125105694268204E-01 
    7.8123363319703720E-01 
    7.7111375409409855E-01 
    7.7110442485478881E-01 
    7.8122057762614916E-01 
    7.8121173853700465E-01 
    7.7109746456904171E-01 
    7.7109291796953872E-01 
    7.8120676542122003E-01 
    7.6073616303886360E-01 
    7.4888509224262156E-01 
    7.4888377201761391E-01 
    7.6073443062004531E-01 
    7.6073097955317859E-01 
    7.4888114467201961E-01 
    7.4887723183735511E-01 
    7.6072583455702825E-01 
    7.6071902702947269E-01 
    7.4887205933093115E-01 
    7.4886565791111281E-01 
    7.6071059614297032E-01 
    7.6070058904314941E-01 
    7.4885806349624850E-01 
    7.4884931714487524E-01 
    7.6068906071738651E-01 
    7.6067607372586299E-01 
    7.4883946493327780E-01 
    7.4882855778349389E-01 
    7.6066169786553095E-01 
    7.6064600979755648E-01 
    7.4881665126536712E-01 
    7.4880380538424240E-01 
    7.6062909265349765E-01 
    7.6061103562888366E-01 
    7.4879008436041850E-01 
    7.4877555640378746E-01 
    7.6059193356978194E-01 
    7.6057188655640839E-01 
    7.4876029348566653E-01 
    7.4874437110901093E-01 
    7.6055099948699867E-01 
    7.6052938166465867E-01 
    7.4872786807767822E-01 
    7.4871086626498951E-01 
    7.6050714638955486E-01 
    7.6048441055850047E-01 
    7.4869345038142632E-01 
    7.4867570774080205E-01 
    7.6046129427367437E-01 
    7.6043792046182523E-01 
    7.4865772802358221E-01 
    7.4863960303506139E-01 
    7.6041441450479708E-01 
    7.6039090388146702E-01 
    7.4862142645465612E-01 
    7.4860329357034705E-01 
    7.6036751782004364E-01 
    7.6034438695781814E-01 
    7.4858530098874643E-01 
    7.4856754630549127E-01 
    7.6032164300236671E-01 
    7.6029941838279436E-01 
    7.4855012771092577E-01 
    7.4853314348916766E-01 
    7.6027784586989744E-01 
    7.6025705812607935E-01 
    7.4851669133846177E-01 
    7.4850086738482202E-01 
    7.6023718711126431E-01 
    7.6021836320258107E-01 
    7.4848576465405792E-01 
    7.4847147055614072E-01 
    7.6020071374578013E-01 
    7.6018436046232629E-01 
    7.4845806250609070E-01 
    7.4844559990391357E-01 
    7.6016941450110109E-01 
    7.6015596651972517E-01 
    7.4843410873437388E-01 
    7.4842355053159881E-01 
    7.6014406601513684E-01 
    7.6013367684492250E-01 
    7.4841375592143344E-01 
    7.4840426774198632E-01 
    7.6012457869030559E-01 
    7.6011615831626977E-01 
    7.4839390840562736E-01 
    7.4838457800122371E-01 
    7.6010928936858779E-01 
    7.3641750477920942E-01 
    7.2334190382906638E-01 
    7.2334090630825509E-01 
    7.3641639592854724E-01 
    7.3641419127518959E-01 
    7.2333892437434955E-01 
    7.2333597853210085E-01 
    7.3641091153324201E-01 
    7.3640658059250919E-01 
    7.2333209206520588E-01 
    7.2332729118262851E-01 
    7.3640122594947155E-01 
    7.3639487889898148E-01 
    7.2332160516728372E-01 
    7.2331506642633114E-01 
    7.3638757456260662E-01 
    7.3637935184036540E-01 
    7.2330771048668852E-01 
    7.2329957596157557E-01 
    7.3637025332447714E-01 
    7.3636032519368122E-01 
    7.2329070450225119E-01 
    7.2328114074305105E-01 
    7.3634961709775193E-01 
    7.3633818203748069E-01 
    7.2327093224456862E-01 
    7.2326012943800100E-01 
    7.3632607624311242E-01 
    7.3631335905295814E-01 
    7.2324878557261907E-01 
    7.2323695666768739E-01 
    7.3630009279315312E-01 
    7.3628634265901494E-01 
    7.2322470146975359E-01 
    7.2321208141590987E-01 
    7.3627217659806377E-01 
    7.3625766519434799E-01 
    7.2319916060333933E-01 
    7.2318600576510050E-01 
    7.3624288155322770E-01 
    7.3622790118506520E-01 
    7.2317268625157483E-01 
    7.2315927401616198E-01 
    7.3621280188524407E-01 
    7.3619766360632455E-01 
    7.2314584360244361E-01 
    7.2313247212773202E-01 
    7.3618256831561435E-01 
    7.3616759982729574E-01 
    7.2311923925402721E-01 
    7.2310622713066208E-01 
    7.3615284359138833E-01 
    7.3613838641011087E-01 
    7.2309352028104668E-01 
    7.2308120538462684E-01 
    7.3612431603168793E-01 
    7.3611072053467441E-01 
    7.2306937086608114E-01 
    7.2305810613055654E-01 
    7.3609768734735204E-01 
    7.3608530161618491E-01 
    7.2304750014373143E-01 
    7.2303763878324800E-01 
    7.3607364338201076E-01 
    7.3606278251096502E-01 
    7.2302859984996137E-01 
    7.2302044353845496E-01 
    7.3605276927272401E-01 
    7.3604361618485770E-01 
    7.2301319383197538E-01 
    7.2300680055651534E-01 
    7.3603526137236952E-01 
    7.3602748864887446E-01 
    7.2300105399582182E-01 
    7.2299535472193821E-01 
    7.3601972627055201E-01 
    7.3601036775985418E-01 
    7.2298803193746430E-01 
    7.2298110800186166E-01 
    7.3600160332355502E-01 
    7.0967062035925976E-01 
    6.9541691796074689E-01 
    6.9541599944073518E-01 
    7.0966967785877866E-01 
    7.0966780591335166E-01 
    6.9541417530386707E-01 
    6.9541146564869916E-01 
    7.0966502485615068E-01 
    7.0966135759472415E-01 
    6.9540789302195671E-01 
    6.9540348210584535E-01 
    7.0965682951019426E-01 
    7.0965146855144212E-01 
    6.9539825975267477E-01 
    6.9539225502331647E-01 
    7.0964530528605629E-01 
    7.0963837291410881E-01 
    6.9538549920308501E-01 
    6.9537802579832697E-01 
    7.0963070725883692E-01 
    7.0962234674408065E-01 
    6.9536987051923860E-01 
    6.9536107125320656E-01 
    7.0961333236483848E-01 
    7.0960370765503167E-01 
    6.9535166803155468E-01 
    6.9534170299140208E-01 
    7.0959351865512621E-01 
    7.0958281388134603E-01 
    6.9533122033346284E-01 
    6.9532026627588128E-01 
    7.0957164429760955E-01 
    7.0956006329087729E-01 
    6.9530888900354182E-01 
    6.9529713861161502E-01 
    7.0954812665024602E-01 
    7.0953589254973515E-01 
    6.9528506704129767E-01 
    6.9527272800465323E-01 
    7.0952342153424108E-01 
    7.0951077650743699E-01 
    6.9526017689399600E-01 
    6.9524747066911208E-01 
    7.0949802271931406E-01 
    7.0948522774932599E-01 
    6.9523466771236442E-01 
    6.9522182763666229E-01 
    7.0947246147821397E-01 
    7.0945979603675924E-01 
    6.9520901102317478E-01 
    6.9519627905227588E-01 
    7.0944730571137482E-01 
    7.0943506677184887E-01 
    6.9518369296848059E-01 
    6.9517131328036896E-01 
    7.0942315716035953E-01 
    7.0941165593289013E-01 
    6.9515919852483354E-01 
    6.9514740329196401E-01 
    7.0940064225431576E-01 
    7.0939019357684729E-01 
    6.9513597495286461E-01 
    6.9512494803369906E-01 
    7.0938038229824385E-01 
    7.0937126953661411E-01 
    6.9511433416480017E-01 
    6.9510410335021522E-01 
    7.0936289330805002E-01 
    7.0935524537907602E-01 
    6.9509414703277306E-01 
    6.9508419795019061E-01 
    7.0934822299259193E-01 
    7.0934151356785879E-01 
    6.9507362424015562E-01 
    6.9506076920761772E-01 
    7.0933425590078891E-01 
    7.0932550629166058E-01 
    6.9504671057685297E-01 
    6.9503890785518641E-01 
    7.0931884689068503E-01 
    6.8059340828233916E-01 
    6.6521088839241527E-01 
    6.6520998226038475E-01 
    6.8059250019461115E-01 
    6.8059069681473605E-01 
    6.6520818270877891E-01 
    6.6520550973595816E-01 
    6.8058801815267411E-01 
    6.8058448667575677E-01 
    6.6520198588292467E-01 
    6.6519763560175271E-01 
    6.8058012682180435E-01 
    6.8057496498321790E-01 
    6.6519248519642327E-01 
    6.6518656285071243E-01 
    6.8056902953823939E-01 
    6.8056235087531036E-01 
    6.6517989866549765E-01 
    6.6517252469105570E-01 
    6.8055496140436411E-01 
    6.8054689555684733E-01 
    6.6516447495300923E-01 
    6.6515578547347198E-01 
    6.8053818977717540E-01 
    6.8052888250777643E-01 
    6.6514649428932737E-01 
    6.6513664146927809E-01 
    6.8051901416910066E-01 
    6.8050862713522964E-01 
    6.6512626913087725E-01 
    6.6511542145829383E-01 
    6.8049776570503340E-01 
    6.8048647606813450E-01 
    6.6510414472109880E-01 
    6.6509248729379877E-01 
    6.8047480626416634E-01 
    6.8046280613285737E-01 
    6.6508049967513327E-01 
    6.6506823450513231E-01 
    6.8045052725118316E-01 
    6.8043802285199795E-01 
    6.6505574657639444E-01 
    6.6504309283365715E-01 
    6.8042534771584851E-01 
    6.8041255802356126E-01 
    6.6503033235191722E-01 
    6.6501752627715738E-01 
    6.8039971115075815E-01 
    6.8038686537512538E-01 
    6.6500473770338009E-01 
    6.6499203144199548E-01 
    6.8037407945017681E-01 
    6.8036141197015254E-01 
    6.6497947360866416E-01 
    6.6496713089696091E-01 
    6.8034892039958828E-01 
    6.8033665954839562E-01 
    6.6495506930456971E-01 
    6.6494335187869147E-01 
    6.8032467909961469E-01 
    6.8031301946052136E-01 
    6.6493203465136363E-01 
    6.6492115911337712E-01 
    6.8030170453186412E-01 
    6.8029072856742634E-01 
    6.6491073776919951E-01 
    6.6490072497008046E-01 
    6.8028003106861556E-01 
    6.8026944528668776E-01 
    6.6489095309663349E-01 
    6.6488097296648851E-01 
    6.8025857937775769E-01 
    6.8024648697166334E-01 
    6.6486957777382061E-01 
    6.6485437788907920E-01 
    6.8023063186622568E-01 
    6.8021392631771316E-01 
    6.6483930336419239E-01 
    6.6483180855271040E-01 
    6.8020563568082171E-01 
    6.4927815863407412E-01 
    6.3280238756682838E-01 
    6.3280145681828892E-01 
    6.4927724380603413E-01 
    6.4927542666586591E-01 
    6.3279960761027043E-01 
    6.3279685947522002E-01 
    6.4927272700125327E-01 
    6.4926916715538940E-01 
    6.3279323451293001E-01 
    6.3278875651433286E-01 
    6.4926477126452720E-01 
    6.4925956514778793E-01 
    6.3278345080256559E-01 
    6.3277734422312493E-01 
    6.4925357631680525E-01 
    6.4924683400693572E-01 
    6.3277046516705115E-01 
    6.3276284359762280E-01 
    6.4923936920770209E-01 
    6.4923121468756928E-01 
    6.3275451107235925E-01 
    6.3274550075823566E-01 
    6.4922240501275563E-01 
    6.4921297656083343E-01 
    6.3273584743972267E-01 
    6.3272558751950292E-01 
    6.4920296752987272E-01 
    6.4919241794349480E-01 
    6.3271475901139640E-01 
    6.3270340152444848E-01 
    6.4918136965170026E-01 
    6.4916986632669171E-01 
    6.3269155623631546E-01 
    6.3267926585301382E-01 
    6.4915795345212357E-01 
    6.4914567830313774E-01 
    6.3266657455062392E-01 
    6.3265352789244811E-01 
    6.4913308991304763E-01 
    6.4912023902031724E-01 
    6.3264017271208584E-01 
    6.3262655694830161E-01 
    6.4910717798613171E-01 
    6.4909396066763325E-01 
    6.3261272941052327E-01 
    6.3259873944262346E-01 
    6.4908064222356265E-01 
    6.4906727881532333E-01 
    6.3258463643433038E-01 
    6.3257046909865899E-01 
    6.4905392714329091E-01 
    6.4904064371771986E-01 
    6.3255628437974387E-01 
    6.3254212575736934E-01 
    6.4902748369060126E-01 
    6.4901449893776109E-01 
    6.3252803052783357E-01 
    6.3251402526824008E-01 
    6.4900173481286139E-01 
    6.4898922444854179E-01 
    6.3250011790697014E-01 
    6.3248628305851629E-01 
    6.4897697830171930E-01 
    6.4896496391450487E-01 
    6.3247243297270650E-01 
    6.3245835468691003E-01 
    6.4895306387313900E-01 
    6.4894097907640436E-01 
    6.3244355663692520E-01 
    6.3242683148615186E-01 
    6.4892796989367352E-01 
    6.4891205012324937E-01 
    6.3240506061775292E-01 
    6.3238150473641197E-01 
    6.4889316452091594E-01 
    6.4887900866888215E-01 
    6.3236721142765095E-01 
    6.3236186303845487E-01 
    6.4887288177997193E-01 
    6.1578877661506903E-01 
    5.9824011383879505E-01 
    5.9823913474026613E-01 
    6.1578782553941380E-01 
    6.1578593548946259E-01 
    5.9823718837712270E-01 
    5.9823429380515392E-01 
    6.1578312582951189E-01 
    6.1577941856328267E-01 
    5.9823047273720220E-01 
    5.9822574848087473E-01 
    6.1577483736255145E-01 
    6.1576940736905428E-01 
    5.9822014569485527E-01 
    5.9821369034638672E-01 
    6.1576315517403002E-01 
    6.1575610884412091E-01 
    5.9820640972490469E-01 
    5.9819833247009668E-01 
    6.1574829795799879E-01 
    6.1573975364291722E-01 
    5.9818948860055288E-01 
    5.9817990953803779E-01 
    6.1573050860802481E-01 
    6.1572059717370298E-01 
    5.9816962812535723E-01 
    5.9815867863664585E-01 
    6.1571005529687439E-01 
    6.1569892059217657E-01 
    5.9814709677884759E-01 
    5.9813491968265942E-01 
    6.1568723234852785E-01 
    6.1567503153996961E-01 
    5.9812218588029475E-01 
    5.9810893526610842E-01 
    6.1566236082874604E-01 
    6.1564926455723146E-01 
    5.9809520903417135E-01 
    5.9808104958404984E-01 
    6.1563578872330638E-01 
    6.1562198093074916E-01 
    5.9806650038177844E-01 
    5.9805160575651917E-01 
    6.1560789030148100E-01 
    6.1559356732900894E-01 
    5.9803641060321711E-01 
    5.9802095994506388E-01 
    6.1557906364017101E-01 
    6.1556443161164054E-01 
    5.9800529828183435E-01 
    5.9798946860184077E-01 
    6.1554972375180339E-01 
    6.1553499169449566E-01 
    5.9797351084822137E-01 
    5.9795745946657330E-01 
    6.1552028453177876E-01 
    6.1550564597915991E-01 
    5.9794133933426452E-01 
    5.9792515867730534E-01 
    6.1549110938366014E-01 
    6.1547668852593906E-01 
    5.9790889599965713E-01 
    5.9789247412930757E-01 
    6.1546235966313390E-01 
    6.1544802377491270E-01 
    5.9787570374277865E-01 
    5.9785814548623928E-01 
    6.1543341909484317E-01 
    6.1541789064056851E-01 
    5.9783872390309278E-01 
    5.9781459917030622E-01 