# vtk DataFile Version 2.0
Pressure Field Data 
ASCII 
DATASET UNSTRUCTURED_GRID 

POINTS 1681 double 

    0.0000000000000000E+00     0.0000000000000000E+00     0.0000000000000000E+00 
    1.0000000000000000E+00     0.0000000000000000E+00     0.0000000000000000E+00 
    1.0000000000000000E+00     1.0000000000000000E+00     0.0000000000000000E+00 
    0.0000000000000000E+00     1.0000000000000000E+00     0.0000000000000000E+00 
    5.2499999999875258E-01     0.0000000000000000E+00     0.0000000000000000E+00 
    7.4999999999856765E-02     0.0000000000000000E+00     0.0000000000000000E+00 
    1.2499999999975850E-01     0.0000000000000000E+00     0.0000000000000000E+00 
    1.7499999999962990E-01     0.0000000000000000E+00     0.0000000000000000E+00 
    2.2499999999948389E-01     0.0000000000000000E+00     0.0000000000000000E+00 
    2.7499999999933789E-01     0.0000000000000000E+00     0.0000000000000000E+00 
    3.2499999999919210E-01     0.0000000000000000E+00     0.0000000000000000E+00 
    3.7499999999904610E-01     0.0000000000000000E+00     0.0000000000000000E+00 
    4.2499999999890020E-01     0.0000000000000000E+00     0.0000000000000000E+00 
    4.7499999999875958E-01     0.0000000000000000E+00     0.0000000000000000E+00 
    2.4999999999949701E-02     0.0000000000000000E+00     0.0000000000000000E+00 
    5.7499999999887907E-01     0.0000000000000000E+00     0.0000000000000000E+00 
    6.2499999999901101E-01     0.0000000000000000E+00     0.0000000000000000E+00 
    6.7499999999914273E-01     0.0000000000000000E+00     0.0000000000000000E+00 
    7.2499999999927467E-01     0.0000000000000000E+00     0.0000000000000000E+00 
    7.7499999999940661E-01     0.0000000000000000E+00     0.0000000000000000E+00 
    8.2499999999953844E-01     0.0000000000000000E+00     0.0000000000000000E+00 
    8.7499999999967026E-01     0.0000000000000000E+00     0.0000000000000000E+00 
    9.2499999999980220E-01     0.0000000000000000E+00     0.0000000000000000E+00 
    9.7499999999993414E-01     0.0000000000000000E+00     0.0000000000000000E+00 
    5.4999999999881310E-01     0.0000000000000000E+00     0.0000000000000000E+00 
    9.9999999999814140E-02     0.0000000000000000E+00     0.0000000000000000E+00 
    1.4999999999970290E-01     0.0000000000000000E+00     0.0000000000000000E+00 
    1.9999999999955689E-01     0.0000000000000000E+00     0.0000000000000000E+00 
    2.4999999999941089E-01     0.0000000000000000E+00     0.0000000000000000E+00 
    2.9999999999926502E-01     0.0000000000000000E+00     0.0000000000000000E+00 
    3.4999999999911913E-01     0.0000000000000000E+00     0.0000000000000000E+00 
    3.9999999999897312E-01     0.0000000000000000E+00     0.0000000000000000E+00 
    4.4999999999882723E-01     0.0000000000000000E+00     0.0000000000000000E+00 
    4.9999999999869210E-01     0.0000000000000000E+00     0.0000000000000000E+00 
    4.9999999999899403E-02     0.0000000000000000E+00     0.0000000000000000E+00 
    5.9999999999894504E-01     0.0000000000000000E+00     0.0000000000000000E+00 
    6.4999999999907687E-01     0.0000000000000000E+00     0.0000000000000000E+00 
    6.9999999999920870E-01     0.0000000000000000E+00     0.0000000000000000E+00 
    7.4999999999934064E-01     0.0000000000000000E+00     0.0000000000000000E+00 
    7.9999999999947247E-01     0.0000000000000000E+00     0.0000000000000000E+00 
    8.4999999999960441E-01     0.0000000000000000E+00     0.0000000000000000E+00 
    8.9999999999973623E-01     0.0000000000000000E+00     0.0000000000000000E+00 
    9.4999999999986817E-01     0.0000000000000000E+00     0.0000000000000000E+00 
    1.0000000000000000E+00     5.2499999999875258E-01     0.0000000000000000E+00 
    1.0000000000000000E+00     7.4999999999856765E-02     0.0000000000000000E+00 
    1.0000000000000000E+00     1.2499999999975850E-01     0.0000000000000000E+00 
    1.0000000000000000E+00     1.7499999999962990E-01     0.0000000000000000E+00 
    1.0000000000000000E+00     2.2499999999948389E-01     0.0000000000000000E+00 
    1.0000000000000000E+00     2.7499999999933789E-01     0.0000000000000000E+00 
    1.0000000000000000E+00     3.2499999999919210E-01     0.0000000000000000E+00 
    1.0000000000000000E+00     3.7499999999904610E-01     0.0000000000000000E+00 
    1.0000000000000000E+00     4.2499999999890020E-01     0.0000000000000000E+00 
    1.0000000000000000E+00     4.7499999999875958E-01     0.0000000000000000E+00 
    1.0000000000000000E+00     2.4999999999949701E-02     0.0000000000000000E+00 
    1.0000000000000000E+00     5.7499999999887907E-01     0.0000000000000000E+00 
    1.0000000000000000E+00     6.2499999999901101E-01     0.0000000000000000E+00 
    1.0000000000000000E+00     6.7499999999914273E-01     0.0000000000000000E+00 
    1.0000000000000000E+00     7.2499999999927467E-01     0.0000000000000000E+00 
    1.0000000000000000E+00     7.7499999999940661E-01     0.0000000000000000E+00 
    1.0000000000000000E+00     8.2499999999953844E-01     0.0000000000000000E+00 
    1.0000000000000000E+00     8.7499999999967026E-01     0.0000000000000000E+00 
    1.0000000000000000E+00     9.2499999999980220E-01     0.0000000000000000E+00 
    1.0000000000000000E+00     9.7499999999993414E-01     0.0000000000000000E+00 
    1.0000000000000000E+00     5.4999999999881310E-01     0.0000000000000000E+00 
    1.0000000000000000E+00     9.9999999999814140E-02     0.0000000000000000E+00 
    1.0000000000000000E+00     1.4999999999970290E-01     0.0000000000000000E+00 
    1.0000000000000000E+00     1.9999999999955689E-01     0.0000000000000000E+00 
    1.0000000000000000E+00     2.4999999999941089E-01     0.0000000000000000E+00 
    1.0000000000000000E+00     2.9999999999926502E-01     0.0000000000000000E+00 
    1.0000000000000000E+00     3.4999999999911913E-01     0.0000000000000000E+00 
    1.0000000000000000E+00     3.9999999999897312E-01     0.0000000000000000E+00 
    1.0000000000000000E+00     4.4999999999882723E-01     0.0000000000000000E+00 
    1.0000000000000000E+00     4.9999999999869210E-01     0.0000000000000000E+00 
    1.0000000000000000E+00     4.9999999999899403E-02     0.0000000000000000E+00 
    1.0000000000000000E+00     5.9999999999894504E-01     0.0000000000000000E+00 
    1.0000000000000000E+00     6.4999999999907687E-01     0.0000000000000000E+00 
    1.0000000000000000E+00     6.9999999999920870E-01     0.0000000000000000E+00 
    1.0000000000000000E+00     7.4999999999934064E-01     0.0000000000000000E+00 
    1.0000000000000000E+00     7.9999999999947247E-01     0.0000000000000000E+00 
    1.0000000000000000E+00     8.4999999999960441E-01     0.0000000000000000E+00 
    1.0000000000000000E+00     8.9999999999973623E-01     0.0000000000000000E+00 
    1.0000000000000000E+00     9.4999999999986817E-01     0.0000000000000000E+00 
    4.7500000000196618E-01     1.0000000000000000E+00     0.0000000000000000E+00 
    9.2499999999968763E-01     1.0000000000000000E+00     0.0000000000000000E+00 
    8.7499999999961831E-01     1.0000000000000000E+00     0.0000000000000000E+00 
    8.2499999999982654E-01     1.0000000000000000E+00     0.0000000000000000E+00 
    7.7500000000017355E-01     1.0000000000000000E+00     0.0000000000000000E+00 
    7.2500000000052045E-01     1.0000000000000000E+00     0.0000000000000000E+00 
    6.7500000000086724E-01     1.0000000000000000E+00     0.0000000000000000E+00 
    6.2500000000121403E-01     1.0000000000000000E+00     0.0000000000000000E+00 
    5.7500000000156093E-01     1.0000000000000000E+00     0.0000000000000000E+00 
    5.2500000000189684E-01     1.0000000000000000E+00     0.0000000000000000E+00 
    9.7499999999989595E-01     1.0000000000000000E+00     0.0000000000000000E+00 
    4.2500000000176902E-01     1.0000000000000000E+00     0.0000000000000000E+00 
    3.7500000000156092E-01     1.0000000000000000E+00     0.0000000000000000E+00 
    3.2500000000135282E-01     1.0000000000000000E+00     0.0000000000000000E+00 
    2.7500000000114472E-01     1.0000000000000000E+00     0.0000000000000000E+00 
    2.2500000000093659E-01     1.0000000000000000E+00     0.0000000000000000E+00 
    1.7500000000072849E-01     1.0000000000000000E+00     0.0000000000000000E+00 
    1.2500000000052039E-01     1.0000000000000000E+00     0.0000000000000000E+00 
    7.5000000000312261E-02     1.0000000000000000E+00     0.0000000000000000E+00 
    2.5000000000104109E-02     1.0000000000000000E+00     0.0000000000000000E+00 
    4.5000000000187301E-01     1.0000000000000000E+00     0.0000000000000000E+00 
    8.9999999999958358E-01     1.0000000000000000E+00     0.0000000000000000E+00 
    8.4999999999965303E-01     1.0000000000000000E+00     0.0000000000000000E+00 
    8.0000000000000004E-01     1.0000000000000000E+00     0.0000000000000000E+00 
    7.5000000000034706E-01     1.0000000000000000E+00     0.0000000000000000E+00 
    7.0000000000069384E-01     1.0000000000000000E+00     0.0000000000000000E+00 
    6.5000000000104063E-01     1.0000000000000000E+00     0.0000000000000000E+00 
    6.0000000000138742E-01     1.0000000000000000E+00     0.0000000000000000E+00 
    5.5000000000173432E-01     1.0000000000000000E+00     0.0000000000000000E+00 
    5.0000000000205946E-01     1.0000000000000000E+00     0.0000000000000000E+00 
    9.4999999999979179E-01     1.0000000000000000E+00     0.0000000000000000E+00 
    4.0000000000166491E-01     1.0000000000000000E+00     0.0000000000000000E+00 
    3.5000000000145681E-01     1.0000000000000000E+00     0.0000000000000000E+00 
    3.0000000000124871E-01     1.0000000000000000E+00     0.0000000000000000E+00 
    2.5000000000104061E-01     1.0000000000000000E+00     0.0000000000000000E+00 
    2.0000000000083251E-01     1.0000000000000000E+00     0.0000000000000000E+00 
    1.5000000000062441E-01     1.0000000000000000E+00     0.0000000000000000E+00 
    1.0000000000041630E-01     1.0000000000000000E+00     0.0000000000000000E+00 
[...]
CELL_DATA 1600 
SCALARS Pressure double 1 
LOOKUP_TABLE default 

    9.1776801400052677E-01 
    8.9822231937503572E-01 
    8.9812202831780785E-01 
    9.1583520912362215E-01 
    9.1403915112063638E-01 
    8.9793997742131615E-01 
    8.9769227212433145E-01 
    9.1237262413924136E-01 
    9.1082352019361679E-01 
    8.9739211515651551E-01 
    8.9705056297261476E-01 
    9.0938078219165397E-01 
    9.0803456487292311E-01 
    8.9667689644609982E-01 
    8.9627891649631086E-01 
    9.0677616308364661E-01 
    9.0559789852542572E-01 
    8.9586318695737821E-01 
    8.9543523598802299E-01 
    9.0449300413422118E-01 
    9.0345551670004043E-01 
    8.9499972385239746E-01 
    8.9456058306878772E-01 
    9.0248018047872225E-01 
    9.0156236195995199E-01 
    8.9412113570209784E-01 
    8.9368419167448343E-01 
    9.0069797505354021E-01 
    8.9988341567090746E-01 
    8.9325213126917524E-01 
    8.9282697444578019E-01 
    8.9911550463705892E-01 
    8.9839143792420117E-01 
    8.9241043913534202E-01 
    8.9200399031623900E-01 
    8.9770874329017114E-01 
    8.9706524250623720E-01 
    8.9160888137043171E-01 
    8.9122618897078154E-01 
    8.9645901845766884E-01 
    8.9588838649187374E-01 
    8.9085684254425401E-01 
    8.9050164918492813E-01 
    8.9535186947105205E-01 
    8.9484817605907352E-01 
    8.9016131474860005E-01 
    8.8983646174219211E-01 
    8.9437618183597645E-01 
    8.9393491288875881E-01 
    8.8952764452175248E-01 
    8.8923536222871391E-01 
    8.9352353157454845E-01 
    8.9314132419176384E-01 
    8.8896006982123843E-01 
    8.8870218749117624E-01 
    8.9278769032559568E-01 
    8.9246213365275295E-01 
    8.8846210868999531E-01 
    8.8824020690473859E-01 
    8.9216425398814025E-01 
    8.9189374031028767E-01 
    8.8803684119594584E-01 
    8.8785236025575232E-01 
    8.9165036435286948E-01 
    8.9143397393034063E-01 
    8.8768710416199503E-01 
    8.8754140152983174E-01 
    8.9124448399279743E-01 
    8.9108186001165846E-01 
    8.8741555579721543E-01 
    8.8730980350517241E-01 
    8.9094607824031624E-01 
    8.9083701876466781E-01 
    8.8722419916507045E-01 
    8.8715832210414369E-01 
    8.9075418041507481E-01 
    8.9069608287544788E-01 
    8.8711071811628983E-01 
    8.8708265112033691E-01 
    8.9066273478645308E-01 
    8.8609366945107082E-01 
    8.7474505272244540E-01 
    8.7473463208292690E-01 
    8.8606906036496624E-01 
    8.8602042782280854E-01 
    8.7471387943086376E-01 
    8.7468300756789685E-01 
    8.8594889910415497E-01 
    8.8585591596525393E-01 
    8.7464232094954086E-01 
    8.7459220864421061E-01 
    8.8574313068991273E-01 
    8.8561232472026730E-01 
    8.7453313426970303E-01 
    8.7446562505792158E-01 
    8.8546534580745984E-01 
    8.8530406045735754E-01 
    8.7439026100572814E-01 
    8.7430766457557707E-01 
    8.8513031863404235E-01 
    8.8494592815993955E-01 
    8.7421849118322492E-01 
    8.7412342058703241E-01 
    8.8475263672125581E-01 
    8.8455211979271520E-01 
    8.7402314921917845E-01 
    8.7391838345201245E-01 
    8.8434597313150343E-01 
    8.8413570876443104E-01 
    8.7380983376271237E-01 
    8.7369820974080636E-01 
    8.8392275361432615E-01 
    8.8370845009062537E-01 
    8.7358421587238699E-01 
    8.7346854802962393E-01 
    8.8349405811299730E-01 
    8.8328075815208751E-01 
    8.7335189059276297E-01 
    8.7323491413285714E-01 
    8.8306965496361478E-01 
    8.8286178176537800E-01 
    8.7311827358608163E-01 
    8.7300260685380260E-01 
    8.8265810466484429E-01 
    8.8245952719065035E-01 
    8.7288853376587994E-01 
    8.7277665534714577E-01 
    8.8226689481664078E-01 
    8.8208099939339546E-01 
    8.7266755332754753E-01 
    8.7256178983328037E-01 
    8.8190258342014738E-01 
    8.8173234409877355E-01 
    8.7245990718615418E-01 
    8.7236242771524541E-01 
    8.8157093710815937E-01 
    8.8141898001394081E-01 
    8.7226985343587882E-01 
    8.7218266534921973E-01 
    8.8127705516722543E-01 
    8.8114571180365509E-01 
    8.7210132190172396E-01 
    8.7202625568140635E-01 
    8.8102546672777482E-01 
    8.8091680219867319E-01 
    8.7195786639885597E-01 
    8.7189650584787015E-01 
    8.8082015775672073E-01 
    8.8073590803218049E-01 
    8.7184244506719988E-01 
    8.7179580114291966E-01 
    8.8066430682462704E-01 
    8.8060534984446082E-01 
    8.7175637130646799E-01 
    8.7172325802652617E-01 
    8.8055845316286907E-01 
    8.8052189690016658E-01 
    8.7169443483900177E-01 
    8.7167508106315206E-01 
    8.8049888484037220E-01 
    8.6303998534062665E-01 
    8.5064598126070523E-01 
    8.5064241036986821E-01 
    8.6303438900196427E-01 
    8.6302323515839674E-01 
    8.5063529780600611E-01 
    8.5062470021467629E-01 
    8.6300661102520226E-01 
    8.6298463747579834E-01 
    8.5061069042479120E-01 
    8.5059335839796391E-01 
    8.6295746968672371E-01 
    8.6292529580972610E-01 
    8.5057281114060035E-01 
    8.5054917213287651E-01 
    8.6288833482563210E-01 
    8.6284683402231865E-01 
    8.5052258052410079E-01 
    8.5049319020313197E-01 
    8.6280106629864828E-01 
    8.6275132740663019E-01 
    8.5046116879858502E-01 
    8.5042669664041026E-01 
    8.6269793320380939E-01 
    8.6264121696608309E-01 
    8.5038996570336212E-01 
    8.5035117854696507E-01 
    8.6258152679720512E-01 
    8.6251922316118568E-01 
    8.5031054726298871E-01 
    8.5026829243893387E-01 
    8.6245467655599617E-01 
    8.6238826534067703E-01 
    8.5022464214399973E-01 
    8.5017983094211969E-01 
    8.6232037372272730E-01 
    8.6225138990825534E-01 
    8.5013409893473191E-01 
    8.5008769083375291E-01 
    8.6218170441356845E-01 
    8.6211170853340169E-01 
    8.5004085506250548E-01 
    8.4999384287873447E-01 
    8.6204179295753658E-01 
    8.6197234652360943E-01 
    8.4994690750864399E-01 
    8.4990030327300681E-01 
    8.6190375508871353E-01 
    8.6183640049457888E-01 
    8.4985428467386015E-01 
    8.4980910538949339E-01 
    8.6177065958826604E-01 
    8.6170690323787003E-01 
    8.4976501708960062E-01 
    8.4972226791864192E-01 
    8.6164549524184386E-01 
    8.6158679095339608E-01 
    8.4968110037780631E-01 
    8.4964174811189863E-01 
    8.6153113529099368E-01 
    8.6147885950333991E-01 
    8.4960443066722657E-01 
    8.4956934439548837E-01 
    8.6143027542959361E-01 
    8.6138566465955724E-01 
    8.4953664582261634E-01 
    8.4950641980041308E-01 
    8.6134525708972698E-01 
    8.6130918688421565E-01 
    8.4947861562398219E-01 
    8.4945291111023857E-01 
    8.6127739875867126E-01 
    8.6124943927392361E-01 
    8.4942839732154707E-01 
    8.4940286074508475E-01 
    8.6122397701940345E-01 
    8.6119971912410165E-01 
    8.4937789433473043E-01 
    8.4936400441153603E-01 
    8.6118385325972668E-01 
    8.3745446342602259E-01 
    8.2343575305114303E-01 
    8.2343356714611660E-01 
    8.3745182693875497E-01 
    8.3744658039250419E-01 
    8.2342922048051026E-01 
    8.2342275504479223E-01 
    8.3743877015723711E-01 
    8.3742845226167439E-01 
    8.2341421976071771E-01 
    8.2340367039114615E-01 
    8.3741569285072015E-01 
    8.3740056828913878E-01 
    8.2339116961928471E-01 
    8.2337678700730976E-01 
    8.3738316499058563E-01 
    8.3736357909913028E-01 
    8.2336059886442836E-01 
    8.2334268805703059E-01 
    8.3734191608807162E-01 
    8.3731829031038107E-01 
    8.2332314378264804E-01 
    8.2330206132128414E-01 
    8.3729282452016784E-01 
    8.3726564937681969E-01 
    8.2327954177247120E-01 
    8.2325569178310465E-01 
    8.3723690293920749E-01 
    8.3720673015478253E-01 
    8.2323062326887986E-01 
    8.2320445313052237E-01 
    8.3717528234666805E-01 
    8.3714271670046025E-01 
    8.2317730296454927E-01 
    8.2314929876676490E-01 
    8.3710919575109033E-01 
    8.3707488686851261E-01 
    8.2312057062482347E-01 
    8.2309125239357839E-01 
    8.3703996173889772E-01 
    8.3700459583504816E-01 
    8.2306148134316215E-01 
    8.2303139776398737E-01 
    8.3696896786536779E-01 
    8.3693325918395067E-01 
    8.2300114450388606E-01 
    8.2297086639820016E-01 
    8.3689765313363995E-01 
    8.3686233427640955E-01 
    8.2294070952999665E-01 
    8.2291082021760109E-01 
    8.3682748743605329E-01 
    8.3679329642734912E-01 
    8.2288134355712794E-01 
    8.2285242122318814E-01 
    8.3675994225533745E-01 
    8.3672760040193606E-01 
    8.2282418800070578E-01 
    8.2279676608035157E-01 
    8.3669643650138070E-01 
    8.3666659908796726E-01 
    8.2277025527752268E-01 
    8.2274471553358397E-01 
    8.3663820684988255E-01 
    8.3661132519903336E-01 
    8.2272013413903988E-01 
    8.2269636088254550E-01 
    8.3658592114209784E-01 
    8.3656177121101194E-01 
    8.2267296971918602E-01 
    8.2264893090036240E-01 
    8.3653825707362739E-01 
    8.3651386342285794E-01 
    8.2262181854098515E-01 
    8.2259115741487354E-01 
    8.3648576956421727E-01 
    8.3645962133841056E-01 
    8.2256727940862084E-01 
    8.2255655999909805E-01 
    8.3644684615021059E-01 
    8.0858959624690985E-01 
    7.9292567293494010E-01 
    7.9292379928550438E-01 
    8.0858762725909072E-01 
    8.0858371347022251E-01 
    7.9292007526762365E-01 
    7.9291453877772156E-01 
    8.0857789445728157E-01 
    8.0857021551074204E-01 
    7.9290723288443377E-01 
    7.9289820485104923E-01 
    8.0856072706004889E-01 
    8.0854948466718390E-01 
    7.9288750602814939E-01 
    7.9287519185073774E-01 
    8.0853654902265393E-01 
    8.0852198589452473E-01 
    7.9286132182575164E-01 
    7.9284595949269421E-01 
    8.0850586603620656E-01 
    8.0848826506405680E-01 
    7.9282917235903894E-01 
    7.9281103181492552E-01 
    8.0846926331361457E-01 
    8.0844894568030079E-01 
    7.9279161303078094E-01 
    7.9277099483982860E-01 
    8.0842740144794545E-01 
    8.0840472410647002E-01 
    7.9274925960567844E-01 
    7.9272649307334153E-01 
    8.0838101115829986E-01 
    8.0835636391130805E-01 
    7.9270278419996054E-01 
    7.9267822495898443E-01 
    8.0833088725405577E-01 
    8.0830468940645805E-01 
    7.9265291010809180E-01 
    7.9262693690630925E-01 
    8.0827788163533654E-01 
    8.0825057791893884E-01 
    7.9260040475855442E-01 
    7.9257341475486520E-01 
    8.0822289453637119E-01 
    8.0819494954520943E-01 
    7.9254606905436964E-01 
    7.9251847003642428E-01 
    8.0816686209032085E-01 
    8.0813875145368630E-01 
    7.9249071909561319E-01 
    7.9246291487908949E-01 
    8.0811073569879111E-01 
    8.0808292966497008E-01 
    7.9243515062635572E-01 
    7.9240751001770560E-01 
    8.0805544189002931E-01 
    8.0802836970800307E-01 
    7.9238006045135745E-01 
    7.9235284169333231E-01 
    8.0800179112316350E-01 
    8.0797575074676842E-01 
    7.9232584577431842E-01 
    7.9229897931884308E-01 
    8.0795023425981349E-01 
    8.0792511935746281E-01 
    7.9227198791638132E-01 
    7.9224429036552435E-01 
    8.0790007456946467E-01 
    8.0787432956707550E-01 
    7.9221457581951327E-01 
    7.9217986676123209E-01 
    8.0784610042571170E-01 
    8.0781197759682954E-01 
    7.9213929775127834E-01 
    7.9210499644942445E-01 
    8.0777715012344919E-01 
    8.0775531004829804E-01 
    7.9208545151945631E-01 
    7.9207695907687115E-01 
    8.0774635185308363E-01 
    7.7645515232420714E-01 
    7.5918681757965989E-01 
    7.5918494065967002E-01 
    7.7645330258129941E-01 
    7.7644962540666851E-01 
    7.5918120800423150E-01 
    7.5917565449723123E-01 
    7.7644415722689797E-01 
    7.7643693940313485E-01 
    7.5916831984963506E-01 
    7.5915924701696480E-01 
    7.7642801692194896E-01 
    7.7641743818392550E-01 
    7.5914848188464668E-01 
    7.5913607321300525E-01 
    7.7640525498170321E-01 
    7.7639152250072840E-01 
    7.5912207263239850E-01 
    7.5910653463425048E-01 
    7.7637629930565510E-01 
    7.7635964730542795E-01 
    7.5908951654296786E-01 
    7.5907107846462074E-01 
    7.7634163169732462E-01 
    7.7632232089118214E-01 
    7.5905128321073168E-01 
    7.5903019619510426E-01 
    7.7630178641408731E-01 
    7.7628010279420212E-01 
    7.5900788529999785E-01 
    7.5898442070552741E-01 
    7.7625734742038621E-01 
    7.7623360037176825E-01 
    7.5895987467287740E-01 
    7.5893432126738347E-01 
    7.7620894420811526E-01 
    7.7618346370728186E-01 
    7.5890783600109368E-01 
    7.5888049536497570E-01 
    7.7615724552940857E-01 
    7.7613037777764371E-01 
    7.5885237620666179E-01 
    7.5882355488753461E-01 
    7.7610294940996261E-01 
    7.7607504943267536E-01 
    7.5879410611780962E-01 
    7.5876410131068439E-01 
    7.7604676576736942E-01 
    7.7601818361801056E-01 
    7.5873360619891239E-01 
    7.5870267728491891E-01 
    7.7598938305220844E-01 
    7.7596043530770908E-01 
    7.5867135637936578E-01 
    7.5863966187230780E-01 
    7.7593139695406588E-01 
    7.7590230028691554E-01 
    7.5860757412947133E-01 
    7.5857500967978853E-01 
    7.7587313676390601E-01 
    7.7584382679574959E-01 
    7.5854177244440502E-01 
    7.5850745376475748E-01 
    7.7581416077931975E-01 
    7.7578367393966385E-01 
    7.5847120673847246E-01 
    7.5843119145495153E-01 
    7.7575135286941999E-01 
    7.7571490432331158E-01 
    7.5838357484377616E-01 
    7.5832940846565988E-01 
    7.7567057260492178E-01 
    7.7562515698188017E-01 
    7.5828466673543449E-01 
    7.5825677734611452E-01 
    7.7559414870098964E-01 
    7.7557692201893003E-01 
    7.5824012998567325E-01 
    7.5823181621723745E-01 
    7.7556855481227582E-01 
    7.4112494302468768E-01 
    7.2226758280013159E-01 
    7.2226549735529899E-01 
    7.4112299140647420E-01 
    7.4111910794667457E-01 
    7.2226134423812083E-01 
    7.2225515386437433E-01 
    7.4111332568708976E-01 
    7.4110568244899822E-01 
    7.2224696133818100E-01 
    7.2223680447007244E-01 
    7.4109621902794931E-01 
    7.4108497878145152E-01 
    7.2222472327104981E-01 
    7.2221075980737892E-01 
    7.4107200753387881E-01 
    7.4105735355464675E-01 
    7.2219495814511603E-01 
    7.2217736430257362E-01 
    7.4104106754062915E-01 
    7.4102320258039944E-01 
    7.2215802618124969E-01 
    7.2213699346167171E-01 
    7.4100381409172311E-01 
    7.4098295972735617E-01 
    7.2211431745478394E-01 
    7.2209005089916156E-01 
    7.4096069924408658E-01 
    7.4093709432805399E-01 
    7.2206424769154187E-01 
    7.2203696253337157E-01 
    7.4091220836619465E-01 
    7.4088610614909123E-01 
    7.2200825046895545E-01 
    7.2197816628042488E-01 
    7.4085885348395997E-01 
    7.4083051668703237E-01 
    7.2194676368938582E-01 
    7.2191409429195530E-01 
    7.4080116191046907E-01 
    7.4077085423738842E-01 
    7.2188020611818127E-01 
    7.2184514165032310E-01 
    7.4073965644488271E-01 
    7.4070762728058204E-01 
    7.2180893504210553E-01 
    7.2177160812383401E-01 
    7.4067481900778886E-01 
    7.4064127381733502E-01 
    7.2173316449883074E-01 
    7.2169358051891719E-01 
    7.4060701842173216E-01 
    7.4057205561557804E-01 
    7.2165279092297330E-01 
    7.2161066484943692E-01 
    7.4053635052612643E-01 
    7.4049980701125928E-01 
    7.2156696330086423E-01 
    7.2152125798877065E-01 
    7.4046222447213961E-01 
    7.4042321244501819E-01 
    7.2147276263358129E-01 
    7.2141995144579496E-01 
    7.4038200535403886E-01 
    7.4033702292521686E-01 
    7.2135973832770628E-01 
    7.2128836032538768E-01 
    7.4028491609505420E-01 
    7.4022316181354264E-01 
    7.2121436023361074E-01 
    7.2115763030889291E-01 
    7.4016429978256737E-01 
    7.4012371558607926E-01 
    7.2111959495578648E-01 
    7.2109269649815899E-01 
    7.4009766174107983E-01 
    7.4008056419484525E-01 
    7.2107476597699049E-01 
    7.2106579964850614E-01 
    7.4007201456585747E-01 
    7.0260464864139827E-01 
    6.8211465935850901E-01 
    6.8211200219401558E-01 
    7.0260234344659511E-01 
    7.0259774760967164E-01 
    6.8210669679026348E-01 
    6.8209876145971027E-01 
    7.0259088721652907E-01 
    7.0258179274462107E-01 
    6.8208821814414100E-01 
    6.8207509025602708E-01 
    7.0257049695519691E-01 
    7.0255703429403027E-01 
    6.8205940198287407E-01 
    6.8204117796643038E-01 
    7.0254144067651214E-01 
    7.0252375336682427E-01 
    6.8202044305788345E-01 
    6.8199722204660840E-01 
    7.0250401085829806E-01 
    7.0248225271814169E-01 
    6.8197153931670496E-01 
    6.8194341840096306E-01 
    7.0245851937643089E-01 
    7.0243285184275295E-01 
    6.8191288140208506E-01 
    6.8187994824478071E-01 
    7.0240529133211471E-01 
    7.0237587877653751E-01 
    6.8184463571098575E-01 
    6.8180695619273934E-01 
    7.0234465419023973E-01 
    7.0231165584358235E-01 
    6.8176691607070417E-01 
    6.8172451358633901E-01 
    7.0227691918208623E-01 
    7.0224047539846746E-01 
    6.8167973601443710E-01 
    6.8163255584688554E-01 
    7.0220234952221361E-01 
    7.0216255782332881E-01 
    6.8158292554526090E-01 
    6.8153077016795593E-01 
    7.0212110421788509E-01 
    7.0207797518164117E-01 
    6.8147597674758087E-01 
    6.8141837852424181E-01 
    7.0203313236205667E-01 
    7.0198650150095443E-01 
    6.8135773068636296E-01 
    6.8129367138981478E-01 
    7.0193795517225066E-01 
    7.0188728461179561E-01 
    6.8122565587618367E-01 
    6.8115283881477262E-01 
    7.0183415114301295E-01 
    7.0177799664402229E-01 
    6.8107385379504148E-01 
    6.8098641108460822E-01 
    7.0171786543693737E-01 
    7.0165202736962995E-01 
    6.8088693998030680E-01 
    6.8077353522269979E-01 
    7.0157727099393841E-01 
    7.0148988121896327E-01 
    6.8065611438550588E-01 
    6.8055767709047221E-01 
    7.0139699270002032E-01 
    7.0132076186309089E-01 
    6.8048670947476397E-01 
    6.8043345900347096E-01 
    7.0126793507471274E-01 
    7.0122946975432932E-01 
    6.8039133969474808E-01 
    6.8035975850273578E-01 
    7.0120069857963219E-01 
    7.0118151268482809E-01 
    6.8033870826858978E-01 
    6.8032818432588305E-01 
    7.0117191821551961E-01 
    6.6075810643556632E-01 
    6.3846343423360574E-01 
    6.3845926802228103E-01 
    6.6075488204727417E-01 
    6.6074843156247354E-01 
    6.3845091250844543E-01 
    6.3843834034759273E-01 
    6.6073875825484030E-01 
    6.6072586718069626E-01 
    6.3842152181314793E-01 
    6.3840042287293919E-01 
    6.6070976307798879E-01 
    6.6069044953443945E-01 
    6.3837500402732317E-01 
    6.3834521918166409E-01 
    6.6066792844881217E-01 
    6.6064219949479830E-01 
    6.3831101429915815E-01 
    6.3827232570333248E-01 
    6.6061325947537108E-01 
    6.6058110150512650E-01 
    6.3822907791913253E-01 
    6.3818118092959752E-01 
    6.6054571396740736E-01 
    6.6050707918272711E-01 
    6.3812852668195807E-01 
    6.3807098461202483E-01 
    6.6046517170505670E-01 
    6.6041995613275617E-01 
    6.3800839586614033E-01 
    6.3794056576397673E-01 
    6.6037138427583242E-01 
    6.6031939145313634E-01 
    6.3786725383693776E-01 
    6.3778816044565179E-01 
    6.6026389158866705E-01 
    6.6020477061226512E-01 
    6.3770290844664168E-01 
    6.3761101753019644E-01 
    6.6014187740746455E-01 
    6.6007501111880718E-01 
    6.3751186760927803E-01 
    6.3740464628824711E-01 
    6.6000390290595490E-01 
    6.5992818896866023E-01 
    6.3728827592523674E-01 
    6.3716132614390919E-01 
    6.5984736938124111E-01 
    6.5976074305530574E-01 
    6.3702196460679761E-01 
    6.3686815095615668E-01 
    6.5966730181417921E-01 
    6.5956555852612764E-01 
    6.3669859490676894E-01 
    6.3651500024818419E-01 
    6.5945331019019726E-01 
    6.5932762212883811E-01 
    6.3632452967074327E-01 
    6.3614026787868849E-01 
    6.5918661935927714E-01 
    6.5903514880320391E-01 
    6.3597879307837279E-01 
    6.3585079674555489E-01 
    6.5888920577486565E-01 
    6.5876926490398591E-01 
    6.3575329696487581E-01 
    6.3567519525625271E-01 
    6.5868016365088411E-01 
    6.5861127448308598E-01 
    6.3560945544809522E-01 
    6.3555484983557886E-01 