# vtk DataFile Version 2.0
Pressure Field Data 
ASCII 
DATASET UNSTRUCTURED_GRID 

POINTS 1681 double 

    0.0000000000000000E+00     0.0000000000000000E+00     0.0000000000000000E+00 
    1.0000000000000000E+00     0.0000000000000000E+00     0.0000000000000000E+00 
    1.0000000000000000E+00     1.0000000000000000E+00     0.0000000000000000E+00 
    0.0000000000000000E+00     1.0000000000000000E+00     0.0000000000000000E+00 
    5.2499999999875258E-01     0.0000000000000000E+00     0.0000000000000000E+00 
    7.4999999999856765E-02     0.0000000000000000E+00     0.0000000000000000E+00 
    1.2499999999975850E-01     0.0000000000000000E+00     0.0000000000000000E+00 
    1.7499999999962990E-01     0.0000000000000000E+00     0.0000000000000000E+00 
    2.2499999999948389E-01     0.0000000000000000E+00     0.0000000000000000E+00 
    2.7499999999933789E-01     0.0000000000000000E+00     0.0000000000000000E+00 
    3.2499999999919210E-01     0.0000000000000000E+00     0.0000000000000000E+00 
    3.7499999999904610E-01     0.0000000000000000E+00     0.0000000000000000E+00 
    4.2499999999890020E-01     0.0000000000000000E+00     0.0000000000000000E+00 
    4.7499999999875958E-01     0.0000000000000000E+00     0.0000000000000000E+00 
    2.4999999999949701E-02     0.0000000000000000E+00     0.0000000000000000E+00 
    5.7499999999887907E-01     0.0000000000000000E+00     0.0000000000000000E+00 
    6.2499999999901101E-01     0.0000000000000000E+00     0.0000000000000000E+00 
    6.7499999999914273E-01     0.0000000000000000E+00     0.0000000000000000E+00 
    7.2499999999927467E-01     0.0000000000000000E+00     0.0000000000000000E+00 
    7.7499999999940661E-01     0.0000000000000000E+00     0.0000000000000000E+00 
    8.2499999999953844E-01     0.0000000000000000E+00     0.0000000000000000E+00 
    8.7499999999967026E-01     0.0000000000000000E+00     0.0000000000000000E+00 
    9.2499999999980220E-01     0.0000000000000000E+00     0.0000000000000000E+00 
    9.7499999999993414E-01     0.0000000000000000E+00     0.0000000000000000E+00 
    5.4999999999881310E-01     0.0000000000000000E+00     0.0000000000000000E+00 
    9.9999999999814140E-02     0.0000000000000000E+00     0.0000000000000000E+00 
    1.4999999999970290E-01     0.0000000000000000E+00     0.0000000000000000E+00 
    1.9999999999955689E-01     0.0000000000000000E+00     0.0000000000000000E+00 
    2.4999999999941089E-01     0.0000000000000000E+00     0.0000000000000000E+00 
    2.9999999999926502E-01     0.0000000000000000E+00     0.0000000000000000E+00 
    3.4999999999911913E-01     0.0000000000000000E+00     0.0000000000000000E+00 
    3.9999999999897312E-01     0.0000000000000000E+00     0.0000000000000000E+00 
    4.4999999999882723E-01     0.0000000000000000E+00     0.0000000000000000E+00 
    4.9999999999869210E-01     0.0000000000000000E+00     0.0000000000000000E+00 
    4.9999999999899403E-02     0.0000000000000000E+00     0.0000000000000000E+00 
    5.9999999999894504E-01     0.0000000000000000E+00     0.0000000000000000E+00 
    6.4999999999907687E-01     0.0000000000000000E+00     0.0000000000000000E+00 
    6.9999999999920870E-01     0.0000000000000000E+00     0.0000000000000000E+00 
    7.4999999999934064E-01     0.0000000000000000E+00     0.0000000000000000E+00 
    7.9999999999947247E-01     0.0000000000000000E+00     0.0000000000000000E+00 
    8.4999999999960441E-01     0.0000000000000000E+00     0.0000000000000000E+00 
    8.9999999999973623E-01     0.0000000000000000E+00     0.0000000000000000E+00 
    9.4999999999986817E-01     0.0000000000000000E+00     0.0000000000000000E+00 
    1.0000000000000000E+00     5.2499999999875258E-01     0.0000000000000000E+00 
    1.0000000000000000E+00     7.4999999999856765E-02     0.0000000000000000E+00 
    1.0000000000000000E+00     1.2499999999975850E-01     0.0000000000000000E+00 
    1.0000000000000000E+00     1.7499999999962990E-01     0.0000000000000000E+00 
    1.0000000000000000E+00     2.2499999999948389E-01     0.0000000000000000E+00 
    1.0000000000000000E+00     2.7499999999933789E-01     0.0000000000000000E+00 
    1.0000000000000000E+00     3.2499999999919210E-01     0.0000000000000000E+00 
    1.0000000000000000E+00     3.7499999999904610E-01     0.0000000000000000E+00 
    1.0000000000000000E+00     4.2499999999890020E-01     0.0000000000000000E+00 
    1.0000000000000000E+00     4.7499999999875958E-01     0.0000000000000000E+00 
    1.0000000000000000E+00     2.4999999999949701E-02     0.0000000000000000E+00 
    1.0000000000000000E+00     5.7499999999887907E-01     0.0000000000000000E+00 
    1.0000000000000000E+00     6.2499999999901101E-01     0.0000000000000000E+00 
    1.0000000000000000E+00     6.7499999999914273E-01     0.0000000000000000E+00 
    1.0000000000000000E+00     7.2499999999927467E-01     0.0000000000000000E+00 
    1.0000000000000000E+00     7.7499999999940661E-01     0.0000000000000000E+00 
    1.0000000000000000E+00     8.2499999999953844E-01     0.0000000000000000E+00 
    1.0000000000000000E+00     8.7499999999967026E-01     0.0000000000000000E+00 
    1.0000000000000000E+00     9.2499999999980220E-01     0.0000000000000000E+00 
    1.0000000000000000E+00     9.7499999999993414E-01     0.0000000000000000E+00 
    1.0000000000000000E+00     5.4999999999881310E-01     0.0000000000000000E+00 
    1.0000000000000000E+00     9.9999999999814140E-02     0.0000000000000000E+00 
    1.0000000000000000E+00     1.4999999999970290E-01     0.0000000000000000E+00 
    1.0000000000000000E+00     1.9999999999955689E-01     0.0000000000000000E+00 
    1.0000000000000000E+00     2.4999999999941089E-01     0.0000000000000000E+00 
    1.0000000000000000E+00     2.9999999999926502E-01     0.0000000000000000E+00 
    1.0000000000000000E+00     3.4999999999911913E-01     0.0000000000000000E+00 
    1.0000000000000000E+00     3.9999999999897312E-01     0.0000000000000000E+00 
    1.0000000000000000E+00     4.4999999999882723E-01     0.0000000000000000E+00 
    1.0000000000000000E+00     4.9999999999869210E-01     0.0000000000000000E+00 
    1.0000000000000000E+00     4.9999999999899403E-02     0.0000000000000000E+00 
    1.0000000000000000E+00     5.9999999999894504E-01     0.0000000000000000E+00 
    1.0000000000000000E+00     6.4999999999907687E-01     0.0000000000000000E+00 
    1.0000000000000000E+00     6.9999999999920870E-01     0.0000000000000000E+00 
    1.0000000000000000E+00     7.4999999999934064E-01     0.0000000000000000E+00 
    1.0000000000000000E+00     7.9999999999947247E-01     0.0000000000000000E+00 
    1.0000000000000000E+00     8.4999999999960441E-01     0.0000000000000000E+00 
    1.0000000000000000E+00     8.9999999999973623E-01     0.0000000000000000E+00 
    1.0000000000000000E+00     9.4999999999986817E-01     0.0000000000000000E+00 
    4.7500000000196618E-01     1.0000000000000000E+00     0.0000000000000000E+00 
    9.2499999999968763E-01     1.0000000000000000E+00     0.0000000000000000E+00 
    8.7499999999961831E-01     1.0000000000000000E+00     0.0000000000000000E+00 
    8.2499999999982654E-01     1.0000000000000000E+00     0.0000000000000000E+00 
    7.7500000000017355E-01     1.0000000000000000E+00     0.0000000000000000E+00 
    7.2500000000052045E-01     1.0000000000000000E+00     0.0000000000000000E+00 
    6.7500000000086724E-01     1.0000000000000000E+00     0.0000000000000000E+00 
    6.2500000000121403E-01     1.0000000000000000E+00     0.0000000000000000E+00 
    5.7500000000156093E-01     1.0000000000000000E+00     0.0000000000000000E+00 
    5.2500000000189684E-01     1.0000000000000000E+00     0.0000000000000000E+00 
    9.7499999999989595E-01     1.0000000000000000E+00     0.0000000000000000E+00 
    4.2500000000176902E-01     1.0000000000000000E+00     0.0000000000000000E+00 
    3.7500000000156092E-01     1.0000000000000000E+00     0.0000000000000000E+00 
    3.2500000000135282E-01     1.0000000000000000E+00     0.0000000000000000E+00 
    2.7500000000114472E-01     1.0000000000000000E+00     0.0000000000000000E+00 
    2.2500000000093659E-01     1.0000000000000000E+00     0.0000000000000000E+00 
    1.7500000000072849E-01     1.0000000000000000E+00     0.0000000000000000E+00 
    1.2500000000052039E-01     1.0000000000000000E+00     0.0000000000000000E+00 
    7.5000000000312261E-02     1.0000000000000000E+00     0.0000000000000000E+00 
    2.5000000000104109E-02     1.0000000000000000E+00     0.0000000000000000E+00 
    4.5000000000187301E-01     1.0000000000000000E+00     0.0000000000000000E+00 
    8.9999999999958358E-01     1.0000000000000000E+00     0.0000000000000000E+00 
    8.4999999999965303E-01     1.0000000000000000E+00     0.0000000000000000E+00 
    8.0000000000000004E-01     1.0000000000000000E+00     0.0000000000000000E+00 
    7.5000000000034706E-01     1.0000000000000000E+00     0.0000000000000000E+00 
    7.0000000000069384E-01     1.0000000000000000E+00     0.0000000000000000E+00 
    6.5000000000104063E-01     1.0000000000000000E+00     0.0000000000000000E+00 
    6.0000000000138742E-01     1.0000000000000000E+00     0.0000000000000000E+00 
    5.5000000000173432E-01     1.0000000000000000E+00     0.0000000000000000E+00 
    5.0000000000205946E-01     1.0000000000000000E+00     0.0000000000000000E+00 
    9.4999999999979179E-01     1.0000000000000000E+00     0.0000000000000000E+00 
    4.0000000000166491E-01     1.0000000000000000E+00     0.0000000000000000E+00 
    3.5000000000145681E-01     1.0000000000000000E+00     0.0000000000000000E+00 
    3.0000000000124871E-01     1.0000000000000000E+00     0.0000000000000000E+00 
    2.5000000000104061E-01     1.0000000000000000E+00     0.0000000000000000E+00 
    2.0000000000083251E-01     1.0000000000000000E+00     0.0000000000000000E+00 
    1.5000000000062441E-01     1.0000000000000000E+00     0.0000000000000000E+00 
    1.0000000000041630E-01     1.0000000000000000E+00     0.0000000000000000E+00 
[...]
CELL_DATA 1600 
SCALARS Pressure double 1 
LOOKUP_TABLE default 

    8.1199699514362822E-01 
    7.9331924444373614E-01 
    7.9322346409852618E-01 
    8.1008835195655760E-01 
    8.0832294726477316E-01 
    7.9305005439016063E-01 
    7.9281455979585425E-01 
    8.0669026952326917E-01 
    8.0517753322605912E-01 
    7.9252982542907069E-01 
    7.9220659755940004E-01 
    8.0377324802798678E-01 
    8.0246723290976330E-01 
    7.9185387532129392E-01 
    7.9147919722917570E-01 
    8.0125049861713549E-01 
    8.0011511467813801E-01 
    7.9108887882255707E-01 
    7.9068821089119978E-01 
    7.9905408369515218E-01 
    7.9806122820272418E-01 
    7.9028162526818191E-01 
    7.8987283372788819E-01 
    7.9713109071622379E-01 
    7.9625884615696263E-01 
    7.8946494448924065E-01 
    7.8906056002457359E-01 
    7.9544022541680248E-01 
    7.9467144876390949E-01 
    7.8866185923614429E-01 
    7.8827066654402966E-01 
    7.9394916786339853E-01 
    7.9327041530450826E-01 
    7.8788851000444027E-01 
    7.8751667022728911E-01 
    7.9263256065389687E-01 
    7.9203327217780506E-01 
    7.8715622157192222E-01 
    7.8680806685916660E-01 
    7.9147048348840887E-01 
    7.9094236447004307E-01 
    7.8647296663750765E-01 
    7.8615156387418239E-01 
    7.9044729592910490E-01 
    7.8998384748831585E-01 
    7.8584440480259588E-01 
    7.8555195654098720E-01 
    7.8955075831267374E-01 
    7.8914692031215183E-01 
    7.8527462199989428E-01 
    7.8501275251444325E-01 
    7.8877136351611665E-01 
    7.8842324335744995E-01 
    7.8476665856911587E-01 
    7.8453661892498394E-01 
    7.8810182964122621E-01 
    7.8780649700385896E-01 
    7.8432288841010445E-01 
    7.8412570459003217E-01 
    7.8753671669338254E-01 
    7.8729204951784759E-01 
    7.8394529349282094E-01 
    7.8378187451247250E-01 
    7.8707213981014501E-01 
    7.8687671022551697E-01 
    7.8363566453404687E-01 
    7.8350688114782585E-01 
    7.8670555706698142E-01 
    7.8655854543985160E-01 
    7.8339574433962234E-01 
    7.8330247450605817E-01 
    7.8643560218381869E-01 
    7.8633669939017348E-01 
    7.8322727911973611E-01 
    7.8317029946545091E-01 
    7.8626180028542803E-01 
    7.8621065690178682E-01 
    7.8313141687322396E-01 
    7.8310977251367275E-01 
    7.8618217088141273E-01 
    7.8239007925315462E-01 
    7.7253115735778621E-01 
    7.7252233183995100E-01 
    7.8236770671825373E-01 
    7.8232353830501700E-01 
    7.7250475945726782E-01 
    7.7247862236534404E-01 
    7.8225864154823443E-01 
    7.8217438385616922E-01 
    7.7244418614750243E-01 
    7.7240179264791986E-01 
    7.8207233004633236E-01 
    7.8195416260130246E-01 
    7.7235185028623288E-01 
    7.7229482376301450E-01 
    7.8182162064518312E-01 
    7.8167645407677810E-01 
    7.7223122392615939E-01 
    7.7216159818654939E-01 
    7.8152038976003735E-01 
    7.8135510721834756E-01 
    7.7208652169116776E-01 
    7.7200658935741728E-01 
    7.8118222176456809E-01 
    7.8100327340447162E-01 
    7.7192240880579144E-01 
    7.7183459418420819E-01 
    7.8081972018374290E-01 
    7.8063293491893515E-01 
    7.7174376084865037E-01 
    7.7165052084675601E-01 
    7.8044420447148666E-01 
    7.8025473090038111E-01 
    7.7155547914057687E-01 
    7.7145923049974319E-01 
    7.8006563397110995E-01 
    7.7987795461271414E-01 
    7.7136235699512889E-01 
    7.7126542602464176E-01 
    7.7969265900612705E-01 
    7.7951064306015327E-01 
    7.7116898880609452E-01 
    7.7107357927658537E-01 
    7.7933273708967343E-01 
    7.7915971055700217E-01 
    7.7097971334299675E-01 
    7.7088788843370415E-01 
    7.7899227677399074E-01 
    7.7883109749139556E-01 
    7.7079858330716366E-01 
    7.7071225807844368E-01 
    7.7867678732468892E-01 
    7.7852991798298143E-01 
    7.7062935442975677E-01 
    7.7055029597520075E-01 
    7.7839102228079893E-01 
    7.7826059792126534E-01 
    7.7047548875239735E-01 
    7.7040532181266064E-01 
    7.7813911104289468E-01 
    7.7802699951752052E-01 
    7.7034016787218540E-01 
    7.7028038395816345E-01 
    7.7792467596481996E-01 
    7.7783253038415978E-01 
    7.7022631190556912E-01 
    7.7017827834802477E-01 
    7.7775093212278479E-01 
    7.7768023036614553E-01 
    7.7013659324863293E-01 
    7.7010154425642441E-01 
    7.7762075065771241E-01 
    7.7757277934192415E-01 
    7.7007337884622185E-01 
    7.7005225076489114E-01 
    7.7753650895741555E-01 
    7.7751186537477135E-01 
    7.7003807643382982E-01 
    7.7003032926706161E-01 
    7.7749820325265073E-01 
    7.6258908240122325E-01 
    7.5221925596298467E-01 
    7.5221681366898008E-01 
    7.6258477988068829E-01 
    7.6257620031199969E-01 
    7.5221194389258672E-01 
    7.5220467759298615E-01 
    7.6256340380579180E-01 
    7.6254647899388983E-01 
    7.5219505804705455E-01 
    7.5218314216260285E-01 
    7.6252554368378422E-01 
    7.6250074362569753E-01 
    7.5216900045826163E-01 
    7.5215271659816185E-01 
    7.6247225060625357E-01 
    7.6244026023347533E-01 
    7.5213438673464317E-01 
    7.5211411875107803E-01 
    7.6240498957265201E-01 
    7.6236667472475861E-01 
    7.5209203144745307E-01 
    7.5206825369302810E-01 
    7.6232556840938037E-01 
    7.6228193759741569E-01 
    7.5204292356252678E-01 
    7.5201618746841969E-01 
    7.6223606122745380E-01 
    7.6218822803107888E-01 
    7.5198819929961258E-01 
    7.5195911957532025E-01 
    7.6213873448537561E-01 
    7.6208788290517648E-01 
    7.5192911462175649E-01 
    7.5189835577830155E-01 
    7.6203597968291470E-01 
    7.6198333368013871E-01 
    7.5186701863900041E-01 
    7.5183528233454866E-01 
    7.6193025477174880E-01 
    7.6187705254171811E-01 
    7.5180332885934575E-01 
    7.5177134244774535E-01 
    7.6182403512738361E-01 
    7.6177150820827633E-01 
    7.5173950900329034E-01 
    7.5170801558448175E-01 
    7.6171977413479330E-01 
    7.6166913119173507E-01 
    7.5167704995043960E-01 
    7.5164680016955598E-01 
    7.6161987299167944E-01 
    7.6157228799311361E-01 
    7.5161745429365157E-01 
    7.5158920009861718E-01 
    7.6152665913771045E-01 
    7.6148326359908658E-01 
    7.5156222488878022E-01 
    7.5153671535328481E-01 
    7.6144237262947767E-01 
    7.6140425147547985E-01 
    7.5151285744189722E-01 
    7.5149083617889734E-01 
    7.6136915929585880E-01 
    7.6133734891895466E-01 
    7.5147083521866609E-01 
    7.5145303567034394E-01 
    7.6130906603313153E-01 
    7.6128454676006752E-01 
    7.5143761304477297E-01 
    7.5142472953087014E-01 
    7.6126401082062356E-01 
    7.6124764283202628E-01 
    7.5141451498728218E-01 
    7.5140702312470242E-01 
    7.6123554309539554E-01 
    7.6122761850917975E-01 
    7.5140215676188915E-01 
    7.5139958904964121E-01 
    7.6122341880598454E-01 
    7.4130463823617332E-01 
    7.2981001620705976E-01 
    7.2980881202329828E-01 
    7.4130303480334891E-01 
    7.4129984003703664E-01 
    7.2980641503169941E-01 
    7.2980284402972395E-01 
    7.4129507586120758E-01 
    7.4128877053017228E-01 
    7.2979812163826785E-01 
    7.2979227513048528E-01 
    7.4128095976279862E-01 
    7.4127168694549561E-01 
    7.2978533665885614E-01 
    7.2977734323881505E-01 
    7.4126100301018083E-01 
    7.4124896618033898E-01 
    7.2976833663214846E-01 
    7.2975836318364928E-01 
    7.4123564165396183E-01 
    7.4122110125276408E-01 
    7.2974747363414605E-01 
    7.2973572292107569E-01 
    7.4120542305229475E-01 
    7.4118869100133089E-01 
    7.2972316997250053E-01 
    7.2970987749796823E-01 
    7.4117099453613033E-01 
    7.4115242819375704E-01 
    7.2969591177836801E-01 
    7.2968134245628036E-01 
    7.4113309122802673E-01 
    7.4111308723126346E-01 
    7.2966624232796584E-01 
    7.2965068713791748E-01 
    7.4109252376487922E-01 
    7.4107151200168409E-01 
    7.2963475537673561E-01 
    7.2961852808291316E-01 
    7.4105016638278542E-01 
    7.4102860429190776E-01 
    7.2960208864889320E-01 
    7.2958552263141474E-01 
    7.4100694574994763E-01 
    7.4098531313253713E-01 
    7.2956891756561004E-01 
    7.2955236278140567E-01 
    7.4096383091328066E-01 
    7.4094262543502676E-01 
    7.2953594921922971E-01 
    7.2951976923938455E-01 
    7.4092182471084334E-01 
    7.4090155825479409E-01 
    7.2950391641475143E-01 
    7.2948848528805532E-01 
    7.4088195693925041E-01 
    7.4086315286833493E-01 
    7.2947357105925548E-01 
    7.2945926913879566E-01 
    7.4084527924196331E-01 
    7.4082847015268205E-01 
    7.2944567444399022E-01 
    7.2943288019814967E-01 
    7.4081286018767445E-01 
    7.4079858355486983E-01 
    7.2942097574918918E-01 
    7.2941004241198970E-01 
    7.4078577210990526E-01 
    7.4077455089130873E-01 
    7.2940014523512720E-01 
    7.2939131616889274E-01 
    7.4076502806166455E-01 
    7.4075727260306368E-01 
    7.2938351866282702E-01 
    7.2937657109411591E-01 
    7.4075126769412181E-01 
    7.4074684270213309E-01 
    7.2936999302497485E-01 
    7.2936449158039507E-01 
    7.4074398287633092E-01 
    7.1773197465662109E-01 
    7.0507888815698760E-01 
    7.0507799519504455E-01 
    7.1773097180185275E-01 
    7.1772897735698171E-01 
    7.0507622066193476E-01 
    7.0507358223911420E-01 
    7.1772600911222517E-01 
    7.1772208760754408E-01 
    7.0507009996662962E-01 
    7.0506579650843115E-01 
    7.1771723666134346E-01 
    7.1771148357052261E-01 
    7.0506069731483745E-01 
    7.0505483066558694E-01 
    7.1770485913304527E-01 
    7.1769739759195095E-01 
    7.0504822765326625E-01 
    7.0504092213629477E-01 
    7.1768913654137023E-01 
    7.1768011681299249E-01 
    7.0503295067601235E-01 
    7.0502435246557760E-01 
    7.1767038235210023E-01 
    7.1765998008790921E-01 
    7.0501516925490759E-01 
    7.0500544527400300E-01 
    7.1764895980070709E-01 
    7.1763737398706662E-01 
    7.0499522715590468E-01 
    7.0498456385983688E-01 
    7.1762527772367668E-01 
    7.1761272852984492E-01 
    7.0497350659460256E-01 
    7.0496210874187537E-01 
    7.1759978622832354E-01 
    7.1758651280371111E-01 
    7.0495042577860156E-01 
    7.0493851519718642E-01 
    7.1757297225719763E-01 
    7.1755923045577319E-01 
    7.0492643642140684E-01 
    7.0491425071491842E-01 
    7.1754535497309258E-01 
    7.1753141491780137E-01 
    7.0490202107759903E-01 
    7.0488981212245005E-01 
    7.1751748074300892E-01 
    7.1750362402725321E-01 
    7.0487768992172462E-01 
    7.0486572180435103E-01 
    7.1748991721188249E-01 
    7.1747643327076904E-01 
    7.0485397607557987E-01 
    7.0484252161053673E-01 
    7.1746324527277827E-01 
    7.1745042576996831E-01 
    7.0483142723911818E-01 
    7.0482076077689382E-01 
    7.1743804589425109E-01 
    7.1742617395024399E-01 
    7.0481058743839764E-01 
    7.0480096714027418E-01 
    7.1741487310693319E-01 
    7.1740419741936867E-01 
    7.0479194974726478E-01 
    7.0478356638404871E-01 
    7.1739418464402427E-01 
    7.1738484266250047E-01 
    7.0477581293436142E-01 
    7.0476861709438099E-01 
    7.1737612255449767E-01 
    7.1736786167711364E-01 
    7.0476176688647163E-01 
    7.0475472995691923E-01 
    7.1735965007882219E-01 
    7.1735046963306015E-01 
    7.0474603365544708E-01 
    7.0473766976524832E-01 
    7.1734199996483239E-01 
    6.9186259024496199E-01 
    6.7809540157968939E-01 
    6.7809460085287110E-01 
    6.9186175924963877E-01 
    6.9186010880496440E-01 
    6.7809301096780883E-01 
    6.7809064983057354E-01 
    6.9185765676608457E-01 
    6.9185442324972191E-01 
    6.7808753756219042E-01 
    6.7808369634346122E-01 
    6.9185043067406138E-01 
    6.9184570388102429E-01 
    6.7807915049136425E-01 
    6.7807392651256637E-01 
    6.9184027019087657E-01 
    6.9183415941464721E-01 
    6.7806805312953600E-01 
    6.7806156128883222E-01 
    6.9182740384332164E-01 
    6.9182003822487648E-01 
    6.7805448415922864E-01 
    6.7804685712492607E-01 
    6.9181209973570412E-01 
    6.9180362795041894E-01 
    6.7803871777737612E-01 
    6.7803010590811674E-01 
    6.9179466481253526E-01 
    6.9178525460761942E-01 
    6.7802106350428915E-01 
    6.7801163474802961E-01 
    6.9177544393994239E-01 
    6.9176528171328544E-01 
    6.7800186602060053E-01 
    6.7799180591185793E-01 
    6.9175481911622705E-01 
    6.9174410961194077E-01 
    6.7798150523540024E-01 
    6.7797101704941642E-01 
    6.9173320893215529E-01 
    6.9172217507437517E-01 
    6.7796039668277952E-01 
    6.7794970176516411E-01 
    6.9171106830063600E-01 
    6.9169995113472482E-01 
    6.7793899225871346E-01 
    6.7792833048664858E-01 
    6.9168888835260700E-01 
    6.9167794695715601E-01 
    6.7791778115057122E-01 
    6.7790741132185983E-01 
    6.9166719612206273E-01 
    6.9165670707899907E-01 
    6.7789729038129654E-01 
    6.7788748986075231E-01 
    6.9164655290293764E-01 
    6.9163680811569839E-01 
    6.7787808310339748E-01 
    6.7786914458891068E-01 
    6.9162754796310644E-01 
    6.9161884709848653E-01 
    6.7786074863692891E-01 
    6.7785296694499131E-01 
    6.9161077716844344E-01 
    6.9160340233175255E-01 
    6.7784586391467028E-01 
    6.7783948770777569E-01 
    6.9159677080442250E-01 
    6.9159089851239985E-01 
    6.7783385275824981E-01 
    6.7782890359935888E-01 
    6.9158573596888417E-01 
    6.9158109397240985E-01 
    6.7782442938914833E-01 
    6.7781981273221914E-01 
    6.9157644172694821E-01 
    6.9157011838168203E-01 
    6.7781365385470493E-01 
    6.7780800430139043E-01 
    6.9156369658261263E-01 
    6.6378939084632882E-01 
    6.4895590220315325E-01 
    6.4895511146105356E-01 
    6.6378859943415325E-01 
    6.6378702805186396E-01 
    6.4895354129116933E-01 
    6.4895120931053651E-01 
    6.6378469444559773E-01 
    6.6378161850290263E-01 
    6.4894813526329487E-01 
    6.4894434055216188E-01 
    6.6377782192755086E-01 
    6.6377332826414026E-01 
    6.4893984821538364E-01 
    6.4893468295280810E-01 
    6.6376816293771834E-01 
    6.6376235327779587E-01 
    6.4892887114788755E-01 
    6.4892244087847295E-01 
    6.6375592852755072E-01 
    6.6374891984234952E-01 
    6.4891542191721141E-01 
    6.4890784572348181E-01 
    6.6374136028115460E-01 
    6.6373328479337701E-01 
    6.4889974542845497E-01 
    6.4889115581422896E-01 
    6.6372473020285672E-01 
    6.6371573518997673E-01 
    6.4888211328734224E-01 
    6.4887265584634868E-01 
    6.6370634027237341E-01 
    6.6369658778424045E-01 
    6.4886282304250287E-01 
    6.4885265593188468E-01 
    6.6368652185375820E-01 
    6.6367618837765008E-01 
    6.4884219701640800E-01 
    6.4883149016997999E-01 
    6.6366563499117015E-01 
    6.6365491103085439E-01 
    6.4882058054442837E-01 
    6.4880951444741253E-01 
    6.6364406748591576E-01 
    6.6363315693192093E-01 
    6.4879833918093932E-01 
    6.4878710282354091E-01 
    6.6362223343684135E-01 
    6.6361135242379110E-01 
    6.4877585393035797E-01 
    6.4876464111092780E-01 
    6.6360057046509047E-01 
    6.6358994496568169E-01 
    6.4875351242010204E-01 
    6.4874251445505804E-01 
    6.6357953366460498E-01 
    6.6356939383012936E-01 
    6.4873169097492700E-01 
    6.4872108071738288E-01 
    6.6355958092537370E-01 
    6.6355014633319387E-01 
    6.4871071381338785E-01 
    6.4870060565816923E-01 
    6.6354113336276421E-01 
    6.6353257002680888E-01 
    6.4869074596958776E-01 
    6.4868107825935106E-01 
    6.6352445553486128E-01 
    6.6351673381481691E-01 
    6.4867145860553610E-01 
    6.4866156297603017E-01 
    6.6350923687667140E-01 
    6.6350154156127650E-01 
    6.4865063588978300E-01 
    6.4863662275631850E-01 
    6.6349251158302391E-01 
    6.6348214307685605E-01 
    6.4862154779130654E-01 
    6.4861387446049013E-01 
    6.6347558054709610E-01 
    6.3360472310829874E-01 
    6.1774364600949705E-01 
    6.1774284659939360E-01 
    6.3360393099277112E-01 
    6.3360235803899601E-01 
    6.1774125897404186E-01 
    6.1773890078603988E-01 
    6.3360002192123543E-01 
    6.3359694254157561E-01 
    6.1773579199368700E-01 
    6.1773195417248716E-01 
    6.3359314144468659E-01 
    6.3358864175906482E-01 
    6.1772741041964374E-01 
    6.1772218536988521E-01 
    6.3358346822050149E-01 
    6.3357764720532239E-01 
    6.1771630523335097E-01 
    6.1770979783532887E-01 
    6.3357120675946277E-01 
    6.3356417662157416E-01 
    6.1770269265349653E-01 
    6.1769502085258643E-01 
    6.3355658824114558E-01 
    6.3354847479301013E-01 
    6.1768681531748781E-01 
    6.1767811068593559E-01 
    6.3353987118939081E-01 
    6.3353081409022216E-01 
    6.1766894338175160E-01 
    6.1765935164932695E-01 
    6.3352134191204956E-01 
    6.3351149483532299E-01 
    6.1764937558968880E-01 
    6.1763905719804912E-01 
    6.3350131480933070E-01 
    6.3349084555328283E-01 
    6.1762844040213583E-01 
    6.1761757109972992E-01 
    6.3348013255102431E-01 
    6.3346922303536191E-01 
    6.1760649719248739E-01 
    6.1759526861100933E-01 
    6.3345816595571436E-01 
    6.3344701191926567E-01 
    6.1758393732271966E-01 
    6.1757255730851512E-01 
    6.3343581309017083E-01 
    6.3342462302218261E-01 
    6.1756118448475206E-01 
    6.1754987653093463E-01 
    6.3341349638463729E-01 
    6.3340248851514369E-01 
    6.1753869255491600E-01 
    6.1752769247553241E-01 
    6.3339165468504699E-01 
    6.3338104887687430E-01 
    6.1751693590493517E-01 
    6.1750648012258214E-01 
    6.3337072170803610E-01 
    6.3336071681072981E-01 
    6.1749637634732779E-01 
    6.1748666269437980E-01 
    6.3335106431387234E-01 
    6.3334176863969582E-01 
    6.1747735034780304E-01 
    6.1746839485090466E-01 
    6.3333278446469032E-01 
    6.3332396559121817E-01 
    6.1745963099202972E-01 
    6.1745060241010408E-01 
    6.3331494127491283E-01 
    6.3330475407749753E-01 
    6.1744002772507656E-01 
    6.1742606150570190E-01 
    6.3329077193665329E-01 
    6.3327584335411446E-01 
    6.1741292562680272E-01 
    6.1740646215956885E-01 
    6.3326835612222399E-01 
    6.0137894292212912E-01 
    5.8451560511510781E-01 
    5.8451477143028197E-01 
    6.0137812789903788E-01 
    6.0137650884751448E-01 
    5.8451311489357793E-01 
    5.8451065275702274E-01 
    6.0137410317947926E-01 
    6.0137093059600844E-01 
    5.8450740459766903E-01 
    5.8450339144939556E-01 
    6.0136701230128253E-01 
    6.0136237086168376E-01 
    5.8449863562503013E-01 
    5.8449316069613244E-01 
    6.0135703019956011E-01 
    6.0135101561738247E-01 
    5.8448699151325323E-01 
    5.8448015423488131E-01 
    6.0134435382588247E-01 
    6.0133707296881300E-01 
    5.8447267635528455E-01 
    5.8446458672815160E-01 
    6.0132920264246470E-01 
    6.0132077390963734E-01 
    5.8445591558506549E-01 
    5.8444669454837483E-01 
    6.0131181930805322E-01 
    6.0130237285297516E-01 
    5.8443695663794748E-01 
    5.8442673627088293E-01 
    6.0129247003336039E-01 
    6.0128214780027556E-01 
    5.8441606925263567E-01 
    5.8440499275709001E-01 
    6.0127144454548020E-01 
    6.0126040006699644E-01 
    5.8439354529186949E-01 
    5.8438176664333086E-01 
    6.0124905551691032E-01 
    6.0123745332439693E-01 
    5.8436969779300230E-01 
    5.8435738079314825E-01 
    6.0122563708355603E-01 
    6.0121365139041927E-01 
    5.8434485858284313E-01 
    5.8433217471584520E-01 
    6.0120154160519890E-01 
    6.0118935350229319E-01 
    5.8431937295491521E-01 
    5.8430649665882106E-01 
    6.0117713274768403E-01 
    6.0116492410355604E-01 
    5.8429358783828955E-01 
    5.8428068566569147E-01 
    6.0115277018805480E-01 
    6.0114070948224041E-01 
    5.8426782404717970E-01 
    5.8425502750891201E-01 
    6.0112877300774192E-01 
    6.0111697854100610E-01 
    5.8424230388246823E-01 
    5.8422963050905363E-01 
    6.0110531999960692E-01 
    6.0109374670853621E-01 
    5.8421692625440025E-01 
    5.8420398919233973E-01 
    6.0108211951077362E-01 
    6.0107010683957218E-01 
    5.8419033923554475E-01 
    5.8417475256191542E-01 