# vtk DataFile Version 2.0
Pressure Field Data 
ASCII 
DATASET UNSTRUCTURED_GRID 

POINTS 1681 double 

    0.0000000000000000E+00     0.0000000000000000E+00     0.0000000000000000E+00 
    1.0000000000000000E+00     0.0000000000000000E+00     0.0000000000000000E+00 
    1.0000000000000000E+00     1.0000000000000000E+00     0.0000000000000000E+00 
    0.0000000000000000E+00     1.0000000000000000E+00     0.0000000000000000E+00 
    5.2499999999875258E-01     0.0000000000000000E+00     0.0000000000000000E+00 
    7.4999999999856765E-02     0.0000000000000000E+00     0.0000000000000000E+00 
    1.2499999999975850E-01     0.0000000000000000E+00     0.0000000000000000E+00 
    1.7499999999962990E-01     0.0000000000000000E+00     0.0000000000000000E+00 
    2.2499999999948389E-01     0.0000000000000000E+00     0.0000000000000000E+00 
    2.7499999999933789E-01     0.0000000000000000E+00     0.0000000000000000E+00 
    3.2499999999919210E-01     0.0000000000000000E+00     0.0000000000000000E+00 
    3.7499999999904610E-01     0.0000000000000000E+00     0.0000000000000000E+00 
    4.2499999999890020E-01     0.0000000000000000E+00     0.0000000000000000E+00 
    4.7499999999875958E-01     0.0000000000000000E+00     0.0000000000000000E+00 
    2.4999999999949701E-02     0.0000000000000000E+00     0.0000000000000000E+00 
    5.7499999999887907E-01     0.0000000000000000E+00     0.0000000000000000E+00 
    6.2499999999901101E-01     0.0000000000000000E+00     0.0000000000000000E+00 
    6.7499999999914273E-01     0.0000000000000000E+00     0.0000000000000000E+00 
    7.2499999999927467E-01     0.0000000000000000E+00     0.0000000000000000E+00 
    7.7499999999940661E-01     0.0000000000000000E+00     0.0000000000000000E+00 
    8.2499999999953844E-01     0.0000000000000000E+00     0.0000000000000000E+00 
    8.7499999999967026E-01     0.0000000000000000E+00     0.0000000000000000E+00 
    9.2499999999980220E-01     0.0000000000000000E+00     0.0000000000000000E+00 
    9.7499999999993414E-01     0.0000000000000000E+00     0.0000000000000000E+00 
    5.4999999999881310E-01     0.0000000000000000E+00     0.0000000000000000E+00 
    9.9999999999814140E-02     0.0000000000000000E+00     0.0000000000000000E+00 
    1.4999999999970290E-01     0.0000000000000000E+00     0.0000000000000000E+00 
    1.9999999999955689E-01     0.0000000000000000E+00     0.0000000000000000E+00 
    2.4999999999941089E-01     0.0000000000000000E+00     0.0000000000000000E+00 
    2.9999999999926502E-01     0.0000000000000000E+00     0.0000000000000000E+00 
    3.4999999999911913E-01     0.0000000000000000E+00     0.0000000000000000E+00 
    3.9999999999897312E-01     0.0000000000000000E+00     0.0000000000000000E+00 
    4.4999999999882723E-01     0.0000000000000000E+00     0.0000000000000000E+00 
    4.9999999999869210E-01     0.0000000000000000E+00     0.0000000000000000E+00 
    4.9999999999899403E-02     0.0000000000000000E+00     0.0000000000000000E+00 
    5.9999999999894504E-01     0.0000000000000000E+00     0.0000000000000000E+00 
    6.4999999999907687E-01     0.0000000000000000E+00     0.0000000000000000E+00 
    6.9999999999920870E-01     0.0000000000000000E+00     0.0000000000000000E+00 
    7.4999999999934064E-01     0.0000000000000000E+00     0.0000000000000000E+00 
    7.9999999999947247E-01     0.0000000000000000E+00     0.0000000000000000E+00 
    8.4999999999960441E-01     0.0000000000000000E+00     0.0000000000000000E+00 
    8.9999999999973623E-01     0.0000000000000000E+00     0.0000000000000000E+00 
    9.4999999999986817E-01     0.0000000000000000E+00     0.0000000000000000E+00 
    1.0000000000000000E+00     5.2499999999875258E-01     0.0000000000000000E+00 
    1.0000000000000000E+00     7.4999999999856765E-02     0.0000000000000000E+00 
    1.0000000000000000E+00     1.2499999999975850E-01     0.0000000000000000E+00 
    1.0000000000000000E+00     1.7499999999962990E-01     0.0000000000000000E+00 
    1.0000000000000000E+00     2.2499999999948389E-01     0.0000000000000000E+00 
    1.0000000000000000E+00     2.7499999999933789E-01     0.0000000000000000E+00 
    1.0000000000000000E+00     3.2499999999919210E-01     0.0000000000000000E+00 
    1.0000000000000000E+00     3.7499999999904610E-01     0.0000000000000000E+00 
    1.0000000000000000E+00     4.2499999999890020E-01     0.0000000000000000E+00 
    1.0000000000000000E+00     4.7499999999875958E-01     0.0000000000000000E+00 
    1.0000000000000000E+00     2.4999999999949701E-02     0.0000000000000000E+00 
    1.0000000000000000E+00     5.7499999999887907E-01     0.0000000000000000E+00 
    1.0000000000000000E+00     6.2499999999901101E-01     0.0000000000000000E+00 
    1.0000000000000000E+00     6.7499999999914273E-01     0.0000000000000000E+00 
    1.0000000000000000E+00     7.2499999999927467E-01     0.0000000000000000E+00 
    1.0000000000000000E+00     7.7499999999940661E-01     0.0000000000000000E+00 
    1.0000000000000000E+00     8.2499999999953844E-01     0.0000000000000000E+00 
    1.0000000000000000E+00     8.7499999999967026E-01     0.0000000000000000E+00 
    1.0000000000000000E+00     9.2499999999980220E-01     0.0000000000000000E+00 
    1.0000000000000000E+00     9.7499999999993414E-01     0.0000000000000000E+00 
    1.0000000000000000E+00     5.4999999999881310E-01     0.0000000000000000E+00 
    1.0000000000000000E+00     9.9999999999814140E-02     0.0000000000000000E+00 
    1.0000000000000000E+00     1.4999999999970290E-01     0.0000000000000000E+00 
    1.0000000000000000E+00     1.9999999999955689E-01     0.0000000000000000E+00 
    1.0000000000000000E+00     2.4999999999941089E-01     0.0000000000000000E+00 
    1.0000000000000000E+00     2.9999999999926502E-01     0.0000000000000000E+00 
    1.0000000000000000E+00     3.4999999999911913E-01     0.0000000000000000E+00 
    1.0000000000000000E+00     3.9999999999897312E-01     0.0000000000000000E+00 
    1.0000000000000000E+00     4.4999999999882723E-01     0.0000000000000000E+00 
    1.0000000000000000E+00     4.9999999999869210E-01     0.0000000000000000E+00 
    1.0000000000000000E+00     4.9999999999899403E-02     0.0000000000000000E+00 
    1.0000000000000000E+00     5.9999999999894504E-01     0.0000000000000000E+00 
    1.0000000000000000E+00     6.4999999999907687E-01     0.0000000000000000E+00 
    1.0000000000000000E+00     6.9999999999920870E-01     0.0000000000000000E+00 
    1.0000000000000000E+00     7.4999999999934064E-01     0.0000000000000000E+00 
    1.0000000000000000E+00     7.9999999999947247E-01     0.0000000000000000E+00 
    1.0000000000000000E+00     8.4999999999960441E-01     0.0000000000000000E+00 
    1.0000000000000000E+00     8.9999999999973623E-01     0.0000000000000000E+00 
    1.0000000000000000E+00     9.4999999999986817E-01     0.0000000000000000E+00 
    4.7500000000196618E-01     1.0000000000000000E+00     0.0000000000000000E+00 
    9.2499999999968763E-01     1.0000000000000000E+00     0.0000000000000000E+00 
    8.7499999999961831E-01     1.0000000000000000E+00     0.0000000000000000E+00 
    8.2499999999982654E-01     1.0000000000000000E+00     0.0000000000000000E+00 
    7.7500000000017355E-01     1.0000000000000000E+00     0.0000000000000000E+00 
    7.2500000000052045E-01     1.0000000000000000E+00     0.0000000000000000E+00 
    6.7500000000086724E-01     1.0000000000000000E+00     0.0000000000000000E+00 
    6.2500000000121403E-01     1.0000000000000000E+00     0.0000000000000000E+00 
    5.7500000000156093E-01     1.0000000000000000E+00     0.0000000000000000E+00 
    5.2500000000189684E-01     1.0000000000000000E+00     0.0000000000000000E+00 
    9.7499999999989595E-01     1.0000000000000000E+00     0.0000000000000000E+00 
    4.2500000000176902E-01     1.0000000000000000E+00     0.0000000000000000E+00 
    3.7500000000156092E-01     1.0000000000000000E+00     0.0000000000000000E+00 
    3.2500000000135282E-01     1.0000000000000000E+00     0.0000000000000000E+00 
    2.7500000000114472E-01     1.0000000000000000E+00     0.0000000000000000E+00 
    2.2500000000093659E-01     1.0000000000000000E+00     0.0000000000000000E+00 
    1.7500000000072849E-01     1.0000000000000000E+00     0.0000000000000000E+00 
    1.2500000000052039E-01     1.0000000000000000E+00     0.0000000000000000E+00 
    7.5000000000312261E-02     1.0000000000000000E+00     0.0000000000000000E+00 
    2.5000000000104109E-02     1.0000000000000000E+00     0.0000000000000000E+00 
    4.5000000000187301E-01     1.0000000000000000E+00     0.0000000000000000E+00 
    8.9999999999958358E-01     1.0000000000000000E+00     0.0000000000000000E+00 
    8.4999999999965303E-01     1.0000000000000000E+00     0.0000000000000000E+00 
    8.0000000000000004E-01     1.0000000000000000E+00     0.0000000000000000E+00 
    7.5000000000034706E-01     1.0000000000000000E+00     0.0000000000000000E+00 
    7.0000000000069384E-01     1.0000000000000000E+00     0.0000000000000000E+00 
    6.5000000000104063E-01     1.0000000000000000E+00     0.0000000000000000E+00 
    6.0000000000138742E-01     1.0000000000000000E+00     0.0000000000000000E+00 
    5.5000000000173432E-01     1.0000000000000000E+00     0.0000000000000000E+00 
    5.0000000000205946E-01     1.0000000000000000E+00     0.0000000000000000E+00 
    9.4999999999979179E-01     1.0000000000000000E+00     0.0000000000000000E+00 
    4.0000000000166491E-01     1.0000000000000000E+00     0.0000000000000000E+00 
    3.5000000000145681E-01     1.0000000000000000E+00     0.0000000000000000E+00 
    3.0000000000124871E-01     1.0000000000000000E+00     0.0000000000000000E+00 
    2.5000000000104061E-01     1.0000000000000000E+00     0.0000000000000000E+00 
    2.0000000000083251E-01     1.0000000000000000E+00     0.0000000000000000E+00 
    1.5000000000062441E-01     1.0000000000000000E+00     0.0000000000000000E+00 
    1.0000000000041630E-01     1.0000000000000000E+00     0.0000000000000000E+00 
[...]
CELL_DATA 1600 
SCALARS Pressure double 1 
LOOKUP_TABLE default 

    9.9447931586277827E-01 
    9.7339992538600217E-01 
    9.7329027726409789E-01 
    9.9250459055338025E-01 
    9.9065100392607286E-01 
    9.7309013207975381E-01 
    9.7281674639030602E-01 
    9.8891882582490187E-01 
    9.8729767314570305E-01 
    9.7248403152424590E-01 
    9.7210367916666285E-01 
    9.8577764208018492E-01 
    9.8434979331783568E-01 
    9.7168556539039208E-01 
    9.7123805852690959E-01 
    9.8300618397420769E-01 
    9.8173980068402733E-01 
    9.7076826731598742E-01 
    9.7028224461484602E-01 
    9.8054446897229308E-01 
    9.7941476115847015E-01 
    9.6978515610027216E-01 
    9.6928142072026613E-01 
    9.7834591021515638E-01 
    9.7733373190299244E-01 
    9.6877482805892834E-01 
    9.6826863669024066E-01 
    9.7637455554800601E-01 
    9.7546516304889386E-01 
    9.6776565679579152E-01 
    9.6726831970692029E-01 
    9.7460273540804299E-01 
    9.7378480599807371E-01 
    9.6677873654773749E-01 
    9.6629874776772495E-01 
    9.7300921978766397E-01 
    9.7227409780263807E-01 
    9.6582996503806040E-01 
    9.6537380672773720E-01 
    9.7157780616489731E-01 
    9.7091892911984146E-01 
    9.6493152796101689E-01 
    9.6450424607587848E-01 
    9.7029624552549509E-01 
    9.6970870832902911E-01 
    9.6409296214381601E-01 
    9.6369857906333745E-01 
    9.6915542659402942E-01 
    9.6863564965763627E-01 
    9.6332191658810262E-01 
    9.6296372347263726E-01 
    9.6814875297733771E-01 
    9.6769422514601711E-01 
    9.6262468667271028E-01 
    9.6230543714418115E-01 
    9.6727165535545356E-01 
    9.6688072015454063E-01 
    9.6200655108079791E-01 
    9.6172854407102248E-01 
    9.6652116741992877E-01 
    9.6619279345269582E-01 
    9.6147185286487347E-01 
    9.6123679342707580E-01 
    9.6589540470339375E-01 
    9.6562874567307477E-01 
    9.6102347030372992E-01 
    9.6083157982151679E-01 
    9.6539235132647716E-01 
    9.6518522663831474E-01 
    9.6065997055007524E-01 
    9.6050566988433239E-01 
    9.6500513234986662E-01 
    9.6484725716491881E-01 
    9.6036312825383607E-01 
    9.6023833911484835E-01 
    9.6470885574623388E-01 
    9.6461207825859452E-01 
    9.6015508417283479E-01 
    9.6011610870251041E-01 
    9.6456649444880838E-01 
    9.5919250074673057E-01 
    9.4527347251981164E-01 
    9.4525923728363015E-01 
    9.5916283131370128E-01 
    9.5910410927007494E-01 
    9.4523088913284936E-01 
    9.4518873038342266E-01 
    9.5901761589081069E-01 
    9.5890498034727023E-01 
    9.4513317389634144E-01 
    9.4506473327323703E-01 
    9.5876806923955515E-01 
    9.5860890139864874E-01 
    9.4498401146127509E-01 
    9.4489168831887516E-01 
    9.5842958071840700E-01 
    9.5823224457049483E-01 
    9.4478850817431359E-01 
    9.4467526794213308E-01 
    9.5801902493726598E-01 
    9.5779201970428596E-01 
    9.4455280608601588E-01 
    9.4442199256412140E-01 
    9.5755327198045415E-01 
    9.5730475571150941E-01 
    9.4428371980282488E-01 
    9.4413889468869372E-01 
    9.5704836619084888E-01 
    9.5678591434944538E-01 
    9.4398843153242529E-01 
    9.4383324593467088E-01 
    9.5651912393142535E-01 
    9.5624963084200876E-01 
    9.4367424946733713E-01 
    9.4351234507159132E-01 
    9.5597898409753024E-01 
    9.5570864791936327E-01 
    9.4334842306240974E-01 
    9.4318335761600303E-01 
    9.5544000459931577E-01 
    9.5517435782629523E-01 
    9.4301800359700705E-01 
    9.4285319355140729E-01 
    9.5491293620351692E-01 
    9.5465689670016485E-01 
    9.4268973463995664E-01 
    9.4252840520026582E-01 
    9.5440732776454351E-01 
    9.5416525176294986E-01 
    9.4236995047659544E-01 
    9.4221507679357008E-01 
    9.5393162627055905E-01 
    9.5370734346958530E-01 
    9.4206444297326142E-01 
    9.4191864689856886E-01 
    9.5349322638837675E-01 
    9.5329001969707594E-01 
    9.4177820336798257E-01 
    9.4164350577480516E-01 
    9.5309837072303605E-01 
    9.5291879202684227E-01 
    9.4151475633344761E-01 
    9.4139183171004825E-01 
    9.5275158731475951E-01 
    9.5259670018570575E-01 
    9.4127400803936911E-01 
    9.4115937070284594E-01 
    9.5245339099998305E-01 
    9.5231952384856955E-01 
    9.4104376615933594E-01 
    9.4092402315062251E-01 
    9.5219041123720727E-01 
    9.5206490241849473E-01 
    9.4081412689500088E-01 
    9.4073551043230075E-01 
    9.5196278582560812E-01 
    9.5189923069190607E-01 
    9.4068746624011146E-01 
    9.4066394946704102E-01 
    9.5186921112039269E-01 
    9.3051320549036831E-01 
    9.1458083191738071E-01 
    9.1457415359590732E-01 
    9.3050432579594400E-01 
    9.3048663940905907E-01 
    9.1456085555438593E-01 
    9.1454105325853763E-01 
    9.3046030548620351E-01 
    9.3042552894282282E-01 
    9.1451488746318288E-01 
    9.1448252204571812E-01 
    9.3038255839167672E-01 
    9.3033168409147271E-01 
    9.1444414321062106E-01 
    9.1439995858180012E-01 
    9.3027323522086369E-01 
    9.3020757670930321E-01 
    9.1435019605998080E-01 
    9.1429510248587831E-01 
    9.3013510582803516E-01 
    9.3005624867586034E-01 
    9.1423494215766909E-01 
    9.1416999523678144E-01 
    9.2997145664732495E-01 
    9.2988120294004950E-01 
    9.1410055606095442E-01 
    9.1402693137027269E-01 
    9.2978597913590433E-01 
    9.2968629187329632E-01 
    9.1394943843936038E-01 
    9.1386840309549366E-01 
    9.2958265961232112E-01 
    9.2947560947906527E-01 
    9.1378415758613174E-01 
    9.1369703823783932E-01 
    9.2936567415809501E-01 
    9.2925338878091845E-01 
    9.1360738281822629E-01 
    9.1351552746781117E-01 
    9.2913928772976884E-01 
    9.2902390123533352E-01 
    9.1342180300042619E-01 
    9.1332653026301713E-01 
    9.2890775158568384E-01 
    9.2879134866701751E-01 
    9.1323001407002324E-01 
    9.1313253493100976E-01 
    9.2867518439862540E-01 
    9.2855972535555753E-01 
    9.1303433727039129E-01 
    9.1293561188715633E-01 
    9.2844540239722817E-01 
    9.2833259524503242E-01 
    9.1283646858088863E-01 
    9.1273689120549928E-01 
    9.2822160826646771E-01 
    9.2811263030951308E-01 
    9.1263665960829143E-01 
    9.1253520532750987E-01 
    9.2800566412684404E-01 
    9.2790039440653449E-01 
    9.1243132729438547E-01 
    9.1232261867513753E-01 
    9.2779592418612622E-01 
    9.2769022298590431E-01 
    9.1220470988973423E-01 
    9.1207501036408301E-01 
    9.2757919085618568E-01 
    9.2745933728416785E-01 
    9.1194570694384236E-01 
    9.1184106256847064E-01 
    9.2734202745089367E-01 
    9.2725082387642843E-01 
    9.1176686239530680E-01 
    9.1171444328214057E-01 
    9.2718945988512258E-01 
    9.2715034290806431E-01 
    9.1167958252203141E-01 
    9.1166214617611763E-01 
    9.2713079250969876E-01 
    8.9736358764208990E-01 
    8.7881979311875946E-01 
    8.7881407776674136E-01 
    8.9735775917186322E-01 
    8.9734615007627938E-01 
    8.7880268201969214E-01 
    8.7878567556385367E-01 
    8.9732885179627642E-01 
    8.9730597266136281E-01 
    8.7876314029286817E-01 
    8.7873516664482643E-01 
    8.9727763491677059E-01 
    8.9724397397458922E-01 
    8.7870185261746281E-01 
    8.7866330321128638E-01 
    8.9720513789806444E-01 
    8.9716128678457807E-01 
    8.7861962983191977E-01 
    8.7857094953341830E-01 
    8.9711259199561444E-01 
    8.9705923523567110E-01 
    8.7851738406454449E-01 
    8.7845905869152408E-01 
    8.9700140748501456E-01 
    8.9693930778186115E-01 
    8.7839610076098096E-01 
    8.7832863794723959E-01 
    8.9687314183655920E-01 
    8.9680312044464838E-01 
    8.7825679610027607E-01 
    8.7818069657137476E-01 
    8.9672945764586054E-01 
    8.9665236854941299E-01 
    8.7810045283685390E-01 
    8.7801616615562550E-01 
    8.9657206670794454E-01 
    8.9648876086610763E-01 
    8.7792791986609031E-01 
    8.7783577172089211E-01 
    8.9640265082349746E-01 
    8.9631392201503279E-01 
    8.7773974331850280E-01 
    8.7763980511436701E-01 
    8.9622273818908016E-01 
    8.9612923118777899E-01 
    8.7753585448124993E-01 
    8.7742768243590818E-01 
    8.9603348617678957E-01 
    8.9593551947294103E-01 
    8.7731492111101572E-01 
    8.7719695703816247E-01 
    8.9583524382262436E-01 
    8.9573241135946180E-01 
    8.7707278147093226E-01 
    8.7694072646980059E-01 
    8.9562651468316912E-01 
    8.9551660505344055E-01 
    8.7679804995521338E-01 
    8.7664085780339429E-01 
    8.9540094370297829E-01 
    8.9527639271292359E-01 
    8.7646749553490289E-01 
    8.7628633397660127E-01 
    8.9513845547116888E-01 
    8.9498784022975197E-01 
    8.7611877211745537E-01 
    8.7598364121546612E-01 
    8.9484086584198697E-01 
    8.9472094628914567E-01 
    8.7588067351768706E-01 
    8.7579963286585716E-01 
    8.9463261963911378E-01 
    8.9456630575519946E-01 
    8.7573514689096499E-01 
    8.7568678965464519E-01 
    8.9451681183551635E-01 
    8.9448380683664164E-01 
    8.7565455484259558E-01 
    8.7563843844264055E-01 
    8.9446730159846033E-01 
    8.5892346457768509E-01 
    8.3763074629363776E-01 
    8.3762357975816570E-01 
    8.5891731994285869E-01 
    8.5890504622659358E-01 
    8.3760922750551081E-01 
    8.3758768075741907E-01 
    8.5888668427683046E-01 
    8.5886228281426880E-01 
    8.3755893189265063E-01 
    8.3752297005735632E-01 
    8.5883189431946005E-01 
    8.5879557365103854E-01 
    8.3747977897955084E-01 
    8.3742933492547789E-01 
    8.5875337711388000E-01 
    8.5870536143418219E-01 
    8.3737160422734991E-01 
    8.3730654013036365E-01 
    8.5865158246735662E-01 
    8.5859209354898836E-01 
    8.3723407875246769E-01 
    8.3715413390604221E-01 
    8.5852694340405689E-01 
    8.5845617350374626E-01 
    8.3706659043596054E-01 
    8.3697129557834049E-01 
    8.5837981471275004E-01 
    8.5829788300021281E-01 
    8.3686804761162359E-01 
    8.3675658070339232E-01 
    8.5821037388369459E-01 
    8.5811725511840609E-01 
    8.3663654426638723E-01 
    8.3650747421305416E-01 
    8.5801845689971279E-01 
    8.5791385845616230E-01 
    8.3636875219688711E-01 
    8.3621954772387008E-01 
    8.5780326926509887E-01 
    8.5768640202183932E-01 
    8.3605873949957121E-01 
    8.3588482607291348E-01 
    8.5756283255913168E-01 
    8.5743193848192900E-01 
    8.3569588956253449E-01 
    8.3548982660961657E-01 
    8.5729280253667695E-01 
    8.5714406012739053E-01 
    8.3526530017850431E-01 
    8.3502367497044172E-01 
    8.5698368290870297E-01 
    8.5680883993059309E-01 
    8.3477084098024068E-01 
    8.3451745325714355E-01 
    8.5661666936331871E-01 
    8.5640769314620591E-01 
    8.3427836989806525E-01 
    8.3406879351786434E-01 
    8.5619011963427283E-01 
    8.5598073491806481E-01 
    8.3389625114599464E-01 
    8.3375764249924622E-01 
    8.5579959204406142E-01 
    8.5565526569998751E-01 
    8.3364309379835899E-01 
    8.3354495549339502E-01 
    8.5554117464340274E-01 
    8.5544735307931441E-01 
    8.3346111754599850E-01 
    8.3339139900832426E-01 
    8.5536949610225732E-01 
    8.5530727540006002E-01 
    8.3333571936535500E-01 
    8.3329401487884058E-01 
    8.5526064747103259E-01 
    8.5522958005118277E-01 
    8.3326623809562317E-01 
    8.3325235754645366E-01 
    8.5521405169359710E-01 
    8.1483884029739484E-01 
    7.9030960207538881E-01 
    7.9029589632319375E-01 
    8.1482964925116941E-01 
    8.1481117705134010E-01 
    7.9026826954221152E-01 
    7.9022643718319407E-01 
    8.1478331498587619E-01 
    8.1474594193909944E-01 
    7.9017007107783599E-01 
    7.9009879130190674E-01 
    8.1469891919263637E-01 
    8.1464208575266683E-01 
    7.9001215935536617E-01 
    7.8990967576074489E-01 
    8.1457525269304965E-01 
    8.1449819588875305E-01 
    7.8979078707262029E-01 
    7.8965490980933184E-01 
    8.1441064659881401E-01 
    8.1431227920114546E-01 
    7.8950148137374598E-01 
    7.8933004967255593E-01 
    8.1420269519819777E-01 
    8.1408140257674577E-01 
    7.8914041149592951E-01 
    7.8893280122232401E-01 
    8.1394779008560658E-01 
    8.1380109784134813E-01 
    7.8870811402470065E-01 
    7.8846812476653394E-01 
    8.1364039055356596E-01 
    8.1346455051249145E-01 
    7.8821564727729043E-01 
    7.8795458495108717E-01 
    8.1327232806732197E-01 
    8.1306251775504723E-01 
    7.8768985774157152E-01 
    7.8742722767499485E-01 
    8.1283434948632560E-01 
    8.1258813607269920E-01 
    7.8717303143507078E-01 
    7.8693375705057500E-01 
    8.1232603682541593E-01 
    8.1205258700791050E-01 
    7.8671541000595802E-01 
    7.8652277783201263E-01 
    8.1177473299560854E-01 
    8.1150154236821281E-01 
    7.8635872492226744E-01 
    7.8622340388877943E-01 
    8.1124363752374207E-01 
    8.1101139996604832E-01 
    7.8611350599644791E-01 
    7.8602275160468849E-01 
    8.1081202891690418E-01 
    8.1064745521067305E-01 
    7.8594446220717484E-01 
    7.8587430801449965E-01 
    8.1051340002085648E-01 
    8.1040114383111539E-01 
    7.8581069911297508E-01 
    7.8575337995778571E-01 
    8.1030328919712757E-01 
    8.1021690972453364E-01 
    7.8570236227452883E-01 
    7.8565767010999543E-01 
    8.1014153276202228E-01 
    8.1007706933934709E-01 
    7.8561932436398840E-01 
    7.8558734279121911E-01 
    8.1002345133857812E-01 
    8.0998062284162309E-01 
    7.8556174007489921E-01 
    7.8554252788806078E-01 
    8.0994853966025404E-01 
    8.0992716896932559E-01 
    7.8552971494259693E-01 
    7.8552330702602358E-01 
    8.0991648903496660E-01 
    7.6359615224957633E-01 
    7.3546082334946650E-01 
    7.3544920980995920E-01 
    7.6357297020986148E-01 
    7.6352708402810576E-01 
    7.3542713240010260E-01 
    7.3539629099336568E-01 
    7.6345930347520574E-01 
    7.6337063835484209E-01 
    7.3535855710256814E-01 
    7.3531588678993665E-01 
    7.6326232376867653E-01 
    7.6313586238695597E-01 
    7.3527027383840238E-01 
    7.3522371591665814E-01 
    7.6299306450375881E-01 
    7.6283607634112716E-01 
    7.3517818286918413E-01 
    7.3513557958959463E-01 
    7.6266738920647192E-01 
    7.6248982573437407E-01 
    7.3509769696952776E-01 
    7.3506614388959890E-01 
    7.6230650255136345E-01 
    7.6212077078893725E-01 
    7.3504225428149350E-01 
    7.3502696831315961E-01 
    7.6193613796503568E-01 
    7.6175617335654022E-01 
    7.3502069746671417E-01 
    7.3502320096950102E-01 
    7.6158439797111877E-01 
    7.6142415952832532E-01 
    7.3503351969933339E-01 
    7.3505002177590995E-01 
    7.6127849028074834E-01 
    7.6114993449109192E-01 
    7.3507059705780331E-01 
    7.3509298881786844E-01 
    7.6104031174842535E-01 
    7.6095038007117655E-01 
    7.3511518123099817E-01 
    7.3513570949054707E-01 
    7.6087943766510724E-01 
    7.6082507489558071E-01 
    7.3515377691662209E-01 
    7.3516915984701137E-01 
    7.6078341444988884E-01 
    7.6075000760858524E-01 
    7.3518199074152379E-01 
    7.3519254870392858E-01 
    7.6072105747516039E-01 
    7.6069423984520701E-01 
    7.3520113506126816E-01 
    7.3520802982446787E-01 
    7.6066865879762291E-01 
    7.6064423023930061E-01 
    7.3521348601641390E-01 
    7.3521773168976201E-01 
    7.6062112538245696E-01 
    7.6059953791164336E-01 
    7.3522097157250599E-01 
    7.3522338827564904E-01 
    7.6057964140200207E-01 
    7.6056158847388178E-01 
    7.3522514334317424E-01 
    7.3522637817250514E-01 
    7.6054551202384268E-01 
    7.6053152623809850E-01 
    7.3522721481323472E-01 
    7.3522775665128470E-01 
    7.6051972745537433E-01 
    7.6051019488950133E-01 
    7.3522808898458047E-01 
    7.3522827949531666E-01 
    7.6050299121978537E-01 
    7.6049816305568751E-01 
    7.3522837862294554E-01 
    7.3522841984113196E-01 
    7.6049574128094111E-01 
    7.0905649198222387E-01 
    6.8427937075326295E-01 
    6.8428348067890588E-01 
    7.0906253352418491E-01 
    7.0907453162637690E-01 
    6.8429134275275738E-01 
    6.8430245254919719E-01 
    7.0909236429282330E-01 
    7.0911586100223489E-01 
    6.8431629196004973E-01 
    6.8433236348805104E-01 
    7.0914476075902821E-01 
    7.0917867478552465E-01 
    6.8435020805362712E-01 
    6.8436941389362393E-01 
    7.0921705999726581E-01 
    7.0925920856524260E-01 
    6.8438961942684828E-01 
    6.8441051179884316E-01 
    7.0930425882928949E-01 
    7.0935123030811831E-01 
    6.8443182249880419E-01 
    6.8445332138471859E-01 
    7.0939908167261800E-01 
    7.0944678599816813E-01 
    6.8447481048715775E-01 
    6.8449611867050331E-01 
    7.0949341154259316E-01 
    7.0953819253578088E-01 
    6.8451709774068881E-01 
    6.8453762003939189E-01 
    7.0958057463072832E-01 
    7.0962022515509826E-01 
    6.8455757707755938E-01 
    6.8457687855242977E-01 
    7.0965700835890888E-01 
    7.0969093606672995E-01 
    6.8459545120360632E-01 
    6.8461323727904122E-01 
    7.0972211044911226E-01 
    7.0975067514640711E-01 
    6.8463019269252190E-01 
    6.8464628510011016E-01 
    7.0977678398586708E-01 
    7.0980058710014660E-01 
    6.8466149209079130E-01 
    6.8467579957576075E-01 
    7.0982222783234006E-01 
    7.0984184328716105E-01 
    6.8468920037404923E-01 
    6.8470169296283201E-01 
    7.0985956475713052E-01 
    7.0987551741748267E-01 
    6.8471328036583290E-01 
    6.8472396916343847E-01 
    7.0988981976882337E-01 
    7.0990258313581811E-01 
    6.8473376861310276E-01 
    6.8474268987020293E-01 
    7.0991391126687453E-01 
    7.0992390001382777E-01 
    6.8475074530039282E-01 
    6.8475794787539312E-01 
    7.0993263707547549E-01 
    7.0994020179368800E-01 
    6.8476431064502730E-01 
    6.8476984627913362E-01 
    7.0994666499270032E-01 
    7.0995208885366989E-01 
    6.8477456667376113E-01 
    6.8477848261678642E-01 
    7.0995652681787547E-01 
    7.0996002351306731E-01 
    6.8478160350878359E-01 
    6.8478393713563790E-01 
    7.0996261469848920E-01 
    7.0996432722498193E-01 
    6.8478548949002727E-01 
    6.8478626463949510E-01 
    7.0996517900740375E-01 
    6.5945570865459202E-01 
    6.3452541789586470E-01 
    6.3452581760076709E-01 
    6.5945679622678521E-01 
    6.5945894548327277E-01 
    6.3452661240864083E-01 
    6.3452779329818665E-01 
    6.5946210962708529E-01 
    6.5946622627501650E-01 
    6.3452934714738063E-01 
    6.3453125714011349E-01 
    6.5947122163803862E-01 
    6.5947701410470294E-01 
    6.3453350322623581E-01 
    6.3453606260727291E-01 
    6.5948351726308052E-01 
    6.5949064239253008E-01 
    6.3453891022613995E-01 
    6.3454201924450526E-01 
    6.5949830046515012E-01 
    6.5950640370817415E-01 
    6.3454536149609264E-01 
    6.3454890790811125E-01 
    6.5951486678916693E-01 
    6.5952360769244878E-01 
    6.3455262888615482E-01 
    6.3455649466029584E-01 
    6.5953254835364528E-01 
    6.5954161510958531E-01 
    6.3456047559178463E-01 
    6.3456454244087146E-01 
    6.5955073900579819E-01 
    6.5955985598818634E-01 
    6.3456866659697819E-01 
    6.3457282027291095E-01 
    6.5956890699382520E-01 
    6.5957783795059866E-01 
    6.3457697666517876E-01 
    6.3458111008277807E-01 
    6.5958659969557820E-01 
    6.5959514782469220E-01 
    6.3458519604707619E-01 
    6.3458921136560498E-01 
    6.5960344248824887E-01 
    6.5961144814686379E-01 
    6.3459313418268160E-01 
    6.3459694400976929E-01 
    6.5961913330063271E-01 
    6.5962647020203546E-01 
    6.3460062173843013E-01 
    6.3460414963860046E-01 
    6.5963343456092904E-01 
    6.5964000524831168E-01 
    6.3460751134476390E-01 
    6.3461069183242669E-01 
    6.5964616400423992E-01 
    6.5965189515423461E-01 
    6.3461367738710772E-01 
    6.3461645556787394E-01 
    6.5965718533764595E-01 
    6.5966202325072631E-01 
    6.3461901516725638E-01 
    6.3462134616919907E-01 
    6.5966639940657246E-01 
    6.5967030591361597E-01 
    6.3462343970651347E-01 
    6.3462528801913987E-01 
    6.5967373627394943E-01 
    6.5967668520246092E-01 
    6.3462688441435600E-01 
    6.3462822322991674E-01 