# vtk DataFile Version 2.0
Pressure Field Data 
ASCII 
DATASET UNSTRUCTURED_GRID 

POINTS 1681 double 

    0.0000000000000000E+00     0.0000000000000000E+00     0.0000000000000000E+00 
    1.0000000000000000E+00     0.0000000000000000E+00     0.0000000000000000E+00 
    1.0000000000000000E+00     1.0000000000000000E+00     0.0000000000000000E+00 
    0.0000000000000000E+00     1.0000000000000000E+00     0.0000000000000000E+00 
    5.2499999999875258E-01     0.0000000000000000E+00     0.0000000000000000E+00 
    7.4999999999856765E-02     0.0000000000000000E+00     0.0000000000000000E+00 
    1.2499999999975850E-01     0.0000000000000000E+00     0.0000000000000000E+00 
    1.7499999999962990E-01     0.0000000000000000E+00     0.0000000000000000E+00 
    2.2499999999948389E-01     0.0000000000000000E+00     0.0000000000000000E+00 
    2.7499999999933789E-01     0.0000000000000000E+00     0.0000000000000000E+00 
    3.2499999999919210E-01     0.0000000000000000E+00     0.0000000000000000E+00 
    3.7499999999904610E-01     0.0000000000000000E+00     0.0000000000000000E+00 
    4.2499999999890020E-01     0.0000000000000000E+00     0.0000000000000000E+00 
    4.7499999999875958E-01     0.0000000000000000E+00     0.0000000000000000E+00 
    2.4999999999949701E-02     0.0000000000000000E+00     0.0000000000000000E+00 
    5.7499999999887907E-01     0.0000000000000000E+00     0.0000000000000000E+00 
    6.2499999999901101E-01     0.0000000000000000E+00     0.0000000000000000E+00 
    6.7499999999914273E-01     0.0000000000000000E+00     0.0000000000000000E+00 
    7.2499999999927467E-01     0.0000000000000000E+00     0.0000000000000000E+00 
    7.7499999999940661E-01     0.0000000000000000E+00     0.0000000000000000E+00 
    8.2499999999953844E-01     0.0000000000000000E+00     0.0000000000000000E+00 
    8.7499999999967026E-01     0.0000000000000000E+00     0.0000000000000000E+00 
    9.2499999999980220E-01     0.0000000000000000E+00     0.0000000000000000E+00 
    9.7499999999993414E-01     0.0000000000000000E+00     0.0000000000000000E+00 
    5.4999999999881310E-01     0.0000000000000000E+00     0.0000000000000000E+00 
    9.9999999999814140E-02     0.0000000000000000E+00     0.0000000000000000E+00 
    1.4999999999970290E-01     0.0000000000000000E+00     0.0000000000000000E+00 
    1.9999999999955689E-01     0.0000000000000000E+00     0.0000000000000000E+00 
    2.4999999999941089E-01     0.0000000000000000E+00     0.0000000000000000E+00 
    2.9999999999926502E-01     0.0000000000000000E+00     0.0000000000000000E+00 
    3.4999999999911913E-01     0.0000000000000000E+00     0.0000000000000000E+00 
    3.9999999999897312E-01     0.0000000000000000E+00     0.0000000000000000E+00 
    4.4999999999882723E-01     0.0000000000000000E+00     0.0000000000000000E+00 
    4.9999999999869210E-01     0.0000000000000000E+00     0.0000000000000000E+00 
    4.9999999999899403E-02     0.0000000000000000E+00     0.0000000000000000E+00 
    5.9999999999894504E-01     0.0000000000000000E+00     0.0000000000000000E+00 
    6.4999999999907687E-01     0.0000000000000000E+00     0.0000000000000000E+00 
    6.9999999999920870E-01     0.0000000000000000E+00     0.0000000000000000E+00 
    7.4999999999934064E-01     0.0000000000000000E+00     0.0000000000000000E+00 
    7.9999999999947247E-01     0.0000000000000000E+00     0.0000000000000000E+00 
    8.4999999999960441E-01     0.0000000000000000E+00     0.0000000000000000E+00 
    8.9999999999973623E-01     0.0000000000000000E+00     0.0000000000000000E+00 
    9.4999999999986817E-01     0.0000000000000000E+00     0.0000000000000000E+00 
    1.0000000000000000E+00     5.2499999999875258E-01     0.0000000000000000E+00 
    1.0000000000000000E+00     7.4999999999856765E-02     0.0000000000000000E+00 
    1.0000000000000000E+00     1.2499999999975850E-01     0.0000000000000000E+00 
    1.0000000000000000E+00     1.7499999999962990E-01     0.0000000000000000E+00 
    1.0000000000000000E+00     2.2499999999948389E-01     0.0000000000000000E+00 
    1.0000000000000000E+00     2.7499999999933789E-01     0.0000000000000000E+00 
    1.0000000000000000E+00     3.2499999999919210E-01     0.0000000000000000E+00 
    1.0000000000000000E+00     3.7499999999904610E-01     0.0000000000000000E+00 
    1.0000000000000000E+00     4.2499999999890020E-01     0.0000000000000000E+00 
    1.0000000000000000E+00     4.7499999999875958E-01     0.0000000000000000E+00 
    1.0000000000000000E+00     2.4999999999949701E-02     0.0000000000000000E+00 
    1.0000000000000000E+00     5.7499999999887907E-01     0.0000000000000000E+00 
    1.0000000000000000E+00     6.2499999999901101E-01     0.0000000000000000E+00 
    1.0000000000000000E+00     6.7499999999914273E-01     0.0000000000000000E+00 
    1.0000000000000000E+00     7.2499999999927467E-01     0.0000000000000000E+00 
    1.0000000000000000E+00     7.7499999999940661E-01     0.0000000000000000E+00 
    1.0000000000000000E+00     8.2499999999953844E-01     0.0000000000000000E+00 
    1.0000000000000000E+00     8.7499999999967026E-01     0.0000000000000000E+00 
    1.0000000000000000E+00     9.2499999999980220E-01     0.0000000000000000E+00 
    1.0000000000000000E+00     9.7499999999993414E-01     0.0000000000000000E+00 
    1.0000000000000000E+00     5.4999999999881310E-01     0.0000000000000000E+00 
    1.0000000000000000E+00     9.9999999999814140E-02     0.0000000000000000E+00 
    1.0000000000000000E+00     1.4999999999970290E-01     0.0000000000000000E+00 
    1.0000000000000000E+00     1.9999999999955689E-01     0.0000000000000000E+00 
    1.0000000000000000E+00     2.4999999999941089E-01     0.0000000000000000E+00 
    1.0000000000000000E+00     2.9999999999926502E-01     0.0000000000000000E+00 
    1.0000000000000000E+00     3.4999999999911913E-01     0.0000000000000000E+00 
    1.0000000000000000E+00     3.9999999999897312E-01     0.0000000000000000E+00 
    1.0000000000000000E+00     4.4999999999882723E-01     0.0000000000000000E+00 
    1.0000000000000000E+00     4.9999999999869210E-01     0.0000000000000000E+00 
    1.0000000000000000E+00     4.9999999999899403E-02     0.0000000000000000E+00 
    1.0000000000000000E+00     5.9999999999894504E-01     0.0000000000000000E+00 
    1.0000000000000000E+00     6.4999999999907687E-01     0.0000000000000000E+00 
    1.0000000000000000E+00     6.9999999999920870E-01     0.0000000000000000E+00 
    1.0000000000000000E+00     7.4999999999934064E-01     0.0000000000000000E+00 
    1.0000000000000000E+00     7.9999999999947247E-01     0.0000000000000000E+00 
    1.0000000000000000E+00     8.4999999999960441E-01     0.0000000000000000E+00 
    1.0000000000000000E+00     8.9999999999973623E-01     0.0000000000000000E+00 
    1.0000000000000000E+00     9.4999999999986817E-01     0.0000000000000000E+00 
    4.7500000000196618E-01     1.0000000000000000E+00     0.0000000000000000E+00 
    9.2499999999968763E-01     1.0000000000000000E+00     0.0000000000000000E+00 
    8.7499999999961831E-01     1.0000000000000000E+00     0.0000000000000000E+00 
    8.2499999999982654E-01     1.0000000000000000E+00     0.0000000000000000E+00 
    7.7500000000017355E-01     1.0000000000000000E+00     0.0000000000000000E+00 
    7.2500000000052045E-01     1.0000000000000000E+00     0.0000000000000000E+00 
    6.7500000000086724E-01     1.0000000000000000E+00     0.0000000000000000E+00 
    6.2500000000121403E-01     1.0000000000000000E+00     0.0000000000000000E+00 
    5.7500000000156093E-01     1.0000000000000000E+00     0.0000000000000000E+00 
    5.2500000000189684E-01     1.0000000000000000E+00     0.0000000000000000E+00 
    9.7499999999989595E-01     1.0000000000000000E+00     0.0000000000000000E+00 
    4.2500000000176902E-01     1.0000000000000000E+00     0.0000000000000000E+00 
    3.7500000000156092E-01     1.0000000000000000E+00     0.0000000000000000E+00 
    3.2500000000135282E-01     1.0000000000000000E+00     0.0000000000000000E+00 
    2.7500000000114472E-01     1.0000000000000000E+00     0.0000000000000000E+00 
    2.2500000000093659E-01     1.0000000000000000E+00     0.0000000000000000E+00 
    1.7500000000072849E-01     1.0000000000000000E+00     0.0000000000000000E+00 
    1.2500000000052039E-01     1.0000000000000000E+00     0.0000000000000000E+00 
    7.5000000000312261E-02     1.0000000000000000E+00     0.0000000000000000E+00 
    2.5000000000104109E-02     1.0000000000000000E+00     0.0000000000000000E+00 
    4.5000000000187301E-01     1.0000000000000000E+00     0.0000000000000000E+00 
    8.9999999999958358E-01     1.0000000000000000E+00     0.0000000000000000E+00 
    8.4999999999965303E-01     1.0000000000000000E+00     0.0000000000000000E+00 
    8.0000000000000004E-01     1.0000000000000000E+00     0.0000000000000000E+00 
    7.5000000000034706E-01     1.0000000000000000E+00     0.0000000000000000E+00 
    7.0000000000069384E-01     1.0000000000000000E+00     0.0000000000000000E+00 
    6.5000000000104063E-01     1.0000000000000000E+00     0.0000000000000000E+00 
    6.0000000000138742E-01     1.0000000000000000E+00     0.0000000000000000E+00 
    5.5000000000173432E-01     1.0000000000000000E+00     0.0000000000000000E+00 
    5.0000000000205946E-01     1.0000000000000000E+00     0.0000000000000000E+00 
    9.4999999999979179E-01     1.0000000000000000E+00     0.0000000000000000E+00 
    4.0000000000166491E-01     1.0000000000000000E+00     0.0000000000000000E+00 
    3.5000000000145681E-01     1.0000000000000000E+00     0.0000000000000000E+00 
    3.0000000000124871E-01     1.0000000000000000E+00     0.0000000000000000E+00 
    2.5000000000104061E-01     1.0000000000000000E+00     0.0000000000000000E+00 
    2.0000000000083251E-01     1.0000000000000000E+00     0.0000000000000000E+00 
    1.5000000000062441E-01     1.0000000000000000E+00     0.0000000000000000E+00 
    1.0000000000041630E-01     1.0000000000000000E+00     0.0000000000000000E+00 
[...]
CELL_DATA 1600 
SCALARS Pressure double 1 
LOOKUP_TABLE default 

    8.4740454630739115E-01 
    8.2850808796785314E-01 
    8.2841122743512963E-01 
    8.4548977750140331E-01 
    8.4371677930669065E-01 
    8.2823575537613192E-01 
    8.2799735267936247E-01 
    8.4207580790596370E-01 
    8.4055422905625055E-01 
    8.2770895236917996E-01 
    8.2738137608261597E-01 
    8.3914064695149682E-01 
    8.3782495297217696E-01 
    8.2702369055436886E-01 
    8.2664349657475122E-01 
    8.3659821889526242E-01 
    8.3545256852259253E-01 
    8.2624716811532528E-01 
    8.2584005150594886E-01 
    8.3438105430822185E-01 
    8.3337754553112187E-01 
    8.2542663185501397E-01 
    8.2501067236500070E-01 
    8.3243662914010252E-01 
    8.3155352268739857E-01 
    8.2459533111495675E-01 
    8.2418325905681522E-01 
    8.3072399823164811E-01 
    8.2994431597692475E-01 
    8.2377668231882206E-01 
    8.2337747138127637E-01 
    8.2921116645979420E-01 
    8.2852162019973696E-01 
    8.2298719925847730E-01 
    8.2260719046606323E-01 
    8.2787308384777480E-01 
    8.2726326198617217E-01 
    8.2223856225983905E-01 
    8.2188225938920734E-01 
    8.2669012384140972E-01 
    8.2615187427082337E-01 
    8.2153908340639004E-01 
    8.2120971740448734E-01 
    8.2564692846998744E-01 
    8.2517388992376695E-01 
    8.2089474691725972E-01 
    8.2059467759651450E-01 
    8.2473153118991982E-01 
    8.2431877716131663E-01 
    8.2030995018522068E-01 
    8.2004095322269221E-01 
    8.2393469050231471E-01 
    8.2357845899737536E-01 
    8.1978803384951016E-01 
    8.1955150702171053E-01 
    8.2324938458623886E-01 
    8.2294687388986232E-01 
    8.1933166339341890E-01 
    8.1912877608084622E-01 
    8.2267043005364393E-01 
    8.2241964574525850E-01 
    8.1894310647183655E-01 
    8.1877490917915052E-01 
    8.2219419713240605E-01 
    8.2199383859879360E-01 
    8.1862443611351698E-01 
    8.1849193936003539E-01 
    8.2181839773673049E-01 
    8.2166776945519093E-01 
    8.1837767171125964E-01 
    8.1828188106993194E-01 
    8.2154190567070950E-01 
    8.2144078841453361E-01 
    8.1820478597298074E-01 
    8.1814648957361458E-01 
    8.2136434242028722E-01 
    8.2131214315967049E-01 
    8.1810671100943499E-01 
    8.1808433749767695E-01 
    8.2128277084541701E-01 
    8.1727423550150380E-01 
    8.0703579301395945E-01 
    8.0702660166105655E-01 
    8.1725134433683411E-01 
    8.1720614032379324E-01 
    8.0700829932880302E-01 
    8.0698107438098754E-01 
    8.1713970435398742E-01 
    8.1705342056034524E-01 
    8.0694520049285590E-01 
    8.0690102960710297E-01 
    8.1694887357625556E-01 
    8.1682776842135463E-01 
    8.0684898218140733E-01 
    8.0678953675442355E-01 
    8.1669186906817237E-01 
    8.1654295220086526E-01 
    8.0672321965291138E-01 
    8.0665059524769278E-01 
    8.1638277307890972E-01 
    8.1621304094938074E-01 
    8.0657225697385548E-01 
    8.0648881922164251E-01 
    8.1603540193366120E-01 
    8.1585142772035768E-01 
    8.0640091013602877E-01 
    8.0630916531839036E-01 
    8.1566260872969276E-01 
    8.1547035068595941E-01 
    8.0621422239473206E-01 
    8.0611671639684368E-01 
    8.1527597375423244E-01 
    8.1508071357472489E-01 
    8.0601727589234728E-01 
    8.0591651979466083E-01 
    8.1488572367080336E-01 
    8.1469207882118744E-01 
    8.0581505478282334E-01 
    8.0571347326272946E-01 
    8.1450077907861229E-01 
    8.1431275419054994E-01 
    8.0561235180471436E-01 
    8.0551224999697935E-01 
    8.1412886823603492E-01 
    8.1394992433910585E-01 
    8.0541370965958026E-01 
    8.0531725436922941E-01 
    8.1377666935617543E-01 
    8.1360979846365378E-01 
    8.0522338925071490E-01 
    8.0513260099602768E-01 
    8.1344995959484945E-01 
    8.1329775769255597E-01 
    8.0504535807686894E-01 
    8.0496211111939997E-01 
    8.1315375875635520E-01 
    8.1301849367119772E-01 
    8.0488329341031184E-01 
    8.0480932149703777E-01 
    8.1289246180424601E-01 
    8.1277613434424589E-01 
    8.0474059582378066E-01 
    8.0467750128814508E-01 
    8.1266995731544700E-01 
    8.1257435408106682E-01 
    8.0462040745633889E-01 
    8.0456966779167893E-01 
    8.1248972682863685E-01 
    8.1241645560202058E-01 
    8.0452561622235408E-01 
    8.0448855655689211E-01 
    8.1235489065065081E-01 
    8.1230532530300292E-01 
    8.0445873269472967E-01 
    8.0443624999202457E-01 
    8.1226791211607918E-01 
    8.1224244146537905E-01 
    8.0442090742899641E-01 
    8.0441221317294420E-01 
    8.1222812941382949E-01 
    7.9664473562874571E-01 
    7.8576062766944299E-01 
    7.8575792642106157E-01 
    7.9664013589339844E-01 
    7.9663096451719140E-01 
    7.8575254171724829E-01 
    7.8574450981045296E-01 
    7.9661728709692481E-01 
    7.9659919887293684E-01 
    7.8573388006086420E-01 
    7.8572071624889317E-01 
    7.9657682547286801E-01 
    7.9655032167417883E-01 
    7.8570509655363119E-01 
    7.8568711306037831E-01 
    7.9651986944474462E-01 
    7.9648567565591288E-01 
    7.8566687106207123E-01 
    7.8564448825370592E-01 
    7.9644796964006659E-01 
    7.9640700068977688E-01 
    7.8562009386595033E-01 
    7.8559382776402853E-01 
    7.9636303556296528E-01 
    7.9631635604048567E-01 
    7.8556583952916170E-01 
    7.8553628753544102E-01 
    7.9626725657057673E-01 
    7.9621604202569862E-01 
    7.8550533803245759E-01 
    7.8547316424228508E-01 
    7.9616302559015217E-01 
    7.9610852679108801E-01 
    7.8543994547808238E-01 
    7.8540586629046560E-01 
    7.9605286968079092E-01 
    7.9599638117430971E-01 
    7.8537111564679385E-01 
    7.8533588614758509E-01 
    7.9593938954347576E-01 
    7.9588222306602041E-01 
    7.8530037328337376E-01 
    7.8526477473441292E-01 
    7.9582520882676377E-01 
    7.9576867166659992E-01 
    7.8522928971461159E-01 
    7.8519411835985131E-01 
    7.9571293327412040E-01 
    7.9565831141402588E-01 
    7.8515946115906954E-01 
    7.8512551842375222E-01 
    7.9560511928567834E-01 
    7.9555366500369795E-01 
    7.8509248978677393E-01 
    7.8506057371298965E-01 
    7.9550425118931656E-01 
    7.9545717465397114E-01 
    7.8502996698779848E-01 
    7.8500086411805958E-01 
    7.9541272614029390E-01 
    7.9537119004875856E-01 
    7.8497345651494443E-01 
    7.8494793119202610E-01 
    7.9533284399368098E-01 
    7.9529795783417379E-01 
    7.8492446841607144E-01 
    7.8490323708735299E-01 
    7.9526679134944600E-01 
    7.9523958855813093E-01 
    7.8488438511768621E-01 
    7.8486801859466648E-01 
    7.9521656379994488E-01 
    7.9519786792066038E-01 
    7.8485415557890970E-01 
    7.8484262322273035E-01 
    7.9518350989561659E-01 
    7.9517321660916229E-01 
    7.8483285208426123E-01 
    7.8482552518727455E-01 
    7.9516689506812288E-01 
    7.7426944633759753E-01 
    7.6213776422336155E-01 
    7.6213635098911581E-01 
    7.7426761138790845E-01 
    7.7426395670787007E-01 
    7.6213353911703685E-01 
    7.6212935270822291E-01 
    7.7425850944893027E-01 
    7.7425130377000129E-01 
    7.6212382040364757E-01 
    7.6211697607114548E-01 
    7.7424238189008876E-01 
    7.7423179428237798E-01 
    7.6210885901941960E-01 
    7.6209951398095765E-01 
    7.7421959953722574E-01 
    7.7420586408410530E-01 
    7.6208899099238203E-01 
    7.6207734522460591E-01 
    7.7419066184377439E-01 
    7.7417407384206260E-01 
    7.6206463678683323E-01 
    7.6205093051653838E-01 
    7.7415618780105055E-01 
    7.7413709771655614E-01 
    7.6203629576202059E-01 
    7.6202080616136147E-01 
    7.7411690342757322E-01 
    7.7409571018162093E-01 
    7.6200453942013313E-01 
    7.6198757708935227E-01 
    7.7407362819900039E-01 
    7.7405077223831753E-01 
    7.6197000434463391E-01 
    7.6195190976706051E-01 
    7.7402726116513387E-01 
    7.7400321752511836E-01 
    7.6193338512586006E-01 
    7.6191452516246316E-01 
    7.7397876712251357E-01 
    7.7395403860402645E-01 
    7.6189542737478544E-01 
    7.6187619179951316E-01 
    7.7392916304728265E-01 
    7.7390427355159175E-01 
    7.6185692078852019E-01 
    7.6183771877294493E-01 
    7.7387950482664880E-01 
    7.7385499277149161E-01 
    7.6181869200422903E-01 
    7.6179994825440978E-01 
    7.7383087403062023E-01 
    7.7380728550506228E-01 
    7.6178159644596422E-01 
    7.6176374616045461E-01 
    7.7378436378020465E-01 
    7.7376224440332231E-01 
    7.6174650693712187E-01 
    7.6172998720151741E-01 
    7.7374106088952832E-01 
    7.7372094322963236E-01 
    7.6171429252773060E-01 
    7.6169952266790142E-01 
    7.7370201546188322E-01 
    7.7368439143075640E-01 
    7.6168576623497197E-01 
    7.6167309078169654E-01 
    7.7366816691736429E-01 
    7.7365340425450191E-01 
    7.6166152353915550E-01 
    7.6165101229159859E-01 
    7.7364010077939016E-01 
    7.7362812074031073E-01 
    7.6164134028767450E-01 
    7.6163191726535762E-01 
    7.7361703725483766E-01 
    7.7360572640765279E-01 
    7.6162113068873394E-01 
    7.6161140337430489E-01 
    7.7359599854970362E-01 
    7.4936293247770025E-01 
    7.3595394900180933E-01 
    7.3595285760013174E-01 
    7.4936173324307109E-01 
    7.4935934925621306E-01 
    7.3595068917797535E-01 
    7.3594746633650443E-01 
    7.4935580359938325E-01 
    7.4935112286984373E-01 
    7.3594321471297286E-01 
    7.3593796301637426E-01 
    7.4934533752096555E-01 
    7.4933848204421716E-01 
    7.3593174315454757E-01 
    7.3592459028063850E-01 
    7.4933059500198418E-01 
    7.4932171898636180E-01 
    7.3591654278767282E-01 
    7.3590764227350547E-01 
    7.4931190054043906E-01 
    7.4930119006058760E-01 
    7.3589793348950439E-01 
    7.3588746428098428E-01 
    7.4928964168981660E-01 
    7.4927731320800073E-01 
    7.3587628552430684E-01 
    7.3586445106372733E-01 
    7.4926426592251083E-01 
    7.4925056456152106E-01 
    7.3585201764996988E-01 
    7.3583904488179386E-01 
    7.4923627717153396E-01 
    7.4922147502021508E-01 
    7.3582559515133750E-01 
    7.3581173359360952E-01 
    7.4920623250528207E-01 
    7.4919062706989348E-01 
    7.3579752804009924E-01 
    7.3578304897594926E-01 
    7.4917473912458599E-01 
    7.4915865197524745E-01 
    7.3576836949937519E-01 
    7.3575356528084124E-01 
    7.4914245175571259E-01 
    7.4912622736209311E-01 
    7.3573871451759443E-01 
    7.3572389787600123E-01 
    7.4911007038348443E-01 
    7.4909407501950087E-01 
    7.3570919840883908E-01 
    7.3569470142556281E-01 
    7.4907833796784706E-01 
    7.4906295825238289E-01 
    7.3568049427755700E-01 
    7.3566666599166941E-01 
    7.4904803693920274E-01 
    7.4903367664610332E-01 
    7.3565330663262796E-01 
    7.3564050617605203E-01 
    7.4901998067147157E-01 
    7.4900705141610624E-01 
    7.3562835248434111E-01 
    7.3561692760804309E-01 
    7.4899498747244642E-01 
    7.4898387815888878E-01 
    7.3560630089980683E-01 
    7.3559651591701714E-01 
    7.4897379305823641E-01 
    7.4896476150616087E-01 
    7.3558756473578468E-01 
    7.3557933450964008E-01 
    7.4895673069040936E-01 
    7.4894947228404496E-01 
    7.3557148151672536E-01 
    7.3556307177945379E-01 
    7.4894233835179169E-01 
    7.4893362679040298E-01 
    7.3555318270794023E-01 
    7.3554584019601521E-01 
    7.4892575904916137E-01 
    7.2192386335808922E-01 
    7.0728626556141283E-01 
    7.0728525177288326E-01 
    7.2192282413112918E-01 
    7.2192075988552751E-01 
    7.0728323826881412E-01 
    7.0728024711417248E-01 
    7.2191769285749241E-01 
    7.2191364807078373E-01 
    7.0727630311046930E-01 
    7.0727143335351661E-01 
    7.2190865311021346E-01 
    7.2190273818435058E-01 
    7.0726566723900408E-01 
    7.0725903649802568E-01 
    7.2189593616565384E-01 
    7.2188828259677051E-01 
    7.0725157521734339E-01 
    7.0724331984232669E-01 
    7.2187981567228809E-01 
    7.2187057620421680E-01 
    7.0723430916647123E-01 
    7.0722458431136193E-01 
    7.2186060757689474E-01 
    7.2184995569491661E-01 
    7.0721418869990005E-01 
    7.0720316802456240E-01 
    7.2183866892619064E-01 
    7.2182679804115346E-01 
    7.0719157021155254E-01 
    7.0717944538093913E-01 
    7.2181439614833642E-01 
    7.2180151862575792E-01 
    7.0716684580210143E-01 
    7.0715382584299857E-01 
    7.2178822304686763E-01 
    7.2177456909891846E-01 
    7.0714044191075032E-01 
    7.0712675237966194E-01 
    7.2176061849050865E-01 
    7.2174643484346623E-01 
    7.0711281750088417E-01 
    7.0709869928501135E-01 
    7.2173208356193574E-01 
    7.2171763166801761E-01 
    7.0708446134452163E-01 
    7.0707016867604600E-01 
    7.2170314758783127E-01 
    7.2168870086307590E-01 
    7.0705588735130442E-01 
    7.0704168406704482E-01 
    7.2167436174861155E-01 
    7.2166020063183156E-01 
    7.0702762547271103E-01 
    7.0701377713891689E-01 
    7.2164628716624302E-01 
    7.2163268893344723E-01 
    7.0700020192872948E-01 
    7.0698695734414896E-01 
    7.2161946930229670E-01 
    7.2160668387596694E-01 
    7.0697409105271036E-01 
    7.0696163306116877E-01 
    7.2159437437075025E-01 
    7.2158255765751478E-01 
    7.0694958145170772E-01 
    7.0693787508330586E-01 
    7.2157120530423435E-01 
    7.2156020321906211E-01 
    7.0692633758371570E-01 
    7.0691454840446122E-01 
    7.2154926435995148E-01 
    7.2153770696594888E-01 
    7.0690148890554072E-01 
    7.0688453491876868E-01 
    7.2152376583900268E-01 
    7.2150866088978693E-01 
    7.0686691482419750E-01 
    7.0685818942585987E-01 
    7.2150031632642309E-01 
    6.9205332974288480E-01 
    6.7623526284789226E-01 
    6.7623425398842507E-01 
    6.9205232553658991E-01 
    6.9205033106792113E-01 
    6.7623224997261366E-01 
    6.7622927249020959E-01 
    6.9204736830402491E-01 
    6.9204346199506417E-01 
    6.7622534601130191E-01 
    6.7622049700655518E-01 
    6.9203863905291829E-01 
    6.9203292850544085E-01 
    6.7621475384294605E-01 
    6.7620814679584729E-01 
    6.9202636152797359E-01 
    6.9201897147810643E-01 
    6.7620070807852040E-01 
    6.7619247186761167E-01 
    6.9201079392167575E-01 
    6.9200186665009344E-01 
    6.7618347432057491E-01 
    6.7617375358526799E-01 
    6.9199222969142704E-01 
    6.9198192531765790E-01 
    6.7616334980277448E-01 
    6.7615230510429658E-01 
    6.9197099805002349E-01 
    6.9195949466376538E-01 
    6.7614066360241420E-01 
    6.7612847137634946E-01 
    6.9194746419303599E-01 
    6.9193495793615056E-01 
    6.7611577645007692E-01 
    6.7610262876114535E-01 
    6.9192202946071624E-01 
    6.9190873460733682E-01 
    6.7608908011677704E-01 
    6.7607518413199652E-01 
    6.9189513148942305E-01 
    6.9188128048486119E-01 
    6.7606099614187554E-01 
    6.7604657307599469E-01 
    6.9186724421257906E-01 
    6.9185308748269025E-01 
    6.7603197327700792E-01 
    6.7601725623535303E-01 
    6.9183887720184700E-01 
    6.9182468220370319E-01 
    6.7600248219603820E-01 
    6.7598771156625170E-01 
    6.9181057295436266E-01 
    6.9179662104767803E-01 
    6.7597300400529770E-01 
    6.7595841699327142E-01 
    6.9178289834219175E-01 
    6.9176947547439727E-01 
    6.7594400351551132E-01 
    6.7592980818926951E-01 
    6.9175641925832043E-01 
    6.9174378803483405E-01 
    6.7591586052556984E-01 
    6.7590216265410885E-01 
    6.9173162310816461E-01 
    6.9171993237424911E-01 
    6.7588866567929384E-01 
    6.7587522071791883E-01 
    6.9170865735839415E-01 
    6.9169760125554403E-01 
    6.7586146639684697E-01 
    6.7584652875362428E-01 
    6.9168624955890401E-01 
    6.9167324221448245E-01 
    6.7582811984300495E-01 
    6.7580686584073091E-01 
    6.9165638131188767E-01 
    6.9164040743525002E-01 
    6.7579175431138505E-01 
    6.7578542147119536E-01 
    6.9163261341538296E-01 
    6.5984041564784690E-01 
    6.4287484398483796E-01 
    6.4287380043134901E-01 
    6.5983939296544725E-01 
    6.5983736104517732E-01 
    6.4287172651899649E-01 
    6.4286864339524219E-01 
    6.5983434128819818E-01 
    6.5983035789776345E-01 
    6.4286457507202088E-01 
    6.4285954739704454E-01 
    6.5982543696483420E-01 
    6.5981960631025272E-01 
    6.4285358784925895E-01 
    6.4284672551872279E-01 
    6.5981289547855393E-01 
    6.5980533576323386E-01 
    6.4283899113259069E-01 
    6.4283041709019628E-01 
    6.5979696023375867E-01 
    6.5978780375653245E-01 
    6.4282103749631070E-01 
    6.4281088818950838E-01 
    6.5977790300819517E-01 
    6.5976729648122323E-01 
    6.4280000676500759E-01 
    6.4278843259191809E-01 
    6.5975602448194670E-01 
    6.5974412912068081E-01 
    6.4277620682467229E-01 
    6.4276337240789549E-01 
    6.5973165429299196E-01 
    6.5971864565022920E-01 
    6.4274997407316814E-01 
    6.4273605832498770E-01 
    6.5970515055626355E-01 
    6.5969121802576380E-01 
    6.4272167341159336E-01 
    6.4270686927390464E-01 
    6.5967689863703594E-01 
    6.5966224440907684E-01 
    6.4269169746214672E-01 
    6.4267621100409589E-01 
    6.5964730862738952E-01 
    6.5963214559518379E-01 
    6.4266046419988931E-01 
    6.4264451230373676E-01 
    6.5961681027398067E-01 
    6.5960135775688944E-01 
    6.4262841102827406E-01 
    6.4261221576468019E-01 
    6.5958584248263619E-01 
    6.5957031703677849E-01 
    6.4259598033544696E-01 
    6.4257975495474462E-01 
    6.5955483027424244E-01 
    6.5953942428307233E-01 
    6.4256358279281423E-01 
    6.4254749396473509E-01 
    6.5952412928103710E-01 
    6.5950895463355719E-01 
    6.4253149449788260E-01 
    6.4251554482761919E-01 
    6.5949387214481425E-01 
    6.5947878278384098E-01 
    6.4249951454933485E-01 
    6.4248307723694553E-01 
    6.5946344431601100E-01 
    6.5944729373640154E-01 
    6.4246543234160847E-01 
    6.4244448680575283E-01 
    6.5942894277884390E-01 
    6.5940508621477878E-01 
    6.4241823578553725E-01 
    6.4239432244946992E-01 
    6.5937988946794124E-01 
    6.5936479575499052E-01 
    6.4238037977350104E-01 
    6.4237439401239427E-01 
    6.5935906488809226E-01 
    6.2534193944833627E-01 
    6.0724226522694102E-01 
    6.0724115135466761E-01 
    6.2534086547760537E-01 
    6.2533873039542276E-01 
    6.0723893609680113E-01 
    6.0723563977426609E-01 
    6.2533555495235971E-01 
    6.2533136277799894E-01 
    6.0723128562521100E-01 
    6.0722589857633524E-01 
    6.2532617924573597E-01 
    6.2532003121606750E-01 
    6.0721950493964483E-01 
    6.0721213234652960E-01 
    6.2531294699154594E-01 
    6.2530495632892524E-01 
    6.0720380975066568E-01 
    6.0719456744945588E-01 
    6.2529609046442702E-01 
    6.2528638213766596E-01 
    6.0718443710655312E-01 
    6.0717345176869020E-01 
    6.2527586560906645E-01 
    6.2526457666859592E-01 
    6.0716164587363963E-01 
    6.0714905524717233E-01 
    6.2525255263440538E-01 
    6.2523983233977820E-01 
    6.0713571708679903E-01 
    6.0712166992933947E-01 
    6.2522645610607674E-01 
    6.2521246569822808E-01 
    6.0710695359807598E-01 
    6.0709160912327131E-01 
    6.2519790425762134E-01 
    6.2518281620488780E-01 
    6.0707567862692358E-01 
    6.0705920515829004E-01 
    6.2516724710152261E-01 
    6.2515124345408379E-01 
    6.0704223246015276E-01 
    6.0702480463569897E-01 
    6.2513485243672839E-01 
    6.2511812149537271E-01 
    6.0700696566991552E-01 
    6.0698875873320646E-01 
    6.2510109777658007E-01 
    6.2508382729036516E-01 
    6.0697022515022236E-01 
    6.0695140283757354E-01 
    6.2506635365712115E-01 
    6.2504871618265612E-01 
    6.0693232386827234E-01 
    6.0691301053975466E-01 
    6.2503094680516846E-01 
    6.2501306505739318E-01 
    6.0689346874438843E-01 
    6.0687367616385179E-01 
    6.2499506933304350E-01 
    6.2497692079438749E-01 
    6.0685355975812483E-01 
    6.0683294900370077E-01 
    6.2495851138757508E-01 
    6.2493959398946741E-01 
    6.0681146788244789E-01 
    6.0678825194615238E-01 
    6.2491961086594672E-01 
    6.2489721338728477E-01 
    6.0676113305222457E-01 
    6.0672684667151877E-01 