# vtk DataFile Version 2.0
Pressure Field Data 
ASCII 
DATASET UNSTRUCTURED_GRID 

POINTS 1681 double 

    0.0000000000000000E+00     0.0000000000000000E+00     0.0000000000000000E+00 
    1.0000000000000000E+00     0.0000000000000000E+00     0.0000000000000000E+00 
    1.0000000000000000E+00     1.0000000000000000E+00     0.0000000000000000E+00 
    0.0000000000000000E+00     1.0000000000000000E+00     0.0000000000000000E+00 
    5.2499999999875258E-01     0.0000000000000000E+00     0.0000000000000000E+00 
    7.4999999999856765E-02     0.0000000000000000E+00     0.0000000000000000E+00 
    1.2499999999975850E-01     0.0000000000000000E+00     0.0000000000000000E+00 
    1.7499999999962990E-01     0.0000000000000000E+00     0.0000000000000000E+00 
    2.2499999999948389E-01     0.0000000000000000E+00     0.0000000000000000E+00 
    2.7499999999933789E-01     0.0000000000000000E+00     0.0000000000000000E+00 
    3.2499999999919210E-01     0.0000000000000000E+00     0.0000000000000000E+00 
    3.7499999999904610E-01     0.0000000000000000E+00     0.0000000000000000E+00 
    4.2499999999890020E-01     0.0000000000000000E+00     0.0000000000000000E+00 
    4.7499999999875958E-01     0.0000000000000000E+00     0.0000000000000000E+00 
    2.4999999999949701E-02     0.0000000000000000E+00     0.0000000000000000E+00 
    5.7499999999887907E-01     0.0000000000000000E+00     0.0000000000000000E+00 
    6.2499999999901101E-01     0.0000000000000000E+00     0.0000000000000000E+00 
    6.7499999999914273E-01     0.0000000000000000E+00     0.0000000000000000E+00 
    7.2499999999927467E-01     0.0000000000000000E+00     0.0000000000000000E+00 
    7.7499999999940661E-01     0.0000000000000000E+00     0.0000000000000000E+00 
    8.2499999999953844E-01     0.0000000000000000E+00     0.0000000000000000E+00 
    8.7499999999967026E-01     0.0000000000000000E+00     0.0000000000000000E+00 
    9.2499999999980220E-01     0.0000000000000000E+00     0.0000000000000000E+00 
    9.7499999999993414E-01     0.0000000000000000E+00     0.0000000000000000E+00 
    5.4999999999881310E-01     0.0000000000000000E+00     0.0000000000000000E+00 
    9.9999999999814140E-02     0.0000000000000000E+00     0.0000000000000000E+00 
    1.4999999999970290E-01     0.0000000000000000E+00     0.0000000000000000E+00 
    1.9999999999955689E-01     0.0000000000000000E+00     0.0000000000000000E+00 
    2.4999999999941089E-01     0.0000000000000000E+00     0.0000000000000000E+00 
    2.9999999999926502E-01     0.0000000000000000E+00     0.0000000000000000E+00 
    3.4999999999911913E-01     0.0000000000000000E+00     0.0000000000000000E+00 
    3.9999999999897312E-01     0.0000000000000000E+00     0.0000000000000000E+00 
    4.4999999999882723E-01     0.0000000000000000E+00     0.0000000000000000E+00 
    4.9999999999869210E-01     0.0000000000000000E+00     0.0000000000000000E+00 
    4.9999999999899403E-02     0.0000000000000000E+00     0.0000000000000000E+00 
    5.9999999999894504E-01     0.0000000000000000E+00     0.0000000000000000E+00 
    6.4999999999907687E-01     0.0000000000000000E+00     0.0000000000000000E+00 
    6.9999999999920870E-01     0.0000000000000000E+00     0.0000000000000000E+00 
    7.4999999999934064E-01     0.0000000000000000E+00     0.0000000000000000E+00 
    7.9999999999947247E-01     0.0000000000000000E+00     0.0000000000000000E+00 
    8.4999999999960441E-01     0.0000000000000000E+00     0.0000000000000000E+00 
    8.9999999999973623E-01     0.0000000000000000E+00     0.0000000000000000E+00 
    9.4999999999986817E-01     0.0000000000000000E+00     0.0000000000000000E+00 
    1.0000000000000000E+00     5.2499999999875258E-01     0.0000000000000000E+00 
    1.0000000000000000E+00     7.4999999999856765E-02     0.0000000000000000E+00 
    1.0000000000000000E+00     1.2499999999975850E-01     0.0000000000000000E+00 
    1.0000000000000000E+00     1.7499999999962990E-01     0.0000000000000000E+00 
    1.0000000000000000E+00     2.2499999999948389E-01     0.0000000000000000E+00 
    1.0000000000000000E+00     2.7499999999933789E-01     0.0000000000000000E+00 
    1.0000000000000000E+00     3.2499999999919210E-01     0.0000000000000000E+00 
    1.0000000000000000E+00     3.7499999999904610E-01     0.0000000000000000E+00 
    1.0000000000000000E+00     4.2499999999890020E-01     0.0000000000000000E+00 
    1.0000000000000000E+00     4.7499999999875958E-01     0.0000000000000000E+00 
    1.0000000000000000E+00     2.4999999999949701E-02     0.0000000000000000E+00 
    1.0000000000000000E+00     5.7499999999887907E-01     0.0000000000000000E+00 
    1.0000000000000000E+00     6.2499999999901101E-01     0.0000000000000000E+00 
    1.0000000000000000E+00     6.7499999999914273E-01     0.0000000000000000E+00 
    1.0000000000000000E+00     7.2499999999927467E-01     0.0000000000000000E+00 
    1.0000000000000000E+00     7.7499999999940661E-01     0.0000000000000000E+00 
    1.0000000000000000E+00     8.2499999999953844E-01     0.0000000000000000E+00 
    1.0000000000000000E+00     8.7499999999967026E-01     0.0000000000000000E+00 
    1.0000000000000000E+00     9.2499999999980220E-01     0.0000000000000000E+00 
    1.0000000000000000E+00     9.7499999999993414E-01     0.0000000000000000E+00 
    1.0000000000000000E+00     5.4999999999881310E-01     0.0000000000000000E+00 
    1.0000000000000000E+00     9.9999999999814140E-02     0.0000000000000000E+00 
    1.0000000000000000E+00     1.4999999999970290E-01     0.0000000000000000E+00 
    1.0000000000000000E+00     1.9999999999955689E-01     0.0000000000000000E+00 
    1.0000000000000000E+00     2.4999999999941089E-01     0.0000000000000000E+00 
    1.0000000000000000E+00     2.9999999999926502E-01     0.0000000000000000E+00 
    1.0000000000000000E+00     3.4999999999911913E-01     0.0000000000000000E+00 
    1.0000000000000000E+00     3.9999999999897312E-01     0.0000000000000000E+00 
    1.0000000000000000E+00     4.4999999999882723E-01     0.0000000000000000E+00 
    1.0000000000000000E+00     4.9999999999869210E-01     0.0000000000000000E+00 
    1.0000000000000000E+00     4.9999999999899403E-02     0.0000000000000000E+00 
    1.0000000000000000E+00     5.9999999999894504E-01     0.0000000000000000E+00 
    1.0000000000000000E+00     6.4999999999907687E-01     0.0000000000000000E+00 
    1.0000000000000000E+00     6.9999999999920870E-01     0.0000000000000000E+00 
    1.0000000000000000E+00     7.4999999999934064E-01     0.0000000000000000E+00 
    1.0000000000000000E+00     7.9999999999947247E-01     0.0000000000000000E+00 
    1.0000000000000000E+00     8.4999999999960441E-01     0.0000000000000000E+00 
    1.0000000000000000E+00     8.9999999999973623E-01     0.0000000000000000E+00 
    1.0000000000000000E+00     9.4999999999986817E-01     0.0000000000000000E+00 
    4.7500000000196618E-01     1.0000000000000000E+00     0.0000000000000000E+00 
    9.2499999999968763E-01     1.0000000000000000E+00     0.0000000000000000E+00 
    8.7499999999961831E-01     1.0000000000000000E+00     0.0000000000000000E+00 
    8.2499999999982654E-01     1.0000000000000000E+00     0.0000000000000000E+00 
    7.7500000000017355E-01     1.0000000000000000E+00     0.0000000000000000E+00 
    7.2500000000052045E-01     1.0000000000000000E+00     0.0000000000000000E+00 
    6.7500000000086724E-01     1.0000000000000000E+00     0.0000000000000000E+00 
    6.2500000000121403E-01     1.0000000000000000E+00     0.0000000000000000E+00 
    5.7500000000156093E-01     1.0000000000000000E+00     0.0000000000000000E+00 
    5.2500000000189684E-01     1.0000000000000000E+00     0.0000000000000000E+00 
    9.7499999999989595E-01     1.0000000000000000E+00     0.0000000000000000E+00 
    4.2500000000176902E-01     1.0000000000000000E+00     0.0000000000000000E+00 
    3.7500000000156092E-01     1.0000000000000000E+00     0.0000000000000000E+00 
    3.2500000000135282E-01     1.0000000000000000E+00     0.0000000000000000E+00 
    2.7500000000114472E-01     1.0000000000000000E+00     0.0000000000000000E+00 
    2.2500000000093659E-01     1.0000000000000000E+00     0.0000000000000000E+00 
    1.7500000000072849E-01     1.0000000000000000E+00     0.0000000000000000E+00 
    1.2500000000052039E-01     1.0000000000000000E+00     0.0000000000000000E+00 
    7.5000000000312261E-02     1.0000000000000000E+00     0.0000000000000000E+00 
    2.5000000000104109E-02     1.0000000000000000E+00     0.0000000000000000E+00 
    4.5000000000187301E-01     1.0000000000000000E+00     0.0000000000000000E+00 
    8.9999999999958358E-01     1.0000000000000000E+00     0.0000000000000000E+00 
    8.4999999999965303E-01     1.0000000000000000E+00     0.0000000000000000E+00 
    8.0000000000000004E-01     1.0000000000000000E+00     0.0000000000000000E+00 
    7.5000000000034706E-01     1.0000000000000000E+00     0.0000000000000000E+00 
    7.0000000000069384E-01     1.0000000000000000E+00     0.0000000000000000E+00 
    6.5000000000104063E-01     1.0000000000000000E+00     0.0000000000000000E+00 
    6.0000000000138742E-01     1.0000000000000000E+00     0.0000000000000000E+00 
    5.5000000000173432E-01     1.0000000000000000E+00     0.0000000000000000E+00 
    5.0000000000205946E-01     1.0000000000000000E+00     0.0000000000000000E+00 
    9.4999999999979179E-01     1.0000000000000000E+00     0.0000000000000000E+00 
    4.0000000000166491E-01     1.0000000000000000E+00     0.0000000000000000E+00 
    3.5000000000145681E-01     1.0000000000000000E+00     0.0000000000000000E+00 
    3.0000000000124871E-01     1.0000000000000000E+00     0.0000000000000000E+00 
    2.5000000000104061E-01     1.0000000000000000E+00     0.0000000000000000E+00 
    2.0000000000083251E-01     1.0000000000000000E+00     0.0000000000000000E+00 
    1.5000000000062441E-01     1.0000000000000000E+00     0.0000000000000000E+00 
    1.0000000000041630E-01     1.0000000000000000E+00     0.0000000000000000E+00 
[...]
CELL_DATA 1600 
SCALARS Pressure double 1 
LOOKUP_TABLE default 

    9.5982371951195444E-01 
    9.3962309592915694E-01 
    9.3951902704707491E-01 
    9.5787292712837246E-01 
    9.5605284948321811E-01 
    9.3932969333570726E-01 
    9.3907166368030415E-01 
    9.5435920209368208E-01 
    9.5278052888979281E-01 
    9.3875842980174107E-01 
    9.3840130474989736E-01 
    9.5130620417187828E-01 
    9.4992672142656720E-01 
    9.3800980787812061E-01 
    9.3759196628491359E-01 
    9.4863366199226806E-01 
    9.4741959954056687E-01 
    9.3715456050671753E-01 
    9.3670332736158290E-01 
    9.4627799379185440E-01 
    9.4520308868710157E-01 
    9.3624312845064217E-01 
    9.3577809065403172E-01 
    9.4418981961238946E-01 
    9.4323373069042860E-01 
    9.3531172358330072E-01 
    9.3484701797074687E-01 
    9.4233090183457902E-01 
    9.4147788478090311E-01 
    9.3438652823150070E-01 
    9.3393244185037283E-01 
    9.4067164717276919E-01 
    9.3990952377411741E-01 
    9.3348663777875940E-01 
    9.3305073564914953E-01 
    9.3918917394820878E-01 
    9.3850854462109745E-01 
    9.3262613730645150E-01 
    9.3221406190218536E-01 
    9.3786583803592583E-01 
    9.3725948368754897E-01 
    9.3181557558857897E-01 
    9.3143161667619156E-01 
    9.3668811390339735E-01 
    9.3615054260447639E-01 
    9.3106301697375049E-01 
    9.3071051990620790E-01 
    9.3564574683926871E-01 
    9.3517285073238954E-01 
    9.3037479590074290E-01 
    9.3005645543384596E-01 
    9.3473111152770350E-01 
    9.3431990742844406E-01 
    9.2975606003660249E-01 
    9.2947413144454505E-01 
    9.3393872693623781E-01 
    9.3358715934712300E-01 
    9.2921115892345285E-01 
    9.2896760454059946E-01 
    9.3326488593012935E-01 
    9.3297167098358236E-01 
    9.2874390564059750E-01 
    9.2854047269089390E-01 
    9.3270735116626580E-01 
    9.3247181954714697E-01 
    9.2835767816139636E-01 
    9.2819582613578888E-01 
    9.3226499591533141E-01 
    9.3208676236709942E-01 
    9.2805507783350982E-01 
    9.2793527373359308E-01 
    9.3193681194863431E-01 
    9.3181429033954055E-01 
    9.2783551937440301E-01 
    9.2775335857851404E-01 
    9.3171704486549012E-01 
    9.3164218502433349E-01 
    9.2768739954185531E-01 
    9.2765128078610826E-01 
    9.3160138250672742E-01 
    9.2660178440475405E-01 
    9.1414848668443738E-01 
    9.1413660573683697E-01 
    9.2657519209293693E-01 
    9.2652260441290135E-01 
    9.1411294509591090E-01 
    9.1407775104901945E-01 
    9.2644520684859499E-01 
    9.2634451258340611E-01 
    9.1403136903421855E-01 
    9.1397423594283134E-01 
    9.2622225650860268E-01 
    9.2608031235384736E-01 
    9.1390686958620893E-01 
    9.1382985716218168E-01 
    9.2592062814093723E-01 
    9.2574517704792103E-01 
    9.1374384376292195E-01 
    9.1364952143846068E-01 
    9.2555592071181225E-01 
    9.2535478240797864E-01 
    9.1354761907552773E-01 
    9.1343889321523020E-01 
    9.2514362799790562E-01 
    9.2492425294035141E-01 
    9.1332411985266282E-01 
    9.1320408721146207E-01 
    9.2469837399860311E-01 
    9.2446762455296672E-01 
    9.1307958945463930E-01 
    9.1295142127335838E-01 
    9.2423355265152496E-01 
    9.2399762111249306E-01 
    9.1282037328367260E-01 
    9.1268722815497860E-01 
    9.2376120913606008E-01 
    9.2352561499903374E-01 
    9.1255275739109643E-01 
    9.1241771868394750E-01 
    9.2329205949727489E-01 
    9.2306168987305526E-01 
    9.1228285375936724E-01 
    9.1214888663321303E-01 
    9.2283558402029087E-01 
    9.2261475480227195E-01 
    9.1201652219182350E-01 
    9.1188644500131599E-01 
    9.2240015434488665E-01 
    9.2219267818271899E-01 
    9.1175931823071776E-01 
    9.1163578253653088E-01 
    9.2199316913226304E-01 
    9.2180242073731267E-01 
    9.1151645468596720E-01 
    9.1140192556335364E-01 
    9.2162118005781601E-01 
    9.2145014941557923E-01 
    9.1129275694933376E-01 
    9.1118947595988420E-01 
    9.2128998638218529E-01 
    9.2114130060445132E-01 
    9.1109256500909064E-01 
    9.1100244300629485E-01 
    9.2100464456950071E-01 
    9.2088049207687650E-01 
    9.1091942882025700E-01 
    9.1084366753212553E-01 
    9.2076919053590423E-01 
    9.2067085537997029E-01 
    9.1077497524151518E-01 
    9.1071249636155649E-01 
    9.2058513308278755E-01 
    9.2051066705123719E-01 
    9.1065395356348178E-01 
    9.1059652968863458E-01 
    9.2044428975557790E-01 
    9.2038919007310649E-01 
    9.1055020339577175E-01 
    9.1052792542762695E-01 
    9.2036044159846830E-01 
    9.0113308136686676E-01 
    8.8722683806823022E-01 
    8.8722216427005229E-01 
    9.0112626567406984E-01 
    9.0111268715687076E-01 
    8.8721285941164274E-01 
    8.8719900517141737E-01 
    9.0109246131133902E-01 
    9.0106574208965573E-01 
    8.8718070310667008E-01 
    8.8715807465117391E-01 
    9.0103272182858951E-01 
    9.0099362970325070E-01 
    8.8713126082990779E-01 
    8.8710042158242186E-01 
    9.0094872935487580E-01 
    9.0089831610655480E-01 
    8.8706573484393669E-01 
    8.8702739548099940E-01 
    9.0084271398332150E-01 
    9.0078227266157662E-01 
    8.8698561413971855E-01 
    8.8694061604255536E-01 
    9.0071736442756478E-01 
    9.0064838119912682E-01 
    8.8689263975705090E-01 
    8.8684193595211003E-01 
    9.0057573164848359E-01 
    9.0049983845191117E-01 
    8.8678876615208713E-01 
    8.8673340149458502E-01 
    9.0042113568279725E-01 
    9.0034006635665964E-01 
    8.8667612149379915E-01 
    8.8661721280677408E-01 
    9.0025708012958916E-01 
    9.0017263114470625E-01 
    8.8655696799449579E-01 
    8.8649568426254499E-01 
    9.0008717601390009E-01 
    9.0000117191352957E-01 
    8.8643366215587138E-01 
    8.8637120416725845E-01 
    8.9991507476151122E-01 
    8.9982933742717774E-01 
    8.8630861319603482E-01 
    8.8624619075700761E-01 
    8.9974440790069665E-01 
    8.9966072730916080E-01 
    8.8618423477947850E-01 
    8.8612303673414927E-01 
    8.9957872759964452E-01 
    8.9949882859278796E-01 
    8.8606287764645997E-01 
    8.8600402222904351E-01 
    8.9942143389920060E-01 
    8.9934692479474954E-01 
    8.8594670975107115E-01 
    8.8589113905446748E-01 
    8.9927565038034285E-01 
    8.9920791079892926E-01 
    8.8583744265090270E-01 
    8.8578563948739586E-01 
    8.9914392702995627E-01 
    8.9908378366389730E-01 
    8.8573554362783613E-01 
    8.8568657510272419E-01 
    8.9902731448846884E-01 
    8.9897385871759461E-01 
    8.8563733773073516E-01 
    8.8558474540314214E-01 
    8.9892171069297699E-01 
    8.9886732660283686E-01 
    8.8552658122605099E-01 
    8.8547510825881259E-01 
    8.9881315868975131E-01 
    8.9877521771758118E-01 
    8.8544405169552476E-01 
    8.8543041778177478E-01 
    8.9875826719337049E-01 
    8.7232251899497193E-01 
    8.5638948018085492E-01 
    8.5638621149604999E-01 
    8.7231881945591006E-01 
    8.7231145894264994E-01 
    8.5637970956802101E-01 
    8.5637003542653878E-01 
    8.7230050588724939E-01 
    8.7228604154032618E-01 
    8.5635725986435729E-01 
    8.5634146205051354E-01 
    8.7226815927663526E-01 
    8.7224696445930838E-01 
    8.5632272930680364E-01 
    8.5630115698020515E-01 
    8.7222257419479965E-01 
    8.7219511695741470E-01 
    8.5627684826230643E-01 
    8.5624991394136885E-01 
    8.7216473211645074E-01 
    8.7213156939516023E-01 
    8.5622047209586905E-01 
    8.5618864773924475E-01 
    8.7209578828151257E-01 
    8.7205755740321189E-01 
    8.5615457242187587E-01 
    8.5611838379203276E-01 
    8.7201705387387851E-01 
    8.7197446261292644E-01 
    8.5608022511318416E-01 
    8.5604024473046558E-01 
    8.7192997563775565E-01 
    8.7188379132273619E-01 
    8.5599859547365797E-01 
    8.5595543397699014E-01 
    8.7183611361447366E-01 
    8.7178715118616035E-01 
    8.5591091988633061E-01 
    8.5586521491018441E-01 
    8.7173711650435637E-01 
    8.7168622476753133E-01 
    8.5581848164967145E-01 
    8.5577088210982999E-01 
    8.7163469265427462E-01 
    8.7158273678543841E-01 
    8.5572257574240695E-01 
    8.5567371678499360E-01 
    8.7153057175006976E-01 
    8.7147840745440031E-01 
    8.5562445051731262E-01 
    8.5557490780298517E-01 
    8.7142644539722514E-01 
    8.7137487319701412E-01 
    8.5552519682460793E-01 
    8.5547539004237994E-01 
    8.7132385618174935E-01 
    8.7127352385926826E-01 
    8.5542550264241579E-01 
    8.5537545497939982E-01 
    8.7122394707275808E-01 
    8.7117509733022003E-01 
    8.5532500294768021E-01 
    8.5527359917254731E-01 
    8.7112676988067916E-01 
    8.7107842749326791E-01 
    8.5522009336669202E-01 
    8.5516206317583821E-01 
    8.7102885726463586E-01 
    8.7097541002338408E-01 
    8.5509521984694370E-01 
    8.5502212516734666E-01 
    8.7091415494215541E-01 
    8.7085182676879913E-01 
    8.5496187352341380E-01 
    8.5492334149655769E-01 
    8.7080673647270412E-01 
    8.7078082103150212E-01 
    8.5490009796295063E-01 
    8.5488851086119300E-01 
    8.7076851394958488E-01 
    8.3942376190819712E-01 
    8.2142752340417424E-01 
    8.2142434181493007E-01 
    8.3942063328577021E-01 
    8.3941440828560299E-01 
    8.2141800693642508E-01 
    8.2140856817310448E-01 
    8.3940514224358886E-01 
    8.3939289881547241E-01 
    8.2139608240986206E-01 
    8.2138061160892017E-01 
    8.3937774801691711E-01 
    8.3935976585202532E-01 
    8.2136222227492883E-01 
    8.2134098528757793E-01 
    8.3933903419424938E-01 
    8.3931564067371467E-01 
    8.2131697578375429E-01 
    8.2129027300590729E-01 
    8.3928967851854508E-01 
    8.3926124634175281E-01 
    8.2126096009236271E-01 
    8.2122912380016855E-01 
    8.3923044787418877E-01 
    8.3919739164346918E-01 
    8.2119485415242888E-01 
    8.2115824399849879E-01 
    8.3916219059530905E-01 
    8.3912496164895300E-01 
    8.2111938846915056E-01 
    8.2107838430000823E-01 
    8.3908582517246777E-01 
    8.3904490435596168E-01 
    8.2103532898430853E-01 
    8.2099031969861247E-01 
    8.3900232445029532E-01 
    8.3895821182384667E-01 
    8.2094345191945739E-01 
    8.2089481761012517E-01 
    8.3891269276769276E-01 
    8.3886589194568228E-01 
    8.2084450279619148E-01 
    8.2079258425154134E-01 
    8.3881793033268137E-01 
    8.3876892239835932E-01 
    8.2073912485652711E-01 
    8.2068416691643253E-01 
    8.3871897215071400E-01 
    8.3866816740583272E-01 
    8.2062772224064551E-01 
    8.2056975687088285E-01 
    8.3861657120321575E-01 
    8.3856420844199142E-01 
    8.2051016655429621E-01 
    8.2044873532472973E-01 
    8.3851104413823929E-01 
    8.3845694616703392E-01 
    8.2038506126760968E-01 
    8.2031841406510464E-01 
    8.3840161737411223E-01 
    8.3834446264300178E-01 
    8.2024744211901290E-01 
    8.2016956872265623E-01 
    8.3828430777590979E-01 
    8.3821878443110109E-01 
    8.2008047607591095E-01 
    8.1998039851431903E-01 
    8.3814361176566321E-01 
    8.3805917515024353E-01 
    8.1988675186145099E-01 
    8.1981744908490894E-01 
    8.3798338229450275E-01 
    8.3793072126199764E-01 
    8.1976907184172532E-01 
    8.1973405983437952E-01 
    8.3789578236526419E-01 
    8.3787285177325321E-01 
    8.1971071746873037E-01 
    8.1969904493148416E-01 
    8.3786138496378559E-01 
    8.0239904380104998E-01 
    7.8232552084891738E-01 
    7.8232168109407441E-01 
    8.0239563594775520E-01 
    8.0238884285945100E-01 
    7.8231401488050079E-01 
    7.8230255053479203E-01 
    8.0237870592193017E-01 
    8.0236527315938022E-01 
    7.8228732157295033E-01 
    7.8226836380478793E-01 
    8.0234859651621926E-01 
    8.0232873115213976E-01 
    7.8224571443721791E-01 
    7.8221941161975350E-01 
    8.0230573517479209E-01 
    8.0227966944227858E-01 
    7.8218949403656635E-01 
    7.8215600041554556E-01 
    8.0225059732699699E-01 
    8.0221858440080751E-01 
    7.8211896889508903E-01 
    7.8207843620473094E-01 
    8.0218369801930722E-01 
    8.0214600678418391E-01 
    7.8203443661155281E-01 
    7.8198700056973180E-01 
    8.0210557985666975E-01 
    8.0206248608432940E-01 
    7.8193615298658969E-01 
    7.8188191098271687E-01 
    8.0201679288751904E-01 
    8.0196856482883783E-01 
    7.8182428097063017E-01 
    7.8176325479600939E-01 
    8.0191786175504820E-01 
    8.0186473634983502E-01 
    7.8169880456077501E-01 
    7.8163087554828536E-01 
    8.0180923085642297E-01 
    8.0175137260232765E-01 
    7.8155937634448158E-01 
    7.8148416469597481E-01 
    8.0169116775013660E-01 
    8.0162859234409212E-01 
    7.8140502667364864E-01 
    7.8132164492521472E-01 
    8.0156357909620424E-01 
    8.0149599719750064E-01 
    7.8123354839111703E-01 
    7.8114002920290471E-01 
    8.0142562019349717E-01 
    8.0135207237498973E-01 
    7.8103999988113448E-01 
    7.8093174626390560E-01 
    8.0127473421193063E-01 
    8.0119256524662430E-01 
    7.8081256780860753E-01 
    7.8067889671454527E-01 
    8.0110375983168636E-01 
    8.0100516772372554E-01 
    7.8053001775537489E-01 
    7.8037575845546758E-01 
    8.0089274497917318E-01 
    8.0076938618227755E-01 
    7.8023794270987823E-01 
    7.8013138115202385E-01 
    8.0065441259092596E-01 
    8.0056638509876377E-01 
    7.8005124426080008E-01 
    7.7998762487151918E-01 
    8.0050261215214813E-01 
    8.0045399911663384E-01 
    7.7993683409403514E-01 
    7.7989876101263078E-01 
    8.0041756239247475E-01 
    8.0039327015288175E-01 
    7.7987338850289589E-01 
    7.7986070511560079E-01 
    8.0038112371464343E-01 
    7.6117322769985052E-01 
    7.3886774363696350E-01 
    7.3886192352858349E-01 
    7.6116865756696994E-01 
    7.6115951349288968E-01 
    7.3885024500577257E-01 
    7.3883266317919594E-01 
    7.6114579962108431E-01 
    7.6112752224179858E-01 
    7.3880912871349058E-01 
    7.3877958492169726E-01 
    7.6110468686909993E-01 
    7.6107729704762195E-01 
    7.3874396579389223E-01 
    7.3870219389347358E-01 
    7.6104535347602831E-01 
    7.6100885304811106E-01 
    7.3865417774186959E-01 
    7.3859980848656448E-01 
    7.6096778765857942E-01 
    7.6092214267901193E-01 
    7.3853895566261840E-01 
    7.3847146179149648E-01 
    7.6087189500781860E-01 
    7.6081701057252271E-01 
    7.3839713546000507E-01 
    7.3831574236949471E-01 
    7.6075744111872978E-01 
    7.6069312005236633E-01 
    7.3822699360197108E-01 
    7.3813052997734696E-01 
    7.6062395700016017E-01 
    7.6054983059915371E-01 
    7.3802590083124131E-01 
    7.3791253485902553E-01 
    7.6047057878675672E-01 
    7.6038598548168412E-01 
    7.3778970019906287E-01 
    7.3765645206276298E-01 
    7.6029576192199078E-01 
    7.6019951987765788E-01 
    7.3751157326403438E-01 
    7.3735353713661900E-01 
    7.6009673216444984E-01 
    7.5998667289509880E-01 
    7.3718058640829265E-01 
    7.3699114540706612E-01 
    7.5986832567073548E-01 
    7.5974024666095508E-01 
    7.3678486758297412E-01 
    7.3656425744786569E-01 
    7.5960039885245079E-01 
    7.5944615559963213E-01 
    7.3633589925406606E-01 
    7.3611043897649342E-01 
    7.5927530195929782E-01 
    7.5908932537206952E-01 
    7.3590163546180787E-01 
    7.3572246802819929E-01 
    7.5889715114193645E-01 
    7.5871552823373389E-01 
    7.3557847844017465E-01 
    7.3546516721322486E-01 
    7.5856266550262197E-01 
    7.5844416595536868E-01 
    7.3537227082510315E-01 
    7.3529272258119338E-01 
    7.5835143097096192E-01 
    7.5827491795529522E-01 
    7.3522480843218341E-01 
    7.3516837668163348E-01 
    7.5821137007649453E-01 
    7.5816061754933051E-01 
    7.3512333748493897E-01 
    7.3508961970262632E-01 
    7.5812260303751677E-01 
    7.5809728373135732E-01 
    7.3506717040186165E-01 
    7.3505595449381322E-01 
    7.5808463117830860E-01 
    7.1524967416339569E-01 
    6.8998204847002620E-01 
    6.8996833976177707E-01 
    7.1524146570642000E-01 
    7.1522493837951362E-01 
    6.8994073599077055E-01 
    6.8989898170976971E-01 
    7.1519994547070764E-01 
    7.1516632163577254E-01 
    6.8984277829991525E-01 
    6.8977178823656549E-01 
    7.1512387904016228E-01 
    7.1507240251538307E-01 
    6.8968564626925744E-01 
    6.8958398143613686E-01 
    7.1501164328989819E-01 
    7.1494131085555523E-01 
    6.8946645462901412E-01 
    6.8933281676471081E-01 
    7.1486106254922244E-01 
    7.1477049051267849E-01 
    6.8918299176615860E-01 
    6.8901718516144961E-01 
    7.1466910589605215E-01 
    7.1455632099086797E-01 
    6.8883601317304077E-01 
    6.8864063884160465E-01 
    7.1443143191192382E-01 
    7.1429360833278377E-01 
    6.8843289301370536E-01 
    6.8821535353211571E-01 
    7.1414190388079124E-01 
    7.1397531201984532E-01 
    6.8799135961259450E-01 
    6.8776495111510838E-01 
    7.1379290599540368E-01 
    7.1359410824841185E-01 
    6.8754073666457372E-01 
    6.8732369723026698E-01 
    7.1337911215480687E-01 
    7.1314940262884263E-01 
    6.8711891827450167E-01 
    6.8693123910888909E-01 
    7.1290821301101714E-01 
    7.1266071841628709E-01 
    6.8676483684809331E-01 
    6.8662276848060511E-01 
    7.1241389674698208E-01 
    7.1217614230909343E-01 
    6.8650640884344094E-01 
    6.8641471693063172E-01 
    7.1195649477699219E-01 
    7.1176306856226179E-01 
    6.8634373739058829E-01 
    6.8628737648427207E-01 
    7.1160102610435316E-01 
    7.1147089747388914E-01 
    6.8623972601620642E-01 
    6.8619716307470602E-01 
    7.1136759065512811E-01 
    7.1128243044197115E-01 
    6.8615842548763661E-01 
    6.8612335564457294E-01 
    7.1120856124979448E-01 
    7.1114339845083796E-01 
    6.8609201169170952E-01 
    6.8606445554355722E-01 
    7.1108654962871765E-01 
    7.1103794243548624E-01 
    6.8604074036637452E-01 
    6.8602091094638618E-01 
    7.1099752045510745E-01 
    7.1096523739677109E-01 
    6.8600500405841680E-01 
    6.8599304876773681E-01 
    7.1094105669449725E-01 
    7.1092495119342181E-01 
    6.8598506666806303E-01 
    6.8598107205804704E-01 
    7.1091690291776966E-01 
    6.6258062304825927E-01 
    6.3474882562152923E-01 
    6.3474424475847402E-01 
    6.6256027202308121E-01 
    6.6252042399950561E-01 
    6.3473577084420119E-01 
    6.3472444224015401E-01 
    6.6246240150164903E-01 
    6.6238774033012615E-01 
    6.3471143371351635E-01 
    6.3469799617556522E-01 
    6.6229816402564534E-01 
    6.6219558109660370E-01 
    6.3468541582413507E-01 
    6.3467497639649950E-01 
    6.6208208300436233E-01 
    6.6195993536025555E-01 
    6.3466791735351347E-01 
    6.3466538330077849E-01 
    6.6183156007514432E-01 
    6.6169950753210094E-01 
    6.3466836138294824E-01 
    6.3467760603667878E-01 
    6.6156641947240502E-01 
    6.6143498418750546E-01 
    6.3469355481908052E-01 
    6.3471624547610028E-01 
    6.6130788514124705E-01 
    6.6118774327224261E-01 
    6.3474525223460265E-01 
    6.3477966577383949E-01 
    6.6107705065112921E-01 
    6.6097808827110249E-01 
    6.3481814177040263E-01 
    6.3485903268164723E-01 
    6.6089281299041569E-01 
    6.6082269090500234E-01 
    6.3490059431821344E-01 
    6.3494122711168899E-01 
    6.6076845916987392E-01 
    6.6072983662797657E-01 
    6.3497968584816733E-01 
    6.3501519170813947E-01 
    6.6070528640320692E-01 
    6.6069201951615197E-01 
    6.3504741668606313E-01 
    6.3507636663886857E-01 
    6.6068641378687276E-01 
    6.6068482151579089E-01 
    6.3510222976569541E-01 
    6.3512525587685098E-01 
    6.6068442289628049E-01 
    6.6068364858226503E-01 
    6.3514569356660255E-01 
    6.3516377156017323E-01 
    6.6068199291230267E-01 
    6.6067951211460130E-01 
    6.3517969777106964E-01 
    6.3519366089640295E-01 
    6.6067642525797332E-01 
    6.6067295491197653E-01 
    6.3520583137816944E-01 
    6.3521636208164212E-01 
    6.6066929924247186E-01 
    6.6066563226749986E-01 
    6.3522538889756952E-01 
    6.3523303128099451E-01 
    6.6066210533238390E-01 
    6.6065884833504807E-01 
    6.3523939272713748E-01 
    6.3524456118530714E-01 