# vtk DataFile Version 2.0
Pressure Field Data 
ASCII 
DATASET UNSTRUCTURED_GRID 

POINTS 1681 double 

    0.0000000000000000E+00     0.0000000000000000E+00     0.0000000000000000E+00 
    1.0000000000000000E+00     0.0000000000000000E+00     0.0000000000000000E+00 
    1.0000000000000000E+00     1.0000000000000000E+00     0.0000000000000000E+00 
    0.0000000000000000E+00     1.0000000000000000E+00     0.0000000000000000E+00 
    5.2499999999875258E-01     0.0000000000000000E+00     0.0000000000000000E+00 
    7.4999999999856765E-02     0.0000000000000000E+00     0.0000000000000000E+00 
    1.2499999999975850E-01     0.0000000000000000E+00     0.0000000000000000E+00 
    1.7499999999962990E-01     0.0000000000000000E+00     0.0000000000000000E+00 
    2.2499999999948389E-01     0.0000000000000000E+00     0.0000000000000000E+00 
    2.7499999999933789E-01     0.0000000000000000E+00     0.0000000000000000E+00 
    3.2499999999919210E-01     0.0000000000000000E+00     0.0000000000000000E+00 
    3.7499999999904610E-01     0.0000000000000000E+00     0.0000000000000000E+00 
    4.2499999999890020E-01     0.0000000000000000E+00     0.0000000000000000E+00 
    4.7499999999875958E-01     0.0000000000000000E+00     0.0000000000000000E+00 
    2.4999999999949701E-02     0.0000000000000000E+00     0.0000000000000000E+00 
    5.7499999999887907E-01     0.0000000000000000E+00     0.0000000000000000E+00 
    6.2499999999901101E-01     0.0000000000000000E+00     0.0000000000000000E+00 
    6.7499999999914273E-01     0.0000000000000000E+00     0.0000000000000000E+00 
    7.2499999999927467E-01     0.0000000000000000E+00     0.0000000000000000E+00 
    7.7499999999940661E-01     0.0000000000000000E+00     0.0000000000000000E+00 
    8.2499999999953844E-01     0.0000000000000000E+00     0.0000000000000000E+00 
    8.7499999999967026E-01     0.0000000000000000E+00     0.0000000000000000E+00 
    9.2499999999980220E-01     0.0000000000000000E+00     0.0000000000000000E+00 
    9.7499999999993414E-01     0.0000000000000000E+00     0.0000000000000000E+00 
    5.4999999999881310E-01     0.0000000000000000E+00     0.0000000000000000E+00 
    9.9999999999814140E-02     0.0000000000000000E+00     0.0000000000000000E+00 
    1.4999999999970290E-01     0.0000000000000000E+00     0.0000000000000000E+00 
    1.9999999999955689E-01     0.0000000000000000E+00     0.0000000000000000E+00 
    2.4999999999941089E-01     0.0000000000000000E+00     0.0000000000000000E+00 
    2.9999999999926502E-01     0.0000000000000000E+00     0.0000000000000000E+00 
    3.4999999999911913E-01     0.0000000000000000E+00     0.0000000000000000E+00 
    3.9999999999897312E-01     0.0000000000000000E+00     0.0000000000000000E+00 
    4.4999999999882723E-01     0.0000000000000000E+00     0.0000000000000000E+00 
    4.9999999999869210E-01     0.0000000000000000E+00     0.0000000000000000E+00 
    4.9999999999899403E-02     0.0000000000000000E+00     0.0000000000000000E+00 
    5.9999999999894504E-01     0.0000000000000000E+00     0.0000000000000000E+00 
    6.4999999999907687E-01     0.0000000000000000E+00     0.0000000000000000E+00 
    6.9999999999920870E-01     0.0000000000000000E+00     0.0000000000000000E+00 
    7.4999999999934064E-01     0.0000000000000000E+00     0.0000000000000000E+00 
    7.9999999999947247E-01     0.0000000000000000E+00     0.0000000000000000E+00 
    8.4999999999960441E-01     0.0000000000000000E+00     0.0000000000000000E+00 
    8.9999999999973623E-01     0.0000000000000000E+00     0.0000000000000000E+00 
    9.4999999999986817E-01     0.0000000000000000E+00     0.0000000000000000E+00 
    1.0000000000000000E+00     5.2499999999875258E-01     0.0000000000000000E+00 
    1.0000000000000000E+00     7.4999999999856765E-02     0.0000000000000000E+00 
    1.0000000000000000E+00     1.2499999999975850E-01     0.0000000000000000E+00 
    1.0000000000000000E+00     1.7499999999962990E-01     0.0000000000000000E+00 
    1.0000000000000000E+00     2.2499999999948389E-01     0.0000000000000000E+00 
    1.0000000000000000E+00     2.7499999999933789E-01     0.0000000000000000E+00 
    1.0000000000000000E+00     3.2499999999919210E-01     0.0000000000000000E+00 
    1.0000000000000000E+00     3.7499999999904610E-01     0.0000000000000000E+00 
    1.0000000000000000E+00     4.2499999999890020E-01     0.0000000000000000E+00 
    1.0000000000000000E+00     4.7499999999875958E-01     0.0000000000000000E+00 
    1.0000000000000000E+00     2.4999999999949701E-02     0.0000000000000000E+00 
    1.0000000000000000E+00     5.7499999999887907E-01     0.0000000000000000E+00 
    1.0000000000000000E+00     6.2499999999901101E-01     0.0000000000000000E+00 
    1.0000000000000000E+00     6.7499999999914273E-01     0.0000000000000000E+00 
    1.0000000000000000E+00     7.2499999999927467E-01     0.0000000000000000E+00 
    1.0000000000000000E+00     7.7499999999940661E-01     0.0000000000000000E+00 
    1.0000000000000000E+00     8.2499999999953844E-01     0.0000000000000000E+00 
    1.0000000000000000E+00     8.7499999999967026E-01     0.0000000000000000E+00 
    1.0000000000000000E+00     9.2499999999980220E-01     0.0000000000000000E+00 
    1.0000000000000000E+00     9.7499999999993414E-01     0.0000000000000000E+00 
    1.0000000000000000E+00     5.4999999999881310E-01     0.0000000000000000E+00 
    1.0000000000000000E+00     9.9999999999814140E-02     0.0000000000000000E+00 
    1.0000000000000000E+00     1.4999999999970290E-01     0.0000000000000000E+00 
    1.0000000000000000E+00     1.9999999999955689E-01     0.0000000000000000E+00 
    1.0000000000000000E+00     2.4999999999941089E-01     0.0000000000000000E+00 
    1.0000000000000000E+00     2.9999999999926502E-01     0.0000000000000000E+00 
    1.0000000000000000E+00     3.4999999999911913E-01     0.0000000000000000E+00 
    1.0000000000000000E+00     3.9999999999897312E-01     0.0000000000000000E+00 
    1.0000000000000000E+00     4.4999999999882723E-01     0.0000000000000000E+00 
    1.0000000000000000E+00     4.9999999999869210E-01     0.0000000000000000E+00 
    1.0000000000000000E+00     4.9999999999899403E-02     0.0000000000000000E+00 
    1.0000000000000000E+00     5.9999999999894504E-01     0.0000000000000000E+00 
    1.0000000000000000E+00     6.4999999999907687E-01     0.0000000000000000E+00 
    1.0000000000000000E+00     6.9999999999920870E-01     0.0000000000000000E+00 
    1.0000000000000000E+00     7.4999999999934064E-01     0.0000000000000000E+00 
    1.0000000000000000E+00     7.9999999999947247E-01     0.0000000000000000E+00 
    1.0000000000000000E+00     8.4999999999960441E-01     0.0000000000000000E+00 
    1.0000000000000000E+00     8.9999999999973623E-01     0.0000000000000000E+00 
    1.0000000000000000E+00     9.4999999999986817E-01     0.0000000000000000E+00 
    4.7500000000196618E-01     1.0000000000000000E+00     0.0000000000000000E+00 
    9.2499999999968763E-01     1.0000000000000000E+00     0.0000000000000000E+00 
    8.7499999999961831E-01     1.0000000000000000E+00     0.0000000000000000E+00 
    8.2499999999982654E-01     1.0000000000000000E+00     0.0000000000000000E+00 
    7.7500000000017355E-01     1.0000000000000000E+00     0.0000000000000000E+00 
    7.2500000000052045E-01     1.0000000000000000E+00     0.0000000000000000E+00 
    6.7500000000086724E-01     1.0000000000000000E+00     0.0000000000000000E+00 
    6.2500000000121403E-01     1.0000000000000000E+00     0.0000000000000000E+00 
    5.7500000000156093E-01     1.0000000000000000E+00     0.0000000000000000E+00 
    5.2500000000189684E-01     1.0000000000000000E+00     0.0000000000000000E+00 
    9.7499999999989595E-01     1.0000000000000000E+00     0.0000000000000000E+00 
    4.2500000000176902E-01     1.0000000000000000E+00     0.0000000000000000E+00 
    3.7500000000156092E-01     1.0000000000000000E+00     0.0000000000000000E+00 
    3.2500000000135282E-01     1.0000000000000000E+00     0.0000000000000000E+00 
    2.7500000000114472E-01     1.0000000000000000E+00     0.0000000000000000E+00 
    2.2500000000093659E-01     1.0000000000000000E+00     0.0000000000000000E+00 
    1.7500000000072849E-01     1.0000000000000000E+00     0.0000000000000000E+00 
    1.2500000000052039E-01     1.0000000000000000E+00     0.0000000000000000E+00 
    7.5000000000312261E-02     1.0000000000000000E+00     0.0000000000000000E+00 
    2.5000000000104109E-02     1.0000000000000000E+00     0.0000000000000000E+00 
    4.5000000000187301E-01     1.0000000000000000E+00     0.0000000000000000E+00 
    8.9999999999958358E-01     1.0000000000000000E+00     0.0000000000000000E+00 
    8.4999999999965303E-01     1.0000000000000000E+00     0.0000000000000000E+00 
    8.0000000000000004E-01     1.0000000000000000E+00     0.0000000000000000E+00 
    7.5000000000034706E-01     1.0000000000000000E+00     0.0000000000000000E+00 
    7.0000000000069384E-01     1.0000000000000000E+00     0.0000000000000000E+00 
    6.5000000000104063E-01     1.0000000000000000E+00     0.0000000000000000E+00 
    6.0000000000138742E-01     1.0000000000000000E+00     0.0000000000000000E+00 
    5.5000000000173432E-01     1.0000000000000000E+00     0.0000000000000000E+00 
    5.0000000000205946E-01     1.0000000000000000E+00     0.0000000000000000E+00 
    9.4999999999979179E-01     1.0000000000000000E+00     0.0000000000000000E+00 
    4.0000000000166491E-01     1.0000000000000000E+00     0.0000000000000000E+00 
    3.5000000000145681E-01     1.0000000000000000E+00     0.0000000000000000E+00 
    3.0000000000124871E-01     1.0000000000000000E+00     0.0000000000000000E+00 
    2.5000000000104061E-01     1.0000000000000000E+00     0.0000000000000000E+00 
    2.0000000000083251E-01     1.0000000000000000E+00     0.0000000000000000E+00 
    1.5000000000062441E-01     1.0000000000000000E+00     0.0000000000000000E+00 
    1.0000000000041630E-01     1.0000000000000000E+00     0.0000000000000000E+00 
[...]
CELL_DATA 1600 
SCALARS Pressure double 1 
LOOKUP_TABLE default 

    1.0305788436267360E+00 
    1.0077990032655300E+00 
    1.0076767537092517E+00 
    1.0285577803045296E+00 
    1.0266344337285649E+00 
    1.0074519869059462E+00 
    1.0071435423751254E+00 
    1.0248200407282912E+00 
    1.0231069573705993E+00 
    1.0067662546318663E+00 
    1.0063326587532337E+00 
    1.0214871311037832E+00 
    1.0199530585364431E+00 
    1.0058534317781038E+00 
    1.0053377094434579E+00 
    1.0184979761165722E+00 
    1.0171158688862141E+00 
    1.0047933358691554E+00 
    1.0042270666924273E+00 
    1.0158014235800237E+00 
    1.0145499650859870E+00 
    1.0036447368137922E+00 
    1.0030514001212036E+00 
    1.0133573905296318E+00 
    1.0122201065382390E+00 
    1.0024514465350884E+00 
    1.0018487004453684E+00 
    1.0111349717561100E+00 
    1.0100992451739692E+00 
    1.0012465037285205E+00 
    1.0006477858785028E+00 
    1.0091105401590614E+00 
    1.0081667837701911E+00 
    1.0000551232771968E+00 
    9.9947078921810362E-01 
    1.0072661808130867E+00 
    1.0064071820398839E+00 
    9.9889679594612013E-01 
    9.9833492965607218E-01 
    1.0055884558704653E+00 
    1.0048088629787688E+00 
    9.9778677907064084E-01 
    9.9725375785090131E-01 
    1.0040674330121417E+00 
    1.0033633425543231E+00 
    9.9673712061156372E-01 
    9.9623797159870153E-01 
    1.0026958931323959E+00 
    1.0020644874762146E+00 
    9.9575726391627328E-01 
    9.9529578511407202E-01 
    1.0014686011149114E+00 
    1.0009077442330567E+00 
    9.9485412103816795E-01 
    9.9443258199686702E-01 
    1.0003814044426169E+00 
    9.9988895239098785E-01 
    9.9403105846376683E-01 
    9.9364873478020310E-01 
    9.9942947330757970E-01 
    9.9900144420981662E-01 
    9.9328349614364930E-01 
    9.9293069815856039E-01 
    9.9860206860723866E-01 
    9.9822582381173486E-01 
    9.9258208908504675E-01 
    9.9223604873424875E-01 
    9.9786217310352232E-01 
    9.9750726550046276E-01 
    9.9191742746639089E-01 
    9.9166035075201542E-01 
    9.9720291186553600E-01 
    9.9697498375546867E-01 
    9.9146536116075157E-01 
    9.9132113691897683E-01 
    9.9680899750738339E-01 
    9.9669849502503505E-01 
    9.9122503520947325E-01 
    9.9117699413235605E-01 
    9.9664328001610802E-01 
    9.9132987613646928E-01 
    9.7462178187079729E-01 
    9.7460135033407069E-01 
    9.9129270690123616E-01 
    9.9121902053674460E-01 
    9.7456063781562963E-01 
    9.7450006025126301E-01 
    9.9111032656197207E-01 
    9.9096852686006531E-01 
    9.7442016708537393E-01 
    9.7432162286698887E-01 
    9.9079578921551792E-01 
    9.9059445709743621E-01 
    9.7420519334164446E-01 
    9.7407173088336019E-01 
    9.9036697675423691E-01 
    9.9011584016700294E-01 
    9.7392215973863328E-01 
    9.7375746165082877E-01 
    9.8984354126791418E-01 
    9.8955254288905370E-01 
    9.7357866218070344E-01 
    9.7338681784910286E-01 
    9.8924525225069015E-01 
    9.8892400316411744E-01 
    9.7318300409617087E-01 
    9.7296830395161860E-01 
    9.8859104344401605E-01 
    9.8824852628500992E-01 
    9.7274379722280768E-01 
    9.7251054991518315E-01 
    9.8789850455694539E-01 
    9.8754292711573111E-01 
    9.7226960348562042E-01 
    9.7202196337051316E-01 
    9.8718363631070838E-01 
    9.8682236588866634E-01 
    9.7176858599144522E-01 
    9.7151036306216332E-01 
    9.8646073843157944E-01 
    9.8610026128491612E-01 
    9.7124810139406148E-01 
    9.7098249532177816E-01 
    9.8574231956860192E-01 
    9.8538816418416320E-01 
    9.7071408694817807E-01 
    9.7044320581882770E-01 
    9.8503889148434620E-01 
    9.8469540893313867E-01 
    9.7016987263106014E-01 
    9.6989363753489255E-01 
    9.8435837653004610E-01 
    9.8402810444652811E-01 
    9.6961329714194011E-01 
    9.6932641093417660E-01 
    9.8370436715420695E-01 
    9.8338604960826659E-01 
    9.6902878675070114E-01 
    9.6871627936408822E-01 
    9.8307046077209304E-01 
    9.8275233077992608E-01 
    9.6839216252997895E-01 
    9.6807208759030383E-01 
    9.8242627261337900E-01 
    9.8209779223459648E-01 
    9.6778424583597189E-01 
    9.6754617231316609E-01 
    9.8179397096936494E-01 
    9.8154229663567738E-01 
    9.6735282709013570E-01 
    9.6719468955045773E-01 
    9.8134374691276671E-01 
    9.8118813424102702E-01 
    9.6706812729498792E-01 
    9.6697314115825472E-01 
    9.8107141638227668E-01 
    9.8099357281682908E-01 
    9.6690978650534221E-01 
    9.6687810003603691E-01 
    9.8095464161419810E-01 
    9.5651777700600471E-01 
    9.3664375468943584E-01 
    9.3663033720049016E-01 
    9.5650286345113067E-01 
    9.5647311241609334E-01 
    9.3660351587309365E-01 
    9.3656337989865490E-01 
    9.5642873382237048E-01 
    9.5636999404940604E-01 
    9.3651004352386191E-01 
    9.3644363718481871E-01 
    9.5629720674212770E-01 
    9.5621072853104816E-01 
    9.3636430349220412E-01 
    9.3627219328611588E-01 
    9.5611095464647777E-01 
    9.5599831381878542E-01 
    9.3616746077966906E-01 
    9.3605025749799586E-01 
    9.5587326248669524E-01 
    9.5573627836986919E-01 
    9.3592072478498467E-01 
    9.3577898455106967E-01 
    9.5558785339395858E-01 
    9.5542848586651674E-01 
    9.3562512775726447E-01 
    9.3545919986393744E-01 
    9.5525867169557999E-01 
    9.5507889430625026E-01 
    9.3528118206353683E-01 
    9.3509096646585188E-01 
    9.5488961272078166E-01 
    9.5469124698657726E-01 
    9.3488832236694475E-01 
    9.3467284918443938E-01 
    9.5448415970008804E-01 
    9.5426863166901188E-01 
    9.3444390987564541E-01 
    9.3420053896392641E-01 
    9.5404482856874562E-01 
    9.5381275337761051E-01 
    9.3394133113442013E-01 
    9.3366436970736588E-01 
    9.5357217566706975E-01 
    9.5332252234292147E-01 
    9.3336741781937482E-01 
    9.3304888687106768E-01 
    9.5306270536990634E-01 
    9.5279086522072187E-01 
    9.3270989802085946E-01 
    9.3235606417276240E-01 
    9.5250412557170705E-01 
    9.5219909823360127E-01 
    9.3199751547915211E-01 
    9.3164953661428263E-01 
    9.5187505505639580E-01 
    9.5153818299503423E-01 
    9.3133067895836408E-01 
    9.3105318832976103E-01 
    9.5120256412626769E-01 
    9.5089138964070663E-01 
    9.3081902131216288E-01 
    9.3062107350505863E-01 
    9.5062334745674082E-01 
    9.5040110625230600E-01 
    9.3044959854409481E-01 
    9.3030010320986900E-01 
    9.5021557325455486E-01 
    9.5005820356527237E-01 
    9.3017203822744088E-01 
    9.3006536527796768E-01 
    9.4992704313776610E-01 
    9.4982208505041610E-01 
    9.2998005758476721E-01 
    9.2991609439440182E-01 
    9.4974334903600599E-01 
    9.4969085001674092E-01 
    9.2987346052872566E-01 
    9.2985214605232136E-01 
    9.4966459799746994E-01 
    9.1479978490967861E-01 
    8.9075515278911555E-01 
    8.9073629916546937E-01 
    9.1478533463249034E-01 
    9.1475634625720925E-01 
    8.9069833143268407E-01 
    8.9064094326932919E-01 
    9.1471275503949534E-01 
    9.1465449552711575E-01 
    8.9056378894507593E-01 
    8.9046647029562298E-01 
    9.1458149131472521E-01 
    9.1449364772800912E-01 
    8.9034852774745143E-01 
    8.9020943853111589E-01 
    9.1439084336014542E-01 
    9.1427291925521081E-01 
    8.9004862965906950E-01 
    8.8986551735794417E-01 
    9.1413966491504872E-01 
    9.1399080015917677E-01 
    8.8965958851454274E-01 
    8.8943054072539496E-01 
    9.1382595168031944E-01 
    9.1364462332693375E-01 
    8.8917849053465126E-01 
    8.8890423876161406E-01 
    9.1344616055208339E-01 
    9.1322971391986285E-01 
    8.8860954871942732E-01 
    8.8829736483242860E-01 
    9.1299421758693777E-01 
    9.1273842173420550E-01 
    8.8797190508523272E-01 
    8.8763861440312586E-01 
    9.1246105637610342E-01 
    9.1216123966380525E-01 
    8.8730402717425905E-01 
    8.8697555369000425E-01 
    9.1183919763876708E-01 
    9.1149712765561230E-01 
    8.8666104022283820E-01 
    8.8636793762388966E-01 
    9.1113975925428192E-01 
    9.1077436170349424E-01 
    8.8610229558419817E-01 
    8.8586797468484768E-01 
    9.1041063859919058E-01 
    9.1006064857042601E-01 
    8.8566597044352857E-01 
    8.8549367090495912E-01 
    9.0973693252840759E-01 
    9.0944873259823467E-01 
    8.8534513917049007E-01 
    8.8521352129805575E-01 
    9.0919993511079500E-01 
    9.0898847493638735E-01 
    8.8509398998362776E-01 
    8.8498457501561989E-01 
    9.0880666092802809E-01 
    9.0864608519563328E-01 
    8.8488491527000224E-01 
    8.8479504011823196E-01 
    9.0850250384368081E-01 
    9.0837501960075429E-01 
    8.8471500625402832E-01 
    8.8464486459541203E-01 
    9.0826355006298398E-01 
    9.0816806165977237E-01 
    8.8458465982395784E-01 
    8.8453443033173762E-01 
    9.0808852704714793E-01 
    9.0802492433840776E-01 
    8.8449420817687530E-01 
    8.8446401904757799E-01 
    9.0797723660860852E-01 
    9.0794545150280126E-01 
    8.8444388223402826E-01 
    8.8443381060768433E-01 
    9.0792956094490163E-01 
    8.6415886528944319E-01 
    8.3584493690845862E-01 
    8.3582820760908627E-01 
    8.6412978721031986E-01 
    8.6407211288096841E-01 
    8.3579639824794572E-01 
    8.3575192713909463E-01 
    8.6398675037468498E-01 
    8.6387489258950245E-01 
    8.3569741142528464E-01 
    8.3563553809296420E-01 
    8.6373805594375408E-01 
    8.6357813644806591E-01 
    8.3556899733504542E-01 
    8.3550043489923898E-01 
    8.6339745885551833E-01 
    8.6319880579649255E-01 
    8.3543240690797982E-01 
    8.3536732684720327E-01 
    8.6298541847838761E-01 
    8.6276096555889059E-01 
    8.3530739552722011E-01 
    8.3525450531721357E-01 
    8.6252948161411702E-01 
    8.6229527839816367E-01 
    8.3521011346246099E-01 
    8.3517509022328551E-01 
    8.6206282925706601E-01 
    8.6183662283205498E-01 
    8.3514956844451016E-01 
    8.3513284706804958E-01 
    8.6162098424817812E-01 
    8.6141987051920021E-01 
    8.3512341598716544E-01 
    8.3511915356038668E-01 
    8.6123664598134975E-01 
    8.6107381784649839E-01 
    8.3511769210405340E-01 
    8.3511686425487197E-01 
    8.6093268786510635E-01 
    8.6081293677438087E-01 
    8.3511507632989557E-01 
    8.3511146592647290E-01 
    8.6071235446922778E-01 
    8.6062708606682381E-01 
    8.3510581145513352E-01 
    8.3509829474634578E-01 
    8.6055257144268038E-01 
    8.6048483615008631E-01 
    8.3508926620039348E-01 
    8.3507910280296205E-01 
    8.6042139583351629E-01 
    8.6036127096588444E-01 
    8.3506815685152525E-01 
    8.3505674856979573E-01 
    8.6030436979072911E-01 
    8.6025089587187220E-01 
    8.3504516831815689E-01 
    8.3503367857789546E-01 
    8.6020108514670701E-01 
    8.6015515236898976E-01 
    8.3502251541156891E-01 
    8.3501188972962548E-01 
    8.6011328902618611E-01 
    8.6007566455413498E-01 
    8.3500198840446849E-01 
    8.3499297524267213E-01 
    8.6004242729874847E-01 
    8.6001370534396171E-01 
    8.3498499182557229E-01 
    8.3497815822697385E-01 
    8.5998960721784568E-01 
    8.5997022248442645E-01 
    8.3497257361537036E-01 
    8.3496831674681027E-01 
    8.5995562222753863E-01 
    8.5994585943187007E-01 
    8.3496544635339365E-01 
    8.3496400143130756E-01 
    8.5994096926525532E-01 
    8.0919594637281067E-01 
    7.8432004897433782E-01 
    7.8432459347981776E-01 
    8.0920107497401628E-01 
    8.0921136860253340E-01 
    7.8433316322693114E-01 
    7.8434504647232572E-01 
    8.0922686374926511E-01 
    8.0924752404458578E-01 
    7.8435954172489586E-01 
    7.8437600500430193E-01 
    8.0927317661889442E-01 
    8.0930346319571589E-01 
    7.8439387021571172E-01 
    7.8441265608393840E-01 
    8.0933781038782637E-01 
    8.0937542573441135E-01 
    7.8443196450450614E-01 
    7.8445147301812646E-01 
    8.0941532523797477E-01 
    8.0945639443245820E-01 
    7.8447092377548688E-01 
    7.8449011132037738E-01 
    8.0949747837550745E-01 
    8.0953748766953426E-01 
    7.8450887126251034E-01 
    7.8452707128759747E-01 
    8.0957550022438141E-01 
    8.0961083588552774E-01 
    7.8454460503752554E-01 
    7.8456138847541845E-01 
    8.0964308644852656E-01 
    8.0967209673630325E-01 
    7.8457735776157489E-01 
    7.8459246760872925E-01 
    8.0969790803819619E-01 
    8.0972068587146517E-01 
    7.8460668946646317E-01 
    7.8462000939008347E-01 
    8.0974065483511004E-01 
    8.0975805474004281E-01 
    7.8463242577436088E-01 
    7.8464394718571862E-01 
    8.0977311960914311E-01 
    8.0978607188813301E-01 
    7.8465459041965424E-01 
    7.8466437879845208E-01 
    8.0979712259016789E-01 
    8.0980647199628220E-01 
    7.8467334067663530E-01 
    7.8468150812108883E-01 
    8.0981430965609735E-01 
    8.0982081406730788E-01 
    7.8468891574338340E-01 
    7.8469559966802782E-01 
    8.0982615237285904E-01 
    8.0983048013808601E-01 
    7.8470159662278438E-01 
    7.8470694313864520E-01 
    8.0983394118952723E-01 
    8.0983666750018579E-01 
    7.8471167484843651E-01 
    7.8471582587430799E-01 
    8.0983877911125246E-01 
    8.0984038408210279E-01 
    7.8471942829552799E-01 
    7.8472251168909180E-01 
    8.0984157846168248E-01 
    8.0984244627552060E-01 
    7.8472510273662310E-01 
    7.8472722489196933E-01 
    8.0984305952358981E-01 
    8.0984347818507518E-01 
    7.8472889810472091E-01 
    7.8473013859567720E-01 
    8.0984375022686428E-01 
    8.0984391161321134E-01 
    7.8473095868101228E-01 
    7.8473136664258969E-01 
    8.0984398631462895E-01 
    7.5947768388567138E-01 
    7.3453618767226314E-01 
    7.3453653129185836E-01 
    7.5947870981395538E-01 
    7.5948072707280345E-01 
    7.3453721371817704E-01 
    7.3453822559071269E-01 
    7.5948367606895617E-01 
    7.5948748107805697E-01 
    7.3453955344005473E-01 
    7.3454118021869519E-01 
    7.5949205592219504E-01 
    7.5949730845274244E-01 
    7.3454308587663886E-01 
    7.3454524794724863E-01 
    7.5950314412511666E-01 
    7.5950946879681158E-01 
    7.3454764211799661E-01 
    7.3455024276823677E-01 
    7.5951619084092448E-01 
    7.5952322266724837E-01 
    7.3455302346231877E-01 
    7.3455595739141510E-01 
    7.5953048175322202E-01 
    7.5953789129286164E-01 
    7.3455901776136157E-01 
    7.3456217812661206E-01 
    7.5954538056563026E-01 
    7.5955288510828889E-01 
    7.3456541267219888E-01 
    7.3456869644659661E-01 
    7.5956034674697792E-01 
    7.5956771352275743E-01 
    7.3457200554888680E-01 
    7.3457531727385827E-01 
    7.5957493952818433E-01 
    7.5958198466667970E-01 
    7.3457861021881865E-01 
    7.3458186435598516E-01 
    7.5958881434707470E-01 
    7.5959539912795537E-01 
    7.3458506107438237E-01 
    7.3458818319514874E-01 
    7.5960171432709012E-01 
    7.5960773960979378E-01 
    7.3459121496405477E-01 
    7.3459414202487550E-01 
    7.5961345856760742E-01 
    7.5961885829624831E-01 
    7.3459695137703629E-01 
    7.3459963132072004E-01 
    7.5962392897982656E-01 
    7.5962866348681735E-01 
    7.3460217139235784E-01 
    7.3460456229317772E-01 
    7.5963305698206951E-01 
    7.5963710655815919E-01 
    7.3460679581322252E-01 
    7.3460886475300602E-01 
    7.5964081088859559E-01 
    7.5964416990474459E-01 
    7.3461076284474025E-01 
    7.3461248467484508E-01 
    7.5964718449782609E-01 
    7.5964985624693260E-01 
    7.3461402560924416E-01 
    7.3461538172275820E-01 
    7.5965218717370653E-01 
    7.5965417952407199E-01 
    7.3461654973373225E-01 
    7.3461752694486304E-01 
    7.5965583557724359E-01 
    7.5965715748210860E-01 
    7.3461831119104992E-01 
    7.3461890079494574E-01 
    7.5965814712099855E-01 
    7.5965880600081148E-01 
    7.3461929453076102E-01 
    7.3461949159674944E-01 
    7.5965913517143080E-01 
    7.0956067312833304E-01 
    6.8457151790355397E-01 
    6.8457157763392873E-01 
    7.0956081091292744E-01 
    7.0956108519146222E-01 
    6.8457169663830852E-01 
    6.8457187400950803E-01 
    7.0956149340965780E-01 
    7.0956203180178357E-01 
    6.8457210840078087E-01 
    6.8457239804218428E-01 
    7.0956269546423989E-01 
    7.0956347844657086E-01 
    6.8457274076165164E-01 
    6.8457313401021891E-01 
    7.0956437385571847E-01 
    7.0956537396945141E-01 
    6.8457357489077808E-01 
    6.8457406018970257E-01 
    7.0956647035520559E-01 
    7.0956765399098443E-01 
    6.8457458641067770E-01 
    6.8457514981008749E-01 
    7.0956891538544009E-01 
    7.0957024469473784E-01 
    6.8457574643333130E-01 
    6.8457637215150136E-01 
    7.0957163183428573E-01 
    7.0957306658383856E-01 
    6.8457702269789356E-01 
    6.8457769370389265E-01 
    7.0957453868488207E-01 
    7.0957603792955448E-01 
    6.8457838073383059E-01 
    6.8457907931848472E-01 
    7.0957755424065505E-01 
    7.0957907774255347E-01 
    6.8457978498694394E-01 
    6.8458049329662907E-01 
    7.0958059882303115E-01 
    7.0958210818627065E-01 
    6.8458119986131782E-01 
    6.8458190037706790E-01 
    7.0958359689735695E-01 
    7.0958505641877190E-01 
    6.8458259064599136E-01 
    6.8458326659786262E-01 
    7.0958647863945457E-01 
    7.0958785589706808E-01 
    6.8458392430959258E-01 
    6.8458456002262347E-01 
    7.0958918099415136E-01 
    7.0959044720886066E-01 
    6.8458517015833065E-01 
    6.8458575133153632E-01 
    7.0959164830101462E-01 
    7.0959277851415159E-01 
    6.8458630036225776E-01 
    6.8458681428582235E-01 
    7.0959383257428654E-01 
    7.0959480568603461E-01 
    6.8458729036149157E-01 
    6.8458772607973584E-01 
    7.0959569352673091E-01 
    7.0959649223913313E-01 
    6.8458811916830564E-01 
    6.8458846759723868E-01 
    7.0959719842325941E-01 
    7.0959780912785575E-01 
    6.8458876958293569E-01 
    6.8458902359143192E-01 
    7.0959832184193761E-01 
    7.0959873448680322E-01 
    6.8458922834097558E-01 
    6.8458938280401549E-01 
    7.0959904540885654E-01 
    7.0959925337352359E-01 
    6.8458948620868498E-01 
    6.8458953803985156E-01 
    7.0959935756048931E-01 
    6.5957644936525339E-01 
    6.3457872136588589E-01 
    6.3457873365909379E-01 
    6.5957647622842697E-01 
    6.5957652977002290E-01 
    6.3457875816543274E-01 
    6.3457879472521184E-01 
    6.5957660962208664E-01 
    6.5957671523687200E-01 
    6.3457884310041335E-01 
    6.3457890297649466E-01 
    6.5957684589178411E-01 
    6.5957700069583658E-01 
    6.3457897396475826E-01 
    6.3457905560526240E-01 
    6.5957717859751785E-01 
    6.5957737839394215E-01 
    6.3457914737024024E-01 
    6.3457924866798965E-01 
    6.5957759874114275E-01 
    6.5957783816535942E-01 
    6.3457935884719041E-01 
    6.3457947720160757E-01 
    6.5957809507516063E-01 
    6.5957836777424073E-01 
    6.3457960297512905E-01 
    6.3457973536709211E-01 
    6.5957865447473529E-01 
    6.5957895331089533E-01 
    6.3457987353784728E-01 
    6.3458001661450936E-01 
    6.5957926235297526E-01 
    6.5957957962119185E-01 
    6.3458016369684822E-01 
    6.3458031386326763E-01 
    6.5957990309962733E-01 
    6.5958023074995709E-01 
    6.3458046617683017E-01 
    6.3458061969128166E-01 
    6.5958056052489433E-01 
    6.5958089038126466E-01 
    6.3458077345703223E-01 
    6.3458092652705689E-01 
    6.5958121829262695E-01 
    6.5958154226137422E-01 
    6.3458107796268082E-01 
    6.3458122683921370E-01 
    6.5958186033026367E-01 
    6.5958217059332946E-01 
    6.3458137225140621E-01 
    6.3458151331870016E-01 
    6.5958247120614943E-01 
    6.5958276039544361E-01 
    6.3458164919025073E-01 
    6.3458177904969970E-01 
    6.5958303646799366E-01 
    6.5958329781887470E-01 
    6.3458190211968113E-01 
    6.3458201766604738E-01 
    6.5958354293900656E-01 
    6.5958377042202876E-01 
    6.3458212500180056E-01 
    6.3458222349071913E-01 
    6.5958397897051324E-01 
    6.5958416740152870E-01 
    6.3458231255067366E-01 
    6.3458239165662167E-01 
    6.5958433465157529E-01 
    6.5958447978090773E-01 
    6.3458246034328036E-01 
    6.3458251820746947E-01 