# vtk DataFile Version 2.0
Pressure Field Data 
ASCII 
DATASET UNSTRUCTURED_GRID 

POINTS 1681 double 

    0.0000000000000000E+00     0.0000000000000000E+00     0.0000000000000000E+00 
    1.0000000000000000E+00     0.0000000000000000E+00     0.0000000000000000E+00 
    1.0000000000000000E+00     1.0000000000000000E+00     0.0000000000000000E+00 
    0.0000000000000000E+00     1.0000000000000000E+00     0.0000000000000000E+00 
    5.2499999999875258E-01     0.0000000000000000E+00     0.0000000000000000E+00 
    7.4999999999856765E-02     0.0000000000000000E+00     0.0000000000000000E+00 
    1.2499999999975850E-01     0.0000000000000000E+00     0.0000000000000000E+00 
    1.7499999999962990E-01     0.0000000000000000E+00     0.0000000000000000E+00 
    2.2499999999948389E-01     0.0000000000000000E+00     0.0000000000000000E+00 
    2.7499999999933789E-01     0.0000000000000000E+00     0.0000000000000000E+00 
    3.2499999999919210E-01     0.0000000000000000E+00     0.0000000000000000E+00 
    3.7499999999904610E-01     0.0000000000000000E+00     0.0000000000000000E+00 
    4.2499999999890020E-01     0.0000000000000000E+00     0.0000000000000000E+00 
    4.7499999999875958E-01     0.0000000000000000E+00     0.0000000000000000E+00 
    2.4999999999949701E-02     0.0000000000000000E+00     0.0000000000000000E+00 
    5.7499999999887907E-01     0.0000000000000000E+00     0.0000000000000000E+00 
    6.2499999999901101E-01     0.0000000000000000E+00     0.0000000000000000E+00 
    6.7499999999914273E-01     0.0000000000000000E+00     0.0000000000000000E+00 
    7.2499999999927467E-01     0.0000000000000000E+00     0.0000000000000000E+00 
    7.7499999999940661E-01     0.0000000000000000E+00     0.0000000000000000E+00 
    8.2499999999953844E-01     0.0000000000000000E+00     0.0000000000000000E+00 
    8.7499999999967026E-01     0.0000000000000000E+00     0.0000000000000000E+00 
    9.2499999999980220E-01     0.0000000000000000E+00     0.0000000000000000E+00 
    9.7499999999993414E-01     0.0000000000000000E+00     0.0000000000000000E+00 
    5.4999999999881310E-01     0.0000000000000000E+00     0.0000000000000000E+00 
    9.9999999999814140E-02     0.0000000000000000E+00     0.0000000000000000E+00 
    1.4999999999970290E-01     0.0000000000000000E+00     0.0000000000000000E+00 
    1.9999999999955689E-01     0.0000000000000000E+00     0.0000000000000000E+00 
    2.4999999999941089E-01     0.0000000000000000E+00     0.0000000000000000E+00 
    2.9999999999926502E-01     0.0000000000000000E+00     0.0000000000000000E+00 
    3.4999999999911913E-01     0.0000000000000000E+00     0.0000000000000000E+00 
    3.9999999999897312E-01     0.0000000000000000E+00     0.0000000000000000E+00 
    4.4999999999882723E-01     0.0000000000000000E+00     0.0000000000000000E+00 
    4.9999999999869210E-01     0.0000000000000000E+00     0.0000000000000000E+00 
    4.9999999999899403E-02     0.0000000000000000E+00     0.0000000000000000E+00 
    5.9999999999894504E-01     0.0000000000000000E+00     0.0000000000000000E+00 
    6.4999999999907687E-01     0.0000000000000000E+00     0.0000000000000000E+00 
    6.9999999999920870E-01     0.0000000000000000E+00     0.0000000000000000E+00 
    7.4999999999934064E-01     0.0000000000000000E+00     0.0000000000000000E+00 
    7.9999999999947247E-01     0.0000000000000000E+00     0.0000000000000000E+00 
    8.4999999999960441E-01     0.0000000000000000E+00     0.0000000000000000E+00 
    8.9999999999973623E-01     0.0000000000000000E+00     0.0000000000000000E+00 
    9.4999999999986817E-01     0.0000000000000000E+00     0.0000000000000000E+00 
    1.0000000000000000E+00     5.2499999999875258E-01     0.0000000000000000E+00 
    1.0000000000000000E+00     7.4999999999856765E-02     0.0000000000000000E+00 
    1.0000000000000000E+00     1.2499999999975850E-01     0.0000000000000000E+00 
    1.0000000000000000E+00     1.7499999999962990E-01     0.0000000000000000E+00 
    1.0000000000000000E+00     2.2499999999948389E-01     0.0000000000000000E+00 
    1.0000000000000000E+00     2.7499999999933789E-01     0.0000000000000000E+00 
    1.0000000000000000E+00     3.2499999999919210E-01     0.0000000000000000E+00 
    1.0000000000000000E+00     3.7499999999904610E-01     0.0000000000000000E+00 
    1.0000000000000000E+00     4.2499999999890020E-01     0.0000000000000000E+00 
    1.0000000000000000E+00     4.7499999999875958E-01     0.0000000000000000E+00 
    1.0000000000000000E+00     2.4999999999949701E-02     0.0000000000000000E+00 
    1.0000000000000000E+00     5.7499999999887907E-01     0.0000000000000000E+00 
    1.0000000000000000E+00     6.2499999999901101E-01     0.0000000000000000E+00 
    1.0000000000000000E+00     6.7499999999914273E-01     0.0000000000000000E+00 
    1.0000000000000000E+00     7.2499999999927467E-01     0.0000000000000000E+00 
    1.0000000000000000E+00     7.7499999999940661E-01     0.0000000000000000E+00 
    1.0000000000000000E+00     8.2499999999953844E-01     0.0000000000000000E+00 
    1.0000000000000000E+00     8.7499999999967026E-01     0.0000000000000000E+00 
    1.0000000000000000E+00     9.2499999999980220E-01     0.0000000000000000E+00 
    1.0000000000000000E+00     9.7499999999993414E-01     0.0000000000000000E+00 
    1.0000000000000000E+00     5.4999999999881310E-01     0.0000000000000000E+00 
    1.0000000000000000E+00     9.9999999999814140E-02     0.0000000000000000E+00 
    1.0000000000000000E+00     1.4999999999970290E-01     0.0000000000000000E+00 
    1.0000000000000000E+00     1.9999999999955689E-01     0.0000000000000000E+00 
    1.0000000000000000E+00     2.4999999999941089E-01     0.0000000000000000E+00 
    1.0000000000000000E+00     2.9999999999926502E-01     0.0000000000000000E+00 
    1.0000000000000000E+00     3.4999999999911913E-01     0.0000000000000000E+00 
    1.0000000000000000E+00     3.9999999999897312E-01     0.0000000000000000E+00 
    1.0000000000000000E+00     4.4999999999882723E-01     0.0000000000000000E+00 
    1.0000000000000000E+00     4.9999999999869210E-01     0.0000000000000000E+00 
    1.0000000000000000E+00     4.9999999999899403E-02     0.0000000000000000E+00 
    1.0000000000000000E+00     5.9999999999894504E-01     0.0000000000000000E+00 
    1.0000000000000000E+00     6.4999999999907687E-01     0.0000000000000000E+00 
    1.0000000000000000E+00     6.9999999999920870E-01     0.0000000000000000E+00 
    1.0000000000000000E+00     7.4999999999934064E-01     0.0000000000000000E+00 
    1.0000000000000000E+00     7.9999999999947247E-01     0.0000000000000000E+00 
    1.0000000000000000E+00     8.4999999999960441E-01     0.0000000000000000E+00 
    1.0000000000000000E+00     8.9999999999973623E-01     0.0000000000000000E+00 
    1.0000000000000000E+00     9.4999999999986817E-01     0.0000000000000000E+00 
    4.7500000000196618E-01     1.0000000000000000E+00     0.0000000000000000E+00 
    9.2499999999968763E-01     1.0000000000000000E+00     0.0000000000000000E+00 
    8.7499999999961831E-01     1.0000000000000000E+00     0.0000000000000000E+00 
    8.2499999999982654E-01     1.0000000000000000E+00     0.0000000000000000E+00 
    7.7500000000017355E-01     1.0000000000000000E+00     0.0000000000000000E+00 
    7.2500000000052045E-01     1.0000000000000000E+00     0.0000000000000000E+00 
    6.7500000000086724E-01     1.0000000000000000E+00     0.0000000000000000E+00 
    6.2500000000121403E-01     1.0000000000000000E+00     0.0000000000000000E+00 
    5.7500000000156093E-01     1.0000000000000000E+00     0.0000000000000000E+00 
    5.2500000000189684E-01     1.0000000000000000E+00     0.0000000000000000E+00 
    9.7499999999989595E-01     1.0000000000000000E+00     0.0000000000000000E+00 
    4.2500000000176902E-01     1.0000000000000000E+00     0.0000000000000000E+00 
    3.7500000000156092E-01     1.0000000000000000E+00     0.0000000000000000E+00 
    3.2500000000135282E-01     1.0000000000000000E+00     0.0000000000000000E+00 
    2.7500000000114472E-01     1.0000000000000000E+00     0.0000000000000000E+00 
    2.2500000000093659E-01     1.0000000000000000E+00     0.0000000000000000E+00 
    1.7500000000072849E-01     1.0000000000000000E+00     0.0000000000000000E+00 
    1.2500000000052039E-01     1.0000000000000000E+00     0.0000000000000000E+00 
    7.5000000000312261E-02     1.0000000000000000E+00     0.0000000000000000E+00 
    2.5000000000104109E-02     1.0000000000000000E+00     0.0000000000000000E+00 
    4.5000000000187301E-01     1.0000000000000000E+00     0.0000000000000000E+00 
    8.9999999999958358E-01     1.0000000000000000E+00     0.0000000000000000E+00 
    8.4999999999965303E-01     1.0000000000000000E+00     0.0000000000000000E+00 
    8.0000000000000004E-01     1.0000000000000000E+00     0.0000000000000000E+00 
    7.5000000000034706E-01     1.0000000000000000E+00     0.0000000000000000E+00 
    7.0000000000069384E-01     1.0000000000000000E+00     0.0000000000000000E+00 
    6.5000000000104063E-01     1.0000000000000000E+00     0.0000000000000000E+00 
    6.0000000000138742E-01     1.0000000000000000E+00     0.0000000000000000E+00 
    5.5000000000173432E-01     1.0000000000000000E+00     0.0000000000000000E+00 
    5.0000000000205946E-01     1.0000000000000000E+00     0.0000000000000000E+00 
    9.4999999999979179E-01     1.0000000000000000E+00     0.0000000000000000E+00 
    4.0000000000166491E-01     1.0000000000000000E+00     0.0000000000000000E+00 
    3.5000000000145681E-01     1.0000000000000000E+00     0.0000000000000000E+00 
    3.0000000000124871E-01     1.0000000000000000E+00     0.0000000000000000E+00 
    2.5000000000104061E-01     1.0000000000000000E+00     0.0000000000000000E+00 
    2.0000000000083251E-01     1.0000000000000000E+00     0.0000000000000000E+00 
    1.5000000000062441E-01     1.0000000000000000E+00     0.0000000000000000E+00 
    1.0000000000041630E-01     1.0000000000000000E+00     0.0000000000000000E+00 
[...]
CELL_DATA 1600 
SCALARS Pressure double 1 
LOOKUP_TABLE default 

    7.6927109916408887E-01 
    7.5079955724238534E-01 
    7.5070476199068370E-01 
    7.6736826689146465E-01 
    7.6560995450427161E-01 
    7.5053322839814973E-01 
    7.5030037478597855E-01 
    7.6398496408601624E-01 
    7.6248037897348575E-01 
    7.5001896435315707E-01 
    7.4969967374307622E-01 
    7.6108462841483082E-01 
    7.5978747055841833E-01 
    7.4935144026047429E-01 
    7.4898174599721479E-01 
    7.5857986518731813E-01 
    7.5745383658784238E-01 
    7.4859685398048714E-01 
    7.4820200540540160E-01 
    7.5640234574672627E-01 
    7.5541917603550901E-01 
    7.4780158475382763E-01 
    7.4739925822929298E-01 
    7.5449883255447847E-01 
    7.5363645411356406E-01 
    7.4699808994052275E-01 
    7.4660063948900923E-01 
    7.5282773650711821E-01 
    7.5206886572562137E-01 
    7.4620904399175425E-01 
    7.4582508706139239E-01 
    7.5135645984355215E-01 
    7.5068751845363701E-01 
    7.4545025684746902E-01 
    7.4508579489683435E-01 
    7.5005937865317251E-01 
    7.4946967671587161E-01 
    7.4473273730428768E-01 
    7.4439194938607267E-01 
    7.4891631469818865E-01 
    7.4839743133136749E-01 
    7.4406415491007916E-01 
    7.4374996075076139E-01 
    7.4791137663991303E-01 
    7.4745668980499080E-01 
    7.4344987769824733E-01 
    7.4316433803524240E-01 
    7.4703207985860087E-01 
    7.4663640885262006E-01 
    7.4289371039842300E-01 
    7.4263831235984867E-01 
    7.4626867719716250E-01 
    7.4592801090615068E-01 
    7.4239842109589116E-01 
    7.4217428245398698E-01 
    7.4561365052544160E-01 
    7.4532494155080409E-01 
    7.4196611867902929E-01 
    7.4177413501916145E-01 
    7.4506132616951481E-01 
    7.4482233617923332E-01 
    7.4159852539196824E-01 
    7.4143947725080817E-01 
    7.4460758694733842E-01 
    7.4441677226209879E-01 
    7.4129717573374754E-01 
    7.4117180706683883E-01 
    7.4424965986142189E-01 
    7.4410608719989313E-01 
    7.4106356091008296E-01 
    7.4097263044487416E-01 
    7.4398595623919928E-01 
    7.4388922304963012E-01 
    7.4089920572385581E-01 
    7.4084344224261367E-01 
    7.4381586485144724E-01 
    7.4376574640657689E-01 
    7.4080533011782523E-01 
    7.4078430036738807E-01 
    7.4373809590889628E-01 
    7.4015949223744071E-01 
    7.3066187260580706E-01 
    7.3065336389028268E-01 
    7.4013757881758091E-01 
    7.4009432741582559E-01 
    7.3063642394643380E-01 
    7.3061122993789751E-01 
    7.4003079392659143E-01 
    7.3994833114684766E-01 
    7.3057804078342492E-01 
    7.3053718983006588E-01 
    7.3984848653696067E-01 
    7.3973292280734515E-01 
    7.3048907521516004E-01 
    7.3043414968937370E-01 
    7.3960335725379267E-01 
    7.3946151621453216E-01 
    7.3037291061967624E-01 
    7.3030589054261441E-01 
    7.3930910154066676E-01 
    7.3914776653033998E-01 
    7.3023364846939676E-01 
    7.3015676204410318E-01 
    7.3897909926465610E-01 
    7.3880461168870926E-01 
    7.3007582059141629E-01 
    7.2999141904710096E-01 
    7.3862573311254520E-01 
    7.3844380707606427E-01 
    7.2990415273607157E-01 
    7.2981461294494354E-01 
    7.3826009073969312E-01 
    7.3807575613843091E-01 
    7.2972338322554109E-01 
    7.2963103636079385E-01 
    7.3789189277841793E-01 
    7.3770951116890815E-01 
    7.2953813192324579E-01 
    7.2944521435785448E-01 
    7.3752954697367790E-01 
    7.3735286553880108E-01 
    7.2935281152399478E-01 
    7.2926143363598483E-01 
    7.3718026661182678E-01 
    7.3701248911359496E-01 
    7.2917157254650844E-01 
    7.2908370132271472E-01 
    7.3685021586050614E-01 
    7.3669407816390864E-01 
    7.2899827407021522E-01 
    7.2891572596553544E-01 
    7.3654466025588095E-01 
    7.3640250350823455E-01 
    7.2883647346253067E-01 
    7.2876091464261727E-01 
    7.3626811042487394E-01 
    7.3614194839713298E-01 
    7.2868942968184003E-01 
    7.2862238140866897E-01 
    7.3602445321711030E-01 
    7.3591603234367453E-01 
    7.2856011592232461E-01 
    7.2850296322573782E-01 
    7.3581706790459178E-01 
    7.3572791938180493E-01 
    7.2845123778246512E-01 
    7.2840523878347541E-01 
    7.3564892582302843E-01 
    7.3558040711674166E-01 
    7.2836524955601789E-01 
    7.2833153446114940E-01 
    7.3552266288541224E-01 
    7.3547596407716465E-01 
    7.2830432805563339E-01 
    7.2828379919750763E-01 
    7.3544051919018316E-01 
    7.3541635059144717E-01 
    7.2826993778379900E-01 
    7.2826238885886208E-01 
    7.3540304591457517E-01 
    7.2114795440270063E-01 
    7.1126888330693139E-01 
    7.1126666413056971E-01 
    7.2114390604919731E-01 
    7.2113583272541815E-01 
    7.1126223809759759E-01 
    7.1125563173528050E-01 
    7.2112379005400418E-01 
    7.2110786116404757E-01 
    7.1124688316366913E-01 
    7.1123604335239410E-01 
    7.2108815720975750E-01 
    7.2106481612783369E-01 
    7.1122317608618757E-01 
    7.1120835751645806E-01 
    7.2103800077238311E-01 
    7.2100789675934140E-01 
    7.1119167553439155E-01 
    7.1117322904950198E-01 
    7.2097471016738490E-01 
    7.2093866518181771E-01 
    7.1115312721249069E-01 
    7.1113148860489173E-01 
    7.2090000174111712E-01 
    7.2085897323033810E-01 
    7.1110844041100796E-01 
    7.1108411758417467E-01 
    7.2081584425476686E-01 
    7.2077088851879090E-01 
    7.1105866201734003E-01 
    7.1103222172652003E-01 
    7.2072438682807050E-01 
    7.2067662522740328E-01 
    7.1100495005455999E-01 
    7.1097700490167037E-01 
    7.2062789328197174E-01 
    7.2057848250582068E-01 
    7.1094854798837703E-01 
    7.1091974415579484E-01 
    7.2052868493837041E-01 
    7.2047879186739483E-01 
    7.1089076070751578E-01 
    7.1086176679689850E-01 
    7.2042909269514377E-01 
    7.2037987394306280E-01 
    7.1083293286315996E-01 
    7.1080443011938144E-01 
    7.2033141838979398E-01 
    7.2028400433673090E-01 
    7.1077643009536051E-01 
    7.1074910423806714E-01 
    7.2023790499526030E-01 
    7.2019338798975985E-01 
    7.1072262357218341E-01 
    7.1069715842248560E-01 
    7.2015071497014083E-01 
    7.2011014132656470E-01 
    7.1067287819795344E-01 
    7.1064995123281693E-01 
    7.2007191599553610E-01 
    7.2003628133759889E-01 
    7.1062854466847403E-01 
    7.1060882433312889E-01 
    7.2000347304433454E-01 
    7.1997371997571702E-01 
    7.1059095451006238E-01 
    7.1057509732011415E-01 
    7.1994724368176033E-01 
    7.1992425696078155E-01 
    7.1056141101318482E-01 
    7.1055004529663646E-01 
    7.1990495964577472E-01 
    7.1988952629690506E-01 
    7.1054112860321605E-01 
    7.1053473373737031E-01 
    7.1987806991304337E-01 
    7.1987054119354765E-01 
    7.1053079343124093E-01 
    7.1052891902430804E-01 
    7.1986657910541274E-01 
    7.0090410553251581E-01 
    6.9001551523009852E-01 
    6.9001450634937556E-01 
    7.0090270892411721E-01 
    7.0089992522484945E-01 
    6.9001249741852910E-01 
    6.9000950309716469E-01 
    7.0089577205251619E-01 
    7.0089027279140503E-01 
    6.9000554140176085E-01 
    6.9000063461765437E-01 
    7.0088345774597405E-01 
    7.0087536433744935E-01 
    6.8999480953282555E-01 
    6.8998809742914968E-01 
    7.0086603699004324E-01 
    7.0085552689480135E-01 
    6.8998053397984771E-01 
    6.8997215910549115E-01 
    7.0084389171541028E-01 
    7.0083119526277660E-01 
    6.8996301681031180E-01 
    6.8995315500908194E-01 
    7.0081750715154700E-01 
    7.0080290244615340E-01 
    6.8994262534997919E-01 
    6.8993148303666396E-01 
    7.0078746130148606E-01 
    7.0077126860215588E-01 
    6.8991978665178844E-01 
    6.8990759798369117E-01 
    7.0075441360373814E-01 
    7.0073698957911568E-01 
    6.8989498185786857E-01 
    6.8988200597478311E-01 
    7.0071909347291128E-01 
    7.0070082556693747E-01 
    6.8986874075564042E-01 
    6.8985525919789870E-01 
    7.0068228915959707E-01 
    7.0066359026221559E-01 
    6.8984163674244647E-01 
    6.8982795115460582E-01 
    7.0064483731537097E-01 
    7.0062614092843056E-01 
    6.8981428242137499E-01 
    6.8980071266760412E-01 
    7.0060761364567536E-01 
    7.0058936974259234E-01 
    6.8978732609407190E-01 
    6.8977420894060026E-01 
    7.0057152505605969E-01 
    7.0055419685209364E-01 
    6.8976144947723561E-01 
    6.8974913802566140E-01 
    7.0053750373419443E-01 
    7.0052156559330825E-01 
    6.8973736701045851E-01 
    6.8972623103340414E-01 
    7.0050650359513911E-01 
    7.0049244018772860E-01 
    6.8971582694895517E-01 
    6.8970625388458651E-01 
    7.0047949908178853E-01 
    7.0046780508397122E-01 
    6.8969761307128485E-01 
    6.8969000717098794E-01 
    7.0045748348877102E-01 
    7.0044865830471303E-01 
    6.8968353838085761E-01 
    6.8967830368291716E-01 
    7.0044144751397830E-01 
    7.0043595091469812E-01 
    6.8967438373837764E-01 
    6.8967181954985834E-01 
    7.0043222044715192E-01 
    7.0043019884976332E-01 
    6.8967058033322470E-01 
    6.8967031388974176E-01 
    7.0042948476143352E-01 
    6.7859762603753293E-01 
    6.6665789345473503E-01 
    6.6665716496271898E-01 
    6.7859680461102778E-01 
    6.7859517048236584E-01 
    6.6665571673349022E-01 
    6.6665356218147032E-01 
    6.7859273734694436E-01 
    6.7858952118971927E-01 
    6.6665071651241370E-01 
    6.6664719715451937E-01 
    6.7858554094607859E-01 
    6.7858081872010234E-01 
    6.6664302394270547E-01 
    6.6663821916013988E-01 
    6.7857537981417770E-01 
    6.7856925268309742E-01 
    6.6663280751786613E-01 
    6.6662681610572083E-01 
    6.7856246885496918E-01 
    6.7855506283714306E-01 
    6.6662027432956628E-01 
    6.6661321384230643E-01 
    6.7854707201590347E-01 
    6.7853853655450991E-01 
    6.6660566847263525E-01 
    6.6659767415370419E-01 
    6.7852949929221618E-01 
    6.7852000564593296E-01 
    6.6658926885298486E-01 
    6.6658049250408746E-01 
    6.7851010351575747E-01 
    6.7849984319538648E-01 
    6.6657138694102158E-01 
    6.6656199583521158E-01 
    6.7848927728838671E-01 
    6.7847846063133033E-01 
    6.6655236463547829E-01 
    6.6654254051107353E-01 
    6.7846745022489185E-01 
    6.7845630517413336E-01 
    6.6653257229774476E-01 
    6.6652251044659150E-01 
    6.7844508663934366E-01 
    6.7843385779894683E-01 
    6.6651240697514391E-01 
    6.6650231541951821E-01 
    6.7842268382610582E-01 
    6.7841163188064624E-01 
    6.6649229078549443E-01 
    6.6648238949458338E-01 
    6.7840077111766606E-01 
    6.7839017271335966E-01 
    6.6647266931796278E-01 
    6.6646318928533943E-01 
    6.7837990990652897E-01 
    6.7837005804962380E-01 
    6.6645400954497847E-01 
    6.6644519113057976E-01 
    6.7836069465312554E-01 
    6.7835189938567120E-01 
    6.6643679555089086E-01 
    6.6642888403958234E-01 
    6.7834375394684832E-01 
    6.7833634163323786E-01 
    6.6642151614669820E-01 
    6.6641474703914805E-01 
    6.7832974621510811E-01 
    6.7832404931891432E-01 
    6.6640862224412867E-01 
    6.6640316728815008E-01 
    6.7831932467356604E-01 
    6.7831562617996921E-01 
    6.6639836711859568E-01 
    6.6639412551610910E-01 
    6.7831296632356097E-01 
    6.7831130192073086E-01 
    6.6639020494673884E-01 
    6.6638698390012696E-01 
    6.7831048101314551E-01 
    6.5420827918664504E-01 
    6.4126133227989601E-01 
    6.4126068821043258E-01 
    6.5420760118891275E-01 
    6.5420625402867050E-01 
    6.4125940906514411E-01 
    6.4125750852343189E-01 
    6.5420425113290281E-01 
    6.5420160750587808E-01 
    6.4125500182663175E-01 
    6.4125190583768010E-01 
    6.5419833995931698E-01 
    6.5419446725723485E-01 
    6.4124823915039253E-01 
    6.4124402213369003E-01 
    6.5419001015844458E-01 
    6.5418499140860831E-01 
    6.4123927693698912E-01 
    6.4123402747387204E-01 
    6.5417943570658055E-01 
    6.5417336965703765E-01 
    6.4122829939333625E-01 
    6.4122212004377210E-01 
    6.5416682171557827E-01 
    6.5415982212955825E-01 
    6.4121551843252034E-01 
    6.4120852518252025E-01 
    6.5415240287635290E-01 
    6.5414459759981092E-01 
    6.4120117248670183E-01 
    6.4119349406019865E-01 
    6.5413644154507955E-01 
    6.5412797149155222E-01 
    6.4118552508998117E-01 
    6.4117730218108016E-01 
    6.5411922568332581E-01 
    6.5411024375618776E-01 
    6.4116886329808298E-01 
    6.4116024769999080E-01 
    6.5410106665969392E-01 
    6.5409173657232700E-01 
    6.4115149586572107E-01 
    6.4114264940639099E-01 
    6.5408229680689178E-01 
    6.5407279170211019E-01 
    6.4113375095885516E-01 
    6.4112484405243353E-01 
    6.5406326649456248E-01 
    6.5405376716232178E-01 
    6.4111597293685085E-01 
    6.4110718235316844E-01 
    6.5404434022715585E-01 
    6.5403503249481509E-01 
    6.4109851721923894E-01 
    6.4109002218393285E-01 
    6.5402589070049788E-01 
    6.5401696100485651E-01 
    6.4108174097429216E-01 
    6.4107371540578517E-01 
    6.5400828824680313E-01 
    6.5399991478681929E-01 
    6.4106598382610913E-01 
    6.4105857857364468E-01 
    6.5399187863625774E-01 
    6.5398421029827580E-01 
    6.4105152166245083E-01 
    6.4104481716192008E-01 
    6.5397692720579081E-01 
    6.5397002351935218E-01 
    6.4103843715540654E-01 
    6.4103229441672016E-01 
    6.5396345055286065E-01 
    6.5395707683338622E-01 
    6.4102618439459791E-01 
    6.4101964135700629E-01 
    6.5395059786712340E-01 
    6.5394331959968410E-01 
    6.4101148996413759E-01 
    6.4100352262807314E-01 
    6.5393650857419849E-01 
    6.2782840274312157E-01 
    6.1391934909279677E-01 
    6.1391874466905494E-01 
    6.2782778404846018E-01 
    6.2782655585301517E-01 
    6.1391754513860608E-01 
    6.1391576483695298E-01 
    6.2782473221770019E-01 
    6.2782232886634415E-01 
    6.1391341985817327E-01 
    6.1391052784438771E-01 
    6.2781936310094988E-01 
    6.2781585388061412E-01 
    6.1390710803403292E-01 
    6.1390318131108523E-01 
    6.2781182187017825E-01 
    6.2780728946217457E-01 
    6.1389877023875905E-01 
    6.1389389908159564E-01 
    6.2780228078231770E-01 
    6.2779682168549378E-01 
    6.1388859382063343E-01 
    6.1388288216523423E-01 
    6.2779093974661815E-01 
    6.2778466424909107E-01 
    6.1387679356410108E-01 
    6.1387035921727662E-01 
    6.2777802617252987E-01 
    6.2777105818077239E-01 
    6.1386361209037710E-01 
    6.1385658693196532E-01 
    6.2776379461066711E-01 
    6.2775627146180013E-01 
    6.1384932029468742E-01 
    6.1384185056057372E-01 
    6.2774852638696244E-01 
    6.2774059868280285E-01 
    6.1383421797066962E-01 
    6.1382646465885871E-01 
    6.2773252927964540E-01 
    6.2772436072880766E-01 
    6.1381863468931896E-01 
    6.1381077409638252E-01 
    6.2771613718481312E-01 
    6.2770790437844592E-01 
    6.1380293092450700E-01 
    6.1379515526430195E-01 
    6.2769970957433552E-01 
    6.2769160150312020E-01 
    6.1378749927760201E-01 
    6.1378001719952835E-01 
    6.2768363025226537E-01 
    6.2767584708951929E-01 
    6.1377276529666847E-01 
    6.1376580174480844E-01 
    6.2766830417554487E-01 
    6.2766105409128137E-01 
    6.1375918636115656E-01 
    6.1375298007318813E-01 
    6.2765414904916705E-01 
    6.2764763955206515E-01 
    6.1374724390677327E-01 
    6.1374203708625408E-01 
    6.2764157206298998E-01 
    6.2763598485739669E-01 
    6.1373741347113442E-01 
    6.1373341481990251E-01 
    6.2763090044207648E-01 
    6.2762631122697732E-01 
    6.1373005777853917E-01 
    6.1372730732984193E-01 
    6.2762215092969631E-01 
    6.2761823119265114E-01 
    6.1372501518682676E-01 
    6.1372273944915434E-01 
    6.2761407061452468E-01 
    6.2760819849662342E-01 
    6.1371887758086929E-01 
    6.1371425975526517E-01 
    6.2760198839733550E-01 
    5.9954314057675973E-01 
    5.8470838944962333E-01 
    5.8470777622090542E-01 
    5.9954253666421076E-01 
    5.9954133812236843E-01 
    5.8470655889209378E-01 
    5.8470475161162050E-01 
    5.9953955929800395E-01 
    5.9953721630908452E-01 
    5.8470237024201088E-01 
    5.8469943193771723E-01 
    5.9953432672255358E-01 
    5.9953090956803945E-01 
    5.8469595511988048E-01 
    5.8469195950180641E-01 
    5.9952698537954208E-01 
    5.9952257623097682E-01 
    5.8468746611551869E-01 
    5.8468249733176980E-01 
    5.9951770576359009E-01 
    5.9951239920766708E-01 
    5.8467707687350456E-01 
    5.8467122982414210E-01 
    5.9950668340117097E-01 
    5.9950058680747564E-01 
    5.8466498263203370E-01 
    5.8465836311211061E-01 
    5.9949413953385711E-01 
    5.9948737335202573E-01 
    5.8465140044537489E-01 
    5.8464412517653852E-01 
    5.9948032172169252E-01 
    5.9947301981795198E-01 
    5.8463656920977891E-01 
    5.8462876580223400E-01 
    5.9946550456308800E-01 
    5.9945781466322912E-01 
    5.8462074955442411E-01 
    5.8461255639624088E-01 
    5.9944999065004956E-01 
    5.9944207492737001E-01 
    5.8460422356635200E-01 
    5.8459578958169556E-01 
    5.9943411182195216E-01 
    5.9942614763683921E-01 
    5.8458729419192978E-01 
    5.8457877831084659E-01 
    5.9941823070399247E-01 
    5.9941041143019425E-01 
    5.8457028391210075E-01 
    5.8456185386881732E-01 
    5.9940274232529855E-01 
    5.9939527799319292E-01 
    5.8455353170326718E-01 
    5.8454536118920275E-01 
    5.9938807505000136E-01 
    5.9938119190482797E-01 
    5.8453738570660752E-01 
    5.8452964716884348E-01 
    5.9937468828349139E-01 
    5.9936862427144977E-01 
    5.8452218419007995E-01 
    5.8451502886400697E-01 
    5.9936305845191951E-01 
    5.9935804432614648E-01 
    5.8450820092897537E-01 
    5.8450169683269149E-01 
    5.9935362342085474E-01 
    5.9934981173913671E-01 
    5.8449546818677078E-01 
    5.8448937506512533E-01 
    5.9934657130075542E-01 
    5.9934373998878498E-01 
    5.8448306416001627E-01 
    5.8447555920062444E-01 
    5.9934081031168307E-01 
    5.9933644261733887E-01 
    5.8446681995054273E-01 
    5.8446125914786407E-01 
    5.9933202805300134E-01 
    5.6942316895712197E-01 
    5.5369421069569158E-01 
    5.5369358216708620E-01 
    5.6942254601277253E-01 
    5.6942130913802469E-01 
    5.5369233414296737E-01 
    5.5369048078436323E-01 
    5.6941947236189339E-01 
    5.6941705142189925E-01 
    5.5368803808029421E-01 
    5.5368502327118529E-01 
    5.6941406325645505E-01 
    5.6941052594484887E-01 
    5.5368145476604413E-01 
    5.5367735215322134E-01 
    5.6940645871890117E-01 
    5.6940188198307518E-01 
    5.5367273622975166E-01 
    5.5366762903210731E-01 
    5.6939681733024861E-01 
    5.6939128755082713E-01 
    5.5366205386434653E-01 
    5.5365603532317498E-01 
    5.6938531663532699E-01 
    5.6937892977094229E-01 
    5.5364959932034852E-01 
    5.5364277310294074E-01 
    5.6937215333242064E-01 
    5.6936501486720004E-01 
    5.5363558527182422E-01 
    5.5362806579841950E-01 
    5.6935754307432329E-01 
    5.6934976777614166E-01 
    5.5362024603939408E-01 
    5.5361215874853242E-01 
    5.6934171988122495E-01 
    5.6933343133613989E-01 
    5.5360383808436275E-01 
    5.5359531961125308E-01 
    5.6932493506273296E-01 
    5.6931626487614206E-01 
    5.5358664029040605E-01 
    5.5357783845526054E-01 
    5.6930745537669680E-01 
    5.6929854180579342E-01 
    5.5356895376283799E-01 
    5.5356002710788954E-01 
    5.6928955985113683E-01 
    5.6928054537928152E-01 
    5.5355110047908074E-01 
    5.5354221672374537E-01 
    5.6927153406130138E-01 
    5.6926256083704851E-01 
    5.5353341916593535E-01 
    5.5352475098390130E-01 
    5.6925365912811354E-01 
    5.6924485964599236E-01 
    5.5351625418226080E-01 
    5.5350796785924394E-01 
    5.6923618852354085E-01 
    5.6922766426970839E-01 
    5.5349992520310431E-01 
    5.5349214810299030E-01 
    5.6921929259195614E-01 
    5.6921105718005349E-01 
    5.5348463706694839E-01 
    5.5347735132641751E-01 
    5.6920290241693028E-01 
    5.6919469855477189E-01 
    5.5347016637515634E-01 
    5.5346277073294803E-01 