# vtk DataFile Version 2.0
Pressure Field Data 
ASCII 
DATASET UNSTRUCTURED_GRID 

POINTS 1681 double 

    0.0000000000000000E+00     0.0000000000000000E+00     0.0000000000000000E+00 
    1.0000000000000000E+00     0.0000000000000000E+00     0.0000000000000000E+00 
    1.0000000000000000E+00     1.0000000000000000E+00     0.0000000000000000E+00 
    0.0000000000000000E+00     1.0000000000000000E+00     0.0000000000000000E+00 
    5.2499999999875258E-01     0.0000000000000000E+00     0.0000000000000000E+00 
    7.4999999999856765E-02     0.0000000000000000E+00     0.0000000000000000E+00 
    1.2499999999975850E-01     0.0000000000000000E+00     0.0000000000000000E+00 
    1.7499999999962990E-01     0.0000000000000000E+00     0.0000000000000000E+00 
    2.2499999999948389E-01     0.0000000000000000E+00     0.0000000000000000E+00 
    2.7499999999933789E-01     0.0000000000000000E+00     0.0000000000000000E+00 
    3.2499999999919210E-01     0.0000000000000000E+00     0.0000000000000000E+00 
    3.7499999999904610E-01     0.0000000000000000E+00     0.0000000000000000E+00 
    4.2499999999890020E-01     0.0000000000000000E+00     0.0000000000000000E+00 
    4.7499999999875958E-01     0.0000000000000000E+00     0.0000000000000000E+00 
    2.4999999999949701E-02     0.0000000000000000E+00     0.0000000000000000E+00 
    5.7499999999887907E-01     0.0000000000000000E+00     0.0000000000000000E+00 
    6.2499999999901101E-01     0.0000000000000000E+00     0.0000000000000000E+00 
    6.7499999999914273E-01     0.0000000000000000E+00     0.0000000000000000E+00 
    7.2499999999927467E-01     0.0000000000000000E+00     0.0000000000000000E+00 
    7.7499999999940661E-01     0.0000000000000000E+00     0.0000000000000000E+00 
    8.2499999999953844E-01     0.0000000000000000E+00     0.0000000000000000E+00 
    8.7499999999967026E-01     0.0000000000000000E+00     0.0000000000000000E+00 
    9.2499999999980220E-01     0.0000000000000000E+00     0.0000000000000000E+00 
    9.7499999999993414E-01     0.0000000000000000E+00     0.0000000000000000E+00 
    5.4999999999881310E-01     0.0000000000000000E+00     0.0000000000000000E+00 
    9.9999999999814140E-02     0.0000000000000000E+00     0.0000000000000000E+00 
    1.4999999999970290E-01     0.0000000000000000E+00     0.0000000000000000E+00 
    1.9999999999955689E-01     0.0000000000000000E+00     0.0000000000000000E+00 
    2.4999999999941089E-01     0.0000000000000000E+00     0.0000000000000000E+00 
    2.9999999999926502E-01     0.0000000000000000E+00     0.0000000000000000E+00 
    3.4999999999911913E-01     0.0000000000000000E+00     0.0000000000000000E+00 
    3.9999999999897312E-01     0.0000000000000000E+00     0.0000000000000000E+00 
    4.4999999999882723E-01     0.0000000000000000E+00     0.0000000000000000E+00 
    4.9999999999869210E-01     0.0000000000000000E+00     0.0000000000000000E+00 
    4.9999999999899403E-02     0.0000000000000000E+00     0.0000000000000000E+00 
    5.9999999999894504E-01     0.0000000000000000E+00     0.0000000000000000E+00 
    6.4999999999907687E-01     0.0000000000000000E+00     0.0000000000000000E+00 
    6.9999999999920870E-01     0.0000000000000000E+00     0.0000000000000000E+00 
    7.4999999999934064E-01     0.0000000000000000E+00     0.0000000000000000E+00 
    7.9999999999947247E-01     0.0000000000000000E+00     0.0000000000000000E+00 
    8.4999999999960441E-01     0.0000000000000000E+00     0.0000000000000000E+00 
    8.9999999999973623E-01     0.0000000000000000E+00     0.0000000000000000E+00 
    9.4999999999986817E-01     0.0000000000000000E+00     0.0000000000000000E+00 
    1.0000000000000000E+00     5.2499999999875258E-01     0.0000000000000000E+00 
    1.0000000000000000E+00     7.4999999999856765E-02     0.0000000000000000E+00 
    1.0000000000000000E+00     1.2499999999975850E-01     0.0000000000000000E+00 
    1.0000000000000000E+00     1.7499999999962990E-01     0.0000000000000000E+00 
    1.0000000000000000E+00     2.2499999999948389E-01     0.0000000000000000E+00 
    1.0000000000000000E+00     2.7499999999933789E-01     0.0000000000000000E+00 
    1.0000000000000000E+00     3.2499999999919210E-01     0.0000000000000000E+00 
    1.0000000000000000E+00     3.7499999999904610E-01     0.0000000000000000E+00 
    1.0000000000000000E+00     4.2499999999890020E-01     0.0000000000000000E+00 
    1.0000000000000000E+00     4.7499999999875958E-01     0.0000000000000000E+00 
    1.0000000000000000E+00     2.4999999999949701E-02     0.0000000000000000E+00 
    1.0000000000000000E+00     5.7499999999887907E-01     0.0000000000000000E+00 
    1.0000000000000000E+00     6.2499999999901101E-01     0.0000000000000000E+00 
    1.0000000000000000E+00     6.7499999999914273E-01     0.0000000000000000E+00 
    1.0000000000000000E+00     7.2499999999927467E-01     0.0000000000000000E+00 
    1.0000000000000000E+00     7.7499999999940661E-01     0.0000000000000000E+00 
    1.0000000000000000E+00     8.2499999999953844E-01     0.0000000000000000E+00 
    1.0000000000000000E+00     8.7499999999967026E-01     0.0000000000000000E+00 
    1.0000000000000000E+00     9.2499999999980220E-01     0.0000000000000000E+00 
    1.0000000000000000E+00     9.7499999999993414E-01     0.0000000000000000E+00 
    1.0000000000000000E+00     5.4999999999881310E-01     0.0000000000000000E+00 
    1.0000000000000000E+00     9.9999999999814140E-02     0.0000000000000000E+00 
    1.0000000000000000E+00     1.4999999999970290E-01     0.0000000000000000E+00 
    1.0000000000000000E+00     1.9999999999955689E-01     0.0000000000000000E+00 
    1.0000000000000000E+00     2.4999999999941089E-01     0.0000000000000000E+00 
    1.0000000000000000E+00     2.9999999999926502E-01     0.0000000000000000E+00 
    1.0000000000000000E+00     3.4999999999911913E-01     0.0000000000000000E+00 
    1.0000000000000000E+00     3.9999999999897312E-01     0.0000000000000000E+00 
    1.0000000000000000E+00     4.4999999999882723E-01     0.0000000000000000E+00 
    1.0000000000000000E+00     4.9999999999869210E-01     0.0000000000000000E+00 
    1.0000000000000000E+00     4.9999999999899403E-02     0.0000000000000000E+00 
    1.0000000000000000E+00     5.9999999999894504E-01     0.0000000000000000E+00 
    1.0000000000000000E+00     6.4999999999907687E-01     0.0000000000000000E+00 
    1.0000000000000000E+00     6.9999999999920870E-01     0.0000000000000000E+00 
    1.0000000000000000E+00     7.4999999999934064E-01     0.0000000000000000E+00 
    1.0000000000000000E+00     7.9999999999947247E-01     0.0000000000000000E+00 
    1.0000000000000000E+00     8.4999999999960441E-01     0.0000000000000000E+00 
    1.0000000000000000E+00     8.9999999999973623E-01     0.0000000000000000E+00 
    1.0000000000000000E+00     9.4999999999986817E-01     0.0000000000000000E+00 
    4.7500000000196618E-01     1.0000000000000000E+00     0.0000000000000000E+00 
    9.2499999999968763E-01     1.0000000000000000E+00     0.0000000000000000E+00 
    8.7499999999961831E-01     1.0000000000000000E+00     0.0000000000000000E+00 
    8.2499999999982654E-01     1.0000000000000000E+00     0.0000000000000000E+00 
    7.7500000000017355E-01     1.0000000000000000E+00     0.0000000000000000E+00 
    7.2500000000052045E-01     1.0000000000000000E+00     0.0000000000000000E+00 
    6.7500000000086724E-01     1.0000000000000000E+00     0.0000000000000000E+00 
    6.2500000000121403E-01     1.0000000000000000E+00     0.0000000000000000E+00 
    5.7500000000156093E-01     1.0000000000000000E+00     0.0000000000000000E+00 
    5.2500000000189684E-01     1.0000000000000000E+00     0.0000000000000000E+00 
    9.7499999999989595E-01     1.0000000000000000E+00     0.0000000000000000E+00 
    4.2500000000176902E-01     1.0000000000000000E+00     0.0000000000000000E+00 
    3.7500000000156092E-01     1.0000000000000000E+00     0.0000000000000000E+00 
    3.2500000000135282E-01     1.0000000000000000E+00     0.0000000000000000E+00 
    2.7500000000114472E-01     1.0000000000000000E+00     0.0000000000000000E+00 
    2.2500000000093659E-01     1.0000000000000000E+00     0.0000000000000000E+00 
    1.7500000000072849E-01     1.0000000000000000E+00     0.0000000000000000E+00 
    1.2500000000052039E-01     1.0000000000000000E+00     0.0000000000000000E+00 
    7.5000000000312261E-02     1.0000000000000000E+00     0.0000000000000000E+00 
    2.5000000000104109E-02     1.0000000000000000E+00     0.0000000000000000E+00 
    4.5000000000187301E-01     1.0000000000000000E+00     0.0000000000000000E+00 
    8.9999999999958358E-01     1.0000000000000000E+00     0.0000000000000000E+00 
    8.4999999999965303E-01     1.0000000000000000E+00     0.0000000000000000E+00 
    8.0000000000000004E-01     1.0000000000000000E+00     0.0000000000000000E+00 
    7.5000000000034706E-01     1.0000000000000000E+00     0.0000000000000000E+00 
    7.0000000000069384E-01     1.0000000000000000E+00     0.0000000000000000E+00 
    6.5000000000104063E-01     1.0000000000000000E+00     0.0000000000000000E+00 
    6.0000000000138742E-01     1.0000000000000000E+00     0.0000000000000000E+00 
    5.5000000000173432E-01     1.0000000000000000E+00     0.0000000000000000E+00 
    5.0000000000205946E-01     1.0000000000000000E+00     0.0000000000000000E+00 
    9.4999999999979179E-01     1.0000000000000000E+00     0.0000000000000000E+00 
    4.0000000000166491E-01     1.0000000000000000E+00     0.0000000000000000E+00 
    3.5000000000145681E-01     1.0000000000000000E+00     0.0000000000000000E+00 
    3.0000000000124871E-01     1.0000000000000000E+00     0.0000000000000000E+00 
    2.5000000000104061E-01     1.0000000000000000E+00     0.0000000000000000E+00 
    2.0000000000083251E-01     1.0000000000000000E+00     0.0000000000000000E+00 
    1.5000000000062441E-01     1.0000000000000000E+00     0.0000000000000000E+00 
    1.0000000000041630E-01     1.0000000000000000E+00     0.0000000000000000E+00 
[...]
CELL_DATA 1600 
SCALARS Pressure double 1 
LOOKUP_TABLE default 

    9.4664567410768308E-01 
    9.2668474481757734E-01 
    9.2658209543926018E-01 
    9.4470144364304620E-01 
    9.4289024523930520E-01 
    9.2639550223110634E-01 
    9.2614135998539526E-01 
    9.4120667668629121E-01 
    9.3963902892895568E-01 
    9.2583305247224623E-01 
    9.2548179639048456E-01 
    9.3817650782660544E-01 
    9.3680947441396578E-01 
    9.2509702112548720E-01 
    9.2468666816851386E-01 
    9.3552939816414249E-01 
    9.3432875466068344E-01 
    9.2425743588170117E-01 
    9.2381498190411759E-01 
    9.3320091569312125E-01 
    9.3214004524990246E-01 
    9.2336409145556331E-01 
    9.2290881775220046E-01 
    9.3114100530543720E-01 
    9.3019927209290343E-01 
    9.2245259943086810E-01 
    9.2199835892673621E-01 
    9.2931086239371363E-01 
    9.2847226896855062E-01 
    9.2154858502067116E-01 
    9.2110540219843962E-01 
    9.2768040415159070E-01 
    9.2693255065170277E-01 
    9.2067062900293362E-01 
    9.2024582718637482E-01 
    9.2622631867702532E-01 
    9.2555960858892905E-01 
    9.1983234316332652E-01 
    9.1943134301355611E-01 
    9.2493057838283221E-01 
    9.2433761537982984E-01 
    9.1904384207576695E-01 
    9.1867073000071875E-01 
    9.2377931159185611E-01 
    9.2325444229315123E-01 
    9.1831279198849436E-01 
    9.1797072681393699E-01 
    9.2276194739195572E-01 
    9.2230091524859614E-01 
    9.1764516214148240E-01 
    9.1733666754043508E-01 
    9.2187056862899641E-01 
    9.2147025251441839E-01 
    9.1704576552782679E-01 
    9.1677294087851469E-01 
    9.2109942350438934E-01 
    9.2075764053939224E-01 
    9.1651864833323959E-01 
    9.1628331866749779E-01 
    9.2044455660681856E-01 
    9.2015991091395677E-01 
    9.1606736277242873E-01 
    9.1587117273928942E-01 
    9.1990352055338509E-01 
    9.1967526952284306E-01 
    9.1569511741838694E-01 
    9.1553952621501222E-01 
    9.1947508993611138E-01 
    9.1930292219232268E-01 
    9.1540464556882073E-01 
    9.1529052948921841E-01 
    9.1915861953052058E-01 
    9.1904171157702741E-01 
    9.1519677343637518E-01 
    9.1512192280722926E-01 
    9.1895086076705945E-01 
    9.1888334508197400E-01 
    9.1506333985581878E-01 
    9.1502948179939936E-01 
    9.1884534732885070E-01 
    9.1398915585922580E-01 
    9.0193868480544015E-01 
    9.0192736516517946E-01 
    9.1396331933103847E-01 
    9.1391223866551885E-01 
    9.0190482209170730E-01 
    9.0187128866590571E-01 
    9.1383707672508674E-01 
    9.1373931904170624E-01 
    9.0182709426261776E-01 
    9.0177265717812094E-01 
    9.1362066868690950E-01 
    9.1348296397880357E-01 
    9.0170847428641698E-01 
    9.0163510973335614E-01 
    9.1332811458717356E-01 
    9.1315805300544417E-01 
    9.0155318368728421E-01 
    9.0146336164291219E-01 
    9.1297469839231249E-01 
    9.1277993022112947E-01 
    9.0136634452988496E-01 
    9.0126285974616671E-01 
    9.1257556963505648E-01 
    9.1236336681025176E-01 
    9.0115365315825291E-01 
    9.0103948206133644E-01 
    9.1214499296651774E-01 
    9.1192203594051646E-01 
    9.0092110906153566E-01 
    9.0079929682311954E-01 
    9.1169599845997973E-01 
    9.1146829843728705E-01 
    9.0067480361245600E-01 
    9.0054837956468770E-01 
    9.1124027074521696E-01 
    9.1101317005325977E-01 
    9.0042076359701462E-01 
    9.0029268089257286E-01 
    9.1078817439497495E-01 
    9.1056638920985700E-01 
    9.0016484088002635E-01 
    9.0003793563506995E-01 
    9.1034885166041246E-01 
    9.1013653506920211E-01 
    8.9991263862980464E-01 
    8.9978960375267869E-01 
    9.0993035335297023E-01 
    9.0973116535214116E-01 
    8.9966946451272567E-01 
    8.9955283332243285E-01 
    9.0953977896258542E-01 
    9.0935695496832181E-01 
    8.9944030071498737E-01 
    8.9933243427672438E-01 
    9.0918341043849349E-01 
    9.0901982146694693E-01 
    8.9922977692958961E-01 
    8.9913284390824488E-01 
    9.0886682484804993E-01 
    9.0872501788478355E-01 
    8.9904211718330007E-01 
    8.9895803483139625E-01 
    9.0859495465088713E-01 
    9.0847713504777228E-01 
    8.9888097013770785E-01 
    8.9881118916827296E-01 
    9.0837197838599171E-01 
    9.0827976235439500E-01 
    8.9874876169804696E-01 
    8.9869336717111337E-01 
    9.0820048287056010E-01 
    9.0813353328875079E-01 
    8.9864385616886433E-01 
    8.9859748508889359E-01 
    9.0807702988786165E-01 
    9.0802959200375821E-01 
    8.9855680142945760E-01 
    8.9853507354689366E-01 
    9.0800216136950052E-01 
    8.8940152697349295E-01 
    8.7604815253737245E-01 
    8.7604391240876556E-01 
    8.8939518430948028E-01 
    8.8938254643451298E-01 
    8.7603546983931857E-01 
    8.7602289698671110E-01 
    8.8936371784793056E-01 
    8.8933883966575322E-01 
    8.7600628447332796E-01 
    8.7598574180107058E-01 
    8.8930808988616228E-01 
    8.8927168193776407E-01 
    8.7596139715500065E-01 
    8.7593339676963633E-01 
    8.8922986239304569E-01 
    8.8918290828129576E-01 
    8.7590190405410917E-01 
    8.7586709858015144E-01 
    8.8913112421418661E-01 
    8.8907483944470145E-01 
    8.7582917499055335E-01 
    8.7578834186277077E-01 
    8.8901440493630701E-01 
    8.8895019049509716E-01 
    8.7574482055027081E-01 
    8.7569884401720743E-01 
    8.8888258200216819E-01 
    8.8881197877237994E-01 
    8.7565065567746636E-01 
    8.7560050824568125E-01 
    8.8873879105699238E-01 
    8.8866343770051914E-01 
    8.7554866260479325E-01 
    8.7549538669163474E-01 
    8.8858634395595182E-01 
    8.8850793945686946E-01 
    8.7544095439846248E-01 
    8.7538564448386569E-01 
    8.8842865633940959E-01 
    8.8834892750109362E-01 
    8.7532973948033421E-01 
    8.7527352457694552E-01 
    8.8826918497624796E-01 
    8.8818985839796882E-01 
    8.7521728644226038E-01 
    8.7516131193152902E-01 
    8.8811137350204239E-01 
    8.8803415060518431E-01 
    8.7510588658810495E-01 
    8.7505129279136640E-01 
    8.8795860295145257E-01 
    8.8788513475372144E-01 
    8.7499780730319776E-01 
    8.7494569778474629E-01 
    8.8781413863634984E-01 
    8.8774599195977377E-01 
    8.7489521751954080E-01 
    8.7484659693186817E-01 
    8.8768105107232886E-01 
    8.8761964166505025E-01 
    8.7480002919635191E-01 
    8.7475564454699095E-01 
    8.8756204161040220E-01 
    8.8750844883654445E-01 
    8.7471346202364009E-01 
    8.7467329361442481E-01 
    8.8745891826402035E-01 
    8.8741323148779216E-01 
    8.7463454001423879E-01 
    8.7459572066444402E-01 
    8.8737060960409087E-01 
    8.8732905966005959E-01 
    8.7455363439273903E-01 
    8.7450982835469371E-01 
    8.8728583009239270E-01 
    8.8724927647663310E-01 
    8.7447849302795988E-01 
    8.7446463432139465E-01 
    8.8723166930686881E-01 
    8.6177137214873412E-01 
    8.4654150963900376E-01 
    8.4653868603753335E-01 
    8.6176809848543068E-01 
    8.6176158536189151E-01 
    8.4653307081931550E-01 
    8.4652471827396214E-01 
    8.6175189304177346E-01 
    8.6173909339949994E-01 
    8.4651369138583243E-01 
    8.4650006097660413E-01 
    8.6172326970933755E-01 
    8.6170451661558722E-01 
    8.4648390561343334E-01 
    8.4646531152319970E-01 
    8.6168293992069345E-01 
    8.6165865623409177E-01 
    8.4644437243788417E-01 
    8.4642118937709065E-01 
    8.6163179252954203E-01 
    8.6160248564313047E-01 
    8.4639587038271946E-01 
    8.4636853021784764E-01 
    8.6157088173222385E-01 
    8.6153713570796031E-01 
    8.4633929003757857E-01 
    8.4630827703586731E-01 
    8.6150141064886065E-01 
    8.6146387719963036E-01 
    8.4627562406909529E-01 
    8.4624146925415966E-01 
    8.6142471295638479E-01 
    8.6138410183680891E-01 
    8.4620595553556666E-01 
    8.4616923021204349E-01 
    8.6134223343066219E-01 
    8.6129930232208662E-01 
    8.4613144440783250E-01 
    8.4609275246620996E-01 
    8.6125550736966316E-01 
    8.6121105092213412E-01 
    8.4605331123146554E-01 
    8.4601327916827973E-01 
    8.6116613793557706E-01 
    8.6112097493892059E-01 
    8.4597281524023704E-01 
    8.4593207742530607E-01 
    8.6107576876444869E-01 
    8.6103072491013111E-01 
    8.4589122067313871E-01 
    8.4585039398368789E-01 
    8.6098604531602063E-01 
    8.6094192518861445E-01 
    8.4580973606369159E-01 
    8.4576936860598861E-01 
    8.6089854823815071E-01 
    8.6085607918806539E-01 
    8.4572938544278808E-01 
    8.4568983421644006E-01 
    8.6081465142572466E-01 
    8.6077434563721400E-01 
    8.4565068376953334E-01 
    8.4561176256140791E-01 
    8.6073515088897945E-01 
    8.6069688947292067E-01 
    8.4557263376591918E-01 
    8.4553231975439391E-01 
    8.6065906109791035E-01 
    8.6062049147768593E-01 
    8.4548865955310859E-01 
    8.4543772111244420E-01 
    8.6057853853087607E-01 
    8.6053037280867561E-01 
    8.4538351209464424E-01 
    8.4534310273410362E-01 
    8.6048590665326330E-01 
    8.6045902654642148E-01 
    8.4532019501763389E-01 
    8.4530952515249014E-01 
    8.6044753236394866E-01 
    8.3035671846772496E-01 
    8.1322298382936076E-01 
    8.1322038137086539E-01 
    8.3035408271438282E-01 
    8.3034884115454122E-01 
    8.1321520416860427E-01 
    8.1320749894173794E-01 
    8.3034104404569253E-01 
    8.3033074901217296E-01 
    8.1319731914554683E-01 
    8.1318472311915890E-01 
    8.3031801963634821E-01 
    8.3030292524259353E-01 
    8.1316977373218546E-01 
    8.1315253830133183E-01 
    8.3028554083445893E-01 
    8.3026594701762080E-01 
    8.1313308853770316E-01 
    8.1311150046831893E-01 
    8.3024422988044622E-01 
    8.3022048083253008E-01 
    8.1308785431922470E-01 
    8.1306223435815328E-01 
    8.3019479640605909E-01 
    8.3016727802348178E-01 
    8.1303472869572679E-01 
    8.1300542904217021E-01 
    8.3013803173217715E-01 
    8.3010716790365668E-01 
    8.1297443041313799E-01 
    8.1294183077384030E-01 
    8.3007480089125452E-01 
    8.3004104863600792E-01 
    8.1290773060483101E-01 
    8.1287223236484096E-01 
    8.3000603220483826E-01 
    8.2996987523743726E-01 
    8.1283543981465467E-01 
    8.1279745714921159E-01 
    8.2993270326710189E-01 
    8.2989464286401982E-01 
    8.1275838785948318E-01 
    8.1271833320561748E-01 
    8.2985582052370876E-01 
    8.2981636118244562E-01 
    8.1267739011842899E-01 
    8.1263564823960077E-01 
    8.2977638617490890E-01 
    8.2973601033710109E-01 
    8.1259318562743033E-01 
    8.1255006232592975E-01 
    8.2969533776159832E-01 
    8.2965445535593096E-01 
    8.1250631037889876E-01 
    8.1246191765732123E-01 
    8.2961342267902871E-01 
    8.2957225517908317E-01 
    8.1241680033232755E-01 
    8.1237075316849361E-01 
    8.2953089509047273E-01 
    8.2948915774936893E-01 
    8.1232335318052729E-01 
    8.1227375700029136E-01 
    8.2944662518552337E-01 
    8.2940241679990201E-01 
    8.1222024218629219E-01 
    8.1215930213772547E-01 
    8.2935465871204461E-01 
    8.2929955175298109E-01 
    8.1208820900981460E-01 
    8.1201910234572094E-01 
    8.2923667498226294E-01 
    8.2918174220955088E-01 
    8.1196963104202657E-01 
    8.1193772755384341E-01 
    8.2914653659558801E-01 
    8.2912590522512997E-01 
    8.1191712328326016E-01 
    8.1190682102300427E-01 
    8.2911565309462942E-01 
    7.9514503554746363E-01 
    7.7612143398153766E-01 
    7.7611854161949956E-01 
    7.9514234845319831E-01 
    7.9513699912796243E-01 
    7.7611277761497910E-01 
    7.7610417893394812E-01 
    7.9512903023960890E-01 
    7.9511849078906216E-01 
    7.7609278839698503E-01 
    7.7607865222697237E-01 
    7.9510543391102895E-01 
    7.9508991638029169E-01 
    7.7606181941629793E-01 
    7.7604234150987084E-01 
    7.9507199847632337E-01 
    7.9505174391209044E-01 
    7.7602027247038008E-01 
    7.7599566852611668E-01 
    7.9502921974690710E-01 
    7.9500449625858105E-01 
    7.7596858796469315E-01 
    7.7593909085359281E-01 
    7.9497764676515914E-01 
    7.9494874738922505E-01 
    7.7590723867127176E-01 
    7.7587309382915814E-01 
    7.9491787675570269E-01 
    7.9488511560976660E-01 
    7.7583671905768448E-01 
    7.7579817661853978E-01 
    7.9485054633505903E-01 
    7.9481425234345593E-01 
    7.7575752728944447E-01 
    7.7571482904451605E-01 
    7.9477631729486686E-01 
    7.9473682408689283E-01 
    7.7567013531853080E-01 
    7.7562349269000419E-01 
    7.9469585352605021E-01 
    7.9465348254872969E-01 
    7.7557493773384989E-01 
    7.7552449265788070E-01 
    7.9460978179083352E-01 
    7.9456481219174091E-01 
    7.7547215910852818E-01 
    7.7541790913158248E-01 
    7.9451862012641294E-01 
    7.9447123022112132E-01 
    7.7536167154490987E-01 
    7.7530331058932356E-01 
    7.9442263438455030E-01 
    7.9437277437851517E-01 
    7.7524259093011549E-01 
    7.7517911708472109E-01 
    7.9432151276987351E-01 
    7.9426858164535730E-01 
    7.7511222160987625E-01 
    7.7504074423172253E-01 
    7.9421348566417371E-01 
    7.9415530394251654E-01 
    7.7496258125821893E-01 
    7.7487401467396355E-01 
    7.9409225764097191E-01 
    7.9402088534793280E-01 
    7.7477216701509055E-01 
    7.7466695818446363E-01 
    7.9393772303314758E-01 
    7.9385234411397432E-01 
    7.7458131694098031E-01 
    7.7452110255850737E-01 
    7.9378590685681971E-01 
    7.9374100909769063E-01 
    7.7447691144179565E-01 
    7.7444389592157470E-01 
    7.9370952957264918E-01 
    7.9368855443362363E-01 
    7.7442188208056784E-01 
    7.7441087411609455E-01 
    7.9367806518875894E-01 
    7.5614010084770866E-01 
    7.3517133346639063E-01 
    7.3516748518186514E-01 
    7.5613684739361331E-01 
    7.5613035441814203E-01 
    7.3515979020619848E-01 
    7.3514825873618928E-01 
    7.5612064949197799E-01 
    7.5610776510902522E-01 
    7.3513290380059571E-01 
    7.3511373863977192E-01 
    7.5609173608615432E-01 
    7.5607259878459121E-01 
    7.3509077572948678E-01 
    7.3506402616011679E-01 
    7.5605039075997849E-01 
    7.5602515048406715E-01 
    7.3503349900970671E-01 
    7.3499920057880741E-01 
    7.5599691702208816E-01 
    7.5596572961570407E-01 
    7.3496113341564762E-01 
    7.3491929506719655E-01 
    7.5593162713803297E-01 
    7.5589464738696133E-01 
    7.3487367647914992E-01 
    7.3482425994360123E-01 
    7.5585482617460009E-01 
    7.5581219615575079E-01 
    7.3477101645442811E-01 
    7.3471390227210776E-01 
    7.5576678531556163E-01 
    7.5571861500299076E-01 
    7.3465285441154882E-01 
    7.3458778463081087E-01 
    7.5566769734633732E-01 
    7.5561403180997300E-01 
    7.3451857128486475E-01 
    7.3444504806420707E-01 
    7.5555760053027587E-01 
    7.5549836187356290E-01 
    7.3436698806945455E-01 
    7.3428408070483775E-01 
    7.5543624133425125E-01 
    7.5537111833036497E-01 
    7.3419589716456513E-01 
    7.3410183717735145E-01 
    7.5530280643754988E-01 
    7.5523102267587783E-01 
    7.3400104411192357E-01 
    7.3389226743420166E-01 
    7.5515533765726994E-01 
    7.5507509061279443E-01 
    7.3377365310884513E-01 
    7.3364254562408038E-01 
    7.5498923715372424E-01 
    7.5489606907154971E-01 
    7.3349601851919699E-01 
    7.3333430401845356E-01 
    7.5479276538438467E-01 
    7.5467553504937701E-01 
    7.3316638177207782E-01 
    7.3301125232176734E-01 
    7.5454487422579553E-01 
    7.5441489834500763E-01 
    7.3288651229205737E-01 
    7.3279255453202430E-01 
    7.5430830335352494E-01 
    7.5423053179550459E-01 
    7.3271833874644576E-01 
    7.3265723638040703E-01 
    7.5417127127504535E-01 
    7.5412430912722073E-01 
    7.3260842160663964E-01 
    7.3257184914616735E-01 
    7.5408909757890086E-01 
    7.5406562795068266E-01 
    7.3254748588268015E-01 
    7.3253530976121906E-01 
    7.5405389456426342E-01 
    7.1315352804408350E-01 
    6.8996110026664403E-01 
    6.8995447757426942E-01 
    7.1314868965592004E-01 
    7.1313899007064907E-01 
    6.8994115817886170E-01 
    6.8992104469705418E-01 
    7.1312440474257488E-01 
    7.1310490732259302E-01 
    6.8989402783808906E-01 
    6.8985998366535062E-01 
    7.1308046713797602E-01 
    7.1305104778063866E-01 
    6.8981877065671526E-01 
    6.8977022607672056E-01 
    7.1301660577394710E-01 
    7.1297708897623058E-01 
    6.8971416136776809E-01 
    6.8965035626863980E-01 
    7.1293243455703836E-01 
    7.1288256641820524E-01 
    6.8957855130638701E-01 
    6.8949843814266887E-01 
    7.1282739190419186E-01 
    7.1276679759065231E-01 
    6.8940964704431384E-01 
    6.8931173060255801E-01 
    7.1270064386251653E-01 
    7.1262875787439472E-01 
    6.8920414288217990E-01 
    6.8908621389166214E-01 
    7.1255092430552802E-01 
    7.1246687303851830E-01 
    6.8895712161968481E-01 
    6.8881586984838539E-01 
    7.1237626243729935E-01 
    7.1227865617153285E-01 
    6.8866129295513856E-01 
    6.8849213315165869E-01 
    7.1217349042453282E-01 
    7.1206002691389303E-01 
    6.8830726989573210E-01 
    6.8810619899228997E-01 
    7.1193728653946242E-01 
    7.1180396358862785E-01 
    6.8788978459993644E-01 
    6.8766107940571397E-01 
    7.1165834851841459E-01 
    7.1149838656996467E-01 
    6.8742579525265535E-01 
    6.8719218810250438E-01 
    7.1132224564685764E-01 
    7.1112998344359468E-01 
    6.8697050509797553E-01 
    6.8677156036133258E-01 
    7.1092603726335402E-01 
    7.1072050676448328E-01 
    6.8660364012688790E-01 
    6.8646926013306298E-01 
    7.1052844351237576E-01 
    7.1036525103881920E-01 
    6.8636366555635542E-01 
    6.8627735252187305E-01 
    7.1023688567753807E-01 
    7.1013688176575107E-01 
    6.8620305029805895E-01 
    6.8613843234399652E-01 
    7.1005463115033263E-01 
    7.0998483303893811E-01 
    6.8608323773727986E-01 
    6.8603737619367755E-01 
    7.0992683522673017E-01 
    7.0988054506986975E-01 
    6.8600077394160996E-01 
    6.8597337266758951E-01 
    7.0984589021191302E-01 
    7.0982281675405812E-01 
    6.8595512904332800E-01 
    6.8594601437571268E-01 
    7.0981128893844658E-01 
    6.6533297067225627E-01 
    6.3877600980487514E-01 
    6.3875714183592880E-01 
    6.6532255758428394E-01 
    6.6530156829904141E-01 
    6.3871964580436591E-01 
    6.3866392643774461E-01 
    6.6526977927990028E-01 
    6.6522693253389242E-01 
    6.3859048552602338E-01 
    6.3849994979991276E-01 
    6.6517272914429215E-01 
    6.6510682139791755E-01 
    6.3839311574484370E-01 
    6.3827099998163617E-01 
    6.6502880503992579E-01 
    6.6493821358813299E-01 
    6.3813488843500377E-01 
    6.3798637829352134E-01 
    6.6483451775473756E-01 
    6.6471713507023367E-01 
    6.3782740639092805E-01 
    6.3766025767609591E-01 
    6.6458545721885753E-01 
    6.6443890513712478E-01 
    6.3748755046693206E-01 
    6.3731219656264337E-01 
    6.6427702370990804E-01 
    6.6409962598330496E-01 
    6.3713733783734450E-01 
    6.3696626226653252E-01 
    6.6390698802554826E-01 
    6.6370007768177097E-01 
    6.3680230215285594E-01 
    6.3664871740866280E-01 
    6.6348077673714034E-01 
    6.6325203857528336E-01 
    6.3650856413752877E-01 
    6.3638454400996336E-01 
    6.6301792866461673E-01 
    6.6278352757433256E-01 
    6.3627881299761313E-01 
    6.3619270559892160E-01 
    6.6255470987531773E-01 
    6.6233779589783248E-01 
    6.3612634219940190E-01 
    6.3607820414580374E-01 
    6.6213901699162414E-01 
    6.6196377826241215E-01 
    6.3604498270883192E-01 
    6.3602210535147441E-01 
    6.6181583243455389E-01 
    6.6169638069279502E-01 
    6.3600498515344395E-01 
    6.3599032230879804E-01 
    6.6160305990289181E-01 
    6.6152979475149287E-01 
    6.3597654998473130E-01 
    6.3596330871290341E-01 
    6.6146919298021312E-01 
    6.6141609912017885E-01 
    6.3595069678627947E-01 
    6.3593888190895609E-01 
    6.6136858274165344E-01 
    6.6132634115513345E-01 
    6.3592801618218775E-01 
    6.3591823169121697E-01 
    6.6128936843971942E-01 
    6.6125766918737816E-01 
    6.3590964163592145E-01 
    6.3590234130919154E-01 