# vtk DataFile Version 2.0
Pressure Field Data 
ASCII 
DATASET UNSTRUCTURED_GRID 

POINTS 1681 double 

    0.0000000000000000E+00     0.0000000000000000E+00     0.0000000000000000E+00 
    1.0000000000000000E+00     0.0000000000000000E+00     0.0000000000000000E+00 
    1.0000000000000000E+00     1.0000000000000000E+00     0.0000000000000000E+00 
    0.0000000000000000E+00     1.0000000000000000E+00     0.0000000000000000E+00 
    5.2499999999875258E-01     0.0000000000000000E+00     0.0000000000000000E+00 
    7.4999999999856765E-02     0.0000000000000000E+00     0.0000000000000000E+00 
    1.2499999999975850E-01     0.0000000000000000E+00     0.0000000000000000E+00 
    1.7499999999962990E-01     0.0000000000000000E+00     0.0000000000000000E+00 
    2.2499999999948389E-01     0.0000000000000000E+00     0.0000000000000000E+00 
    2.7499999999933789E-01     0.0000000000000000E+00     0.0000000000000000E+00 
    3.2499999999919210E-01     0.0000000000000000E+00     0.0000000000000000E+00 
    3.7499999999904610E-01     0.0000000000000000E+00     0.0000000000000000E+00 
    4.2499999999890020E-01     0.0000000000000000E+00     0.0000000000000000E+00 
    4.7499999999875958E-01     0.0000000000000000E+00     0.0000000000000000E+00 
    2.4999999999949701E-02     0.0000000000000000E+00     0.0000000000000000E+00 
    5.7499999999887907E-01     0.0000000000000000E+00     0.0000000000000000E+00 
    6.2499999999901101E-01     0.0000000000000000E+00     0.0000000000000000E+00 
    6.7499999999914273E-01     0.0000000000000000E+00     0.0000000000000000E+00 
    7.2499999999927467E-01     0.0000000000000000E+00     0.0000000000000000E+00 
    7.7499999999940661E-01     0.0000000000000000E+00     0.0000000000000000E+00 
    8.2499999999953844E-01     0.0000000000000000E+00     0.0000000000000000E+00 
    8.7499999999967026E-01     0.0000000000000000E+00     0.0000000000000000E+00 
    9.2499999999980220E-01     0.0000000000000000E+00     0.0000000000000000E+00 
    9.7499999999993414E-01     0.0000000000000000E+00     0.0000000000000000E+00 
    5.4999999999881310E-01     0.0000000000000000E+00     0.0000000000000000E+00 
    9.9999999999814140E-02     0.0000000000000000E+00     0.0000000000000000E+00 
    1.4999999999970290E-01     0.0000000000000000E+00     0.0000000000000000E+00 
    1.9999999999955689E-01     0.0000000000000000E+00     0.0000000000000000E+00 
    2.4999999999941089E-01     0.0000000000000000E+00     0.0000000000000000E+00 
    2.9999999999926502E-01     0.0000000000000000E+00     0.0000000000000000E+00 
    3.4999999999911913E-01     0.0000000000000000E+00     0.0000000000000000E+00 
    3.9999999999897312E-01     0.0000000000000000E+00     0.0000000000000000E+00 
    4.4999999999882723E-01     0.0000000000000000E+00     0.0000000000000000E+00 
    4.9999999999869210E-01     0.0000000000000000E+00     0.0000000000000000E+00 
    4.9999999999899403E-02     0.0000000000000000E+00     0.0000000000000000E+00 
    5.9999999999894504E-01     0.0000000000000000E+00     0.0000000000000000E+00 
    6.4999999999907687E-01     0.0000000000000000E+00     0.0000000000000000E+00 
    6.9999999999920870E-01     0.0000000000000000E+00     0.0000000000000000E+00 
    7.4999999999934064E-01     0.0000000000000000E+00     0.0000000000000000E+00 
    7.9999999999947247E-01     0.0000000000000000E+00     0.0000000000000000E+00 
    8.4999999999960441E-01     0.0000000000000000E+00     0.0000000000000000E+00 
    8.9999999999973623E-01     0.0000000000000000E+00     0.0000000000000000E+00 
    9.4999999999986817E-01     0.0000000000000000E+00     0.0000000000000000E+00 
    1.0000000000000000E+00     5.2499999999875258E-01     0.0000000000000000E+00 
    1.0000000000000000E+00     7.4999999999856765E-02     0.0000000000000000E+00 
    1.0000000000000000E+00     1.2499999999975850E-01     0.0000000000000000E+00 
    1.0000000000000000E+00     1.7499999999962990E-01     0.0000000000000000E+00 
    1.0000000000000000E+00     2.2499999999948389E-01     0.0000000000000000E+00 
    1.0000000000000000E+00     2.7499999999933789E-01     0.0000000000000000E+00 
    1.0000000000000000E+00     3.2499999999919210E-01     0.0000000000000000E+00 
    1.0000000000000000E+00     3.7499999999904610E-01     0.0000000000000000E+00 
    1.0000000000000000E+00     4.2499999999890020E-01     0.0000000000000000E+00 
    1.0000000000000000E+00     4.7499999999875958E-01     0.0000000000000000E+00 
    1.0000000000000000E+00     2.4999999999949701E-02     0.0000000000000000E+00 
    1.0000000000000000E+00     5.7499999999887907E-01     0.0000000000000000E+00 
    1.0000000000000000E+00     6.2499999999901101E-01     0.0000000000000000E+00 
    1.0000000000000000E+00     6.7499999999914273E-01     0.0000000000000000E+00 
    1.0000000000000000E+00     7.2499999999927467E-01     0.0000000000000000E+00 
    1.0000000000000000E+00     7.7499999999940661E-01     0.0000000000000000E+00 
    1.0000000000000000E+00     8.2499999999953844E-01     0.0000000000000000E+00 
    1.0000000000000000E+00     8.7499999999967026E-01     0.0000000000000000E+00 
    1.0000000000000000E+00     9.2499999999980220E-01     0.0000000000000000E+00 
    1.0000000000000000E+00     9.7499999999993414E-01     0.0000000000000000E+00 
    1.0000000000000000E+00     5.4999999999881310E-01     0.0000000000000000E+00 
    1.0000000000000000E+00     9.9999999999814140E-02     0.0000000000000000E+00 
    1.0000000000000000E+00     1.4999999999970290E-01     0.0000000000000000E+00 
    1.0000000000000000E+00     1.9999999999955689E-01     0.0000000000000000E+00 
    1.0000000000000000E+00     2.4999999999941089E-01     0.0000000000000000E+00 
    1.0000000000000000E+00     2.9999999999926502E-01     0.0000000000000000E+00 
    1.0000000000000000E+00     3.4999999999911913E-01     0.0000000000000000E+00 
    1.0000000000000000E+00     3.9999999999897312E-01     0.0000000000000000E+00 
    1.0000000000000000E+00     4.4999999999882723E-01     0.0000000000000000E+00 
    1.0000000000000000E+00     4.9999999999869210E-01     0.0000000000000000E+00 
    1.0000000000000000E+00     4.9999999999899403E-02     0.0000000000000000E+00 
    1.0000000000000000E+00     5.9999999999894504E-01     0.0000000000000000E+00 
    1.0000000000000000E+00     6.4999999999907687E-01     0.0000000000000000E+00 
    1.0000000000000000E+00     6.9999999999920870E-01     0.0000000000000000E+00 
    1.0000000000000000E+00     7.4999999999934064E-01     0.0000000000000000E+00 
    1.0000000000000000E+00     7.9999999999947247E-01     0.0000000000000000E+00 
    1.0000000000000000E+00     8.4999999999960441E-01     0.0000000000000000E+00 
    1.0000000000000000E+00     8.9999999999973623E-01     0.0000000000000000E+00 
    1.0000000000000000E+00     9.4999999999986817E-01     0.0000000000000000E+00 
    4.7500000000196618E-01     1.0000000000000000E+00     0.0000000000000000E+00 
    9.2499999999968763E-01     1.0000000000000000E+00     0.0000000000000000E+00 
    8.7499999999961831E-01     1.0000000000000000E+00     0.0000000000000000E+00 
    8.2499999999982654E-01     1.0000000000000000E+00     0.0000000000000000E+00 
    7.7500000000017355E-01     1.0000000000000000E+00     0.0000000000000000E+00 
    7.2500000000052045E-01     1.0000000000000000E+00     0.0000000000000000E+00 
    6.7500000000086724E-01     1.0000000000000000E+00     0.0000000000000000E+00 
    6.2500000000121403E-01     1.0000000000000000E+00     0.0000000000000000E+00 
    5.7500000000156093E-01     1.0000000000000000E+00     0.0000000000000000E+00 
    5.2500000000189684E-01     1.0000000000000000E+00     0.0000000000000000E+00 
    9.7499999999989595E-01     1.0000000000000000E+00     0.0000000000000000E+00 
    4.2500000000176902E-01     1.0000000000000000E+00     0.0000000000000000E+00 
    3.7500000000156092E-01     1.0000000000000000E+00     0.0000000000000000E+00 
    3.2500000000135282E-01     1.0000000000000000E+00     0.0000000000000000E+00 
    2.7500000000114472E-01     1.0000000000000000E+00     0.0000000000000000E+00 
    2.2500000000093659E-01     1.0000000000000000E+00     0.0000000000000000E+00 
    1.7500000000072849E-01     1.0000000000000000E+00     0.0000000000000000E+00 
    1.2500000000052039E-01     1.0000000000000000E+00     0.0000000000000000E+00 
    7.5000000000312261E-02     1.0000000000000000E+00     0.0000000000000000E+00 
    2.5000000000104109E-02     1.0000000000000000E+00     0.0000000000000000E+00 
    4.5000000000187301E-01     1.0000000000000000E+00     0.0000000000000000E+00 
    8.9999999999958358E-01     1.0000000000000000E+00     0.0000000000000000E+00 
    8.4999999999965303E-01     1.0000000000000000E+00     0.0000000000000000E+00 
    8.0000000000000004E-01     1.0000000000000000E+00     0.0000000000000000E+00 
    7.5000000000034706E-01     1.0000000000000000E+00     0.0000000000000000E+00 
    7.0000000000069384E-01     1.0000000000000000E+00     0.0000000000000000E+00 
    6.5000000000104063E-01     1.0000000000000000E+00     0.0000000000000000E+00 
    6.0000000000138742E-01     1.0000000000000000E+00     0.0000000000000000E+00 
    5.5000000000173432E-01     1.0000000000000000E+00     0.0000000000000000E+00 
    5.0000000000205946E-01     1.0000000000000000E+00     0.0000000000000000E+00 
    9.4999999999979179E-01     1.0000000000000000E+00     0.0000000000000000E+00 
    4.0000000000166491E-01     1.0000000000000000E+00     0.0000000000000000E+00 
    3.5000000000145681E-01     1.0000000000000000E+00     0.0000000000000000E+00 
    3.0000000000124871E-01     1.0000000000000000E+00     0.0000000000000000E+00 
    2.5000000000104061E-01     1.0000000000000000E+00     0.0000000000000000E+00 
    2.0000000000083251E-01     1.0000000000000000E+00     0.0000000000000000E+00 
    1.5000000000062441E-01     1.0000000000000000E+00     0.0000000000000000E+00 
    1.0000000000041630E-01     1.0000000000000000E+00     0.0000000000000000E+00 
[...]
CELL_DATA 1600 
SCALARS Pressure double 1 
LOOKUP_TABLE default 

    8.4012651589947229E-01 
    8.2127932778381829E-01 
    8.2118271392612685E-01 
    8.3821312434178552E-01 
    8.3644184396585930E-01 
    8.2100771327826982E-01 
    8.2076997574009458E-01 
    8.3480275437354001E-01 
    8.3328318613022123E-01 
    8.2048241442298175E-01 
    8.2015583383647794E-01 
    8.3187172128614195E-01 
    8.3055823419625985E-01 
    8.1979928529633650E-01 
    8.1942035534044799E-01 
    8.2933378225972332E-01 
    8.2819047648967026E-01 
    8.1902540453053840E-01 
    8.1861976642369716E-01 
    8.2712135760359429E-01 
    8.2612028389287140E-01 
    8.1820791385900293E-01 
    8.1779359818534791E-01 
    8.2518183188332483E-01 
    8.2430120915034855E-01 
    8.1737996598607698E-01 
    8.1696965703699631E-01 
    8.2347417814234003E-01 
    8.2269698976419348E-01 
    8.1656488658412052E-01 
    8.1616751450165914E-01 
    8.2196632552407789E-01 
    8.2127924715341216E-01 
    8.1577910346091720E-01 
    8.1540096788707328E-01 
    8.2063315273140058E-01 
    8.2002573846468774E-01 
    8.1503421518841224E-01 
    8.1467978050010204E-01 
    8.1945496538277685E-01 
    8.1891903030854607E-01 
    8.1433845598301402E-01 
    8.1401091555019345E-01 
    8.1841634055019796E-01 
    8.1794549183706577E-01 
    8.1369773575358351E-01 
    8.1339941344671629E-01 
    8.1750524908780808E-01 
    8.1709452965683049E-01 
    8.1311638074139858E-01 
    8.1284901769469176E-01 
    8.1671238875433916E-01 
    8.1635800677808501E-01 
    8.1259766309387982E-01 
    8.1236262364910328E-01 
    8.1603067833125376E-01 
    8.1572980273112083E-01 
    8.1214418185326187E-01 
    8.1194260272322749E-01 
    8.1545487583606180E-01 
    8.1520548303077112E-01 
    8.1175813958937704E-01 
    8.1159103903876773E-01 
    8.1498129320115009E-01 
    8.1478205347290578E-01 
    8.1144154500662458E-01 
    8.1130990175060391E-01 
    8.1460758429523084E-01 
    8.1445777383529772E-01 
    8.1119635470768059E-01 
    8.1110114588738291E-01 
    8.1433256855333369E-01 
    8.1423194910531005E-01 
    8.1102449237032015E-01 
    8.1096650864405861E-01 
    8.1415585154504388E-01 
    8.1410389677975370E-01 
    8.1092695522462577E-01 
    8.1090476353298391E-01 
    8.1407472839860850E-01 
    8.1011394730397646E-01 
    7.9996068956265909E-01 
    7.9995158317870774E-01 
    8.1009117586359947E-01 
    8.1004621089318862E-01 
    7.9993345035528773E-01 
    7.9990647797839343E-01 
    8.0998013018359882E-01 
    8.0989431399000822E-01 
    7.9987093781312635E-01 
    7.9982717943675896E-01 
    8.0979034235768566E-01 
    8.0966991509313968E-01 
    7.9977562050309037E-01 
    7.9971673634134433E-01 
    8.0953479042587684E-01 
    8.0938673885437118E-01 
    7.9965104970063738E-01 
    7.9957912104334972E-01 
    8.0922750908611019E-01 
    8.0905880351592330E-01 
    7.9950153960117243E-01 
    7.9941891529966436E-01 
    8.0888226116977557E-01 
    8.0869944644711456E-01 
    7.9933187158912145E-01 
    7.9924103917514644E-01 
    8.0851184232814111E-01 
    8.0832084698345108E-01 
    7.9914705061342528E-01 
    7.9905053571515017E-01 
    8.0812777294290328E-01 
    8.0793384815760250E-01 
    7.9895211769911134E-01 
    7.9885241002153795E-01 
    8.0774021843139232E-01 
    8.0754795081267916E-01 
    7.9875201381368621E-01 
    7.9865151585874616E-01 
    8.0735803762908775E-01 
    8.0717140092072848E-01 
    7.9855148704303625E-01 
    7.9845248122099399E-01 
    8.0698889708626120E-01 
    8.0681132160237623E-01 
    7.9835503443870204E-01 
    7.9825966446622831E-01 
    8.0663941371409198E-01 
    8.0647386102226737E-01 
    7.9816687059465419E-01 
    7.9807713365902400E-01 
    8.0631530391742501E-01 
    8.0616433982642577E-01 
    7.9799091625322882E-01 
    7.9790866310639808E-01 
    8.0602152725130949E-01 
    8.0588738958754891E-01 
    7.9783080159141473E-01 
    7.9775774233164976E-01 
    8.0576241871037668E-01 
    8.0564707830748739E-01 
    7.9768987985474527E-01 
    7.9762759319413890E-01 
    8.0554180690000976E-01 
    8.0544702039150118E-01 
    7.9757124621286157E-01 
    7.9752118709082964E-01 
    8.0536311370146429E-01 
    8.0529046022006046E-01 
    7.9747774551022166E-01 
    7.9744122354431624E-01 
    8.0522940532066700E-01 
    8.0518024233408458E-01 
    7.9741186927211016E-01 
    7.9738980505300816E-01 
    8.0514313610745902E-01 
    8.0511791219308670E-01 
    7.9737486635788946E-01 
    7.9736651562205496E-01 
    8.0510379688971467E-01 
    7.8967036191492213E-01 
    7.7890165741004780E-01 
    7.7889901564439590E-01 
    7.8966583116469335E-01 
    7.8965679713062542E-01 
    7.7889374919392940E-01 
    7.7888589304872191E-01 
    7.8964332410747529E-01 
    7.8962550577690138E-01 
    7.7887549512019871E-01 
    7.7886261755933173E-01 
    7.8960346593646902E-01 
    7.8957735726479006E-01 
    7.7884733673683992E-01 
    7.7882974275753603E-01 
    7.8954735937517673E-01 
    7.8951367654603066E-01 
    7.7880993877174520E-01 
    7.7878804018147263E-01 
    7.8947653529729045E-01 
    7.8943618190882914E-01 
    7.7876417378677953E-01 
    7.7873847689808873E-01 
    7.8939287994467722E-01 
    7.8934690782923200E-01 
    7.7871109643154934E-01 
    7.7868218800032563E-01 
    7.8929855650980585E-01 
    7.8924812723098836E-01 
    7.7865191501218423E-01 
    7.7862044778210704E-01 
    7.8919592943922801E-01 
    7.8914227883026900E-01 
    7.7858796266738672E-01 
    7.7855464123159746E-01 
    7.8908749554737445E-01 
    7.8903190253447586E-01 
    7.7852066944292542E-01 
    7.7848623691149810E-01 
    7.8897582404537681E-01 
    7.8891958430785014E-01 
    7.7845153616960205E-01 
    7.7841676199794352E-01 
    7.8886350633977320E-01 
    7.8880791091327973E-01 
    7.7838211080038089E-01 
    7.7834778002869354E-01 
    7.8875311566214679E-01 
    7.8869943432714973E-01 
    7.7831396765780347E-01 
    7.7828087171005522E-01 
    7.8864717613365909E-01 
    7.8859664529490336E-01 
    7.7824868982394169E-01 
    7.7821761885664287E-01 
    7.8854814063218692E-01 
    7.8850195529808642E-01 
    7.7818785449788253E-01 
    7.7815959084860808E-01 
    7.8845837657609696E-01 
    7.8841768570083803E-01 
    7.7813301986796291E-01 
    7.7810833048476646E-01 
    7.8838015757402857E-01 
    7.8834606008706432E-01 
    7.7808570693328771E-01 
    7.7806532533848061E-01 
    7.8831565235946066E-01 
    7.8828918019971450E-01 
    7.7804734634403527E-01 
    7.7803189873148781E-01 
    7.8826686457932171E-01 
    7.8824887287242928E-01 
    7.7801904262170152E-01 
    7.7800868846401128E-01 
    7.8823525085108115E-01 
    7.8822579982556840E-01 
    7.7800045000185147E-01 
    7.7799464229179538E-01 
    7.8822026905227627E-01 
    7.6753998448850480E-01 
    7.5555162958564714E-01 
    7.5555026430688266E-01 
    7.6753820203122924E-01 
    7.6753465158055600E-01 
    7.5554754757384801E-01 
    7.5554350220768085E-01 
    7.6752935901763408E-01 
    7.6752235705607552E-01 
    7.5553815538386282E-01 
    7.5553153935530792E-01 
    7.6751368631768391E-01 
    7.6750339552875735E-01 
    7.5552369166887023E-01 
    7.5551465514645388E-01 
    7.6749154138547293E-01 
    7.6747818827985881E-01 
    7.5550447776332730E-01 
    7.5549321247642875E-01 
    7.6746340795723922E-01 
    7.6744727913612365E-01 
    7.5548091702647480E-01 
    7.5546765372570712E-01 
    7.6742988710603466E-01 
    7.6741132331203643E-01 
    7.5545348923760269E-01 
    7.5543849435212573E-01 
    7.6739168493156162E-01 
    7.6737107444750574E-01 
    7.5542274375865170E-01 
    7.5540631581784179E-01 
    7.6734959922066359E-01 
    7.6732737106401216E-01 
    7.5538929233320562E-01 
    7.5537175832264758E-01 
    7.6730450582090237E-01 
    7.6728112294882012E-01 
    7.5535380178985168E-01 
    7.5533551349482619E-01 
    7.6725734510993204E-01 
    7.6723329776907057E-01 
    7.5531698672220249E-01 
    7.5529831704482153E-01 
    7.6720910879905768E-01 
    7.6718490809217743E-01 
    7.5527960207853828E-01 
    7.5526094122168486E-01 
    7.6716082717495715E-01 
    7.6713699882081376E-01 
    7.5524243536864610E-01 
    7.5522418658046886E-01 
    7.6711355665084036E-01 
    7.6709063470572625E-01 
    7.5520629768437586E-01 
    7.5518887175483629E-01 
    7.6706836695896652E-01 
    7.6704688671809618E-01 
    7.5517201139431567E-01 
    7.5515581766778683E-01 
    7.6702632581644925E-01 
    7.6700681341151922E-01 
    7.5514038842245490E-01 
    7.5512581548200741E-01 
    7.6698847403132009E-01 
    7.6697142414586972E-01 
    7.5511217971251732E-01 
    7.5509954192654016E-01 
    7.6695576575861868E-01 
    7.6694157378453398E-01 
    7.5508792534954072E-01 
    7.5507728016627840E-01 
    7.6692887004407895E-01 
    7.6691756729378846E-01 
    7.5506740698608532E-01 
    7.5505777218076697E-01 
    7.6690734210863054E-01 
    7.6689733541826655E-01 
    7.5504695860564719E-01 
    7.5503718245962670E-01 
    7.6688888134907673E-01 
    7.4293376641700648E-01 
    7.2969509373155739E-01 
    7.2969405141974064E-01 
    7.4293261440424574E-01 
    7.4293032413235971E-01 
    7.2969198053494300E-01 
    7.2968890262056940E-01 
    7.4292691747954753E-01 
    7.4292241967065153E-01 
    7.2968484213243334E-01 
    7.2967982653287600E-01 
    7.4291685966588328E-01 
    7.4291027034859614E-01 
    7.2967388643023257E-01 
    7.2966705562851508E-01 
    7.4290268855642705E-01 
    7.4289415503710765E-01 
    7.2965937112389856E-01 
    7.2965087307219567E-01 
    7.4288471436661774E-01 
    7.4287441484824768E-01 
    7.2964160474116591E-01 
    7.2963161245579033E-01 
    7.4286330840243331E-01 
    7.4285145045290646E-01 
    7.2962094554146861E-01 
    7.2960965626827790E-01 
    7.4283889981243623E-01 
    7.4282571857016710E-01 
    7.2959779979837047E-01 
    7.2958543413794197E-01 
    7.4281197198182536E-01 
    7.4279772836358593E-01 
    7.2957262009478585E-01 
    7.2955942124212969E-01 
    7.4278305899002350E-01 
    7.4276803799621993E-01 
    7.2954590388915497E-01 
    7.2953213705822273E-01 
    7.4275274228365629E-01 
    7.4273725142890146E-01 
    7.2951819246828276E-01 
    7.2950414452305179E-01 
    7.4272164759314552E-01 
    7.4270601542910686E-01 
    7.2949007030108215E-01 
    7.2947604954235479E-01 
    7.4269044197936074E-01 
    7.4267501655601265E-01 
    7.2946216462177882E-01 
    7.2944850049257359E-01 
    7.4265983058465646E-01 
    7.4264497738343382E-01 
    7.2943514456937320E-01 
    7.2942218649720991E-01 
    7.4263055182649285E-01 
    7.4261664980195308E-01 
    7.2940971770885510E-01 
    7.2939783059087759E-01 
    7.4260336730126408E-01 
    7.4259079883662205E-01 
    7.2938661692140871E-01 
    7.2937616493617707E-01 
    7.4257903460849306E-01 
    7.4256815529602316E-01 
    7.2936655377332282E-01 
    7.2935784281809057E-01 
    7.4255822221668633E-01 
    7.4254925818180295E-01 
    7.2935005080688975E-01 
    7.2934311283988684E-01 
    7.4254120862138029E-01 
    7.4253385596582688E-01 
    7.2933678170431704E-01 
    7.2933035491381948E-01 
    7.4252659998649650E-01 
    7.4251773156245371E-01 
    7.2932236491595259E-01 
    7.2931545025205635E-01 
    7.4250947391810784E-01 
    7.1584830072619954E-01 
    7.0140689861092576E-01 
    7.0140593371957227E-01 
    7.1584731136317636E-01 
    7.1584534624886376E-01 
    7.0140401739702940E-01 
    7.0140117067300611E-01 
    7.1584242663107189E-01 
    7.1583857642978110E-01 
    7.0139741715254245E-01 
    7.0139278264027560E-01 
    7.1583382207585178E-01 
    7.1582819258992536E-01 
    7.0138729515998388E-01 
    7.0138098499004276E-01 
    7.1582171962779451E-01 
    7.1581443749003859E-01 
    7.0137388467932993E-01 
    7.0136602904426215E-01 
    7.1580638310772238E-01 
    7.1579759601327009E-01 
    7.0135745515164061E-01 
    7.0134820229130623E-01 
    7.1578811830255673E-01 
    7.1577799459206848E-01 
    7.0133831194133789E-01 
    7.0132782772738322E-01 
    7.1576727197352130E-01 
    7.1575599996732953E-01 
    7.0131679537678826E-01 
    7.0130526266739324E-01 
    7.1574423047560587E-01 
    7.1573201773480488E-01 
    7.0129327937010610E-01 
    7.0128089718355890E-01 
    7.1571941826758434E-01 
    7.1570649083286075E-01 
    7.0126816965815697E-01 
    7.0125515210553580E-01 
    7.1569329637226065E-01 
    7.1567989795008058E-01 
    7.0124190148761578E-01 
    7.0122847627676488E-01 
    7.1566636068223632E-01 
    7.1565275164714148E-01 
    7.0121493627455789E-01 
    7.0120134237036535E-01 
    7.1563913976742644E-01 
    7.1562559564479788E-01 
    7.0118775621102292E-01 
    7.0117423973642601E-01 
    7.1561219131925169E-01 
    7.1559899990474163E-01 
    7.0116085450807863E-01 
    7.0114766070904533E-01 
    7.1558609501961823E-01 
    7.1557354986881683E-01 
    7.0113471560616392E-01 
    7.0112207110236668E-01 
    7.1556143572048270E-01 
    7.1554981930158512E-01 
    7.0110976969387429E-01 
    7.0109783752581245E-01 
    7.1553875821111868E-01 
    7.1552829259566586E-01 
    7.0108627195568740E-01 
    7.0107501819880225E-01 
    7.1551842954226053E-01 
    7.1550911250283511E-01 
    7.0106392254714134E-01 
    7.0105262812522895E-01 
    7.1550015651225329E-01 
    7.1549108871160971E-01 
    7.0104029815057745E-01 
    7.0102472928747384E-01 
    7.1548066415800882E-01 
    7.1546887321931629E-01 
    7.0100818326849346E-01 
    7.0099972262956367E-01 
    7.1546140307310169E-01 
    6.8638333790368378E-01 
    6.7078807980114707E-01 
    6.7078712479366187E-01 
    6.8638238391861917E-01 
    6.8638048931414108E-01 
    6.7078522798851392E-01 
    6.7078241023198404E-01 
    6.8637767507075120E-01 
    6.8637396479226243E-01 
    6.7077869503839949E-01 
    6.7077410788816738E-01 
    6.8636938415506110E-01 
    6.8636396087900420E-01 
    6.7076867614835778E-01 
    6.7076242909474537E-01 
    6.8635772476014079E-01 
    6.8635070770164885E-01 
    6.7075539794747485E-01 
    6.7074761590265453E-01 
    6.8634294373407567E-01 
    6.8633446902592243E-01 
    6.7073911815731990E-01 
    6.7072994192881108E-01 
    6.8632532188721129E-01 
    6.8631554276839879E-01 
    6.7072012647021417E-01 
    6.7070971308329375E-01 
    6.8630517425634907E-01 
    6.8629426106844760E-01 
    6.7069874512989880E-01 
    6.7068726804232115E-01 
    6.8628285004530720E-01 
    6.8627099014192483E-01 
    6.7067532933252205E-01 
    6.7066297859946900E-01 
    6.8625873241646007E-01 
    6.8624613001494572E-01 
    6.7065026753293933E-01 
    6.7063724991088380E-01 
    6.8623323814905812E-01 
    6.8622011406233852E-01 
    6.7062398158555814E-01 
    6.7061052045072789E-01 
    6.8620681697761765E-01 
    6.8619340801428641E-01 
    6.7059692637764046E-01 
    6.7058326110001054E-01 
    6.8617995005747123E-01 
    6.8616650755039976E-01 
    6.7056958801589284E-01 
    6.7055597185321780E-01 
    6.8615314616309131E-01 
    6.8613993225910852E-01 
    6.7054247810881151E-01 
    6.7052917210397778E-01 
    6.8612693202622144E-01 
    6.8611421003414907E-01 
    6.7051611737490291E-01 
    6.7050337287444206E-01 
    6.8610182678785381E-01 
    6.8608983446294813E-01 
    6.7049098797486451E-01 
    6.7047899323166560E-01 
    6.8607826923116688E-01 
    6.8606713691291277E-01 
    6.7046738254853244E-01 
    6.7045607661782514E-01 
    6.8605638479805753E-01 
    6.8604584200734331E-01 
    6.7044484083897637E-01 
    6.7043307285736053E-01 
    6.8603507645746697E-01 
    6.8602298484720570E-01 
    6.7041915678052511E-01 
    6.7040180202567634E-01 
    6.8600688726267045E-01 
    6.8599035213155823E-01 
    6.7038698218399639E-01 
    6.7038004632362802E-01 
    6.8598215832857468E-01 
    6.5462973154743931E-01 
    6.3791504628351203E-01 
    6.3791406183409338E-01 
    6.5462876476648535E-01 
    6.5462684416491945E-01 
    6.3791210567666845E-01 
    6.3790919814526037E-01 
    6.5462399029565721E-01 
    6.5462022637343842E-01 
    6.3790536228893369E-01 
    6.3790062292281280E-01 
    6.5461557743804277E-01 
    6.5461007021962447E-01 
    6.3789500644814734E-01 
    6.3788854083869773E-01 
    6.5460373313861708E-01 
    6.5459659633132050E-01 
    6.3788125566668319E-01 
    6.3787318213524413E-01 
    6.5458869167519373E-01 
    6.5458005280745613E-01 
    6.3786435310797496E-01 
    6.3785480313304965E-01 
    6.5457071513591347E-01 
    6.5456071584220155E-01 
    6.3784456846154514E-01 
    6.3783368705997345E-01 
    6.5455009387766283E-01 
    6.5453888995162146E-01 
    6.3782219861683120E-01 
    6.3781014454245488E-01 
    6.5452714651116117E-01 
    6.5451490771067888E-01 
    6.3779756796070541E-01 
    6.3778451368996003E-01 
    6.5450221936840103E-01 
    6.5448912890560262E-01 
    6.3777102820941289E-01 
    6.3775715960453183E-01 
    6.5447568526223554E-01 
    6.5446193877970371E-01 
    6.3774295748232246E-01 
    6.3772847284213396E-01 
    6.5444794103710913E-01 
    6.5443374462047166E-01 
    6.3771375788003437E-01 
    6.3769886569234779E-01 
    6.5441940279367095E-01 
    6.5440496902230072E-01 
    6.3768384982322068E-01 
    6.3766876356554092E-01 
    6.5439049627210366E-01 
    6.5437603595234350E-01 
    6.3765365886158987E-01 
    6.3763858453394007E-01 
    6.5436163628190058E-01 
    6.5434733968134140E-01 
    6.3762358335302360E-01 
    6.3760868699242901E-01 
    6.5433317845045935E-01 
    6.5431916727906692E-01 
    6.3759390694373619E-01 
    6.3757921720111121E-01 
    6.5430528957226941E-01 
    6.5429147084669359E-01 
    6.3756451882759002E-01 
    6.3754956039796662E-01 
    6.5427752258275618E-01 
    6.5426300947297977E-01 
    6.3753373557880288E-01 
    6.3751549039698929E-01 
    6.5424688325157510E-01 
    6.5422640113273001E-01 
    6.3749157211064977E-01 
    6.3746708958075293E-01 
    6.5420361946564820E-01 
    6.5418895336631522E-01 
    6.3745260865556885E-01 
    6.3744695577819166E-01 
    6.5418324672387418E-01 
    6.2064837765124725E-01 
    6.0283151794001266E-01 
    6.0283047543984414E-01 
    6.2064736851340985E-01 
    6.2064536272629744E-01 
    6.0282840260332082E-01 
    6.0282531910924486E-01 
    6.2064238035403674E-01 
    6.2063844422146319E-01 
    6.0282124740997178E-01 
    6.0281621158800303E-01 
    6.2063357886451809E-01 
    6.2062781030496239E-01 
    6.0281023708241055E-01 
    6.0280335063346457E-01 
    6.2062116601937356E-01 
    6.2061367496000375E-01 
    6.0279558028905089E-01 
    6.0278695542693461E-01 
    6.2060536758785900E-01 
    6.2059627590552369E-01 
    6.0277750677720088E-01 
    6.0276726643889422E-01 
    6.2058643348568465E-01 
    6.2057587549404658E-01 
    6.0275626788812287E-01 
    6.0274454597579674E-01 
    6.2056463870607315E-01 
    6.2055276151689953E-01 
    6.0273213691305694E-01 
    6.0271907824178439E-01 
    6.2054028394328908E-01 
    6.2052724761566269E-01 
    6.0270540878642564E-01 
    6.0269116858166005E-01 
    6.2051369575703630E-01 
    6.2049967314394849E-01 
    6.0267639876795021E-01 
    6.0266114144336524E-01 
    6.2048522604187595E-01 
    6.2047040210374582E-01 
    6.0264543945460969E-01 
    6.0262933610188785E-01 
    6.2045525021415937E-01 
    6.2043982025248112E-01 
    6.0261287471921765E-01 
    6.0259609807073278E-01 
    6.2042416273255008E-01 
    6.2040832825082359E-01 
    6.0257904746792856E-01 
    6.0256176145055540E-01 
    6.2039236662963415E-01 
    6.2037632556120859E-01 
    6.0254427376093078E-01 
    6.0252661012704378E-01 
    6.2036024840632376E-01 
    6.2034417050090829E-01 
    6.0250878293645471E-01 
    6.0249078194535866E-01 
    6.2032811269317623E-01 
    6.2031206942225681E-01 
    6.0247255698441549E-01 
    6.0245398305764264E-01 
    6.2029598522217000E-01 
    6.2027970437538027E-01 
    6.0243478247837190E-01 
    6.0241432839570430E-01 
    6.2026285083682053E-01 
    6.2024450105779638E-01 
    6.0239108073991532E-01 
    6.0236138334286138E-01 