# vtk DataFile Version 2.0
Pressure Field Data 
ASCII 
DATASET UNSTRUCTURED_GRID 

POINTS 1681 double 

    0.0000000000000000E+00     0.0000000000000000E+00     0.0000000000000000E+00 
    1.0000000000000000E+00     0.0000000000000000E+00     0.0000000000000000E+00 
    1.0000000000000000E+00     1.0000000000000000E+00     0.0000000000000000E+00 
    0.0000000000000000E+00     1.0000000000000000E+00     0.0000000000000000E+00 
    5.2499999999875258E-01     0.0000000000000000E+00     0.0000000000000000E+00 
    7.4999999999856765E-02     0.0000000000000000E+00     0.0000000000000000E+00 
    1.2499999999975850E-01     0.0000000000000000E+00     0.0000000000000000E+00 
    1.7499999999962990E-01     0.0000000000000000E+00     0.0000000000000000E+00 
    2.2499999999948389E-01     0.0000000000000000E+00     0.0000000000000000E+00 
    2.7499999999933789E-01     0.0000000000000000E+00     0.0000000000000000E+00 
    3.2499999999919210E-01     0.0000000000000000E+00     0.0000000000000000E+00 
    3.7499999999904610E-01     0.0000000000000000E+00     0.0000000000000000E+00 
    4.2499999999890020E-01     0.0000000000000000E+00     0.0000000000000000E+00 
    4.7499999999875958E-01     0.0000000000000000E+00     0.0000000000000000E+00 
    2.4999999999949701E-02     0.0000000000000000E+00     0.0000000000000000E+00 
    5.7499999999887907E-01     0.0000000000000000E+00     0.0000000000000000E+00 
    6.2499999999901101E-01     0.0000000000000000E+00     0.0000000000000000E+00 
    6.7499999999914273E-01     0.0000000000000000E+00     0.0000000000000000E+00 
    7.2499999999927467E-01     0.0000000000000000E+00     0.0000000000000000E+00 
    7.7499999999940661E-01     0.0000000000000000E+00     0.0000000000000000E+00 
    8.2499999999953844E-01     0.0000000000000000E+00     0.0000000000000000E+00 
    8.7499999999967026E-01     0.0000000000000000E+00     0.0000000000000000E+00 
    9.2499999999980220E-01     0.0000000000000000E+00     0.0000000000000000E+00 
    9.7499999999993414E-01     0.0000000000000000E+00     0.0000000000000000E+00 
    5.4999999999881310E-01     0.0000000000000000E+00     0.0000000000000000E+00 
    9.9999999999814140E-02     0.0000000000000000E+00     0.0000000000000000E+00 
    1.4999999999970290E-01     0.0000000000000000E+00     0.0000000000000000E+00 
    1.9999999999955689E-01     0.0000000000000000E+00     0.0000000000000000E+00 
    2.4999999999941089E-01     0.0000000000000000E+00     0.0000000000000000E+00 
    2.9999999999926502E-01     0.0000000000000000E+00     0.0000000000000000E+00 
    3.4999999999911913E-01     0.0000000000000000E+00     0.0000000000000000E+00 
    3.9999999999897312E-01     0.0000000000000000E+00     0.0000000000000000E+00 
    4.4999999999882723E-01     0.0000000000000000E+00     0.0000000000000000E+00 
    4.9999999999869210E-01     0.0000000000000000E+00     0.0000000000000000E+00 
    4.9999999999899403E-02     0.0000000000000000E+00     0.0000000000000000E+00 
    5.9999999999894504E-01     0.0000000000000000E+00     0.0000000000000000E+00 
    6.4999999999907687E-01     0.0000000000000000E+00     0.0000000000000000E+00 
    6.9999999999920870E-01     0.0000000000000000E+00     0.0000000000000000E+00 
    7.4999999999934064E-01     0.0000000000000000E+00     0.0000000000000000E+00 
    7.9999999999947247E-01     0.0000000000000000E+00     0.0000000000000000E+00 
    8.4999999999960441E-01     0.0000000000000000E+00     0.0000000000000000E+00 
    8.9999999999973623E-01     0.0000000000000000E+00     0.0000000000000000E+00 
    9.4999999999986817E-01     0.0000000000000000E+00     0.0000000000000000E+00 
    1.0000000000000000E+00     5.2499999999875258E-01     0.0000000000000000E+00 
    1.0000000000000000E+00     7.4999999999856765E-02     0.0000000000000000E+00 
    1.0000000000000000E+00     1.2499999999975850E-01     0.0000000000000000E+00 
    1.0000000000000000E+00     1.7499999999962990E-01     0.0000000000000000E+00 
    1.0000000000000000E+00     2.2499999999948389E-01     0.0000000000000000E+00 
    1.0000000000000000E+00     2.7499999999933789E-01     0.0000000000000000E+00 
    1.0000000000000000E+00     3.2499999999919210E-01     0.0000000000000000E+00 
    1.0000000000000000E+00     3.7499999999904610E-01     0.0000000000000000E+00 
    1.0000000000000000E+00     4.2499999999890020E-01     0.0000000000000000E+00 
    1.0000000000000000E+00     4.7499999999875958E-01     0.0000000000000000E+00 
    1.0000000000000000E+00     2.4999999999949701E-02     0.0000000000000000E+00 
    1.0000000000000000E+00     5.7499999999887907E-01     0.0000000000000000E+00 
    1.0000000000000000E+00     6.2499999999901101E-01     0.0000000000000000E+00 
    1.0000000000000000E+00     6.7499999999914273E-01     0.0000000000000000E+00 
    1.0000000000000000E+00     7.2499999999927467E-01     0.0000000000000000E+00 
    1.0000000000000000E+00     7.7499999999940661E-01     0.0000000000000000E+00 
    1.0000000000000000E+00     8.2499999999953844E-01     0.0000000000000000E+00 
    1.0000000000000000E+00     8.7499999999967026E-01     0.0000000000000000E+00 
    1.0000000000000000E+00     9.2499999999980220E-01     0.0000000000000000E+00 
    1.0000000000000000E+00     9.7499999999993414E-01     0.0000000000000000E+00 
    1.0000000000000000E+00     5.4999999999881310E-01     0.0000000000000000E+00 
    1.0000000000000000E+00     9.9999999999814140E-02     0.0000000000000000E+00 
    1.0000000000000000E+00     1.4999999999970290E-01     0.0000000000000000E+00 
    1.0000000000000000E+00     1.9999999999955689E-01     0.0000000000000000E+00 
    1.0000000000000000E+00     2.4999999999941089E-01     0.0000000000000000E+00 
    1.0000000000000000E+00     2.9999999999926502E-01     0.0000000000000000E+00 
    1.0000000000000000E+00     3.4999999999911913E-01     0.0000000000000000E+00 
    1.0000000000000000E+00     3.9999999999897312E-01     0.0000000000000000E+00 
    1.0000000000000000E+00     4.4999999999882723E-01     0.0000000000000000E+00 
    1.0000000000000000E+00     4.9999999999869210E-01     0.0000000000000000E+00 
    1.0000000000000000E+00     4.9999999999899403E-02     0.0000000000000000E+00 
    1.0000000000000000E+00     5.9999999999894504E-01     0.0000000000000000E+00 
    1.0000000000000000E+00     6.4999999999907687E-01     0.0000000000000000E+00 
    1.0000000000000000E+00     6.9999999999920870E-01     0.0000000000000000E+00 
    1.0000000000000000E+00     7.4999999999934064E-01     0.0000000000000000E+00 
    1.0000000000000000E+00     7.9999999999947247E-01     0.0000000000000000E+00 
    1.0000000000000000E+00     8.4999999999960441E-01     0.0000000000000000E+00 
    1.0000000000000000E+00     8.9999999999973623E-01     0.0000000000000000E+00 
    1.0000000000000000E+00     9.4999999999986817E-01     0.0000000000000000E+00 
    4.7500000000196618E-01     1.0000000000000000E+00     0.0000000000000000E+00 
    9.2499999999968763E-01     1.0000000000000000E+00     0.0000000000000000E+00 
    8.7499999999961831E-01     1.0000000000000000E+00     0.0000000000000000E+00 
    8.2499999999982654E-01     1.0000000000000000E+00     0.0000000000000000E+00 
    7.7500000000017355E-01     1.0000000000000000E+00     0.0000000000000000E+00 
    7.2500000000052045E-01     1.0000000000000000E+00     0.0000000000000000E+00 
    6.7500000000086724E-01     1.0000000000000000E+00     0.0000000000000000E+00 
    6.2500000000121403E-01     1.0000000000000000E+00     0.0000000000000000E+00 
    5.7500000000156093E-01     1.0000000000000000E+00     0.0000000000000000E+00 
    5.2500000000189684E-01     1.0000000000000000E+00     0.0000000000000000E+00 
    9.7499999999989595E-01     1.0000000000000000E+00     0.0000000000000000E+00 
    4.2500000000176902E-01     1.0000000000000000E+00     0.0000000000000000E+00 
    3.7500000000156092E-01     1.0000000000000000E+00     0.0000000000000000E+00 
    3.2500000000135282E-01     1.0000000000000000E+00     0.0000000000000000E+00 
    2.7500000000114472E-01     1.0000000000000000E+00     0.0000000000000000E+00 
    2.2500000000093659E-01     1.0000000000000000E+00     0.0000000000000000E+00 
    1.7500000000072849E-01     1.0000000000000000E+00     0.0000000000000000E+00 
    1.2500000000052039E-01     1.0000000000000000E+00     0.0000000000000000E+00 
    7.5000000000312261E-02     1.0000000000000000E+00     0.0000000000000000E+00 
    2.5000000000104109E-02     1.0000000000000000E+00     0.0000000000000000E+00 
    4.5000000000187301E-01     1.0000000000000000E+00     0.0000000000000000E+00 
    8.9999999999958358E-01     1.0000000000000000E+00     0.0000000000000000E+00 
    8.4999999999965303E-01     1.0000000000000000E+00     0.0000000000000000E+00 
    8.0000000000000004E-01     1.0000000000000000E+00     0.0000000000000000E+00 
    7.5000000000034706E-01     1.0000000000000000E+00     0.0000000000000000E+00 
    7.0000000000069384E-01     1.0000000000000000E+00     0.0000000000000000E+00 
    6.5000000000104063E-01     1.0000000000000000E+00     0.0000000000000000E+00 
    6.0000000000138742E-01     1.0000000000000000E+00     0.0000000000000000E+00 
    5.5000000000173432E-01     1.0000000000000000E+00     0.0000000000000000E+00 
    5.0000000000205946E-01     1.0000000000000000E+00     0.0000000000000000E+00 
    9.4999999999979179E-01     1.0000000000000000E+00     0.0000000000000000E+00 
    4.0000000000166491E-01     1.0000000000000000E+00     0.0000000000000000E+00 
    3.5000000000145681E-01     1.0000000000000000E+00     0.0000000000000000E+00 
    3.0000000000124871E-01     1.0000000000000000E+00     0.0000000000000000E+00 
    2.5000000000104061E-01     1.0000000000000000E+00     0.0000000000000000E+00 
    2.0000000000083251E-01     1.0000000000000000E+00     0.0000000000000000E+00 
    1.5000000000062441E-01     1.0000000000000000E+00     0.0000000000000000E+00 
    1.0000000000041630E-01     1.0000000000000000E+00     0.0000000000000000E+00 
[...]
CELL_DATA 1600 
SCALARS Pressure double 1 
LOOKUP_TABLE default 

    7.8342973152093609E-01 
    7.6489588330060199E-01 
    7.6480079363031861E-01 
    7.8152513913911914E-01 
    7.7976468984968561E-01 
    7.6462869980885773E-01 
    7.6439505805054331E-01 
    7.7813738934872501E-01 
    7.7663035945540237E-01 
    7.6411265622403168E-01 
    7.6379219187851477E-01 
    7.7523205283642438E-01 
    7.7393224527041904E-01 
    7.6344262081655634E-01 
    7.6307144195051368E-01 
    7.7272191126969847E-01 
    7.7159308818280903E-01 
    7.6268493391340286E-01 
    7.6228835260127892E-01 
    7.7053874901443842E-01 
    7.6955268845820535E-01 
    7.6188609650451289E-01 
    7.6148184529001051E-01 
    7.6862942244941868E-01 
    7.6776410027716313E-01 
    7.6107867608745361E-01 
    7.6067916114865652E-01 
    7.6695242794421270E-01 
    7.6619060143525863E-01 
    7.6028544992063474E-01 
    7.5989933806122700E-01 
    7.6547524864293970E-01 
    7.6480337882827931E-01 
    7.5952232550577148E-01 
    7.5915566534619816E-01 
    7.6417233862537071E-01 
    7.6357977372652885E-01 
    7.5880040499611112E-01 
    7.5845742087622592E-01 
    7.6302359549878973E-01 
    7.6250195188433034E-01 
    7.5812744765529427E-01 
    7.5781110291542386E-01 
    7.6201320202646450E-01 
    7.6155589414037184E-01 
    7.5750890797189963E-01 
    7.5722130546156641E-01 
    7.6112874621486937E-01 
    7.6073062918961709E-01 
    7.5694867421674183E-01 
    7.5669134186036224E-01 
    7.6036055230236599E-01 
    7.6001765034417157E-01 
    7.5644959548991475E-01 
    7.5622369076036233E-01 
    7.5970117259778103E-01 
    7.5941047326607714E-01 
    7.5601385962753975E-01 
    7.5582031697096597E-01 
    7.5914500322347334E-01 
    7.5890430294206035E-01 
    7.5564326627521505E-01 
    7.5548290450531941E-01 
    7.5868799645166796E-01 
    7.5849578617596203E-01 
    7.5533942624836437E-01 
    7.5521302706624627E-01 
    7.5832744840705657E-01 
    7.5818282891390743E-01 
    7.5510390567172525E-01 
    7.5501226348616624E-01 
    7.5806183726006560E-01 
    7.5796443486229004E-01 
    7.5493829627395126E-01 
    7.5488215694242011E-01 
    7.5789059654336421E-01 
    7.5784015799398707E-01 
    7.5484380686030017E-01 
    7.5482259077426039E-01 
    7.5781225175961053E-01 
    7.5416827374616713E-01 
    7.4456111858010221E-01 
    7.4455251701707093E-01 
    7.5414622455730873E-01 
    7.5410270194942219E-01 
    7.4453539168051019E-01 
    7.4450992114996983E-01 
    7.5403876523799862E-01 
    7.5395577151690385E-01 
    7.4447636625274594E-01 
    7.4443506278937166E-01 
    7.5385527335392444E-01 
    7.5373893927901081E-01 
    7.4438641188276278E-01 
    7.4433086976707585E-01 
    7.5360849301382860E-01 
    7.5346566783385893E-01 
    7.4426893775072311E-01 
    7.4420115272930709E-01 
    7.5331217295708042E-01 
    7.5314966940832784E-01 
    7.4412807845197426E-01 
    7.4405029764323172E-01 
    7.5297975329544831E-01 
    7.5280394483886848E-01 
    7.4396840501684658E-01 
    7.4388300117507411E-01 
    7.5262368182796824E-01 
    7.5244031644718357E-01 
    7.4379468735799548E-01 
    7.4370406098978192E-01 
    7.5225511463283323E-01 
    7.5206925729766927E-01 
    7.4361171195827669E-01 
    7.4351821955926500E-01 
    7.5188384290184906E-01 
    7.5169989096288248E-01 
    7.4342415003561224E-01 
    7.4333005464292601E-01 
    7.5151834618834723E-01 
    7.5134008298811983E-01 
    7.4323646817666300E-01 
    7.4314390790002338E-01 
    7.5116591018103374E-01 
    7.5099657575709833E-01 
    7.4305287281706578E-01 
    7.4296384324089981E-01 
    7.5083277159302597E-01 
    7.5067513804767083E-01 
    7.4287728061230007E-01 
    7.4279362752942191E-01 
    7.5052426838660902E-01 
    7.5038071300260567E-01 
    7.4271330795427792E-01 
    7.4263672756591215E-01 
    7.5024498341195933E-01 
    7.5011755601598429E-01 
    7.4256427423321381E-01 
    7.4249631858069154E-01 
    7.4999887562183409E-01 
    7.4988935871534923E-01 
    7.4243321461516798E-01 
    7.4237530036242239E-01 
    7.4978939646459830E-01 
    7.4969935738912807E-01 
    7.4232289840961696E-01 
    7.4227631610334210E-01 
    7.4961958950633645E-01 
    7.4955042140248596E-01 
    7.4223584473617366E-01 
    7.4220175578741010E-01 
    7.4949216051283596E-01 
    7.4944508284010913E-01 
    7.4217428820494424E-01 
    7.4215360746332693E-01 
    7.4940939348863644E-01 
    7.4938508815243099E-01 
    7.4213968186584656E-01 
    7.4213209736765462E-01 
    7.4937168225784034E-01 
    7.3491731113028202E-01 
    7.2488929075066066E-01 
    7.2488700707890752E-01 
    7.3491318890365320E-01 
    7.3490496842265540E-01 
    7.2488245277833152E-01 
    7.2487565566163648E-01 
    7.3489270659063233E-01 
    7.3487648811695228E-01 
    7.2486665535180683E-01 
    7.2485550456141612E-01 
    7.3485642608153612E-01 
    7.3483266069632802E-01 
    7.2484226906376215E-01 
    7.2482702723987014E-01 
    7.3480535742840614E-01 
    7.3477470482702856E-01 
    7.2480986944283987E-01 
    7.2479089726606083E-01 
    7.3474091220545057E-01 
    7.3470420726557095E-01 
    7.2477022275532277E-01 
    7.2474796758784743E-01 
    7.3466483372576807E-01 
    7.3462304899644071E-01 
    7.2472426223403386E-01 
    7.2469924511410089E-01 
    7.3457912193679176E-01 
    7.3453333071789961E-01 
    7.2467306175971147E-01 
    7.2464586398920583E-01 
    7.3448596081021855E-01 
    7.3443730310794053E-01 
    7.2461780910393347E-01 
    7.2458905911222349E-01 
    7.3438765219795721E-01 
    7.3433730477733250E-01 
    7.2455977998670040E-01 
    7.2453014095995827E-01 
    7.3428655822016886E-01 
    7.3423570929239568E-01 
    7.2450031386299019E-01 
    7.2447047251031416E-01 
    7.3418505301129122E-01 
    7.3413488164534990E-01 
    7.2444079213536794E-01 
    7.2441144887951758E-01 
    7.3408548384938010E-01 
    7.3403714392935382E-01 
    7.2438261933787929E-01 
    7.2435448016503501E-01 
    7.3399014123143769E-01 
    7.3394474964959888E-01 
    7.2432720774347070E-01 
    7.2430097791681580E-01 
    7.3390123724588530E-01 
    7.3385986597617170E-01 
    7.2427596578788123E-01 
    7.2425234557619267E-01 
    7.3382089151022833E-01 
    7.3378456312459583E-01 
    7.2423029051677479E-01 
    7.2420997275070986E-01 
    7.3375112362061357E-01 
    7.3372080915399285E-01 
    7.2419156308197008E-01 
    7.2417523028553843E-01 
    7.3369384869114951E-01 
    7.3367046234323496E-01 
    7.2416113916507963E-01 
    7.2414944527429981E-01 
    7.3365085650801354E-01 
    7.3363520987314845E-01 
    7.2414028082973680E-01 
    7.2413371825006778E-01 
    7.3362363332483527E-01 
    7.3361606449596428E-01 
    7.2412968811864342E-01 
    7.2412778085254448E-01 
    7.3361209764322199E-01 
    7.1435757876590489E-01 
    7.0328500248274239E-01 
    7.0328393574661918E-01 
    7.1435612215145083E-01 
    7.1435321920023576E-01 
    7.0328181184941874E-01 
    7.0327864665969708E-01 
    7.1434888879565805E-01 
    7.1434315576147733E-01 
    7.0327445954407053E-01 
    7.0326927426032770E-01 
    7.1433605201558104E-01 
    7.1432761677031198E-01 
    7.0326311919145845E-01 
    7.0325602733605175E-01 
    7.1431789641716958E-01 
    7.1430694428620878E-01 
    7.0324803620298781E-01 
    7.0323918766339710E-01 
    7.1429482034601399E-01 
    7.1428159087189880E-01 
    7.0322952778215608E-01 
    7.0321910663953036E-01 
    7.1426732809596072E-01 
    7.1425210984682774E-01 
    7.0320797814860092E-01 
    7.0319619987183690E-01 
    7.1423601918436896E-01 
    7.1421914403342524E-01 
    7.0318383283911967E-01 
    7.0317094136902536E-01 
    7.1420157682003105E-01 
    7.1418341411331365E-01 
    7.0315759289498447E-01 
    7.0314385779789357E-01 
    7.1416475627611709E-01 
    7.1414570712735115E-01 
    7.0312980924680646E-01 
    7.0311552304944414E-01 
    7.1412637361906950E-01 
    7.1410686553134195E-01 
    7.0310107751440909E-01 
    7.0308655332717185E-01 
    7.1408729518808711E-01 
    7.1406777719718328E-01 
    7.0307203344209124E-01 
    7.0305760299290798E-01 
    7.1404842821836234E-01 
    7.1402936676258999E-01 
    7.0304334922425504E-01 
    7.0302936144662176E-01 
    7.1401071302675057E-01 
    7.1399258876731975E-01 
    7.0301573101658865E-01 
    7.0300255134242273E-01 
    7.1397511721584261E-01 
    7.1395842303648926E-01 
    7.0298991791093191E-01 
    7.0297792832201733E-01 
    7.1394263231949406E-01 
    7.1392787258882306E-01 
    7.0296668229641579E-01 
    7.0295628157609935E-01 
    7.1391427276620201E-01 
    7.1390196294876285E-01 
    7.0294682953554299E-01 
    7.0293843009878443E-01 
    7.1389107365653670E-01 
    7.1388173372406361E-01 
    7.0293118506670405E-01 
    7.0292518791258107E-01 
    7.1387406485548233E-01 
    7.1386816822925481E-01 
    7.0292051011988887E-01 
    7.0291717426510902E-01 
    7.1386409391738259E-01 
    7.1386178827809232E-01 
    7.0291512542725498E-01 
    7.0291414740621005E-01 
    7.1386087796077258E-01 
    6.9166685795922178E-01 
    6.7951112176058004E-01 
    6.7951034190812987E-01 
    6.9166598082735220E-01 
    6.9166423600129878E-01 
    6.7950879167298839E-01 
    6.7950648561330129E-01 
    6.9166163832061522E-01 
    6.9165820503013031E-01 
    6.7950344019984743E-01 
    6.7949967420069790E-01 
    6.9165395640629268E-01 
    6.9164891597099176E-01 
    6.7949520885737047E-01 
    6.7949006792331201E-01 
    6.9164311051891614E-01 
    6.9163657006816814E-01 
    6.7948427764001063E-01 
    6.7947786668289945E-01 
    6.9162932777620201E-01 
    6.9162141983946623E-01 
    6.7947086609190965E-01 
    6.7946330919410591E-01 
    6.9161288538566223E-01 
    6.9160376636329624E-01 
    6.7945523152228338E-01 
    6.7944667073156717E-01 
    6.9159410743115790E-01 
    6.9158395584934917E-01 
    6.7943766651503668E-01 
    6.7942826051879490E-01 
    6.9157336137295755E-01 
    6.9156237614921789E-01 
    6.7941849625648920E-01 
    6.7940841902298232E-01 
    6.9155105461888144E-01 
    6.9153945342246170E-01 
    6.7939807580655898E-01 
    6.7938751519870622E-01 
    6.9152763131200257E-01 
    6.9151564906898955E-01 
    6.7937678730004003E-01 
    6.7936594362028591E-01 
    6.9150356942895919E-01 
    6.9149145701319892E-01 
    6.7935503696924116E-01 
    6.7934412133413768E-01 
    6.9147937826760431E-01 
    6.9146740140808316E-01 
    6.7933325173643666E-01 
    6.7932248405721785E-01 
    6.9145559637060183E-01 
    6.9144403476147276E-01 
    6.7931187481387700E-01 
    6.7930148085972797E-01 
    6.9143278979869860E-01 
    6.9142193622590409E-01 
    6.7929135895846260E-01 
    6.7928156514948179E-01 
    6.9141155016216593E-01 
    6.9140170881466967E-01 
    6.7927215375259287E-01 
    6.7926317573009398E-01 
    6.9139248990746172E-01 
    6.9138397052842626E-01 
    6.7925467586610355E-01 
    6.7924668769993457E-01 
    6.9137622478404936E-01 
    6.9136931900336207E-01 
    6.7923922405782799E-01 
    6.7923225862619763E-01 
    6.9136330190219442E-01 
    6.9135818451599029E-01 
    6.7922568821837448E-01 
    6.7921924910372833E-01 
    6.9135390065937297E-01 
    6.9135025228366731E-01 
    6.7921232692687972E-01 
    6.7920600511173823E-01 
    6.9134746544030645E-01 
    6.6682985482631529E-01 
    6.5363532421827586E-01 
    6.5363463897068463E-01 
    6.6682913181249515E-01 
    6.6682769539310149E-01 
    6.5363327828608897E-01 
    6.5363125718350579E-01 
    6.6682556024601680E-01 
    6.6682274280379139E-01 
    6.5362859247303018E-01 
    6.5362530275691000E-01 
    6.6681926143036407E-01 
    6.6681513655839775E-01 
    6.5362140853260287E-01 
    6.5361693224271666E-01 
    6.6681039073287285E-01 
    6.6680504860565171E-01 
    6.5361189828958532E-01 
    6.5360633302964433E-01 
    6.6679913690420567E-01 
    6.6679268438620987E-01 
    6.5360026475657429E-01 
    6.5359372367847945E-01 
    6.6678572178619655E-01 
    6.6677828175759613E-01 
    6.5358674189224397E-01 
    6.5357935335690920E-01 
    6.6677039881189504E-01 
    6.6676210925567392E-01 
    6.5357159386712127E-01 
    6.5356350102714855E-01 
    6.6675345112565298E-01 
    6.6674446412138322E-01 
    6.5355511422555368E-01 
    6.5354647461024018E-01 
    6.6673518953477873E-01 
    6.6672567017521744E-01 
    6.5353762506319557E-01 
    6.5352861017375419E-01 
    6.6671595028835273E-01 
    6.6670607546599492E-01 
    6.5351947620852391E-01 
    6.5351027107511694E-01 
    6.6669609254332418E-01 
    6.6668604947806442E-01 
    6.5350104427530042E-01 
    6.5349184684080730E-01 
    6.6667599520379661E-01 
    6.6666597944578088E-01 
    6.5348273124123424E-01 
    6.5347375124721141E-01 
    6.6665605248156301E-01 
    6.6664626481864508E-01 
    6.5346496172149804E-01 
    6.5345641829248990E-01 
    6.6663666674455357E-01 
    6.6662730767506395E-01 
    6.5344817683236778E-01 
    6.5344029260331693E-01 
    6.6661823517306773E-01 
    6.6660949341164377E-01 
    6.5343281882533577E-01 
    6.5342580420885454E-01 
    6.6660112066595978E-01 
    6.6659314504772060E-01 
    6.5341928858360354E-01 
    6.5341329492314371E-01 
    6.6658557694442211E-01 
    6.6657839502502647E-01 
    6.5340781427482375E-01 
    6.5340277573488748E-01 
    6.6657151893467126E-01 
    6.6656475156401318E-01 
    6.5339798046364550E-01 
    6.5339292749443101E-01 
    6.6655763854876338E-01 
    6.6654904958592387E-01 
    6.5338614298039055E-01 
    6.5337922411375160E-01 
    6.6654079092447494E-01 
    6.3993867541878324E-01 
    6.2575008947560418E-01 
    6.2574943299861452E-01 
    6.3993801258438832E-01 
    6.3993669687058385E-01 
    6.2574812998709683E-01 
    6.2574619579996815E-01 
    6.3993474359130487E-01 
    6.3993216993085578E-01 
    6.2574364768088742E-01 
    6.2574050447528007E-01 
    6.3992899479385801E-01 
    6.3992523887439412E-01 
    6.2573678666147059E-01 
    6.2573251639689498E-01 
    6.3992092470858020E-01 
    6.3991607670456307E-01 
    6.2572771755254419E-01 
    6.2572241573663645E-01 
    6.3991072115777481E-01 
    6.3990488625782771E-01 
    6.2571663831133695E-01 
    6.2571041440587316E-01 
    6.3989860209144256E-01 
    6.3989190064435397E-01 
    6.2570377492859230E-01 
    6.2569675257983814E-01 
    6.3988481580418255E-01 
    6.3987738336563160E-01 
    6.2568938186703416E-01 
    6.2568169912303084E-01 
    6.3986964103894350E-01 
    6.3986162846224826E-01 
    6.2567374252851471E-01 
    6.2566555213907926E-01 
    6.3985338721817320E-01 
    6.3984496085483011E-01 
    6.2565716991735010E-01 
    6.2564863977029594E-01 
    6.3983639491096378E-01 
    6.3982773694458317E-01 
    6.2564000759147220E-01 
    6.2563132130731769E-01 
    6.3981903656367045E-01 
    6.3981034545640358E-01 
    6.2562263092558812E-01 
    6.2561398858223449E-01 
    6.3980171741642600E-01 
    6.3979320835551690E-01 
    6.2560544858000144E-01 
    6.2559706740668120E-01 
    6.3978487629057057E-01 
    6.3977678128234217E-01 
    6.2558890371147591E-01 
    6.2558101820075096E-01 
    6.3976898528659687E-01 
    6.3976155184777994E-01 
    6.2557347338282687E-01 
    6.2556633303219555E-01 
    6.3975454550879707E-01 
    6.3974803070388975E-01 
    6.2555966113094430E-01 
    6.2555351982890539E-01 
    6.3974206969750336E-01 
    6.3973671873543880E-01 
    6.2554796554343939E-01 
    6.2554304147497009E-01 
    6.3973202078172164E-01 
    6.3972799150274462E-01 
    6.2553876293925836E-01 
    6.2553508674993108E-01 
    6.3972459077170141E-01 
    6.3972165734967579E-01 
    6.2553183683846303E-01 
    6.2552847480247176E-01 
    6.3971872221653603E-01 
    6.3971416622315569E-01 
    6.2552363424969493E-01 
    6.2551887758781732E-01 
    6.3970903659563760E-01 
    6.1107923423573274E-01 
    5.9593512727777331E-01 
    5.9593445764946240E-01 
    6.1107857230943774E-01 
    6.1107725825372095E-01 
    5.9593312806986765E-01 
    5.9593115359707494E-01 
    6.1107530724837889E-01 
    6.1107273630439984E-01 
    5.9592855111481191E-01 
    5.9592533883108145E-01 
    6.1106956386305811E-01 
    6.1106580978437797E-01 
    5.9592153622811228E-01 
    5.9591716407852480E-01 
    6.1106149537740184E-01 
    6.1105664342712818E-01 
    5.9591224446664082E-01 
    5.9590680080356129E-01 
    6.1105127821265814E-01 
    6.1104542551763485E-01 
    5.9590085783451219E-01 
    5.9589444163907557E-01 
    6.1103911263495458E-01 
    6.1103236836743724E-01 
    5.9588757962511707E-01 
    5.9588030051691021E-01 
    6.1102522302567208E-01 
    6.1101770842379777E-01 
    5.9587263433750914E-01 
    5.9586461238493471E-01 
    6.1100985787357787E-01 
    6.1100170617675753E-01 
    5.9585626720119300E-01 
    5.9584763253252104E-01 
    6.1099328961530885E-01 
    6.1098464593871737E-01 
    5.9583874327845376E-01 
    5.9582963542624456E-01 
    6.1097581434686477E-01 
    6.1096683546623454E-01 
    5.9582034596568978E-01 
    5.9581091277724918E-01 
    6.1095775131590990E-01 
    6.1094860525791683E-01 
    5.9580137448313319E-01 
    5.9579177024608998E-01 
    6.1093944192341942E-01 
    6.1093030710131357E-01 
    5.9578213949280112E-01 
    5.9577252152602789E-01 
    6.1092124756746979E-01 
    6.1091231081861841E-01 
    5.9576295496819009E-01 
    5.9575347694174896E-01 
    6.1090354464971819E-01 
    6.1089499646800782E-01 
    5.9574412182463576E-01 
    5.9573491929407751E-01 
    6.1088671215204959E-01 
    6.1087873410232973E-01 
    5.9572589113191277E-01 
    5.9571704578553963E-01 
    6.1087109781476301E-01 
    6.1086382567683584E-01 
    5.9570836868153798E-01 
    5.9569980406270628E-01 
    6.1085691535227959E-01 
    6.1085031694363456E-01 
    5.9569121845615447E-01 
    5.9568231814896822E-01 
    6.1084388372204879E-01 
    6.1083724485805913E-01 
    5.9567242233491013E-01 
    5.9565964321384546E-01 
    6.1082938389611197E-01 
    6.1082024636174159E-01 
    5.9564578918631816E-01 
    5.9563875602673666E-01 
    6.1081441335596076E-01 
    5.8032537425259756E-01 
    5.6425576258629839E-01 
    5.6425507966451871E-01 
    5.8032469959501343E-01 
    5.8032335995894868E-01 
    5.6425372348003622E-01 
    5.6425170926940349E-01 
    5.8032137051269850E-01 
    5.8031874836523512E-01 
    5.6424905431006978E-01 
    5.6424577726457648E-01 
    5.8031551198344833E-01 
    5.8031168111565279E-01 
    5.6424189807784708E-01 
    5.6423743798811621E-01 
    5.8030727680618222E-01 
    5.8030232142625926E-01 
    5.6423241956453396E-01 
    5.6422686675042755E-01 
    5.8029683870473048E-01 
    5.8029085375522438E-01 
    5.6422080490696291E-01 
    5.6421426085645510E-01 
    5.8028439309964119E-01 
    5.8027748468865725E-01 
    5.6420726292592394E-01 
    5.6419984099183795E-01 
    5.8027015791994163E-01 
    5.8026244365453439E-01 
    5.6419202652697509E-01 
    5.6418385265020687E-01 
    5.8025437423150450E-01 
    5.8024598348059964E-01 
    5.6417535417979336E-01 
    5.6416656769050588E-01 
    5.8023730673209617E-01 
    5.8022838082240380E-01 
    5.6415753157447879E-01 
    5.6414828610507328E-01 
    5.8021924409304149E-01 
    5.8020993637927010E-01 
    5.6413887350206082E-01 
    5.6412933799486042E-01 
    5.8020049898262105E-01 
    5.8019097461843994E-01 
    5.6411972587798609E-01 
    5.6411008554858189E-01 
    5.8018140732459411E-01 
    5.8017184230942631E-01 
    5.6410046750860043E-01 
    5.6409092430149077E-01 
    5.8016232570355908E-01 
    5.8015290415699172E-01 
    5.6408151033069742E-01 
    5.6407228146608113E-01 
    5.8014362418190912E-01 
    5.8013453106628932E-01 
    5.6406329426642543E-01 
    5.6405460449337430E-01 
    5.8012566704021762E-01 
    5.8011706809460439E-01 
    5.6404626428082461E-01 
    5.6403831665843285E-01 
    5.8010875827192754E-01 
    5.8010073899143777E-01 
    5.6403078461521272E-01 
    5.6402364811261096E-01 
    5.8009296801191623E-01 
    5.8008531461388724E-01 
    5.6401679151613682E-01 
    5.6400986515735863E-01 