# vtk DataFile Version 2.0
Pressure Field Data 
ASCII 
DATASET UNSTRUCTURED_GRID 

POINTS 1681 double 

    0.0000000000000000E+00     0.0000000000000000E+00     0.0000000000000000E+00 
    1.0000000000000000E+00     0.0000000000000000E+00     0.0000000000000000E+00 
    1.0000000000000000E+00     1.0000000000000000E+00     0.0000000000000000E+00 
    0.0000000000000000E+00     1.0000000000000000E+00     0.0000000000000000E+00 
    5.2499999999875258E-01     0.0000000000000000E+00     0.0000000000000000E+00 
    7.4999999999856765E-02     0.0000000000000000E+00     0.0000000000000000E+00 
    1.2499999999975850E-01     0.0000000000000000E+00     0.0000000000000000E+00 
    1.7499999999962990E-01     0.0000000000000000E+00     0.0000000000000000E+00 
    2.2499999999948389E-01     0.0000000000000000E+00     0.0000000000000000E+00 
    2.7499999999933789E-01     0.0000000000000000E+00     0.0000000000000000E+00 
    3.2499999999919210E-01     0.0000000000000000E+00     0.0000000000000000E+00 
    3.7499999999904610E-01     0.0000000000000000E+00     0.0000000000000000E+00 
    4.2499999999890020E-01     0.0000000000000000E+00     0.0000000000000000E+00 
    4.7499999999875958E-01     0.0000000000000000E+00     0.0000000000000000E+00 
    2.4999999999949701E-02     0.0000000000000000E+00     0.0000000000000000E+00 
    5.7499999999887907E-01     0.0000000000000000E+00     0.0000000000000000E+00 
    6.2499999999901101E-01     0.0000000000000000E+00     0.0000000000000000E+00 
    6.7499999999914273E-01     0.0000000000000000E+00     0.0000000000000000E+00 
    7.2499999999927467E-01     0.0000000000000000E+00     0.0000000000000000E+00 
    7.7499999999940661E-01     0.0000000000000000E+00     0.0000000000000000E+00 
    8.2499999999953844E-01     0.0000000000000000E+00     0.0000000000000000E+00 
    8.7499999999967026E-01     0.0000000000000000E+00     0.0000000000000000E+00 
    9.2499999999980220E-01     0.0000000000000000E+00     0.0000000000000000E+00 
    9.7499999999993414E-01     0.0000000000000000E+00     0.0000000000000000E+00 
    5.4999999999881310E-01     0.0000000000000000E+00     0.0000000000000000E+00 
    9.9999999999814140E-02     0.0000000000000000E+00     0.0000000000000000E+00 
    1.4999999999970290E-01     0.0000000000000000E+00     0.0000000000000000E+00 
    1.9999999999955689E-01     0.0000000000000000E+00     0.0000000000000000E+00 
    2.4999999999941089E-01     0.0000000000000000E+00     0.0000000000000000E+00 
    2.9999999999926502E-01     0.0000000000000000E+00     0.0000000000000000E+00 
    3.4999999999911913E-01     0.0000000000000000E+00     0.0000000000000000E+00 
    3.9999999999897312E-01     0.0000000000000000E+00     0.0000000000000000E+00 
    4.4999999999882723E-01     0.0000000000000000E+00     0.0000000000000000E+00 
    4.9999999999869210E-01     0.0000000000000000E+00     0.0000000000000000E+00 
    4.9999999999899403E-02     0.0000000000000000E+00     0.0000000000000000E+00 
    5.9999999999894504E-01     0.0000000000000000E+00     0.0000000000000000E+00 
    6.4999999999907687E-01     0.0000000000000000E+00     0.0000000000000000E+00 
    6.9999999999920870E-01     0.0000000000000000E+00     0.0000000000000000E+00 
    7.4999999999934064E-01     0.0000000000000000E+00     0.0000000000000000E+00 
    7.9999999999947247E-01     0.0000000000000000E+00     0.0000000000000000E+00 
    8.4999999999960441E-01     0.0000000000000000E+00     0.0000000000000000E+00 
    8.9999999999973623E-01     0.0000000000000000E+00     0.0000000000000000E+00 
    9.4999999999986817E-01     0.0000000000000000E+00     0.0000000000000000E+00 
    1.0000000000000000E+00     5.2499999999875258E-01     0.0000000000000000E+00 
    1.0000000000000000E+00     7.4999999999856765E-02     0.0000000000000000E+00 
    1.0000000000000000E+00     1.2499999999975850E-01     0.0000000000000000E+00 
    1.0000000000000000E+00     1.7499999999962990E-01     0.0000000000000000E+00 
    1.0000000000000000E+00     2.2499999999948389E-01     0.0000000000000000E+00 
    1.0000000000000000E+00     2.7499999999933789E-01     0.0000000000000000E+00 
    1.0000000000000000E+00     3.2499999999919210E-01     0.0000000000000000E+00 
    1.0000000000000000E+00     3.7499999999904610E-01     0.0000000000000000E+00 
    1.0000000000000000E+00     4.2499999999890020E-01     0.0000000000000000E+00 
    1.0000000000000000E+00     4.7499999999875958E-01     0.0000000000000000E+00 
    1.0000000000000000E+00     2.4999999999949701E-02     0.0000000000000000E+00 
    1.0000000000000000E+00     5.7499999999887907E-01     0.0000000000000000E+00 
    1.0000000000000000E+00     6.2499999999901101E-01     0.0000000000000000E+00 
    1.0000000000000000E+00     6.7499999999914273E-01     0.0000000000000000E+00 
    1.0000000000000000E+00     7.2499999999927467E-01     0.0000000000000000E+00 
    1.0000000000000000E+00     7.7499999999940661E-01     0.0000000000000000E+00 
    1.0000000000000000E+00     8.2499999999953844E-01     0.0000000000000000E+00 
    1.0000000000000000E+00     8.7499999999967026E-01     0.0000000000000000E+00 
    1.0000000000000000E+00     9.2499999999980220E-01     0.0000000000000000E+00 
    1.0000000000000000E+00     9.7499999999993414E-01     0.0000000000000000E+00 
    1.0000000000000000E+00     5.4999999999881310E-01     0.0000000000000000E+00 
    1.0000000000000000E+00     9.9999999999814140E-02     0.0000000000000000E+00 
    1.0000000000000000E+00     1.4999999999970290E-01     0.0000000000000000E+00 
    1.0000000000000000E+00     1.9999999999955689E-01     0.0000000000000000E+00 
    1.0000000000000000E+00     2.4999999999941089E-01     0.0000000000000000E+00 
    1.0000000000000000E+00     2.9999999999926502E-01     0.0000000000000000E+00 
    1.0000000000000000E+00     3.4999999999911913E-01     0.0000000000000000E+00 
    1.0000000000000000E+00     3.9999999999897312E-01     0.0000000000000000E+00 
    1.0000000000000000E+00     4.4999999999882723E-01     0.0000000000000000E+00 
    1.0000000000000000E+00     4.9999999999869210E-01     0.0000000000000000E+00 
    1.0000000000000000E+00     4.9999999999899403E-02     0.0000000000000000E+00 
    1.0000000000000000E+00     5.9999999999894504E-01     0.0000000000000000E+00 
    1.0000000000000000E+00     6.4999999999907687E-01     0.0000000000000000E+00 
    1.0000000000000000E+00     6.9999999999920870E-01     0.0000000000000000E+00 
    1.0000000000000000E+00     7.4999999999934064E-01     0.0000000000000000E+00 
    1.0000000000000000E+00     7.9999999999947247E-01     0.0000000000000000E+00 
    1.0000000000000000E+00     8.4999999999960441E-01     0.0000000000000000E+00 
    1.0000000000000000E+00     8.9999999999973623E-01     0.0000000000000000E+00 
    1.0000000000000000E+00     9.4999999999986817E-01     0.0000000000000000E+00 
    4.7500000000196618E-01     1.0000000000000000E+00     0.0000000000000000E+00 
    9.2499999999968763E-01     1.0000000000000000E+00     0.0000000000000000E+00 
    8.7499999999961831E-01     1.0000000000000000E+00     0.0000000000000000E+00 
    8.2499999999982654E-01     1.0000000000000000E+00     0.0000000000000000E+00 
    7.7500000000017355E-01     1.0000000000000000E+00     0.0000000000000000E+00 
    7.2500000000052045E-01     1.0000000000000000E+00     0.0000000000000000E+00 
    6.7500000000086724E-01     1.0000000000000000E+00     0.0000000000000000E+00 
    6.2500000000121403E-01     1.0000000000000000E+00     0.0000000000000000E+00 
    5.7500000000156093E-01     1.0000000000000000E+00     0.0000000000000000E+00 
    5.2500000000189684E-01     1.0000000000000000E+00     0.0000000000000000E+00 
    9.7499999999989595E-01     1.0000000000000000E+00     0.0000000000000000E+00 
    4.2500000000176902E-01     1.0000000000000000E+00     0.0000000000000000E+00 
    3.7500000000156092E-01     1.0000000000000000E+00     0.0000000000000000E+00 
    3.2500000000135282E-01     1.0000000000000000E+00     0.0000000000000000E+00 
    2.7500000000114472E-01     1.0000000000000000E+00     0.0000000000000000E+00 
    2.2500000000093659E-01     1.0000000000000000E+00     0.0000000000000000E+00 
    1.7500000000072849E-01     1.0000000000000000E+00     0.0000000000000000E+00 
    1.2500000000052039E-01     1.0000000000000000E+00     0.0000000000000000E+00 
    7.5000000000312261E-02     1.0000000000000000E+00     0.0000000000000000E+00 
    2.5000000000104109E-02     1.0000000000000000E+00     0.0000000000000000E+00 
    4.5000000000187301E-01     1.0000000000000000E+00     0.0000000000000000E+00 
    8.9999999999958358E-01     1.0000000000000000E+00     0.0000000000000000E+00 
    8.4999999999965303E-01     1.0000000000000000E+00     0.0000000000000000E+00 
    8.0000000000000004E-01     1.0000000000000000E+00     0.0000000000000000E+00 
    7.5000000000034706E-01     1.0000000000000000E+00     0.0000000000000000E+00 
    7.0000000000069384E-01     1.0000000000000000E+00     0.0000000000000000E+00 
    6.5000000000104063E-01     1.0000000000000000E+00     0.0000000000000000E+00 
    6.0000000000138742E-01     1.0000000000000000E+00     0.0000000000000000E+00 
    5.5000000000173432E-01     1.0000000000000000E+00     0.0000000000000000E+00 
    5.0000000000205946E-01     1.0000000000000000E+00     0.0000000000000000E+00 
    9.4999999999979179E-01     1.0000000000000000E+00     0.0000000000000000E+00 
    4.0000000000166491E-01     1.0000000000000000E+00     0.0000000000000000E+00 
    3.5000000000145681E-01     1.0000000000000000E+00     0.0000000000000000E+00 
    3.0000000000124871E-01     1.0000000000000000E+00     0.0000000000000000E+00 
    2.5000000000104061E-01     1.0000000000000000E+00     0.0000000000000000E+00 
    2.0000000000083251E-01     1.0000000000000000E+00     0.0000000000000000E+00 
    1.5000000000062441E-01     1.0000000000000000E+00     0.0000000000000000E+00 
    1.0000000000041630E-01     1.0000000000000000E+00     0.0000000000000000E+00 
[...]
CELL_DATA 1600 
SCALARS Pressure double 1 
LOOKUP_TABLE default 

    7.7577774974579283E-01 
    7.5727826073633564E-01 
    7.5718333376034586E-01 
    7.7387412748485207E-01 
    7.7211485720723527E-01 
    7.5701154957200112E-01 
    7.5677834346662765E-01 
    7.7048883192430673E-01 
    7.6898315211251000E-01 
    7.5649648970108940E-01 
    7.5617667428275659E-01 
    7.6758625743139519E-01 
    7.6628791385758477E-01 
    7.5582784279447701E-01 
    7.5545748484900510E-01 
    7.6507908770956157E-01 
    7.6395180906766458E-01 
    7.5507187044583957E-01 
    7.5467624734383409E-01 
    7.6289904424952448E-01 
    7.6191458165009440E-01 
    7.5427500627627053E-01 
    7.5387181945264481E-01 
    7.6099293117884437E-01 
    7.6012923629920615E-01 
    7.5346975678894235E-01 
    7.5307138352795411E-01 
    7.5931919734130560E-01 
    7.5855900473882154E-01 
    7.5267884228502802E-01 
    7.5229392204444834E-01 
    7.5784528093379278E-01 
    7.5717502982243612E-01 
    7.5191811621235471E-01 
    7.5155267148569505E-01 
    7.5654559274952793E-01 
    7.5595461018604215E-01 
    7.5119862900945489E-01 
    7.5085685905556132E-01 
    7.5539998833985522E-01 
    7.5487987005136137E-01 
    7.5052809025789580E-01 
    7.5021293427184055E-01 
    7.5439260941512543E-01 
    7.5393674964637958E-01 
    7.4991190658811713E-01 
    7.4962544411473486E-01 
    7.5351100377840552E-01 
    7.5311423783504150E-01 
    7.4935392004386425E-01 
    7.4909765643924908E-01 
    7.5274545617283084E-01 
    7.5240378873072145E-01 
    7.4885693491168215E-01 
    7.4863200569280008E-01 
    7.5208847996259875E-01 
    7.5179887925976685E-01 
    7.4842309536886853E-01 
    7.4823041349395081E-01 
    7.5153443269675635E-01 
    7.5129467595330290E-01 
    7.4805415826264066E-01 
    7.4789452138022794E-01 
    7.5107922827392248E-01 
    7.5088778731242456E-01 
    7.4775169220827453E-01 
    7.4762586114576524E-01 
    7.5072012463704607E-01 
    7.5057608142874721E-01 
    7.4751722190134573E-01 
    7.4742597135200484E-01 
    7.5045556306780370E-01 
    7.5035852807109815E-01 
    7.4735230215245663E-01 
    7.4729636880153671E-01 
    7.5028495276093099E-01 
    7.5023468936840931E-01 
    7.4725814895127984E-01 
    7.4723703528884422E-01 
    7.5020692370029896E-01 
    7.4659890726878186E-01 
    7.3705211636218526E-01 
    7.3704356630084067E-01 
    7.4657693325877883E-01 
    7.4653356082168754E-01 
    7.3702654379541377E-01 
    7.3700122663452949E-01 
    7.4646984737627908E-01 
    7.4638714763436176E-01 
    7.3696787458143975E-01 
    7.3692682207106641E-01 
    7.4628701133257369E-01 
    7.4617110377504403E-01 
    7.3687846856638539E-01 
    7.3682326836627354E-01 
    7.4604114512155162E-01 
    7.4589886480229772E-01 
    7.3676172059070388E-01 
    7.3669435971606045E-01 
    7.4574596795197756E-01 
    7.4558411131292290E-01 
    7.3662174686297233E-01 
    7.3654446193831558E-01 
    7.4541488654447952E-01 
    7.4523980928119471E-01 
    7.3646309666786725E-01 
    7.3637824851286049E-01 
    7.4506031261399397E-01 
    7.4487774393786521E-01 
    7.3629051543524260E-01 
    7.3620049145850086E-01 
    7.4469336432750888E-01 
    7.4450834977828317E-01 
    7.3610876296049177E-01 
    7.3601590562967667E-01 
    7.4432379379139546E-01 
    7.4414071089607015E-01 
    7.3592248201496813E-01 
    7.3582903960085155E-01 
    7.4396004079261990E-01 
    7.4378265287327117E-01 
    7.3573610934270373E-01 
    7.3564420460162960E-01 
    7.4360935093571701E-01 
    7.4344087795059755E-01 
    7.3555382042321904E-01 
    7.3546543311003576E-01 
    7.4327792078068167E-01 
    7.4312111477839049E-01 
    7.3537950004311003E-01 
    7.3529645971304447E-01 
    7.4297104821091609E-01 
    7.4282826647972056E-01 
    7.3521673192630255E-01 
    7.3514071815656257E-01 
    7.4269327611447999E-01 
    7.4256654853092852E-01 
    7.3506880201411784E-01 
    7.3500134980695886E-01 
    7.4244852354725632E-01 
    7.4233961265285031E-01 
    7.3493871116252596E-01 
    7.3488121966202380E-01 
    7.4224020201073104E-01 
    7.4215065513549594E-01 
    7.3482919339077812E-01 
    7.3478293517493132E-01 
    7.4207131507619517E-01 
    7.4200250560256586E-01 
    7.3474273189366812E-01 
    7.3470885109127593E-01 
    7.4194452983261572E-01 
    7.4189766101160037E-01 
    7.3468152931764064E-01 
    7.3466093399983035E-01 
    7.4186210624784221E-01 
    7.4183787621359965E-01 
    7.3464704539547221E-01 
    7.3463948172020821E-01 
    7.4182452625468942E-01 
    7.2747988088683135E-01 
    7.1753392720190856E-01 
    7.1753167942640006E-01 
    7.2747579970884335E-01 
    7.2746766099547211E-01 
    7.1752719651600960E-01 
    7.1752050556823843E-01 
    7.2745552093526544E-01 
    7.2743946335666232E-01 
    7.1751164537050094E-01 
    7.1750066766757847E-01 
    7.2741960026772789E-01 
    7.2739607061548350E-01 
    7.1748763712977415E-01 
    7.1747263090247626E-01 
    7.2736903841559142E-01 
    7.2733869058904410E-01 
    7.1745573797535189E-01 
    7.1743705845628591E-01 
    7.2730523465456354E-01 
    7.2726889636391190E-01 
    7.1741670278944025E-01 
    7.1739479094016390E-01 
    7.2722991734009357E-01 
    7.2718855276279026E-01 
    7.1737145156238102E-01 
    7.1734682116056359E-01 
    7.2714506913448684E-01 
    7.2709974215228756E-01 
    7.1732104325631330E-01 
    7.1729426756815085E-01 
    7.2705285470353198E-01 
    7.2700469499762521E-01 
    7.1726664921195804E-01 
    7.1723834792858443E-01 
    7.2695555484178431E-01 
    7.2690572806458575E-01 
    7.1720952734428467E-01 
    7.1718035426893556E-01 
    7.2685550908814534E-01 
    7.2680519164741120E-01 
    7.1715099803638760E-01 
    7.1712162989079420E-01 
    7.2675506765330267E-01 
    7.2670542619521994E-01 
    7.1709242242240689E-01 
    7.1706354905605796E-01 
    7.2665655267769746E-01 
    7.2660872808558363E-01 
    7.1703518359538521E-01 
    7.1700749982571332E-01 
    7.2656222837201234E-01 
    7.2651732396337809E-01 
    7.1698067117824593E-01 
    7.1695487045749262E-01 
    7.2647427937524511E-01 
    7.2643335293189537E-01 
    7.1693026963191775E-01 
    7.1690703968286584E-01 
    7.2639479657858319E-01 
    7.2635885576598491E-01 
    7.1688535049487390E-01 
    7.1686537074167089E-01 
    7.2632576936226112E-01 
    7.2629576948749697E-01 
    7.1684726765197881E-01 
    7.1683120636359476E-01 
    7.2626908100776300E-01 
    7.2624591999711408E-01 
    7.1681734811922915E-01 
    7.1680584533864700E-01 
    7.2622648924436439E-01 
    7.2621096520306749E-01 
    7.1679682829944613E-01 
    7.1679036982559208E-01 
    7.2619945998983593E-01 
    7.2619191827549845E-01 
    7.1678640158820806E-01 
    7.1678452287944527E-01 
    7.2618795786546630E-01 
    7.0709418323239626E-01 
    6.9612296323845757E-01 
    6.9612192865508238E-01 
    7.0709276003725918E-01 
    7.0708992350345512E-01 
    6.9611986865166275E-01 
    6.9611679842800989E-01 
    7.0708569181267122E-01 
    7.0708008899133812E-01 
    6.9611273660502193E-01 
    6.9610770612886519E-01 
    7.0707314606496119E-01 
    7.0706490125654375E-01 
    6.9610173450511292E-01 
    6.9609485378976832E-01 
    7.0705539987218735E-01 
    7.0704469406298665E-01 
    6.9608710048563216E-01 
    6.9607851539667276E-01 
    7.0703284252827059E-01 
    7.0701991018737720E-01 
    6.9606914346238935E-01 
    6.9605903358259469E-01 
    7.0700596783334224E-01 
    7.0699109177619479E-01 
    6.9604823843813601E-01 
    6.9603681431084563E-01 
    7.0697536348104173E-01 
    7.0695886920494155E-01 
    6.9602482090498197E-01 
    6.9601232117194700E-01 
    7.0694169963599707E-01 
    7.0692394953781712E-01 
    6.9599938113989113E-01 
    6.9598606974977872E-01 
    7.0690571740236252E-01 
    7.0688710511413766E-01 
    6.9597245869956359E-01 
    6.9595862229823591E-01 
    7.0686821762870033E-01 
    7.0684916266850994E-01 
    6.9594463733168022E-01 
    6.9593058294248700E-01 
    7.0683005043923286E-01 
    7.0681099336977560E-01 
    6.9591654052610585E-01 
    6.9590259364597362E-01 
    7.0679210587949748E-01 
    7.0677350417626239E-01 
    6.9588882797047158E-01 
    6.9587533123465395E-01 
    7.0675530608913750E-01 
    7.0673763093947017E-01 
    6.9586219322940612E-01 
    6.9584950581953631E-01 
    7.0672059945337373E-01 
    7.0670433371646013E-01 
    6.9583736298918142E-01 
    6.9582586090540544E-01 
    7.0668895716594127E-01 
    7.0667459460140158E-01 
    6.9581509797368479E-01 
    6.9580517482027449E-01 
    7.0666137216287861E-01 
    7.0664941714758955E-01 
    6.9579619404968096E-01 
    6.9578825943066258E-01 
    7.0663885735152332E-01 
    7.0662981917107393E-01 
    6.9578147372798638E-01 
    6.9577593344463629E-01 
    7.0662242259203822E-01 
    7.0661676855574818E-01 
    6.9577171687240669E-01 
    6.9576885988867720E-01 
    7.0661290900725615E-01 
    7.0661078951260181E-01 
    6.9576732745896108E-01 
    6.9576681503010707E-01 
    7.0661001536653900E-01 
    6.8461514167106241E-01 
    6.7257843304415843E-01 
    6.7257768124471973E-01 
    6.8461429528269080E-01 
    6.8461261154737885E-01 
    6.7257618671305153E-01 
    6.7257396336224018E-01 
    6.8461010466906758E-01 
    6.8460679119303802E-01 
    6.7257102694663962E-01 
    6.7256739547264821E-01 
    6.8460269065198665E-01 
    6.8459782578258765E-01 
    6.7256308937934095E-01 
    6.7255813157847089E-01 
    6.8459222255430741E-01 
    6.8458591012216852E-01 
    6.7255254743228854E-01 
    6.7254636470193940E-01 
    6.8457892074570559E-01 
    6.8457128969241632E-01 
    6.7253961348139779E-01 
    6.7253232612438951E-01 
    6.8456305513454307E-01 
    6.8455425804382242E-01 
    6.7252453716822092E-01 
    6.7251628325663659E-01 
    6.8454494208685190E-01 
    6.8453515352274008E-01 
    6.7250760306286694E-01 
    6.7249853721346919E-01 
    6.8452494110422923E-01 
    6.8451435598326105E-01 
    6.7248912821324180E-01 
    6.7247942037124608E-01 
    6.8450345162188431E-01 
    6.8449228370940784E-01 
    6.7246945972778049E-01 
    6.7245929398193605E-01 
    6.8448091008675715E-01 
    6.8446939067906165E-01 
    6.7244897241908730E-01 
    6.7243854583726936E-01 
    6.8445778743758456E-01 
    6.8444616429213589E-01 
    6.7242806647077691E-01 
    6.7241758790834405E-01 
    6.8443458711507799E-01 
    6.8442312369778746E-01 
    6.7240716500165520E-01 
    6.7239685375726532E-01 
    6.8441184373981556E-01 
    6.8440081884955462E-01 
    6.7238671120041937E-01 
    6.7237679519117288E-01 
    6.8439012255216747E-01 
    6.8437983029420568E-01 
    6.7236716415863351E-01 
    6.7235787669205016E-01 
    6.8437001942128450E-01 
    6.8436076907821575E-01 
    6.7234899087592592E-01 
    6.7234056315597313E-01 
    6.8435215992504139E-01 
    6.8434427344576843E-01 
    6.7233264632364909E-01 
    6.7232528580572848E-01 
    6.8433719038337937E-01 
    6.8433098733182673E-01 
    6.7231851262173803E-01 
    6.7231232963366572E-01 
    6.8432572951112502E-01 
    6.8432145597720540E-01 
    6.7230668385643511E-01 
    6.7230140839190966E-01 
    6.8431815207342117E-01 
    6.8431572386071016E-01 
    6.7229611229083885E-01 
    6.7229147469510142E-01 
    6.8431416045083671E-01 
    6.6002487816109245E-01 
    6.4696690685641844E-01 
    6.4696624461794028E-01 
    6.6002417970735905E-01 
    6.6002279197099101E-01 
    6.4696492949819073E-01 
    6.4696297577163286E-01 
    6.6002072892046815E-01 
    6.6001800617382045E-01 
    6.4696039937563798E-01 
    6.4695721794435979E-01 
    6.6001464120511344E-01 
    6.6001065348558974E-01 
    6.4695345091523859E-01 
    6.4694911957562418E-01 
    6.6000606452606936E-01 
    6.6000089786935556E-01 
    6.4694424707202502E-01 
    6.4693885839824616E-01 
    6.5999517905670735E-01 
    6.5998893558023741E-01 
    6.4693298037157587E-01 
    6.4692664160221203E-01 
    6.5998219682739434E-01 
    6.5997499402079818E-01 
    6.4691987245890248E-01 
    6.4691270503244491E-01 
    6.5996736015509672E-01 
    6.5995932993156203E-01 
    6.4690517309785611E-01 
    6.4689731207545420E-01 
    6.5995093969052898E-01 
    6.5994222734130292E-01 
    6.4688915899064459E-01 
    6.4688075243178500E-01 
    6.5993323228876133E-01 
    6.5992399535542534E-01 
    6.4687213250505182E-01 
    6.4686334078466745E-01 
    6.5991455869725324E-01 
    6.5990496571069335E-01 
    6.4685442025607043E-01 
    6.4684541524851447E-01 
    6.5989526092755102E-01 
    6.5988548989276308E-01 
    6.4683637135192829E-01 
    6.4682733531035763E-01 
    6.5987569901800847E-01 
    6.5986593540071048E-01 
    6.4681835488035844E-01 
    6.4680947863633875E-01 
    6.5985624659263942E-01 
    6.5984668029356963E-01 
    6.4680075569428930E-01 
    6.4679223530735519E-01 
    6.5983728393066110E-01 
    6.5982810405850922E-01 
    6.4678396625514245E-01 
    6.4677599589165469E-01 
    6.5981918546856577E-01 
    6.5981056981097563E-01 
    6.4676836861092091E-01 
    6.4676112328767732E-01 
    6.5980229336864848E-01 
    6.5979438330393558E-01 
    6.4675428885607966E-01 
    6.4674787639270737E-01 
    6.5978685105463675E-01 
    6.5977968020045896E-01 
    6.4674186436273340E-01 
    6.4673616958580260E-01 
    6.5977280302765773E-01 
    6.5976605189657911E-01 
    6.4673058456774801E-01 
    6.4672461741729481E-01 
    6.5975904522203754E-01 
    6.5975088369904467E-01 
    6.4671694115834966E-01 
    6.4670931852742053E-01 
    6.5974313272776752E-01 
    6.3341572994379880E-01 
    6.1938129045775325E-01 
    6.1938066375535261E-01 
    6.3341509243098681E-01 
    6.3341382694934534E-01 
    6.1937941996052293E-01 
    6.1937757388933290E-01 
    6.3341194813649626E-01 
    6.3340947239259515E-01 
    6.1937514218242384E-01 
    6.1937214306280608E-01 
    6.3340641776703122E-01 
    6.3340280403353144E-01 
    6.1936859637733188E-01 
    6.1936452364550287E-01 
    6.3339865274109308E-01 
    6.3339398724010043E-01 
    6.1935994809455852E-01 
    6.1935489468350180E-01 
    6.3338883269283053E-01 
    6.3338321607506376E-01 
    6.1934939012039381E-01 
    6.1934346287642461E-01 
    6.3337716617319872E-01 
    6.3337071357971197E-01 
    6.1933714319933419E-01 
    6.1933046312804374E-01 
    6.3336389068878829E-01 
    6.3335673169330420E-01 
    6.1932345650986387E-01 
    6.1931615902129533E-01 
    6.3334927258388418E-01 
    6.3334155115041468E-01 
    6.1930860819319289E-01 
    6.1930084344085712E-01 
    6.3333360698610774E-01 
    6.3332548149388412E-01 
    6.1929290609941312E-01 
    6.1928483946458301E-01 
    6.3331721789446116E-01 
    6.3330886123496544E-01 
    6.1927668883857834E-01 
    6.1926850158024194E-01 
    6.3330045839606075E-01 
    6.3329205809428002E-01 
    6.1926032715757717E-01 
    6.1925221719913581E-01 
    6.3328371087416013E-01 
    6.3327546908137677E-01 
    6.1924422553788783E-01 
    6.1923640823624371E-01 
    6.3326738680236461E-01 
    6.3325951974615546E-01 
    6.1922882357214015E-01 
    6.1922153195033292E-01 
    6.3325192502705252E-01 
    6.3324466077609098E-01 
    6.1921459567414372E-01 
    6.1920807845900683E-01 
    6.3323778545289167E-01 
    6.3323135662385599E-01 
    6.1920204446718752E-01 
    6.1919655644794869E-01 
    6.3322542877068189E-01 
    6.3322004929980624E-01 
    6.1919167218981852E-01 
    6.1918743773936702E-01 
    6.3321525113339827E-01 
    6.3321103855793215E-01 
    6.1918387420035137E-01 
    6.1918095054585809E-01 
    6.3320735871972855E-01 
    6.3320403746405929E-01 
    6.1917851930463685E-01 
    6.1917612353791385E-01 
    6.3320060142260992E-01 
    6.3319549203028913E-01 
    6.1917218787332706E-01 
    6.1916765894276871E-01 
    6.3318988289038158E-01 
    6.0487286804106588E-01 
    5.8989933870579325E-01 
    5.8989869961679042E-01 
    6.0487223842907645E-01 
    6.0487098872021283E-01 
    5.8989743079479784E-01 
    5.8989554676095168E-01 
    6.0486913363701711E-01 
    6.0486668970134394E-01 
    5.8989306378441675E-01 
    5.8988999942438269E-01 
    6.0486367487752191E-01 
    6.0486010857538242E-01 
    5.8988637249270948E-01 
    5.8988220307379136E-01 
    6.0485601168748360E-01 
    6.0485140662155501E-01 
    5.8987751254692056E-01 
    5.8987232360184005E-01 
    6.0484631732467609E-01 
    6.0484076930106445E-01 
    5.8986666024677570E-01 
    5.8986054780992614E-01 
    6.0483478962586690E-01 
    6.0482840695696638E-01 
    5.8985401293545792E-01 
    5.8984708357470861E-01 
    6.0482165154634282E-01 
    6.0481455525212635E-01 
    5.8983978897288136E-01 
    5.8983215965108915E-01 
    6.0480715155216624E-01 
    6.0479947555968461E-01 
    5.8982422738315055E-01 
    5.8981602516603637E-01 
    6.0479156404134948E-01 
    6.0478345543784884E-01 
    5.8980758718224036E-01 
    5.8979894875151817E-01 
    6.0477518988671619E-01 
    6.0476680924667836E-01 
    5.8979014626828852E-01 
    5.8978121711930231E-01 
    6.0475835712203208E-01 
    6.0474987888434173E-01 
    5.8977219957366211E-01 
    5.8976313263335900E-01 
    6.0474142168670642E-01 
    6.0473303446241089E-01 
    5.8975405582627694E-01 
    5.8974500891338422E-01 
    6.0472476789381624E-01 
    6.0471667432687448E-01 
    5.8973603146456222E-01 
    5.8972716222739630E-01 
    6.0470880758779189E-01 
    6.0470122262374293E-01 
    5.8971843815901204E-01 
    5.8970989289035924E-01 
    6.0469397482469500E-01 
    6.0468711875997683E-01 
    5.8970155419993053E-01 
    5.8969343969498078E-01 
    6.0468070582476752E-01 
    6.0467477982280604E-01 
    5.8968554912469662E-01 
    5.8967785006946527E-01 
    6.0466936855072839E-01 
    6.0466446724240053E-01 
    5.8967024961055947E-01 
    5.8966253196298302E-01 
    6.0466000337450254E-01 
    6.0465574796814892E-01 
    5.8965419226116711E-01 
    5.8964386001013025E-01 
    6.0465103009976406E-01 
    6.0464493885800974E-01 
    5.8963237947407843E-01 
    5.8962602575597367E-01 
    6.0464000220595893E-01 
    5.7446866796493989E-01 
    5.5858713901803636E-01 
    5.5858648728464000E-01 
    5.7446802173088640E-01 
    5.7446673856390285E-01 
    5.5858519315014599E-01 
    5.5858327129194252E-01 
    5.7446483298226003E-01 
    5.7446232130694297E-01 
    5.5858073832719601E-01 
    5.5857761220229663E-01 
    5.7445922112026526E-01 
    5.7445555119771408E-01 
    5.5857391210286644E-01 
    5.5856965846662943E-01 
    5.7445133151975447E-01 
    5.7444658329522313E-01 
    5.5856487301888358E-01 
    5.5855957881176443E-01 
    5.7444132898188449E-01 
    5.7443559230127639E-01 
    5.5855380026280588E-01 
    5.5854756319228616E-01 
    5.7442939824781070E-01 
    5.7442277309263157E-01 
    5.5854089485995950E-01 
    5.5853382400200657E-01 
    5.7441574438261289E-01 
    5.7440834093453441E-01 
    5.5852638086894801E-01 
    5.5851859726507569E-01 
    5.7440059282405598E-01 
    5.7439253136860469E-01 
    5.5851050658969770E-01 
    5.5850214388013331E-01 
    5.7438418910269118E-01 
    5.7437559974339059E-01 
    5.5849354585593114E-01 
    5.5848475096307160E-01 
    5.7436679814266012E-01 
    5.7435782022167603E-01 
    5.5847579941586023E-01 
    5.5846673323254714E-01 
    5.7434870288017037E-01 
    5.7433948387046008E-01 
    5.5845759625806424E-01 
    5.5844843416295231E-01 
    5.7433020162076387E-01 
    5.7432089498428995E-01 
    5.5843929440034201E-01 
    5.5843022609056037E-01 
    5.7431160287729566E-01 
    5.7430236374685661E-01 
    5.5842127978141454E-01 
    5.5841250699348499E-01 
    5.7429321476988804E-01 
    5.7428419061398583E-01 
    5.5840395938753529E-01 
    5.5839568725167521E-01 
    5.7427532145758253E-01 
    5.7426662970830344E-01 
    5.5838773672647901E-01 
    5.5838014460089813E-01 
    5.7425812433559675E-01 
    5.7424979062426451E-01 
    5.5837292821408546E-01 
    5.5836606485834872E-01 
    5.7424157061552028E-01 
    5.7423332284752815E-01 
    5.5835944629982248E-01 
    5.5835276389777200E-01 