# vtk DataFile Version 2.0
Pressure Field Data 
ASCII 
DATASET UNSTRUCTURED_GRID 

POINTS 1681 double 

    0.0000000000000000E+00     0.0000000000000000E+00     0.0000000000000000E+00 
    1.0000000000000000E+00     0.0000000000000000E+00     0.0000000000000000E+00 
    1.0000000000000000E+00     1.0000000000000000E+00     0.0000000000000000E+00 
    0.0000000000000000E+00     1.0000000000000000E+00     0.0000000000000000E+00 
    5.2499999999875258E-01     0.0000000000000000E+00     0.0000000000000000E+00 
    7.4999999999856765E-02     0.0000000000000000E+00     0.0000000000000000E+00 
    1.2499999999975850E-01     0.0000000000000000E+00     0.0000000000000000E+00 
    1.7499999999962990E-01     0.0000000000000000E+00     0.0000000000000000E+00 
    2.2499999999948389E-01     0.0000000000000000E+00     0.0000000000000000E+00 
    2.7499999999933789E-01     0.0000000000000000E+00     0.0000000000000000E+00 
    3.2499999999919210E-01     0.0000000000000000E+00     0.0000000000000000E+00 
    3.7499999999904610E-01     0.0000000000000000E+00     0.0000000000000000E+00 
    4.2499999999890020E-01     0.0000000000000000E+00     0.0000000000000000E+00 
    4.7499999999875958E-01     0.0000000000000000E+00     0.0000000000000000E+00 
    2.4999999999949701E-02     0.0000000000000000E+00     0.0000000000000000E+00 
    5.7499999999887907E-01     0.0000000000000000E+00     0.0000000000000000E+00 
    6.2499999999901101E-01     0.0000000000000000E+00     0.0000000000000000E+00 
    6.7499999999914273E-01     0.0000000000000000E+00     0.0000000000000000E+00 
    7.2499999999927467E-01     0.0000000000000000E+00     0.0000000000000000E+00 
    7.7499999999940661E-01     0.0000000000000000E+00     0.0000000000000000E+00 
    8.2499999999953844E-01     0.0000000000000000E+00     0.0000000000000000E+00 
    8.7499999999967026E-01     0.0000000000000000E+00     0.0000000000000000E+00 
    9.2499999999980220E-01     0.0000000000000000E+00     0.0000000000000000E+00 
    9.7499999999993414E-01     0.0000000000000000E+00     0.0000000000000000E+00 
    5.4999999999881310E-01     0.0000000000000000E+00     0.0000000000000000E+00 
    9.9999999999814140E-02     0.0000000000000000E+00     0.0000000000000000E+00 
    1.4999999999970290E-01     0.0000000000000000E+00     0.0000000000000000E+00 
    1.9999999999955689E-01     0.0000000000000000E+00     0.0000000000000000E+00 
    2.4999999999941089E-01     0.0000000000000000E+00     0.0000000000000000E+00 
    2.9999999999926502E-01     0.0000000000000000E+00     0.0000000000000000E+00 
    3.4999999999911913E-01     0.0000000000000000E+00     0.0000000000000000E+00 
    3.9999999999897312E-01     0.0000000000000000E+00     0.0000000000000000E+00 
    4.4999999999882723E-01     0.0000000000000000E+00     0.0000000000000000E+00 
    4.9999999999869210E-01     0.0000000000000000E+00     0.0000000000000000E+00 
    4.9999999999899403E-02     0.0000000000000000E+00     0.0000000000000000E+00 
    5.9999999999894504E-01     0.0000000000000000E+00     0.0000000000000000E+00 
    6.4999999999907687E-01     0.0000000000000000E+00     0.0000000000000000E+00 
    6.9999999999920870E-01     0.0000000000000000E+00     0.0000000000000000E+00 
    7.4999999999934064E-01     0.0000000000000000E+00     0.0000000000000000E+00 
    7.9999999999947247E-01     0.0000000000000000E+00     0.0000000000000000E+00 
    8.4999999999960441E-01     0.0000000000000000E+00     0.0000000000000000E+00 
    8.9999999999973623E-01     0.0000000000000000E+00     0.0000000000000000E+00 
    9.4999999999986817E-01     0.0000000000000000E+00     0.0000000000000000E+00 
    1.0000000000000000E+00     5.2499999999875258E-01     0.0000000000000000E+00 
    1.0000000000000000E+00     7.4999999999856765E-02     0.0000000000000000E+00 
    1.0000000000000000E+00     1.2499999999975850E-01     0.0000000000000000E+00 
    1.0000000000000000E+00     1.7499999999962990E-01     0.0000000000000000E+00 
    1.0000000000000000E+00     2.2499999999948389E-01     0.0000000000000000E+00 
    1.0000000000000000E+00     2.7499999999933789E-01     0.0000000000000000E+00 
    1.0000000000000000E+00     3.2499999999919210E-01     0.0000000000000000E+00 
    1.0000000000000000E+00     3.7499999999904610E-01     0.0000000000000000E+00 
    1.0000000000000000E+00     4.2499999999890020E-01     0.0000000000000000E+00 
    1.0000000000000000E+00     4.7499999999875958E-01     0.0000000000000000E+00 
    1.0000000000000000E+00     2.4999999999949701E-02     0.0000000000000000E+00 
    1.0000000000000000E+00     5.7499999999887907E-01     0.0000000000000000E+00 
    1.0000000000000000E+00     6.2499999999901101E-01     0.0000000000000000E+00 
    1.0000000000000000E+00     6.7499999999914273E-01     0.0000000000000000E+00 
    1.0000000000000000E+00     7.2499999999927467E-01     0.0000000000000000E+00 
    1.0000000000000000E+00     7.7499999999940661E-01     0.0000000000000000E+00 
    1.0000000000000000E+00     8.2499999999953844E-01     0.0000000000000000E+00 
    1.0000000000000000E+00     8.7499999999967026E-01     0.0000000000000000E+00 
    1.0000000000000000E+00     9.2499999999980220E-01     0.0000000000000000E+00 
    1.0000000000000000E+00     9.7499999999993414E-01     0.0000000000000000E+00 
    1.0000000000000000E+00     5.4999999999881310E-01     0.0000000000000000E+00 
    1.0000000000000000E+00     9.9999999999814140E-02     0.0000000000000000E+00 
    1.0000000000000000E+00     1.4999999999970290E-01     0.0000000000000000E+00 
    1.0000000000000000E+00     1.9999999999955689E-01     0.0000000000000000E+00 
    1.0000000000000000E+00     2.4999999999941089E-01     0.0000000000000000E+00 
    1.0000000000000000E+00     2.9999999999926502E-01     0.0000000000000000E+00 
    1.0000000000000000E+00     3.4999999999911913E-01     0.0000000000000000E+00 
    1.0000000000000000E+00     3.9999999999897312E-01     0.0000000000000000E+00 
    1.0000000000000000E+00     4.4999999999882723E-01     0.0000000000000000E+00 
    1.0000000000000000E+00     4.9999999999869210E-01     0.0000000000000000E+00 
    1.0000000000000000E+00     4.9999999999899403E-02     0.0000000000000000E+00 
    1.0000000000000000E+00     5.9999999999894504E-01     0.0000000000000000E+00 
    1.0000000000000000E+00     6.4999999999907687E-01     0.0000000000000000E+00 
    1.0000000000000000E+00     6.9999999999920870E-01     0.0000000000000000E+00 
    1.0000000000000000E+00     7.4999999999934064E-01     0.0000000000000000E+00 
    1.0000000000000000E+00     7.9999999999947247E-01     0.0000000000000000E+00 
    1.0000000000000000E+00     8.4999999999960441E-01     0.0000000000000000E+00 
    1.0000000000000000E+00     8.9999999999973623E-01     0.0000000000000000E+00 
    1.0000000000000000E+00     9.4999999999986817E-01     0.0000000000000000E+00 
    4.7500000000196618E-01     1.0000000000000000E+00     0.0000000000000000E+00 
    9.2499999999968763E-01     1.0000000000000000E+00     0.0000000000000000E+00 
    8.7499999999961831E-01     1.0000000000000000E+00     0.0000000000000000E+00 
    8.2499999999982654E-01     1.0000000000000000E+00     0.0000000000000000E+00 
    7.7500000000017355E-01     1.0000000000000000E+00     0.0000000000000000E+00 
    7.2500000000052045E-01     1.0000000000000000E+00     0.0000000000000000E+00 
    6.7500000000086724E-01     1.0000000000000000E+00     0.0000000000000000E+00 
    6.2500000000121403E-01     1.0000000000000000E+00     0.0000000000000000E+00 
    5.7500000000156093E-01     1.0000000000000000E+00     0.0000000000000000E+00 
    5.2500000000189684E-01     1.0000000000000000E+00     0.0000000000000000E+00 
    9.7499999999989595E-01     1.0000000000000000E+00     0.0000000000000000E+00 
    4.2500000000176902E-01     1.0000000000000000E+00     0.0000000000000000E+00 
    3.7500000000156092E-01     1.0000000000000000E+00     0.0000000000000000E+00 
    3.2500000000135282E-01     1.0000000000000000E+00     0.0000000000000000E+00 
    2.7500000000114472E-01     1.0000000000000000E+00     0.0000000000000000E+00 
    2.2500000000093659E-01     1.0000000000000000E+00     0.0000000000000000E+00 
    1.7500000000072849E-01     1.0000000000000000E+00     0.0000000000000000E+00 
    1.2500000000052039E-01     1.0000000000000000E+00     0.0000000000000000E+00 
    7.5000000000312261E-02     1.0000000000000000E+00     0.0000000000000000E+00 
    2.5000000000104109E-02     1.0000000000000000E+00     0.0000000000000000E+00 
    4.5000000000187301E-01     1.0000000000000000E+00     0.0000000000000000E+00 
    8.9999999999958358E-01     1.0000000000000000E+00     0.0000000000000000E+00 
    8.4999999999965303E-01     1.0000000000000000E+00     0.0000000000000000E+00 
    8.0000000000000004E-01     1.0000000000000000E+00     0.0000000000000000E+00 
    7.5000000000034706E-01     1.0000000000000000E+00     0.0000000000000000E+00 
    7.0000000000069384E-01     1.0000000000000000E+00     0.0000000000000000E+00 
    6.5000000000104063E-01     1.0000000000000000E+00     0.0000000000000000E+00 
    6.0000000000138742E-01     1.0000000000000000E+00     0.0000000000000000E+00 
    5.5000000000173432E-01     1.0000000000000000E+00     0.0000000000000000E+00 
    5.0000000000205946E-01     1.0000000000000000E+00     0.0000000000000000E+00 
    9.4999999999979179E-01     1.0000000000000000E+00     0.0000000000000000E+00 
    4.0000000000166491E-01     1.0000000000000000E+00     0.0000000000000000E+00 
    3.5000000000145681E-01     1.0000000000000000E+00     0.0000000000000000E+00 
    3.0000000000124871E-01     1.0000000000000000E+00     0.0000000000000000E+00 
    2.5000000000104061E-01     1.0000000000000000E+00     0.0000000000000000E+00 
    2.0000000000083251E-01     1.0000000000000000E+00     0.0000000000000000E+00 
    1.5000000000062441E-01     1.0000000000000000E+00     0.0000000000000000E+00 
    1.0000000000041630E-01     1.0000000000000000E+00     0.0000000000000000E+00 
[...]
CELL_DATA 1600 
SCALARS Pressure double 1 
LOOKUP_TABLE default 

    1.0602094534416602E+00 
    1.0343361044835335E+00 
    1.0341850710292451E+00 
    1.0581032778363573E+00 
    1.0560362029009076E+00 
    1.0339031581801865E+00 
    1.0335130508791404E+00 
    1.0540469844092482E+00 
    1.0521350553406872E+00 
    1.0330315662245644E+00 
    1.0324730300188572E+00 
    1.0502970261227444E+00 
    1.0485288679530502E+00 
    1.0318497952903574E+00 
    1.0311725687668380E+00 
    1.0468265428338002E+00 
    1.0451862340058096E+00 
    1.0304506572642480E+00 
    1.0296921653910527E+00 
    1.0436044319784077E+00 
    1.0420779588817373E+00 
    1.0289041580770610E+00 
    1.0280927952118109E+00 
    1.0406039639725511E+00 
    1.0391799049550676E+00 
    1.0272634427476066E+00 
    1.0264207628050595E+00 
    1.0378035220287756E+00 
    1.0364728077954188E+00 
    1.0255687838167726E+00 
    1.0247109501028444E+00 
    1.0351859739987896E+00 
    1.0339414145053409E+00 
    1.0238501480225832E+00 
    1.0229887022424080E+00 
    1.0327376623632516E+00 
    1.0315733366531838E+00 
    1.0221283292542818E+00 
    1.0212700231676446E+00 
    1.0304470713700367E+00 
    1.0293574122493174E+00 
    1.0204138258786737E+00 
    1.0195583979688607E+00 
    1.0283026550256240E+00 
    1.0272805724083929E+00 
    1.0187003187989974E+00 
    1.0178336211475421E+00 
    1.0262879179358859E+00 
    1.0253194577298450E+00 
    1.0169532928705884E+00 
    1.0160638116175322E+00 
    1.0243660382353876E+00 
    1.0234123191459887E+00 
    1.0151705327004947E+00 
    1.0142938327742150E+00 
    1.0224484576904636E+00 
    1.0214807472909311E+00 
    1.0134823497327112E+00 
    1.0127598202569839E+00 
    1.0205778057828832E+00 
    1.0198059606521428E+00 
    1.0121224045301784E+00 
    1.0115578102891920E+00 
    1.0191388178186149E+00 
    1.0185487572733207E+00 
    1.0110570903505633E+00 
    1.0106197305239568E+00 
    1.0180343701607086E+00 
    1.0175948783979605E+00 
    1.0102454255546784E+00 
    1.0099339117406083E+00 
    1.0172296235326170E+00 
    1.0169380627257771E+00 
    1.0096849679442064E+00 
    1.0094984163855130E+00 
    1.0167197655025890E+00 
    1.0165744111997757E+00 
    1.0093741232391296E+00 
    1.0093119990605890E+00 
    1.0165017870783835E+00 
    1.0138112790506684E+00 
    9.9202411743158914E-01 
    9.9198564489808327E-01 
    1.0137552178478577E+00 
    1.0136436330080016E+00 
    9.9190858470882703E-01 
    9.9179322855474705E-01 
    1.0134784253352707E+00 
    1.0132619668117755E+00 
    9.9164000235896099E-01 
    9.9144940778130197E-01 
    1.0129969083722139E+00 
    1.0126860784206082E+00 
    9.9122198642244741E-01 
    9.9095827949496229E-01 
    1.0123323943488380E+00 
    1.0119387873480274E+00 
    9.9065877934548063E-01 
    9.9032387202955252E-01 
    1.0115081382086064E+00 
    1.0110432207875621E+00 
    9.8995377163272158E-01 
    9.8954845194015473E-01 
    1.0105466492547694E+00 
    1.0100208244706936E+00 
    9.8910759407970661E-01 
    9.8863059716918478E-01 
    1.0094678734733185E+00 
    1.0088895736660812E+00 
    9.8811674851369002E-01 
    9.8756569758869495E-01 
    1.0082872497709432E+00 
    1.0076616286206348E+00 
    9.8697830337636450E-01 
    9.8635754688888133E-01 
    1.0070126438190345E+00 
    1.0063392347620759E+00 
    9.8570882095064694E-01 
    9.8503955640946028E-01 
    1.0056393887769888E+00 
    1.0049111916576003E+00 
    9.8435979642403804E-01 
    9.8368492869550983E-01 
    1.0041556550061410E+00 
    1.0033783914838401E+00 
    9.8303476044770799E-01 
    9.8242472423604699E-01 
    1.0025864818062837E+00 
    1.0017916690783844E+00 
    9.8186278024353169E-01 
    9.8135415016029504E-01 
    1.0010247141080835E+00 
    1.0003126140572427E+00 
    9.8089626807564212E-01 
    9.8047871299827638E-01 
    9.9966413705918511E-01 
    9.9908479463241673E-01 
    9.8009409242258194E-01 
    9.7974066408686800E-01 
    9.9856528190093918E-01 
    9.9809413446214923E-01 
    9.7941857555494360E-01 
    9.7912805700368444E-01 
    9.9766994869213277E-01 
    9.9729277332833732E-01 
    9.7886931365415331E-01 
    9.7864252605757585E-01 
    9.9696266001153033E-01 
    9.9667964834564604E-01 
    9.7844785070287155E-01 
    9.7828542058173207E-01 
    9.9644376819929303E-01 
    9.9625504162946688E-01 
    9.7815534569666718E-01 
    9.7805771350039827E-01 
    9.9611348444972170E-01 
    9.9601910746203259E-01 
    9.7799258925748989E-01 
    9.7796001632130114E-01 
    9.9597191736754997E-01 
    9.6754473197011903E-01 
    9.3982130059238522E-01 
    9.3977471355580255E-01 
    9.6750607091832497E-01 
    9.6742824386776494E-01 
    9.3968307125970607E-01 
    9.3954912748420560E-01 
    9.6731085612403389E-01 
    9.6715352949236755E-01 
    9.3937628898934289E-01 
    9.3916853365758091E-01 
    9.6695590122769282E-01 
    9.6671766395661918E-01 
    9.3893036686537834E-01 
    9.3866677463990622E-01 
    9.6643865492543191E-01 
    9.6611901161026748E-01 
    9.3838316500531449E-01 
    9.3808529315226952E-01 
    9.6575940148647466E-01 
    9.6536130681755994E-01 
    9.3777915795760869E-01 
    9.3747084831518557E-01 
    9.6492730642623903E-01 
    9.6446127343046784E-01 
    9.3716632552798407E-01 
    9.3687115605531246E-01 
    9.6396844192940478E-01 
    9.6345539481402576E-01 
    9.3659022539928216E-01 
    9.3632743295194754E-01 
    9.6293010775507204E-01 
    9.6240205158803949E-01 
    9.3608531581333709E-01 
    9.3586459103708719E-01 
    9.6188189868150153E-01 
    9.6138028082169680E-01 
    9.3566383811373433E-01 
    9.3547974511725696E-01 
    9.6090613575532113E-01 
    9.6046587862575727E-01 
    9.3530807995432597E-01 
    9.3514501578612397E-01 
    9.6006328912413053E-01 
    9.5969855749940791E-01 
    9.3498815939951530E-01 
    9.3483672435791698E-01 
    9.5936721231818789E-01 
    9.5906209172048118E-01 
    9.3469093079407417E-01 
    9.3455133609543795E-01 
    9.5877723264300696E-01 
    9.5850996733485772E-01 
    9.3441852286782534E-01 
    9.3429303130723629E-01 
    9.5826000968856229E-01 
    9.5802771355862915E-01 
    9.3417535629257442E-01 
    9.3406594916912455E-01 
    9.5781345761720371E-01 
    9.5761758856444890E-01 
    9.3396521916273745E-01 
    9.3387353462587264E-01 
    9.5744042034413057E-01 
    9.5728223443753635E-01 
    9.3379122413670335E-01 
    9.3371857746208098E-01 
    9.5714328015805517E-01 
    9.5702377493712365E-01 
    9.3365584639347743E-01 
    9.3360324546352602E-01 
    9.5692390459273624E-01 
    9.5684382357299724E-01 
    9.3356095254948346E-01 
    9.3352910936876654E-01 
    9.5678365516840802E-01 
    9.5674349168773409E-01 
    9.3350782187068737E-01 
    9.3349716052756582E-01 
    9.5672339459339650E-01 
    9.1095759438879564E-01 
    8.8449328296722962E-01 
    8.8449940082797140E-01 
    9.1093845051804856E-01 
    9.1090241160924834E-01 
    8.8451112839607127E-01 
    8.8452768224467548E-01 
    9.1085271445639560E-01 
    9.1079276410794108E-01 
    8.8454811259208022E-01 
    8.8457132210498024E-01 
    9.1072593105006350E-01 
    9.1065543336239607E-01 
    8.8459610277558753E-01 
    8.8462119845148146E-01 
    9.1058423090114671E-01 
    9.1051490510547117E-01 
    8.8464538893372491E-01 
    8.8466758345285024E-01 
    9.1044951549745479E-01 
    9.1038944119078169E-01 
    8.8468690534146477E-01 
    8.8470274840145446E-01 
    9.1033523930447990E-01 
    9.1028657572307969E-01 
    8.8471479124987296E-01 
    8.8472296819644280E-01 
    9.1024228953190300E-01 
    9.1020062533348711E-01 
    8.8472740890103307E-01 
    8.8472836736895455E-01 
    9.1015961072142992E-01 
    9.1011748921503932E-01 
    8.8472616004209226E-01 
    8.8472112434905781E-01 
    9.1007307021737349E-01 
    9.1002586955925246E-01 
    8.8471359817439232E-01 
    8.8470391308437113E-01 
    9.0997601329230415E-01 
    9.0992400401960938E-01 
    8.8469239299258262E-01 
    8.8467935345682314E-01 
    9.0987049366515504E-01 
    9.0981614617527351E-01 
    8.8466510047598912E-01 
    8.8464992912987517E-01 
    9.0976158724733092E-01 
    9.0970739722858207E-01 
    8.8463412236873773E-01 
    8.8461794999591248E-01 
    9.0965411368762084E-01 
    9.0960223359397174E-01 
    8.8460166780957772E-01 
    8.8458551687642639E-01 
    9.0955221487921678E-01 
    9.0950447779653043E-01 
    8.8456972291769664E-01 
    8.8455449579118528E-01 
    9.0945940613185206E-01 
    9.0941734827831922E-01 
    8.8454002905526175E-01 
    8.8452649960297802E-01 
    9.0937861818578303E-01 
    9.0934349619569832E-01 
    8.8451406735616100E-01 
    8.8450287501092106E-01 
    9.0931222977024573E-01 
    9.0928503412325279E-01 
    8.8449304782735483E-01 
    8.8448469345739766E-01 
    9.0926209275934777E-01 
    9.0924355792673328E-01 
    8.8447790180580566E-01 
    8.8447274492017136E-01 
    9.0922955098803959E-01 
    9.0922016271285222E-01 
    8.8446927690668409E-01 
    8.8446753386910149E-01 
    9.0921545349471888E-01 
    8.5953731880003303E-01 
    8.3457373045860617E-01 
    8.3457404084072839E-01 
    8.5953973149239338E-01 
    8.5954413588510625E-01 
    8.3457464139020454E-01 
    8.3457549710371948E-01 
    8.5954998197496391E-01 
    8.5955676842742357E-01 
    8.3457656378448652E-01 
    8.3457779206790705E-01 
    8.5956407029184745E-01 
    8.5957153939474795E-01 
    8.3457913056835109E-01 
    8.3458052830194773E-01 
    8.5957889589813563E-01 
    8.5958591745013790E-01 
    8.3458193650230084E-01 
    8.3458330994385022E-01 
    8.5959242890024157E-01 
    8.5959829403358923E-01 
    8.3458460787924060E-01 
    8.3458579467846528E-01 
    8.5960340973183058E-01 
    8.5960770216430571E-01 
    8.3458684023388641E-01 
    8.3458772017379024E-01 
    8.5961112416349539E-01 
    8.5961365293462311E-01 
    8.3458841591308175E-01 
    8.3458891456386752E-01 
    8.5961528759009098E-01 
    8.5961604642125655E-01 
    8.3458920872811482E-01 
    8.3458929619521227E-01 
    8.5961596408152596E-01 
    8.5961508888946270E-01 
    8.3458917956658851E-01 
    8.3458886582715308E-01 
    8.5961348036444940E-01 
    8.5961120700930860E-01 
    8.3458836588017427E-01 
    8.3458769405921318E-01 
    8.5960834431220712E-01 
    8.5960497293943250E-01 
    8.3458686762825141E-01 
    8.3458590627914619E-01 
    8.5960117709973471E-01 
    8.5959704306600093E-01 
    8.3458483163389519E-01 
    8.3458366675779883E-01 
    8.5959265784165462E-01 
    8.5958810796003127E-01 
    8.3458243568844226E-01 
    8.3458116298443275E-01 
    8.5958347840590366E-01 
    8.5957885164926040E-01 
    8.3457987329702166E-01 
    8.3457859096706433E-01 
    8.5957430678235258E-01 
    8.5956991875187383E-01 
    8.3457733964921488E-01 
    8.3457614196480623E-01 
    8.5956575767896370E-01 
    8.5956188826049951E-01 
    8.3457501918450083E-01 
    8.3457399094150131E-01 
    8.5955836924587725E-01 
    8.5955525298417745E-01 
    8.3457307497589495E-01 
    8.3457228691051499E-01 
    8.5955258503727683E-01 
    8.5955040385508941E-01 
    8.3457164005858198E-01 
    8.3457114526328091E-01 
    8.5954874050972829E-01 
    8.5954761848594274E-01 
    8.3457081076936879E-01 
    8.3457064212686238E-01 
    8.5954705352575167E-01 
    8.0957989181240708E-01 
    7.8458083010436197E-01 
    7.8458083919219168E-01 
    8.0957994457057192E-01 
    8.0958004792579319E-01 
    7.8458085700747893E-01 
    7.8458088284461847E-01 
    8.0958019771994416E-01 
    8.0958038807461574E-01 
    7.8458091568191168E-01 
    7.8458095422226359E-01 
    8.0958061172911355E-01 
    8.0958086040551092E-01 
    7.8458099694282524E-01 
    7.8458104215080726E-01 
    8.0958112517584624E-01 
    8.0958139681384744E-01 
    7.8458108804278692E-01 
    7.8458113276503894E-01 
    8.0958166611934956E-01 
    8.0958192420798125E-01 
    7.8458117447271503E-01 
    7.8458121138602099E-01 
    8.0958216276190609E-01 
    8.0958237423966239E-01 
    7.8458124184187328E-01 
    7.8458126433984365E-01 
    8.0958255204472729E-01 
    8.0958269065358857E-01 
    7.8458127758151042E-01 
    7.8458128050262310E-01 
    8.0958278570500142E-01 
    8.0958283405281339E-01 
    7.8458127229774288E-01 
    7.8458125243725463E-01 
    8.0958283378526952E-01 
    8.0958278421406982E-01 
    7.8458122067684843E-01 
    7.8458117705973518E-01 
    8.0958268583665516E-01 
    8.0958254027526499E-01 
    7.8458112191200413E-01 
    7.8458105583164350E-01 
    8.0958235019628244E-01 
    8.0958211921327661E-01 
    7.8458097967183116E-01 
    7.8458089451916735E-01 
    8.0958185177700259E-01 
    8.0958155305543267E-01 
    7.8458080166756738E-01 
    7.8458070258855905E-01 
    8.0958122880668515E-01 
    8.0958088524750349E-01 
    7.8458059889873355E-01 
    7.8458049232510596E-01 
    8.0958052891971388E-01 
    8.0958016655687237E-01 
    7.8458038466912050E-01 
    7.8458027777001149E-01 
    8.0957980495309767E-01 
    8.0957945083587957E-01 
    7.8458017346820541E-01 
    7.8458007356940829E-01 
    8.0957911074446298E-01 
    8.0957879091521545E-01 
    7.8457997980997929E-01 
    7.8457989382414572E-01 
    8.0957849717521979E-01 
    8.0957823484517155E-01 
    7.8457981711356695E-01 
    7.8457975101969812E-01 
    8.0957800865250595E-01 
    8.0957782265554534E-01 
    7.8457969669935501E-01 
    7.8457965510382222E-01 
    8.0957768017932397E-01 
    8.0957758376362332E-01 
    7.8457962696179406E-01 
    7.8457961276637744E-01 
    8.0957753512364028E-01 
    7.5958086869649399E-01 
    7.3458079848000901E-01 
    7.3458079830459178E-01 
    7.5958086979551909E-01 
    7.5958087192579893E-01 
    7.3458079794158726E-01 
    7.3458079736699655E-01 
    7.5958087495408388E-01 
    7.5958087868637436E-01 
    7.3458079654593944E-01 
    7.3458079543395338E-01 
    7.5958088287467396E-01 
    7.5958088722553030E-01 
    7.3458079397865328E-01 
    7.3458079212169736E-01 
    7.5958089141001917E-01 
    7.5958089507478588E-01 
    7.3458078980099539E-01 
    7.3458078695308537E-01 
    7.5958089785375260E-01 
    7.5958089938008688E-01 
    7.3458078351560419E-01 
    7.3458077942977840E-01 
    7.5958089929805606E-01 
    7.5958089727441247E-01 
    7.3458077464285776E-01 
    7.3458076911042214E-01 
    7.5958089300899190E-01 
    7.5958088624425546E-01 
    7.3458076279849660E-01 
    7.3458075568541648E-01 
    7.5958087677354413E-01 
    7.5958086444787376E-01 
    7.3458074776339277E-01 
    7.3458073903973931E-01 
    7.5958084918113933E-01 
    7.5958083095365014E-01 
    7.3458072953772835E-01 
    7.3458071929705937E-01 
    7.5958080981396670E-01 
    7.5958078587904210E-01 
    7.3458070837392719E-01 
    7.3458069684069272E-01 
    7.5958075933272506E-01 
    7.5958073042270224E-01 
    7.3458068478516447E-01 
    7.3458067230951063E-01 
    7.5958069945599660E-01 
    7.5958066679316283E-01 
    7.3458065952882767E-01 
    7.3458064656940081E-01 
    7.5958063284133837E-01 
    7.5958059804632938E-01 
    7.3458063356669345E-01 
    7.3458062066311514E-01 
    7.5958056288391862E-01 
    7.5958052785059471E-01 
    7.3458060800561098E-01 
    7.3458059574313017E-01 
    7.5958049345390199E-01 
    7.5958046020261016E-01 
    7.3458058402402160E-01 
    7.3458057299341495E-01 
    7.5958042859690422E-01 
    7.5958039911878394E-01 
    7.3458056279063733E-01 
    7.3458055354671836E-01 
    7.5958037222285479E-01 
    7.5958034832768118E-01 
    7.3458054538203543E-01 
    7.3458053840414039E-01 
    7.5958032780785878E-01 
    7.5958031098694456E-01 
    7.3458053270581591E-01 
    7.3458052836339316E-01 
    7.5958029813137107E-01 
    7.5958028944544931E-01 
    7.3458052543536745E-01 
    7.3458052396133633E-01 
    7.5958028506754516E-01 
    7.0958074562428231E-01 
    6.8458071646929086E-01 
    6.8458071631883877E-01 
    7.0958074538482019E-01 
    7.0958074490441059E-01 
    6.8458071601822568E-01 
    6.8458071556792055E-01 
    7.0958074418005179E-01 
    7.0958074320746256E-01 
    6.8458071496866746E-01 
    6.8458071422153377E-01 
    7.0958074198134113E-01 
    7.0958074049569630E-01 
    6.8458071332797032E-01 
    6.8458071228988360E-01 
    7.0958073874424110E-01 
    7.0958073672083521E-01 
    6.8458071110971497E-01 
    6.8458070979052688E-01 
    7.0958073441996417E-01 
    7.0958073183723769E-01 
    6.8458070833609030E-01 
    6.8458070675097205E-01 
    7.0958072896989277E-01 
    7.0958072581728571E-01 
    6.8458070504061574E-01 
    6.8458070321141740E-01 
    7.0958072238135617E-01 
    7.0958071866705175E-01 
    6.8458070127078841E-01 
    6.8458069922720510E-01 
    7.0958071468269479E-01 
    7.0958071044028481E-01 
    6.8458069709024150E-01 
    6.8458069487058359E-01 
    7.0958070595572231E-01 
    7.0958070124894879E-01 
    6.8458069258002274E-01 
    6.8458069023142720E-01 
    7.0958069634399490E-01 
    7.0958069126893464E-01 
    6.8458068783869086E-01 
    6.8458068541665951E-01 
    7.0958068605574576E-01 
    7.0958068074007352E-01 
    6.8458068298103381E-01 
    6.8458068054825094E-01 
    7.0958067536090585E-01 
    7.0958066996016289E-01 
    6.8458067813534595E-01 
    6.8458067575979442E-01 
    7.0958066458220970E-01 
    7.0958065927329905E-01 
    6.8458067343933904E-01 
    6.8458067119180377E-01 
    7.0958065408095938E-01 
    7.0958064905333684E-01 
    6.8458066903489601E-01 
    6.8458066698600417E-01 
    7.0958064423850353E-01 
    7.0958063968374951E-01 
    6.8458066506199033E-01 
    6.8458066327898348E-01 
    7.0958063543486971E-01 
    7.0958063153545792E-01 
    6.8458066165217746E-01 
    6.8458066019563524E-01 
    7.0958062802622879E-01 
    7.0958062494437457E-01 
    6.8458065892210629E-01 
    6.8458065784285826E-01 
    7.0958062232297081E-01 
    7.0958062019044532E-01 
    6.8458065696752490E-01 
    6.8458065630397669E-01 
    7.0958061857011734E-01 
    7.0958061747981815E-01 
    6.8458065585821304E-01 
    6.8458065563427994E-01 
    7.0958061693160013E-01 
    6.5958070220262910E-01 
    6.3458069622806001E-01 
    6.3458069617602064E-01 
    6.5958070211880115E-01 
    6.5958070195156648E-01 
    6.3458069607229728E-01 
    6.3458069591745225E-01 
    6.5958070170163086E-01 
    6.5958070137005753E-01 
    6.3458069571232711E-01 
    6.3458069545804019E-01 
    6.5958070095827326E-01 
    6.5958070046807460E-01 
    6.3458069515598370E-01 
    6.3458069480781842E-01 
    6.5958069990163548E-01 
    6.5958069926151541E-01 
    6.3458069441546994E-01 
    6.3458069398112138E-01 
    6.5958069855066659E-01 
    6.5958069777244088E-01 
    6.3458069350720603E-01 
    6.3458069299639819E-01 
    6.5958069693059496E-01 
    6.5958069602929259E-01 
    6.3458069245160331E-01 
    6.3458069187594535E-01 
    6.5958069507310502E-01 
    6.5958069406700670E-01 
    6.3458069127275418E-01 
    6.3458069064554934E-01 
    6.5958069301636790E-01 
    6.5958069192694069E-01 
    6.3458068999802475E-01 
    6.3458068933402823E-01 
    6.5958069080484283E-01 
    6.5958068965653383E-01 
    6.3458068865754280E-01 
    6.3458068797266487E-01 
    6.5958068848878548E-01 
    6.5958068730864794E-01 
    6.3458068728357975E-01 
    6.3458068659453681E-01 
    6.5958068612341014E-01 
    6.5958068494055244E-01 
    6.3458068590982408E-01 
    6.3458068523374001E-01 
    6.5958068376769718E-01 
    6.5958068261255320E-01 
    6.3458068457056538E-01 
    6.3458068392453404E-01 
    6.5958068148285554E-01 
    6.5958068038630280E-01 
    6.3458068329980266E-01 
    6.3458068270042189E-01 
    6.5958067933049258E-01 
    6.5958067832285139E-01 
    6.3458068213030538E-01 
    6.3458068159320036E-01 
    6.5958067737056880E-01 
    6.5958067648052787E-01 
    6.3458068109265986E-01 
    6.3458068063201389E-01 
    6.5958067565923872E-01 
    6.5958067491277261E-01 
    6.3458068021434322E-01 
    6.3458067984245425E-01 
    6.5958067424670064E-01 
    6.5958067366603590E-01 
    6.3458067951885688E-01 
    6.3458067924574268E-01 