# vtk DataFile Version 2.0
Pressure Field Data 
ASCII 
DATASET UNSTRUCTURED_GRID 

POINTS 1681 double 

    0.0000000000000000E+00     0.0000000000000000E+00     0.0000000000000000E+00 
    1.0000000000000000E+00     0.0000000000000000E+00     0.0000000000000000E+00 
    1.0000000000000000E+00     1.0000000000000000E+00     0.0000000000000000E+00 
    0.0000000000000000E+00     1.0000000000000000E+00     0.0000000000000000E+00 
    5.2499999999875258E-01     0.0000000000000000E+00     0.0000000000000000E+00 
    7.4999999999856765E-02     0.0000000000000000E+00     0.0000000000000000E+00 
    1.2499999999975850E-01     0.0000000000000000E+00     0.0000000000000000E+00 
    1.7499999999962990E-01     0.0000000000000000E+00     0.0000000000000000E+00 
    2.2499999999948389E-01     0.0000000000000000E+00     0.0000000000000000E+00 
    2.7499999999933789E-01     0.0000000000000000E+00     0.0000000000000000E+00 
    3.2499999999919210E-01     0.0000000000000000E+00     0.0000000000000000E+00 
    3.7499999999904610E-01     0.0000000000000000E+00     0.0000000000000000E+00 
    4.2499999999890020E-01     0.0000000000000000E+00     0.0000000000000000E+00 
    4.7499999999875958E-01     0.0000000000000000E+00     0.0000000000000000E+00 
    2.4999999999949701E-02     0.0000000000000000E+00     0.0000000000000000E+00 
    5.7499999999887907E-01     0.0000000000000000E+00     0.0000000000000000E+00 
    6.2499999999901101E-01     0.0000000000000000E+00     0.0000000000000000E+00 
    6.7499999999914273E-01     0.0000000000000000E+00     0.0000000000000000E+00 
    7.2499999999927467E-01     0.0000000000000000E+00     0.0000000000000000E+00 
    7.7499999999940661E-01     0.0000000000000000E+00     0.0000000000000000E+00 
    8.2499999999953844E-01     0.0000000000000000E+00     0.0000000000000000E+00 
    8.7499999999967026E-01     0.0000000000000000E+00     0.0000000000000000E+00 
    9.2499999999980220E-01     0.0000000000000000E+00     0.0000000000000000E+00 
    9.7499999999993414E-01     0.0000000000000000E+00     0.0000000000000000E+00 
    5.4999999999881310E-01     0.0000000000000000E+00     0.0000000000000000E+00 
    9.9999999999814140E-02     0.0000000000000000E+00     0.0000000000000000E+00 
    1.4999999999970290E-01     0.0000000000000000E+00     0.0000000000000000E+00 
    1.9999999999955689E-01     0.0000000000000000E+00     0.0000000000000000E+00 
    2.4999999999941089E-01     0.0000000000000000E+00     0.0000000000000000E+00 
    2.9999999999926502E-01     0.0000000000000000E+00     0.0000000000000000E+00 
    3.4999999999911913E-01     0.0000000000000000E+00     0.0000000000000000E+00 
    3.9999999999897312E-01     0.0000000000000000E+00     0.0000000000000000E+00 
    4.4999999999882723E-01     0.0000000000000000E+00     0.0000000000000000E+00 
    4.9999999999869210E-01     0.0000000000000000E+00     0.0000000000000000E+00 
    4.9999999999899403E-02     0.0000000000000000E+00     0.0000000000000000E+00 
    5.9999999999894504E-01     0.0000000000000000E+00     0.0000000000000000E+00 
    6.4999999999907687E-01     0.0000000000000000E+00     0.0000000000000000E+00 
    6.9999999999920870E-01     0.0000000000000000E+00     0.0000000000000000E+00 
    7.4999999999934064E-01     0.0000000000000000E+00     0.0000000000000000E+00 
    7.9999999999947247E-01     0.0000000000000000E+00     0.0000000000000000E+00 
    8.4999999999960441E-01     0.0000000000000000E+00     0.0000000000000000E+00 
    8.9999999999973623E-01     0.0000000000000000E+00     0.0000000000000000E+00 
    9.4999999999986817E-01     0.0000000000000000E+00     0.0000000000000000E+00 
    1.0000000000000000E+00     5.2499999999875258E-01     0.0000000000000000E+00 
    1.0000000000000000E+00     7.4999999999856765E-02     0.0000000000000000E+00 
    1.0000000000000000E+00     1.2499999999975850E-01     0.0000000000000000E+00 
    1.0000000000000000E+00     1.7499999999962990E-01     0.0000000000000000E+00 
    1.0000000000000000E+00     2.2499999999948389E-01     0.0000000000000000E+00 
    1.0000000000000000E+00     2.7499999999933789E-01     0.0000000000000000E+00 
    1.0000000000000000E+00     3.2499999999919210E-01     0.0000000000000000E+00 
    1.0000000000000000E+00     3.7499999999904610E-01     0.0000000000000000E+00 
    1.0000000000000000E+00     4.2499999999890020E-01     0.0000000000000000E+00 
    1.0000000000000000E+00     4.7499999999875958E-01     0.0000000000000000E+00 
    1.0000000000000000E+00     2.4999999999949701E-02     0.0000000000000000E+00 
    1.0000000000000000E+00     5.7499999999887907E-01     0.0000000000000000E+00 
    1.0000000000000000E+00     6.2499999999901101E-01     0.0000000000000000E+00 
    1.0000000000000000E+00     6.7499999999914273E-01     0.0000000000000000E+00 
    1.0000000000000000E+00     7.2499999999927467E-01     0.0000000000000000E+00 
    1.0000000000000000E+00     7.7499999999940661E-01     0.0000000000000000E+00 
    1.0000000000000000E+00     8.2499999999953844E-01     0.0000000000000000E+00 
    1.0000000000000000E+00     8.7499999999967026E-01     0.0000000000000000E+00 
    1.0000000000000000E+00     9.2499999999980220E-01     0.0000000000000000E+00 
    1.0000000000000000E+00     9.7499999999993414E-01     0.0000000000000000E+00 
    1.0000000000000000E+00     5.4999999999881310E-01     0.0000000000000000E+00 
    1.0000000000000000E+00     9.9999999999814140E-02     0.0000000000000000E+00 
    1.0000000000000000E+00     1.4999999999970290E-01     0.0000000000000000E+00 
    1.0000000000000000E+00     1.9999999999955689E-01     0.0000000000000000E+00 
    1.0000000000000000E+00     2.4999999999941089E-01     0.0000000000000000E+00 
    1.0000000000000000E+00     2.9999999999926502E-01     0.0000000000000000E+00 
    1.0000000000000000E+00     3.4999999999911913E-01     0.0000000000000000E+00 
    1.0000000000000000E+00     3.9999999999897312E-01     0.0000000000000000E+00 
    1.0000000000000000E+00     4.4999999999882723E-01     0.0000000000000000E+00 
    1.0000000000000000E+00     4.9999999999869210E-01     0.0000000000000000E+00 
    1.0000000000000000E+00     4.9999999999899403E-02     0.0000000000000000E+00 
    1.0000000000000000E+00     5.9999999999894504E-01     0.0000000000000000E+00 
    1.0000000000000000E+00     6.4999999999907687E-01     0.0000000000000000E+00 
    1.0000000000000000E+00     6.9999999999920870E-01     0.0000000000000000E+00 
    1.0000000000000000E+00     7.4999999999934064E-01     0.0000000000000000E+00 
    1.0000000000000000E+00     7.9999999999947247E-01     0.0000000000000000E+00 
    1.0000000000000000E+00     8.4999999999960441E-01     0.0000000000000000E+00 
    1.0000000000000000E+00     8.9999999999973623E-01     0.0000000000000000E+00 
    1.0000000000000000E+00     9.4999999999986817E-01     0.0000000000000000E+00 
    4.7500000000196618E-01     1.0000000000000000E+00     0.0000000000000000E+00 
    9.2499999999968763E-01     1.0000000000000000E+00     0.0000000000000000E+00 
    8.7499999999961831E-01     1.0000000000000000E+00     0.0000000000000000E+00 
    8.2499999999982654E-01     1.0000000000000000E+00     0.0000000000000000E+00 
    7.7500000000017355E-01     1.0000000000000000E+00     0.0000000000000000E+00 
    7.2500000000052045E-01     1.0000000000000000E+00     0.0000000000000000E+00 
    6.7500000000086724E-01     1.0000000000000000E+00     0.0000000000000000E+00 
    6.2500000000121403E-01     1.0000000000000000E+00     0.0000000000000000E+00 
    5.7500000000156093E-01     1.0000000000000000E+00     0.0000000000000000E+00 
    5.2500000000189684E-01     1.0000000000000000E+00     0.0000000000000000E+00 
    9.7499999999989595E-01     1.0000000000000000E+00     0.0000000000000000E+00 
    4.2500000000176902E-01     1.0000000000000000E+00     0.0000000000000000E+00 
    3.7500000000156092E-01     1.0000000000000000E+00     0.0000000000000000E+00 
    3.2500000000135282E-01     1.0000000000000000E+00     0.0000000000000000E+00 
    2.7500000000114472E-01     1.0000000000000000E+00     0.0000000000000000E+00 
    2.2500000000093659E-01     1.0000000000000000E+00     0.0000000000000000E+00 
    1.7500000000072849E-01     1.0000000000000000E+00     0.0000000000000000E+00 
    1.2500000000052039E-01     1.0000000000000000E+00     0.0000000000000000E+00 
    7.5000000000312261E-02     1.0000000000000000E+00     0.0000000000000000E+00 
    2.5000000000104109E-02     1.0000000000000000E+00     0.0000000000000000E+00 
    4.5000000000187301E-01     1.0000000000000000E+00     0.0000000000000000E+00 
    8.9999999999958358E-01     1.0000000000000000E+00     0.0000000000000000E+00 
    8.4999999999965303E-01     1.0000000000000000E+00     0.0000000000000000E+00 
    8.0000000000000004E-01     1.0000000000000000E+00     0.0000000000000000E+00 
    7.5000000000034706E-01     1.0000000000000000E+00     0.0000000000000000E+00 
    7.0000000000069384E-01     1.0000000000000000E+00     0.0000000000000000E+00 
    6.5000000000104063E-01     1.0000000000000000E+00     0.0000000000000000E+00 
    6.0000000000138742E-01     1.0000000000000000E+00     0.0000000000000000E+00 
    5.5000000000173432E-01     1.0000000000000000E+00     0.0000000000000000E+00 
    5.0000000000205946E-01     1.0000000000000000E+00     0.0000000000000000E+00 
    9.4999999999979179E-01     1.0000000000000000E+00     0.0000000000000000E+00 
    4.0000000000166491E-01     1.0000000000000000E+00     0.0000000000000000E+00 
    3.5000000000145681E-01     1.0000000000000000E+00     0.0000000000000000E+00 
    3.0000000000124871E-01     1.0000000000000000E+00     0.0000000000000000E+00 
    2.5000000000104061E-01     1.0000000000000000E+00     0.0000000000000000E+00 
    2.0000000000083251E-01     1.0000000000000000E+00     0.0000000000000000E+00 
    1.5000000000062441E-01     1.0000000000000000E+00     0.0000000000000000E+00 
    1.0000000000041630E-01     1.0000000000000000E+00     0.0000000000000000E+00 
[...]
CELL_DATA 1600 
SCALARS Pressure double 1 
LOOKUP_TABLE default 

    9.8131716083841025E-01 
    9.6062512726743254E-01 
    9.6051801225210354E-01 
    9.7935296757705381E-01 
    9.7751434309021645E-01 
    9.6032278322263176E-01 
    9.6005638362182355E-01 
    9.7579946007662210E-01 
    9.7419743404672843E-01 
    9.5973253505226785E-01 
    9.5936275731707277E-01 
    9.7269802280953344E-01 
    9.7129202144570104E-01 
    9.5895676405884267E-01 
    9.5852276797989233E-01 
    9.6997126496941410E-01 
    9.6872854805678132E-01 
    9.5806772808096685E-01 
    9.5759755311931727E-01 
    9.6755752701976938E-01 
    9.6645262305652502E-01 
    9.5711727031075911E-01 
    9.5663116585381924E-01 
    9.6540893290234131E-01 
    9.6442214860124686E-01 
    9.5614290235861166E-01 
    9.5565561722146886E-01 
    9.6348848645479279E-01 
    9.6260462456309936E-01 
    9.5517200520949297E-01 
    9.5469438791723837E-01 
    9.6176764814979343E-01 
    9.6097500181897544E-01 
    9.5422477228052827E-01 
    9.5376489994849845E-01 
    9.6022444792701234E-01 
    9.5951403031836990E-01 
    9.5331628900287169E-01 
    9.5288026925766067E-01 
    9.5884204275112717E-01 
    9.5820700141372761E-01 
    9.5245801216108483E-01 
    9.5205055614482115E-01 
    9.5760762100462171E-01 
    9.5704279390799674E-01 
    9.5165882811554448E-01 
    9.5128366165189482E-01 
    9.5651157204937098E-01 
    9.5601315105139639E-01 
    9.5092581234736218E-01 
    9.5058597061337913E-01 
    9.5554685632695080E-01 
    9.5511213073127010E-01 
    9.5026477210617610E-01 
    9.4996280572670988E-01 
    9.5470852332167366E-01 
    9.5433567858593948E-01 
    9.4968061878654542E-01 
    9.4941871826600066E-01 
    9.5399332507225387E-01 
    9.5368126139435749E-01 
    9.4917756574042977E-01 
    9.4895756065210335E-01 
    9.5339933541028954E-01 
    9.5314740733501813E-01 
    9.4875900008961045E-01 
    9.4858198803331484E-01 
    9.5292527560712936E-01 
    9.5273251560378769E-01 
    9.4842623081779331E-01 
    9.4829057187350452E-01 
    9.5256811500909999E-01 
    9.5242967595263650E-01 
    9.4817200438931437E-01 
    9.4806653523748530E-01 
    9.5231260313653465E-01 
    9.5222296326830724E-01 
    9.4798701034625465E-01 
    9.4794866422969148E-01 
    9.5217849991954839E-01 
    9.4693905975314718E-01 
    9.3366407663744633E-01 
    9.3365094027537465E-01 
    9.4691080795461835E-01 
    9.4685491193534754E-01 
    9.3362478028327456E-01 
    9.3358587302274998E-01 
    9.4677260834684096E-01 
    9.4666547252037236E-01 
    9.3353460021933754E-01 
    9.3347144026970208E-01 
    9.4653531024477155E-01 
    9.4638407363194343E-01 
    9.3339695725751926E-01 
    9.3331178892660571E-01 
    9.4621379514530890E-01 
    9.4602653713349250E-01 
    9.3321663466740989E-01 
    9.3311224406238058E-01 
    9.4582435395458209E-01 
    9.4560926413039714E-01 
    9.3299940626635880E-01 
    9.3287894035253327E-01 
    9.4538323040936456E-01 
    9.4514814601737718E-01 
    9.3275168666896735E-01 
    9.3261849919765993E-01 
    9.4490582571430615E-01 
    9.4465800055140592E-01 
    9.3248023887443166E-01 
    9.3233776780655397E-01 
    9.4440631544960130E-01 
    9.4415232889926959E-01 
    9.3219194431154129E-01 
    9.3204361869196539E-01 
    9.4389751422643309E-01 
    9.4364326198468695E-01 
    9.3189362965510647E-01 
    9.3174280128067699E-01 
    9.4339088312187025E-01 
    9.4314161263914686E-01 
    9.3159194043243021E-01 
    9.3144183449731377E-01 
    9.4289661351013798E-01 
    9.4265698065966963E-01 
    9.3129324931462865E-01 
    9.3114692712037161E-01 
    9.4242374481368618E-01 
    9.4219787601826899E-01 
    9.3100358426619501E-01 
    9.3086390835559696E-01 
    9.4198028657371446E-01 
    9.4177183301295775E-01 
    9.3072855422866685E-01 
    9.3059813783470779E-01 
    9.4157331651868670E-01 
    9.4138548070854733E-01 
    9.3047322628094686E-01 
    9.3035432085151293E-01 
    9.4120900478297054E-01 
    9.4104448809055563E-01 
    9.3024182669449129E-01 
    9.3013599616230391E-01 
    9.4089241798699630E-01 
    9.4075310349920582E-01 
    9.3003681752579204E-01 
    9.2994378406534950E-01 
    9.4062653548719222E-01 
    9.4051208145263443E-01 
    9.2985538901229381E-01 
    9.2976813832947625E-01 
    9.4040780528778212E-01 
    9.4030949008133802E-01 
    9.2967926900855913E-01 
    9.2960246606413299E-01 
    9.4021896648385184E-01 
    9.4015569185666992E-01 
    9.2955441225008639E-01 
    9.2953243169535515E-01 
    9.4012638062950193E-01 
    9.1967139409758580E-01 
    9.0463203795903890E-01 
    9.0462633593527597E-01 
    9.1966349516309076E-01 
    9.1964776166014339E-01 
    9.0461498446429034E-01 
    9.0459808493089711E-01 
    9.1962433321979886E-01 
    9.1959339193951173E-01 
    9.0457576164395215E-01 
    9.0454816073976574E-01 
    9.1955516134449988E-01 
    9.1950990459153958E-01 
    9.0451544965038944E-01 
    9.0447781631786861E-01 
    9.1945792190869502E-01 
    9.1939954760431897E-01 
    9.0443546816990528E-01 
    9.0438863092832189E-01 
    9.1933514685958906E-01 
    9.1926511243641040E-01 
    9.0433754730555427E-01 
    9.0428247562597763E-01 
    9.1918986138564540E-01 
    9.1910983181230888E-01 
    9.0422368839523626E-01 
    9.0416147083076992E-01 
    9.1902547973533888E-01 
    9.1893727606528997E-01 
    9.0409611935859235E-01 
    9.0402794007373466E-01 
    9.1884570371149432E-01 
    9.1875125481947140E-01 
    9.0395724715341896E-01 
    9.0388436120177118E-01 
    9.1865442812853826E-01 
    9.1855572642754579E-01 
    9.0380960749119876E-01 
    9.0373331404617785E-01 
    9.1845565407185970E-01 
    9.1835471450487582E-01 
    9.0365580948658042E-01 
    9.0357742050384260E-01 
    9.1825340769876740E-01 
    9.1815222738563063E-01 
    9.0349846877400386E-01 
    9.0341926699845354E-01 
    9.1805165788079512E-01 
    9.1795217018505648E-01 
    9.0334011357195187E-01 
    9.0326128504218961E-01 
    9.1785421685489388E-01 
    9.1775822477712365E-01 
    9.0318302491388525E-01 
    9.0310552618866702E-01 
    9.1766458433066878E-01 
    9.1757363215400967E-01 
    9.0302890271476544E-01 
    9.0295313953687772E-01 
    9.1748562217957497E-01 
    9.1740067416887161E-01 
    9.0287800149334763E-01 
    9.0280285309499475E-01 
    9.1731867678285506E-01 
    9.1723909298192108E-01 
    9.0272627827948781E-01 
    9.0264529198269750E-01 
    9.1716054318362650E-01 
    9.1707994193414955E-01 
    9.0255536002630821E-01 
    9.0246113732787014E-01 
    9.1699312785241893E-01 
    9.1690798072515833E-01 
    9.0238435210136381E-01 
    9.0233385965429425E-01 
    9.1684533396825985E-01 
    9.1680813264693528E-01 
    9.0230270814293068E-01 
    9.0228717833622674E-01 
    9.1679033622292738E-01 
    8.8843679856002067E-01 
    8.7105071976421811E-01 
    8.7104627391674450E-01 
    8.8843203921508151E-01 
    8.8842256633991257E-01 
    8.7103742131771944E-01 
    8.7102423289050235E-01 
    8.8840846361483572E-01 
    8.8838983002080707E-01 
    8.7100679128088077E-01 
    8.7098518824167936E-01 
    8.8836677795418217E-01 
    8.8833943279753858E-01 
    8.7095952405573029E-01 
    8.7092990725741082E-01 
    8.8830793256505403E-01 
    8.8827242743886725E-01 
    8.7089645433013563E-01 
    8.7085928931315648E-01 
    8.8823307918789995E-01 
    8.8819006048698312E-01 
    8.7081854330726904E-01 
    8.7077435387812774E-01 
    8.8814355415180624E-01 
    8.8809375229776333E-01 
    8.7072686435220004E-01 
    8.7067622299256930E-01 
    8.8804085542286793E-01 
    8.8798507140688987E-01 
    8.7062258203155996E-01 
    8.7056609652395511E-01 
    8.8792661440997789E-01 
    8.8786570364307793E-01 
    8.7050692296681442E-01 
    8.7044521760682769E-01 
    8.8780256196781160E-01 
    8.8773741426268471E-01 
    8.7038113431931485E-01 
    8.7031482188718146E-01 
    8.8767048546182170E-01 
    8.8760199812556362E-01 
    8.7024642042084088E-01 
    8.7017605651946794E-01 
    8.8753216932866674E-01 
    8.8746120653264660E-01 
    8.7010383654008050E-01 
    8.7002983693829972E-01 
    8.8738930190970466E-01 
    8.8731662424091229E-01 
    8.6995408992198642E-01 
    8.6987656129856683E-01 
    8.8724330688918118E-01 
    8.8716942917317831E-01 
    8.6979711470336429E-01 
    8.6971545075559498E-01 
    8.8709498613988302E-01 
    8.8701983683681118E-01 
    8.6963099712388703E-01 
    8.6954269655788607E-01 
    8.8694361021650947E-01 
    8.8686552172346900E-01 
    8.6944858111625822E-01 
    8.6934506207960582E-01 
    8.8678399175996458E-01 
    8.8669588860062609E-01 
    8.6922810986734345E-01 
    8.6910356595380212E-01 
    8.8659666084048139E-01 
    8.8649021153307306E-01 
    8.6899431534413751E-01 
    8.6891412310017402E-01 
    8.8639843960832687E-01 
    8.8633399259824852E-01 
    8.6885624004381390E-01 
    8.6881371030549448E-01 
    8.8629004170854764E-01 
    8.8626106309670738E-01 
    8.6878535185724015E-01 
    8.6877117055531883E-01 
    8.8624657025211806E-01 
    8.5246170058720749E-01 
    8.3265661718860717E-01 
    8.3265166238668720E-01 
    8.5245717108277108E-01 
    8.5244814247980061E-01 
    8.3264176982143601E-01 
    8.3262697756539861E-01 
    8.5243467216829427E-01 
    8.5241682695989507E-01 
    8.3260733056522584E-01 
    8.3258287713833090E-01 
    8.5239467992545381E-01 
    8.5236830959396670E-01 
    8.3255366788580920E-01 
    8.3251975507186371E-01 
    8.5233779958778111E-01 
    8.5230323827769117E-01 
    8.3248119199920378E-01 
    8.3243803223134760E-01 
    8.5226471834620610E-01 
    8.5222233622206744E-01 
    8.3239032859273676E-01 
    8.3233813189065875E-01 
    8.5217619136455713E-01 
    8.5212638537289098E-01 
    8.3228148929170076E-01 
    8.3222044226025349E-01 
    8.5207302088472925E-01 
    8.5201620021072433E-01 
    8.3215502392770702E-01 
    8.3208525570353198E-01 
    8.5195602362779110E-01 
    8.5189258721909156E-01 
    8.3201114285360078E-01 
    8.3193266863948734E-01 
    8.5182598009763277E-01 
    8.5175628077281396E-01 
    8.3184978640491791E-01 
    8.3176240865808959E-01 
    8.5168355229795323E-01 
    8.5160783564113873E-01 
    8.3167039163330514E-01 
    8.3157351283917702E-01 
    8.5152914039589245E-01 
    8.5144743138663459E-01 
    8.3147143735945528E-01 
    8.3136366546267071E-01 
    8.5136260871616887E-01 
    8.5127447690525626E-01 
    8.3124944806693690E-01 
    8.3112764615008305E-01 
    8.5118269502234645E-01 
    8.5108669196674280E-01 
    8.3099650021875515E-01 
    8.3085333159603525E-01 
    8.5098551480443696E-01 
    8.5087754712648778E-01 
    8.3069473030611396E-01 
    8.3051958314282104E-01 
    8.5076002643015236E-01 
    8.5062887603335169E-01 
    8.3033523331443182E-01 
    8.3015999281389130E-01 
    8.5048298343998296E-01 
    8.5033372280458930E-01 
    8.3001409076659727E-01 
    8.2990205321499422E-01 
    8.5020487514357435E-01 
    8.5010781345297826E-01 
    8.2981404046803509E-01 
    8.2974216404688172E-01 
    8.5003464859327604E-01 
    8.4997751094575502E-01 
    8.2968472186655939E-01 
    8.2964166819888374E-01 
    8.4993466586047517E-01 
    8.4990610313093873E-01 
    8.2961297906957709E-01 
    8.2959863849921667E-01 
    8.4989182197044366E-01 
    8.1160298496780381E-01 
    7.8922181083409038E-01 
    7.8921449688185130E-01 
    8.1159719309210787E-01 
    8.1158560261255230E-01 
    7.8919981447406196E-01 
    7.8917770032568757E-01 
    8.1156821783070843E-01 
    8.1154504553125206E-01 
    7.8914808458215968E-01 
    7.8911088689100162E-01 
    8.1151609132691327E-01 
    8.1148135809318933E-01 
    7.8906601347401817E-01 
    7.8901335383359772E-01 
    8.1144084469982392E-01 
    8.1139454455140103E-01 
    7.8895277662216079E-01 
    7.8888412438701183E-01 
    8.1134244374504172E-01 
    8.1128451871231133E-01 
    7.8880720686687067E-01 
    7.8872179237711315E-01 
    8.1122073319909027E-01 
    8.1115103438975444E-01 
    7.8862759660242976E-01 
    7.8852426779529639E-01 
    8.1107534790371116E-01 
    8.1099357127485794E-01 
    7.8841136696294123E-01 
    7.8828834123438252E-01 
    8.1090556534799851E-01 
    8.1081114275424282E-01 
    7.8815448868916727E-01 
    7.8800891484113322E-01 
    8.1071005219427639E-01 
    8.1060195654616218E-01 
    7.8785048806197344E-01 
    7.8767782075766535E-01 
    8.1048640162467733E-01 
    8.1036277048767591E-01 
    7.8748934703145768E-01 
    7.8728364034247689E-01 
    8.1023021549200436E-01 
    8.1008755877503857E-01 
    7.8706015474844404E-01 
    7.8682037731876964E-01 
    8.0993316256060977E-01 
    8.0976483843490765E-01 
    7.8656886526010628E-01 
    7.8631349211456980E-01 
    8.0958011698098797E-01 
    8.0937769523230974E-01 
    7.8606506919962760E-01 
    7.8583630726755793E-01 
    8.0916042388056553E-01 
    8.0893747931470206E-01 
    7.8563822775290837E-01 
    7.8547562200406873E-01 
    8.0872415516191298E-01 
    8.0853802617045634E-01 
    7.8534525958977397E-01 
    7.8523790293358198E-01 
    8.0838800885678364E-01 
    8.0826971826230654E-01 
    7.8514548951967755E-01 
    7.8506512064912903E-01 
    8.0817261911075500E-01 
    8.0809041463951781E-01 
    7.8499643726164658E-01 
    7.8493934291600742E-01 
    8.0802206045356217E-01 
    8.0796747004494895E-01 
    7.8489375958392560E-01 
    7.8485962552180000E-01 
    8.0792658123875416E-01 
    8.0789934767252713E-01 
    7.8483689481494434E-01 
    7.8482553703962676E-01 
    8.0788573856549717E-01 
    7.6533179046369815E-01 
    7.3954725505889518E-01 
    7.3952927755854625E-01 
    7.6532137890105767E-01 
    7.6530040459809001E-01 
    7.3949322041567633E-01 
    7.3943897874741016E-01 
    7.6526866920853065E-01 
    7.6522594844087288E-01 
    7.3936645698440695E-01 
    7.3927560141164017E-01 
    7.6517198514535356E-01 
    7.6510648069394238E-01 
    7.3916645024467287E-01 
    7.3903920000321843E-01 
    7.6502908429155636E-01 
    7.6493938026514918E-01 
    7.3889428693966142E-01 
    7.3873247911674478E-01 
    7.6483687413870693E-01 
    7.6472097956948948E-01 
    7.3855497024496719E-01 
    7.3836346229386896E-01 
    7.6459101054292489E-01 
    7.6444618733076530E-01 
    7.3816022143445414E-01 
    7.3794809396642647E-01 
    7.6428567076225584E-01 
    7.6410864671451717E-01 
    7.3773047447947460E-01 
    7.3751122684521320E-01 
    7.6391448771949910E-01 
    7.6370301235486027E-01 
    7.3729456364330037E-01 
    7.3708488680357065E-01 
    7.6347483353491974E-01 
    7.6323173186300886E-01 
    7.3688658677327123E-01 
    7.3670380037489847E-01 
    7.6297693875191253E-01 
    7.6271522174752548E-01 
    7.3654013815266284E-01 
    7.3639837663212038E-01 
    7.6245275457519934E-01 
    7.6219683281173523E-01 
    7.3628005667657936E-01 
    7.3618493390867401E-01 
    7.6195537914951228E-01 
    7.6173600108805406E-01 
    7.3611047845373767E-01 
    7.3605202604116404E-01 
    7.6154467502979650E-01 
    7.6138451956070718E-01 
    7.3600406274657837E-01 
    7.3596209326986783E-01 
    7.6125468301428201E-01 
    7.6114974028193194E-01 
    7.3592369674937452E-01 
    7.3588814040992556E-01 
    7.6106175175383817E-01 
    7.6098454306732999E-01 
    7.3585540534154692E-01 
    7.3582560651470030E-01 
    7.6091557870505699E-01 
    7.6085438906987335E-01 
    7.3579885403711753E-01 
    7.3577524377941350E-01 
    7.6080092106020580E-01 
    7.6075514474439576E-01 
    7.3575485806652952E-01 
    7.3573776631876142E-01 
    7.6071703503626875E-01 
    7.6068657139721052E-01 
    7.3572402558937455E-01 
    7.3571368100453793E-01 
    7.6066373763311290E-01 
    7.6064852173507513E-01 
    7.3570676611003838E-01 
    7.3570330312828824E-01 
    7.6064091576173576E-01 
    7.1164180294989121E-01 
    6.8432543792295775E-01 
    6.8432562795308693E-01 
    7.1162312490402935E-01 
    7.1158698560177480E-01 
    6.8432647931970858E-01 
    6.8432871080203850E-01 
    7.1153521767285233E-01 
    7.1146987738686807E-01 
    6.8433312757396181E-01 
    6.8434055310268205E-01 
    7.1139316866508828E-01 
    7.1130740342672760E-01 
    6.8435176996547076E-01 
    6.8436745955474865E-01 
    7.1121497177338078E-01 
    7.1111831451392227E-01 
    6.8438813833582990E-01 
    6.8441409282764354E-01 
    7.1101989486903783E-01 
    7.1092216809187170E-01 
    6.8444531958919042E-01 
    6.8448148056687519E-01 
    7.1082754785513436E-01 
    7.1073836606708030E-01 
    6.8452188749698117E-01 
    6.8456552876178678E-01 
    7.1065682067634572E-01 
    7.1058490159709564E-01 
    6.8461114739349360E-01 
    6.8465736811275357E-01 
    7.1052428146353808E-01 
    7.1047615873445202E-01 
    6.8470285551822485E-01 
    6.8474647031469638E-01 
    7.1044105470416841E-01 
    7.1041860121733613E-01 
    6.8478738350625412E-01 
    6.8482511819539160E-01 
    7.1040740558321569E-01 
    7.1040511143905571E-01 
    6.8485951383009047E-01 
    6.8489063656019122E-01 
    7.1040874077659233E-01 
    7.1041527851308139E-01 
    6.8491867599052336E-01 
    6.8494386418055508E-01 
    7.1042229073881014E-01 
    7.1042828863702834E-01 
    6.8496643169793636E-01 
    6.8498659328465983E-01 
    7.1043268850361740E-01 
    7.1043548722205785E-01 
    6.8500454695611845E-01 
    6.8502047549693790E-01 
    7.1043691735933923E-01 
    7.1043725072054731E-01 
    6.8503454722970725E-01 
    6.8504691633064263E-01 
    7.1043673823293241E-01 
    7.1043560372245274E-01 
    6.8505772308034019E-01 
    6.8506709411191380E-01 
    7.1043404576776104E-01 
    7.1043223923639187E-01 
    6.8507514264938318E-01 
    6.8508196873146177E-01 
    7.1043033656144994E-01 
    7.1042846884218513E-01 
    6.8508765941735883E-01 
    6.8509228897186192E-01 
    7.1042674678151108E-01 
    7.1042526147106322E-01 
    6.8509591902750000E-01 
    6.8509859872205059E-01 
    7.1042408503258792E-01 
    7.1042327112278525E-01 
    6.8510036481003456E-01 
    6.8510124174717790E-01 
    7.1042285530717941E-01 
    6.5913157141879375E-01 
    6.3439499828457069E-01 
    6.3439681578071794E-01 
    6.5913823833111373E-01 
    6.5915102882261545E-01 
    6.3440038006831745E-01 
    6.3440557720879964E-01 
    6.5916916521301694E-01 
    6.5919181692368067E-01 
    6.3441227066333994E-01 
    6.3442031037782742E-01 
    6.5921814209420326E-01 
    6.5924731590304109E-01 
    6.3442953915549827E-01 
    6.3443979741493939E-01 
    6.5927855519742196E-01 
    6.5931114083334319E-01 
    6.3445092687121085E-01 
    6.3446277344430779E-01 
    6.5934443672329690E-01 
    6.5937790344569147E-01 
    6.3447518955892523E-01 
    6.3448803590387703E-01 
    6.5941110413348170E-01 
    6.5944370181474510E-01 
    6.3450118267482336E-01 
    6.3451451031445461E-01 
    6.5947544888161325E-01 
    6.5950617090546537E-01 
    6.3452790978709694E-01 
    6.3454128246525354E-01 
    6.5953574824261962E-01 
    6.5956409899032709E-01 
    6.3455453973776332E-01 
    6.3456760245665567E-01 
    6.5959116597284684E-01 
    6.5961690876372336E-01 
    6.3458040031866347E-01 
    6.3459287123919450E-01 
    6.5964129996457077E-01 
    6.5966432389495500E-01 
    6.3460496073997663E-01 
    6.3461662134994890E-01 
    6.5968597587745503E-01 
    6.5970626113449182E-01 
    6.3462781201407725E-01 
    6.3463849750924806E-01 
    6.5972519320243905E-01 
    6.5974279218670329E-01 
    6.3464864787168007E-01 
    6.3465823784235742E-01 
    6.5975908313868259E-01 
    6.5977409464773606E-01 
    6.3466724633628047E-01 
    6.3467565593978004E-01 
    6.5978785763156855E-01 
    6.5980040429041509E-01 
    6.3468345243878888E-01 
    6.3469062438000057E-01 
    6.5981176720090162E-01 
    6.5982197853251079E-01 
    6.3469716266613541E-01 
    6.3470306018598266E-01 
    6.5983106937238833E-01 
    6.5983906914607249E-01 
    6.3470831147949436E-01 
    6.3471291243790240E-01 
    6.5984600512342628E-01 
    6.5985190200055277E-01 
    6.3471686003863848E-01 
    6.3472015211469923E-01 