# vtk DataFile Version 2.0
Pressure Field Data 
ASCII 
DATASET UNSTRUCTURED_GRID 

POINTS 1681 double 

    0.0000000000000000E+00     0.0000000000000000E+00     0.0000000000000000E+00 
    1.0000000000000000E+00     0.0000000000000000E+00     0.0000000000000000E+00 
    1.0000000000000000E+00     1.0000000000000000E+00     0.0000000000000000E+00 
    0.0000000000000000E+00     1.0000000000000000E+00     0.0000000000000000E+00 
    5.2499999999875258E-01     0.0000000000000000E+00     0.0000000000000000E+00 
    7.4999999999856765E-02     0.0000000000000000E+00     0.0000000000000000E+00 
    1.2499999999975850E-01     0.0000000000000000E+00     0.0000000000000000E+00 
    1.7499999999962990E-01     0.0000000000000000E+00     0.0000000000000000E+00 
    2.2499999999948389E-01     0.0000000000000000E+00     0.0000000000000000E+00 
    2.7499999999933789E-01     0.0000000000000000E+00     0.0000000000000000E+00 
    3.2499999999919210E-01     0.0000000000000000E+00     0.0000000000000000E+00 
    3.7499999999904610E-01     0.0000000000000000E+00     0.0000000000000000E+00 
    4.2499999999890020E-01     0.0000000000000000E+00     0.0000000000000000E+00 
    4.7499999999875958E-01     0.0000000000000000E+00     0.0000000000000000E+00 
    2.4999999999949701E-02     0.0000000000000000E+00     0.0000000000000000E+00 
    5.7499999999887907E-01     0.0000000000000000E+00     0.0000000000000000E+00 
    6.2499999999901101E-01     0.0000000000000000E+00     0.0000000000000000E+00 
    6.7499999999914273E-01     0.0000000000000000E+00     0.0000000000000000E+00 
    7.2499999999927467E-01     0.0000000000000000E+00     0.0000000000000000E+00 
    7.7499999999940661E-01     0.0000000000000000E+00     0.0000000000000000E+00 
    8.2499999999953844E-01     0.0000000000000000E+00     0.0000000000000000E+00 
    8.7499999999967026E-01     0.0000000000000000E+00     0.0000000000000000E+00 
    9.2499999999980220E-01     0.0000000000000000E+00     0.0000000000000000E+00 
    9.7499999999993414E-01     0.0000000000000000E+00     0.0000000000000000E+00 
    5.4999999999881310E-01     0.0000000000000000E+00     0.0000000000000000E+00 
    9.9999999999814140E-02     0.0000000000000000E+00     0.0000000000000000E+00 
    1.4999999999970290E-01     0.0000000000000000E+00     0.0000000000000000E+00 
    1.9999999999955689E-01     0.0000000000000000E+00     0.0000000000000000E+00 
    2.4999999999941089E-01     0.0000000000000000E+00     0.0000000000000000E+00 
    2.9999999999926502E-01     0.0000000000000000E+00     0.0000000000000000E+00 
    3.4999999999911913E-01     0.0000000000000000E+00     0.0000000000000000E+00 
    3.9999999999897312E-01     0.0000000000000000E+00     0.0000000000000000E+00 
    4.4999999999882723E-01     0.0000000000000000E+00     0.0000000000000000E+00 
    4.9999999999869210E-01     0.0000000000000000E+00     0.0000000000000000E+00 
    4.9999999999899403E-02     0.0000000000000000E+00     0.0000000000000000E+00 
    5.9999999999894504E-01     0.0000000000000000E+00     0.0000000000000000E+00 
    6.4999999999907687E-01     0.0000000000000000E+00     0.0000000000000000E+00 
    6.9999999999920870E-01     0.0000000000000000E+00     0.0000000000000000E+00 
    7.4999999999934064E-01     0.0000000000000000E+00     0.0000000000000000E+00 
    7.9999999999947247E-01     0.0000000000000000E+00     0.0000000000000000E+00 
    8.4999999999960441E-01     0.0000000000000000E+00     0.0000000000000000E+00 
    8.9999999999973623E-01     0.0000000000000000E+00     0.0000000000000000E+00 
    9.4999999999986817E-01     0.0000000000000000E+00     0.0000000000000000E+00 
    1.0000000000000000E+00     5.2499999999875258E-01     0.0000000000000000E+00 
    1.0000000000000000E+00     7.4999999999856765E-02     0.0000000000000000E+00 
    1.0000000000000000E+00     1.2499999999975850E-01     0.0000000000000000E+00 
    1.0000000000000000E+00     1.7499999999962990E-01     0.0000000000000000E+00 
    1.0000000000000000E+00     2.2499999999948389E-01     0.0000000000000000E+00 
    1.0000000000000000E+00     2.7499999999933789E-01     0.0000000000000000E+00 
    1.0000000000000000E+00     3.2499999999919210E-01     0.0000000000000000E+00 
    1.0000000000000000E+00     3.7499999999904610E-01     0.0000000000000000E+00 
    1.0000000000000000E+00     4.2499999999890020E-01     0.0000000000000000E+00 
    1.0000000000000000E+00     4.7499999999875958E-01     0.0000000000000000E+00 
    1.0000000000000000E+00     2.4999999999949701E-02     0.0000000000000000E+00 
    1.0000000000000000E+00     5.7499999999887907E-01     0.0000000000000000E+00 
    1.0000000000000000E+00     6.2499999999901101E-01     0.0000000000000000E+00 
    1.0000000000000000E+00     6.7499999999914273E-01     0.0000000000000000E+00 
    1.0000000000000000E+00     7.2499999999927467E-01     0.0000000000000000E+00 
    1.0000000000000000E+00     7.7499999999940661E-01     0.0000000000000000E+00 
    1.0000000000000000E+00     8.2499999999953844E-01     0.0000000000000000E+00 
    1.0000000000000000E+00     8.7499999999967026E-01     0.0000000000000000E+00 
    1.0000000000000000E+00     9.2499999999980220E-01     0.0000000000000000E+00 
    1.0000000000000000E+00     9.7499999999993414E-01     0.0000000000000000E+00 
    1.0000000000000000E+00     5.4999999999881310E-01     0.0000000000000000E+00 
    1.0000000000000000E+00     9.9999999999814140E-02     0.0000000000000000E+00 
    1.0000000000000000E+00     1.4999999999970290E-01     0.0000000000000000E+00 
    1.0000000000000000E+00     1.9999999999955689E-01     0.0000000000000000E+00 
    1.0000000000000000E+00     2.4999999999941089E-01     0.0000000000000000E+00 
    1.0000000000000000E+00     2.9999999999926502E-01     0.0000000000000000E+00 
    1.0000000000000000E+00     3.4999999999911913E-01     0.0000000000000000E+00 
    1.0000000000000000E+00     3.9999999999897312E-01     0.0000000000000000E+00 
    1.0000000000000000E+00     4.4999999999882723E-01     0.0000000000000000E+00 
    1.0000000000000000E+00     4.9999999999869210E-01     0.0000000000000000E+00 
    1.0000000000000000E+00     4.9999999999899403E-02     0.0000000000000000E+00 
    1.0000000000000000E+00     5.9999999999894504E-01     0.0000000000000000E+00 
    1.0000000000000000E+00     6.4999999999907687E-01     0.0000000000000000E+00 
    1.0000000000000000E+00     6.9999999999920870E-01     0.0000000000000000E+00 
    1.0000000000000000E+00     7.4999999999934064E-01     0.0000000000000000E+00 
    1.0000000000000000E+00     7.9999999999947247E-01     0.0000000000000000E+00 
    1.0000000000000000E+00     8.4999999999960441E-01     0.0000000000000000E+00 
    1.0000000000000000E+00     8.9999999999973623E-01     0.0000000000000000E+00 
    1.0000000000000000E+00     9.4999999999986817E-01     0.0000000000000000E+00 
    4.7500000000196618E-01     1.0000000000000000E+00     0.0000000000000000E+00 
    9.2499999999968763E-01     1.0000000000000000E+00     0.0000000000000000E+00 
    8.7499999999961831E-01     1.0000000000000000E+00     0.0000000000000000E+00 
    8.2499999999982654E-01     1.0000000000000000E+00     0.0000000000000000E+00 
    7.7500000000017355E-01     1.0000000000000000E+00     0.0000000000000000E+00 
    7.2500000000052045E-01     1.0000000000000000E+00     0.0000000000000000E+00 
    6.7500000000086724E-01     1.0000000000000000E+00     0.0000000000000000E+00 
    6.2500000000121403E-01     1.0000000000000000E+00     0.0000000000000000E+00 
    5.7500000000156093E-01     1.0000000000000000E+00     0.0000000000000000E+00 
    5.2500000000189684E-01     1.0000000000000000E+00     0.0000000000000000E+00 
    9.7499999999989595E-01     1.0000000000000000E+00     0.0000000000000000E+00 
    4.2500000000176902E-01     1.0000000000000000E+00     0.0000000000000000E+00 
    3.7500000000156092E-01     1.0000000000000000E+00     0.0000000000000000E+00 
    3.2500000000135282E-01     1.0000000000000000E+00     0.0000000000000000E+00 
    2.7500000000114472E-01     1.0000000000000000E+00     0.0000000000000000E+00 
    2.2500000000093659E-01     1.0000000000000000E+00     0.0000000000000000E+00 
    1.7500000000072849E-01     1.0000000000000000E+00     0.0000000000000000E+00 
    1.2500000000052039E-01     1.0000000000000000E+00     0.0000000000000000E+00 
    7.5000000000312261E-02     1.0000000000000000E+00     0.0000000000000000E+00 
    2.5000000000104109E-02     1.0000000000000000E+00     0.0000000000000000E+00 
    4.5000000000187301E-01     1.0000000000000000E+00     0.0000000000000000E+00 
    8.9999999999958358E-01     1.0000000000000000E+00     0.0000000000000000E+00 
    8.4999999999965303E-01     1.0000000000000000E+00     0.0000000000000000E+00 
    8.0000000000000004E-01     1.0000000000000000E+00     0.0000000000000000E+00 
    7.5000000000034706E-01     1.0000000000000000E+00     0.0000000000000000E+00 
    7.0000000000069384E-01     1.0000000000000000E+00     0.0000000000000000E+00 
    6.5000000000104063E-01     1.0000000000000000E+00     0.0000000000000000E+00 
    6.0000000000138742E-01     1.0000000000000000E+00     0.0000000000000000E+00 
    5.5000000000173432E-01     1.0000000000000000E+00     0.0000000000000000E+00 
    5.0000000000205946E-01     1.0000000000000000E+00     0.0000000000000000E+00 
    9.4999999999979179E-01     1.0000000000000000E+00     0.0000000000000000E+00 
    4.0000000000166491E-01     1.0000000000000000E+00     0.0000000000000000E+00 
    3.5000000000145681E-01     1.0000000000000000E+00     0.0000000000000000E+00 
    3.0000000000124871E-01     1.0000000000000000E+00     0.0000000000000000E+00 
    2.5000000000104061E-01     1.0000000000000000E+00     0.0000000000000000E+00 
    2.0000000000083251E-01     1.0000000000000000E+00     0.0000000000000000E+00 
    1.5000000000062441E-01     1.0000000000000000E+00     0.0000000000000000E+00 
    1.0000000000041630E-01     1.0000000000000000E+00     0.0000000000000000E+00 
[...]
CELL_DATA 1600 
SCALARS Pressure double 1 
LOOKUP_TABLE default 

    7.6142012607939635E-01 
    7.4298099262678874E-01 
    7.4288634944642074E-01 
    7.5951821095247540E-01 
    7.5776100813572034E-01 
    7.4271510504862426E-01 
    7.4248265811594150E-01 
    7.5613721509625798E-01 
    7.5463389554503957E-01 
    7.4220175903902208E-01 
    7.4188307362906947E-01 
    7.5323946684814691E-01 
    7.5194367824050479E-01 
    7.4153552962998981E-01 
    7.4116660046113969E-01 
    7.5073748207389446E-01 
    7.4961289605020631E-01 
    7.4078254112128372E-01 
    7.4038858525661144E-01 
    7.4856287509811492E-01 
    7.4758119687822311E-01 
    7.3998911016600877E-01 
    7.3958777515670582E-01 
    7.4666236101968197E-01 
    7.4580150103377352E-01 
    7.3918763767221041E-01 
    7.3879125084075103E-01 
    7.4499430754512319E-01 
    7.4423696147462004E-01 
    7.3840074547042278E-01 
    7.3801789900974102E-01 
    7.4352607590799580E-01 
    7.4285864551699243E-01 
    7.3764419357488320E-01 
    7.3728086479977673E-01 
    7.4223200253667398E-01 
    7.4164377843089857E-01 
    7.3692894297886347E-01 
    7.3658928773419396E-01 
    7.4109187049392167E-01 
    7.4057441273866820E-01 
    7.3626261724002162E-01 
    7.3594953287241671E-01 
    7.4008975051189096E-01 
    7.3963641835436122E-01 
    7.3565054001301777E-01 
    7.3536606562029283E-01 
    7.3921312069170619E-01 
    7.3881871499982599E-01 
    7.3509647308483173E-01 
    7.3484207480411168E-01 
    7.3845219713924826E-01 
    7.3811268859629853E-01 
    7.3460314284419725E-01 
    7.3437991799873648E-01 
    7.3779942540650201E-01 
    7.3751174856770951E-01 
    7.3417261750723939E-01 
    7.3398144165282431E-01 
    7.3724909577715514E-01 
    7.3701099434702877E-01 
    7.3380657942134986E-01 
    7.3364821336376451E-01 
    7.3679705516369021E-01 
    7.3660696754633681E-01 
    7.3350652374907799E-01 
    7.3338169199229952E-01 
    7.3644049480182527E-01 
    7.3629747006677948E-01 
    7.3327390308118479E-01 
    7.3318334591205281E-01 
    7.3617779131869543E-01 
    7.3608141169394947E-01 
    7.3311020744204136E-01 
    7.3305464399894649E-01 
    7.3600830910438630E-01 
    7.3595836181872365E-01 
    7.3301665927510462E-01 
    7.3299572776879529E-01 
    7.3593084593808966E-01 
    7.3238653290251943E-01 
    7.2294601956315441E-01 
    7.2293755819322425E-01 
    7.3236468912351349E-01 
    7.3232157684350974E-01 
    7.2292071280138626E-01 
    7.2289565984756909E-01 
    7.3225825021000801E-01 
    7.3217605982515066E-01 
    7.2286265729533328E-01 
    7.2282203725658078E-01 
    7.3207655053980614E-01 
    7.3196138209093253E-01 
    7.2277419635974072E-01 
    7.2271958559011551E-01 
    7.3183226849104011E-01 
    7.3169093253365325E-01 
    7.2265870031318546E-01 
    7.2259207084843047E-01 
    7.3153907230528881E-01 
    7.3137833715499723E-01 
    7.2252025379415397E-01 
    7.2244382420425302E-01 
    7.3121031106050327E-01 
    7.3103650173522361E-01 
    7.2236336865321393E-01 
    7.2227947918255031E-01 
    7.3085833415171586E-01 
    7.3067714742615641E-01 
    7.2219274809355793E-01 
    7.2210376353332151E-01 
    7.3049419422609463E-01 
    7.3031064203940665E-01 
    7.2201310581049161E-01 
    7.2192134437229605E-01 
    7.3012757578383691E-01 
    7.2994600135017140E-01 
    7.2182903537303833E-01 
    7.2173671976576870E-01 
    7.2976684976320538E-01 
    7.2959098171752179E-01 
    7.2164492185205087E-01 
    7.2155414822912767E-01 
    7.2941919230319152E-01 
    7.2925221578267707E-01 
    7.2146488707884104E-01 
    7.2137760774804793E-01 
    7.2909073031679938E-01 
    7.2893536256646219E-01 
    7.2129276057571479E-01 
    7.2121077692718116E-01 
    7.2878669211945268E-01 
    7.2864525570919159E-01 
    7.2113206940106045E-01 
    7.2105703217859707E-01 
    7.2851155120566202E-01 
    7.2838604136833862E-01 
    7.2098604148857182E-01 
    7.2091945616195574E-01 
    7.2826915735658027E-01 
    7.2816130199315376E-01 
    7.2085761824703409E-01 
    7.2080085364157154E-01 
    7.2806285276669058E-01 
    7.2797416452585917E-01 
    7.2074947265776224E-01 
    7.2070377032294519E-01 
    7.2789557172338593E-01 
    7.2782738978894268E-01 
    7.2066402589529077E-01 
    7.2063050007551510E-01 
    7.2776991431259086E-01 
    7.2772341352491898E-01 
    7.2060342507865904E-01 
    7.2058297126483895E-01 
    7.2768809727624206E-01 
    7.2766400092360650E-01 
    7.2056913958809121E-01 
    7.2056160646164225E-01 
    7.2765074905927729E-01 
    7.1349984859272841E-01 
    7.0369849090870951E-01 
    7.0369630423293750E-01 
    7.1349583768480940E-01 
    7.1348783896174950E-01 
    7.0369194283677960E-01 
    7.0368543260010563E-01 
    7.1347590740804756E-01 
    7.1346012536197179E-01 
    7.0367681088410894E-01 
    7.0366612777460003E-01 
    7.1344060300878187E-01 
    7.1341747713559822E-01 
    7.0365344604423963E-01 
    7.0363884070639038E-01 
    7.1339090927223925E-01 
    7.1336108354449601E-01 
    7.0362239839270557E-01 
    7.0360421663699679E-01 
    7.1332820438479272E-01 
    7.1329249418591445E-01 
    7.0358440310362358E-01 
    7.0356307478259439E-01 
    7.1325419095712428E-01 
    7.1321354602671616E-01 
    7.0354035716674168E-01 
    7.0351638342293465E-01 
    7.1317082182431824E-01 
    7.1312628976787118E-01 
    7.0349129356726570E-01 
    7.0346523365274038E-01 
    7.1308022827334694E-01 
    7.1303292089957326E-01 
    7.0343835497686868E-01 
    7.0341081331559352E-01 
    7.1298465463583083E-01 
    7.1293571833604286E-01 
    7.0338276818915713E-01 
    7.0335438216476043E-01 
    7.1288640130031999E-01 
    7.1283699200224437E-01 
    7.0332582020024936E-01 
    7.0329724903253010E-01 
    7.1278777695850815E-01 
    7.1273903973627739E-01 
    7.0326883661401740E-01 
    7.0324075160010213E-01 
    7.1269106009286765E-01 
    7.1264411324188492E-01 
    7.0321316289041191E-01 
    7.0318623922643642E-01 
    7.1259846923981607E-01 
    7.1255439248698449E-01 
    7.0316014884777622E-01 
    7.0313505920855268E-01 
    7.1251214133649909E-01 
    7.1247196780374566E-01 
    7.0311113675369019E-01 
    7.0308854675036359E-01 
    7.1243411736577555E-01 
    7.1239882883160788E-01 
    7.0306745315929442E-01 
    7.0304801850530607E-01 
    7.1236633424363316E-01 
    7.1233685871800745E-01 
    7.0303040364510549E-01 
    7.0301476717608202E-01 
    7.1231061999619349E-01 
    7.1228782710840688E-01 
    7.0300126382601602E-01 
    7.0299004005685839E-01 
    7.1226867646872893E-01 
    7.1225334040293509E-01 
    7.0298122199180779E-01 
    7.0297488224172489E-01 
    7.1224193286450510E-01 
    7.1223441193439674E-01 
    7.0297095537054000E-01 
    7.0296907085419602E-01 
    7.1223044269702362E-01 
    6.9342083559371614E-01 
    6.8262828948020760E-01 
    6.8262730980457331E-01 
    6.9341946912375274E-01 
    6.9341674531295039E-01 
    6.8262535890011000E-01 
    6.8262245080380368E-01 
    6.9341268113391086E-01 
    6.9340729923483579E-01 
    6.8261860283325926E-01 
    6.8261383650642649E-01 
    6.9340062909124844E-01 
    6.9339270720018376E-01 
    6.8260817777453586E-01 
    6.8260165701337572E-01 
    6.9338357696704711E-01 
    6.9337328847167878E-01 
    6.8259430892177997E-01 
    6.8258617237928010E-01 
    6.9336189817708949E-01 
    6.9334946860723590E-01 
    6.8257729028437841E-01 
    6.8256770938351108E-01 
    6.9333606800675984E-01 
    6.9332176999014006E-01 
    6.8255748009600148E-01 
    6.8254665633814737E-01 
    6.9330665318528972E-01 
    6.9329080087549477E-01 
    6.8253529534860802E-01 
    6.8252345751680843E-01 
    6.9327430064305506E-01 
    6.9325724401770894E-01 
    6.8251120621591643E-01 
    6.8249860764192261E-01 
    6.9323972613279172E-01 
    6.9322184539202336E-01 
    6.8248573066043927E-01 
    6.8247264666294327E-01 
    6.9320370314980484E-01 
    6.9318540340795287E-01 
    6.8245942943438587E-01 
    6.8244615503429717E-01 
    6.9316705253186406E-01 
    6.9314875898923145E-01 
    6.8243290169378523E-01 
    6.8241974973111674E-01 
    6.9313063311459067E-01 
    6.9311278690314171E-01 
    6.8240678148886635E-01 
    6.8239408129584600E-01 
    6.9309533383742639E-01 
    6.9307838875037098E-01 
    6.8238173545701009E-01 
    6.8236983227388925E-01 
    6.9306206772759749E-01 
    6.9304648805002045E-01 
    6.8235846209595907E-01 
    6.8234771739778022E-01 
    6.9303176817280532E-01 
    6.9301802772483556E-01 
    6.8233769286340840E-01 
    6.8232848542861857E-01 
    6.9300538748452190E-01 
    6.9299396922029965E-01 
    6.8232019416016532E-01 
    6.8231291968638563E-01 
    6.9298389512034542E-01 
    6.9297528612752890E-01 
    6.8230676250968370E-01 
    6.8230181864404005E-01 
    6.9296825745257684E-01 
    6.9296290687888573E-01 
    6.8229816908867325E-01 
    6.8229585659489844E-01 
    6.9295928533740681E-01 
    6.9295733147873195E-01 
    6.8229484727983292E-01 
    6.8229475473032819E-01 
    6.9295664568304127E-01 
    6.7131493519470053E-01 
    6.5948788574994166E-01 
    6.5948718472601064E-01 
    6.7131414248517940E-01 
    6.7131256542588980E-01 
    6.5948579108308036E-01 
    6.5948371767810632E-01 
    6.7131021712726036E-01 
    6.7130711292760459E-01 
    6.5948097910659709E-01 
    6.5947759215604773E-01 
    6.7130327106972898E-01 
    6.7129871292051724E-01 
    6.5947357599406797E-01 
    6.5946895221154711E-01 
    6.7129346300099768E-01 
    6.7128754894148113E-01 
    6.5946374480426839E-01 
    6.5945798012659951E-01 
    6.7128100140412827E-01 
    6.7127385399101280E-01 
    6.5945168683233069E-01 
    6.5944489581011834E-01 
    6.7126614314630351E-01 
    6.7125790805706642E-01 
    6.5943764011749051E-01 
    6.5942995491565770E-01 
    6.7124919055526100E-01 
    6.7124003502257790E-01 
    6.5942187740648783E-01 
    6.5941344677254377E-01 
    6.7123048829933030E-01 
    6.7122059959842928E-01 
    6.5940470412085528E-01 
    6.5939569243098617E-01 
    6.7121042042544732E-01 
    6.7120000450582307E-01 
    6.5938645650792027E-01 
    6.5937704294028165E-01 
    6.7118940772038005E-01 
    6.7117868805048464E-01 
    6.5936750006441103E-01 
    6.5935787793479617E-01 
    6.7116790553436778E-01 
    6.7115712223634583E-01 
    6.5934822830127482E-01 
    6.5933860459322691E-01 
    6.7114640223089705E-01 
    6.7113581160371738E-01 
    6.5932906191050689E-01 
    6.5931965701992834E-01 
    6.7112541847188822E-01 
    6.7111529302490125E-01 
    6.5931044835422847E-01 
    6.5930149600673782E-01 
    6.7110550758698695E-01 
    6.7109613669789325E-01 
    6.5929286170769952E-01 
    6.5928460875376527E-01 
    6.7108725720163520E-01 
    6.7107894831577741E-01 
    6.5927680183345272E-01 
    6.5926950663360251E-01 
    6.7107129161678880E-01 
    6.7106437079688819E-01 
    6.5926278899551527E-01 
    6.5925671315578915E-01 
    6.7105827087583547E-01 
    6.7105307618787091E-01 
    6.5925133814354353E-01 
    6.5924671051950767E-01 
    6.7104886573342426E-01 
    6.7104570326122492E-01 
    6.5924285014086359E-01 
    6.5923972450843449E-01 
    6.7104361921308986E-01 
    6.7104259914970554E-01 
    6.5923722729263134E-01 
    6.5923545190975108E-01 
    6.7104237568160119E-01 
    6.4715893532436808E-01 
    6.3434071551846749E-01 
    6.3434009259610025E-01 
    6.4715828189811186E-01 
    6.4715698351552797E-01 
    6.3433885533978496E-01 
    6.3433701676914056E-01 
    6.4715505301859833E-01 
    6.4715250475843045E-01 
    6.3433459135986781E-01 
    6.3433159513260329E-01 
    6.4714935485225733E-01 
    6.4714562133317166E-01 
    6.3432804576589830E-01 
    6.3432396263865276E-01 
    6.4714132419386949E-01 
    6.4713648537974344E-01 
    6.3431936683235279E-01 
    6.3431428111117560E-01 
    6.4713112875682666E-01 
    6.4712528006676484E-01 
    6.3430872988944609E-01 
    6.3430273919157709E-01 
    6.4711896687505099E-01 
    6.4711221851584599E-01 
    6.3429633660726148E-01 
    6.3428955124333253E-01 
    6.4710506603515450E-01 
    6.4709754213325399E-01 
    6.3428241367285609E-01 
    6.3427495588143656E-01 
    6.4708968110673759E-01 
    6.4708151879017273E-01 
    6.3426721121025331E-01 
    6.3425921429491083E-01 
    6.4707309249709144E-01 
    6.4706444095976356E-01 
    6.3425100099871667E-01 
    6.3424260833841717E-01 
    6.4705560426689113E-01 
    6.4704662379797073E-01 
    6.3423407439964996E-01 
    6.3422543823828714E-01 
    6.4703754215249765E-01 
    6.4702840307136233E-01 
    6.3421673976226323E-01 
    6.3420801958613338E-01 
    6.4701925134650617E-01 
    6.4701013271289121E-01 
    6.3419931884698999E-01 
    6.3419067896464798E-01 
    6.4700109371357462E-01 
    6.4699218152322968E-01 
    6.3418214131970663E-01 
    6.3417374680749716E-01 
    6.4698344370609573E-01 
    6.4697492786781086E-01 
    6.3416553519893903E-01 
    6.3415754419114667E-01 
    6.4696668113050038E-01 
    6.4695874930431463E-01 
    6.3414980794203524E-01 
    6.3414235471563418E-01 
    6.4695117552122394E-01 
    6.4694399788759482E-01 
    6.3413520293958270E-01 
    6.3412835432530013E-01 
    6.4693724529703978E-01 
    6.4693092970147348E-01 
    6.3412178133173158E-01 
    6.3411540309047132E-01 
    6.4692503134339918E-01 
    6.4691946928626387E-01 
    6.3410903535204777E-01 
    6.3410227108171702E-01 
    6.4691403850658302E-01 
    6.4690828189497829E-01 
    6.3409414902312478E-01 
    6.3408632249714991E-01 
    6.4690305921101121E-01 
    6.2104479562497306E-01 
    6.0728108024431227E-01 
    6.0728049919151605E-01 
    6.2104419720303183E-01 
    6.2104300913750321E-01 
    6.0727934603620792E-01 
    6.0727763450994077E-01 
    6.2104124480512379E-01 
    6.2103891912246778E-01 
    6.0727538000617565E-01 
    6.0727259940490286E-01 
    6.2103604849294791E-01 
    6.2103265088936566E-01 
    6.0726931112719751E-01 
    6.0726553518331017E-01 
    6.2102874589931611E-01 
    6.2102435474170259E-01 
    6.0726129320296507E-01 
    6.0725660845317009E-01 
    6.2101950026575659E-01 
    6.2101420693974430E-01 
    6.0725150584858811E-01 
    6.0724601195808381E-01 
    6.2100850083368320E-01 
    6.2100240959864905E-01 
    6.0724015500990525E-01 
    6.0723396489715453E-01 
    6.2099596244415423E-01 
    6.2098919011436238E-01 
    6.0722747318464454E-01 
    6.0722071311785164E-01 
    6.2098212486339410E-01 
    6.2097480042956654E-01 
    6.0721371963437321E-01 
    6.0720652937802611E-01 
    6.2096725200801794E-01 
    6.2095951622074053E-01 
    6.0719918071544066E-01 
    6.0719171375462966E-01 
    6.2095163108249662E-01 
    6.2094363596035251E-01 
    6.0718417036450656E-01 
    6.0717659419354419E-01 
    6.2093557152349188E-01 
    6.2092747967836448E-01 
    6.0716903068454375E-01 
    6.0716152708053550E-01 
    6.2091940348177710E-01 
    6.2091138702066750E-01 
    6.0715413241362326E-01 
    6.0714689746321837E-01 
    6.2090347524106426E-01 
    6.2089571369838970E-01 
    6.0713987466089048E-01 
    6.0713311790291491E-01 
    6.2088814818362092E-01 
    6.2088082414889556E-01 
    6.0712668220259036E-01 
    6.0712062306116110E-01 
    6.2087378580036656E-01 
    6.2086707462277957E-01 
    6.0711499533644597E-01 
    6.0710985119810423E-01 
    6.2086072690405114E-01 
    6.2085476944624818E-01 
    6.0710523638926661E-01 
    6.0710118327451856E-01 
    6.2084921188087849E-01 
    6.2084403235746422E-01 
    6.0709769755194987E-01 
    6.0709473141268600E-01 
    6.2083914936242157E-01 
    6.2083436048537932E-01 
    6.0709212251679745E-01 
    6.0708942106556174E-01 
    6.2082918302223455E-01 
    6.2082227932515843E-01 
    6.0708508059557520E-01 
    6.0708005369347384E-01 
    6.2081526008350940E-01 
    5.9305825627511832E-01 
    5.7838453151857483E-01 
    5.7838394891810474E-01 
    5.9305768056269692E-01 
    5.9305653813271986E-01 
    5.7838279260364944E-01 
    5.7838107633230529E-01 
    5.9305484286196564E-01 
    5.9305261035043499E-01 
    5.7837881555390191E-01 
    5.7837602703002711E-01 
    5.9304985763755980E-01 
    5.9304660322630876E-01 
    5.7837272882316104E-01 
    5.7836894032939534E-01 
    5.9304286712786647E-01 
    5.9303867089823548E-01 
    5.7836468231084615E-01 
    5.7835997692204488E-01 
    5.9303403766639251E-01 
    5.9302899215694105E-01 
    5.7835484773107526E-01 
    5.7834931973725656E-01 
    5.9302356071007212E-01 
    5.9301777130103794E-01 
    5.7834341938706069E-01 
    5.7833717458961464E-01 
    5.9301165356080554E-01 
    5.9300523879914524E-01 
    5.7833061473282887E-01 
    5.7832377070092800E-01 
    5.9299856003113061E-01 
    5.9299165200779469E-01 
    5.7831667489394334E-01 
    5.7830936124951826E-01 
    5.9298455125152272E-01 
    5.9297729609657457E-01 
    5.7830186526715843E-01 
    5.7829422403475905E-01 
    5.9296992673490445E-01 
    5.9296248526710937E-01 
    5.7828647625680640E-01 
    5.7827866228297065E-01 
    5.9295501575779708E-01 
    5.9294756429376438E-01 
    5.7827082413468367E-01 
    5.7826300552544951E-01 
    5.9294017904186425E-01 
    5.9293291030082873E-01 
    5.7825525186746252E-01 
    5.7824761025165250E-01 
    5.9292581053677007E-01 
    5.9291893438400989E-01 
    5.7824012937860536E-01 
    5.7823285940039626E-01 
    5.9291233857832615E-01 
    5.9290608176296855E-01 
    5.7822585160131423E-01 
    5.7821915778533539E-01 
    5.9290022405784526E-01 
    5.9289482618780609E-01 
    5.7821282912358618E-01 
    5.7820691399341440E-01 
    5.9288994778534088E-01 
    5.9288564413403011E-01 
    5.7820145390455047E-01 
    5.7819647571225963E-01 
    5.9288195992417847E-01 
    5.9287891706672780E-01 
    5.7819197624673124E-01 
    5.7818788944043109E-01 
    5.9287648946068505E-01 
    5.9287454248685656E-01 
    5.7818400244188817E-01 
    5.7817968081841320E-01 
    5.9287264721082256E-01 
    5.9286924662823071E-01 
    5.7817402690646003E-01 
    5.7816938576884835E-01 
    5.9286510169770901E-01 
    5.6326785939290558E-01 
    5.4771537716267160E-01 
    5.4771477446458994E-01 
    5.6326726485681944E-01 
    5.6326608451006732E-01 
    5.4771357774761353E-01 
    5.4771180056219382E-01 
    5.6326433189871872E-01 
    5.6326202220662225E-01 
    5.4770945815071281E-01 
    5.4770656690881780E-01 
    5.6325917178798035E-01 
    5.6325579811960080E-01 
    5.4770314431010658E-01 
    5.4769920891385648E-01 
    5.6325191981639799E-01 
    5.6324755665281756E-01 
    5.4769478038674757E-01 
    5.4768987952326209E-01 
    5.6324272957935739E-01 
    5.6323746073263092E-01 
    5.4768452826128644E-01 
    5.4767874969248032E-01 
    5.6323177343947339E-01 
    5.6322569221584862E-01 
    5.4767256806766684E-01 
    5.4766600879746552E-01 
    5.6321924276110380E-01 
    5.6321245194776470E-01 
    5.4765909844810634E-01 
    5.4765186473199690E-01 
    5.6320534780670073E-01 
    5.6319795950706164E-01 
    5.4764433649213562E-01 
    5.4763654367890657E-01 
    5.6319031732992964E-01 
    5.6318245263403599E-01 
    5.4762851731704021E-01 
    5.4762028945950880E-01 
    5.6317439781110823E-01 
    5.6316618622733006E-01 
    5.4761189312369918E-01 
    5.4760336220310690E-01 
    5.6315785214579783E-01 
    5.6314943062247869E-01 
    5.4759473134465708E-01 
    5.4758603577691378E-01 
    5.6314095736448566E-01 
    5.6313246853362176E-01 
    5.4757731106673213E-01 
    5.4756859276930581E-01 
    5.6312400046852251E-01 
    5.6311558928247329E-01 
    5.4755991591529007E-01 
    5.4755131424158510E-01 
    5.6310727026564855E-01 
    5.6309907696949402E-01 
    5.4754281900520962E-01 
    5.4753445709369930E-01 
    5.6309103975616126E-01 
    5.6308318341451025E-01 
    5.4752624790027105E-01 
    5.4751819793532064E-01 
    5.6307552308636366E-01 
    5.6306805701476048E-01 
    5.4751029108958837E-01 
    5.4750247004198160E-01 
    5.6306075303256131E-01 
    5.6305352177106061E-01 
    5.4749459795307842E-01 
    5.4748636907359449E-01 