# vtk DataFile Version 2.0
Pressure Field Data 
ASCII 
DATASET UNSTRUCTURED_GRID 

POINTS 1681 double 

    0.0000000000000000E+00     0.0000000000000000E+00     0.0000000000000000E+00 
    1.0000000000000000E+00     0.0000000000000000E+00     0.0000000000000000E+00 
    1.0000000000000000E+00     1.0000000000000000E+00     0.0000000000000000E+00 
    0.0000000000000000E+00     1.0000000000000000E+00     0.0000000000000000E+00 
    5.2499999999875258E-01     0.0000000000000000E+00     0.0000000000000000E+00 
    7.4999999999856765E-02     0.0000000000000000E+00     0.0000000000000000E+00 
    1.2499999999975850E-01     0.0000000000000000E+00     0.0000000000000000E+00 
    1.7499999999962990E-01     0.0000000000000000E+00     0.0000000000000000E+00 
    2.2499999999948389E-01     0.0000000000000000E+00     0.0000000000000000E+00 
    2.7499999999933789E-01     0.0000000000000000E+00     0.0000000000000000E+00 
    3.2499999999919210E-01     0.0000000000000000E+00     0.0000000000000000E+00 
    3.7499999999904610E-01     0.0000000000000000E+00     0.0000000000000000E+00 
    4.2499999999890020E-01     0.0000000000000000E+00     0.0000000000000000E+00 
    4.7499999999875958E-01     0.0000000000000000E+00     0.0000000000000000E+00 
    2.4999999999949701E-02     0.0000000000000000E+00     0.0000000000000000E+00 
    5.7499999999887907E-01     0.0000000000000000E+00     0.0000000000000000E+00 
    6.2499999999901101E-01     0.0000000000000000E+00     0.0000000000000000E+00 
    6.7499999999914273E-01     0.0000000000000000E+00     0.0000000000000000E+00 
    7.2499999999927467E-01     0.0000000000000000E+00     0.0000000000000000E+00 
    7.7499999999940661E-01     0.0000000000000000E+00     0.0000000000000000E+00 
    8.2499999999953844E-01     0.0000000000000000E+00     0.0000000000000000E+00 
    8.7499999999967026E-01     0.0000000000000000E+00     0.0000000000000000E+00 
    9.2499999999980220E-01     0.0000000000000000E+00     0.0000000000000000E+00 
    9.7499999999993414E-01     0.0000000000000000E+00     0.0000000000000000E+00 
    5.4999999999881310E-01     0.0000000000000000E+00     0.0000000000000000E+00 
    9.9999999999814140E-02     0.0000000000000000E+00     0.0000000000000000E+00 
    1.4999999999970290E-01     0.0000000000000000E+00     0.0000000000000000E+00 
    1.9999999999955689E-01     0.0000000000000000E+00     0.0000000000000000E+00 
    2.4999999999941089E-01     0.0000000000000000E+00     0.0000000000000000E+00 
    2.9999999999926502E-01     0.0000000000000000E+00     0.0000000000000000E+00 
    3.4999999999911913E-01     0.0000000000000000E+00     0.0000000000000000E+00 
    3.9999999999897312E-01     0.0000000000000000E+00     0.0000000000000000E+00 
    4.4999999999882723E-01     0.0000000000000000E+00     0.0000000000000000E+00 
    4.9999999999869210E-01     0.0000000000000000E+00     0.0000000000000000E+00 
    4.9999999999899403E-02     0.0000000000000000E+00     0.0000000000000000E+00 
    5.9999999999894504E-01     0.0000000000000000E+00     0.0000000000000000E+00 
    6.4999999999907687E-01     0.0000000000000000E+00     0.0000000000000000E+00 
    6.9999999999920870E-01     0.0000000000000000E+00     0.0000000000000000E+00 
    7.4999999999934064E-01     0.0000000000000000E+00     0.0000000000000000E+00 
    7.9999999999947247E-01     0.0000000000000000E+00     0.0000000000000000E+00 
    8.4999999999960441E-01     0.0000000000000000E+00     0.0000000000000000E+00 
    8.9999999999973623E-01     0.0000000000000000E+00     0.0000000000000000E+00 
    9.4999999999986817E-01     0.0000000000000000E+00     0.0000000000000000E+00 
    1.0000000000000000E+00     5.2499999999875258E-01     0.0000000000000000E+00 
    1.0000000000000000E+00     7.4999999999856765E-02     0.0000000000000000E+00 
    1.0000000000000000E+00     1.2499999999975850E-01     0.0000000000000000E+00 
    1.0000000000000000E+00     1.7499999999962990E-01     0.0000000000000000E+00 
    1.0000000000000000E+00     2.2499999999948389E-01     0.0000000000000000E+00 
    1.0000000000000000E+00     2.7499999999933789E-01     0.0000000000000000E+00 
    1.0000000000000000E+00     3.2499999999919210E-01     0.0000000000000000E+00 
    1.0000000000000000E+00     3.7499999999904610E-01     0.0000000000000000E+00 
    1.0000000000000000E+00     4.2499999999890020E-01     0.0000000000000000E+00 
    1.0000000000000000E+00     4.7499999999875958E-01     0.0000000000000000E+00 
    1.0000000000000000E+00     2.4999999999949701E-02     0.0000000000000000E+00 
    1.0000000000000000E+00     5.7499999999887907E-01     0.0000000000000000E+00 
    1.0000000000000000E+00     6.2499999999901101E-01     0.0000000000000000E+00 
    1.0000000000000000E+00     6.7499999999914273E-01     0.0000000000000000E+00 
    1.0000000000000000E+00     7.2499999999927467E-01     0.0000000000000000E+00 
    1.0000000000000000E+00     7.7499999999940661E-01     0.0000000000000000E+00 
    1.0000000000000000E+00     8.2499999999953844E-01     0.0000000000000000E+00 
    1.0000000000000000E+00     8.7499999999967026E-01     0.0000000000000000E+00 
    1.0000000000000000E+00     9.2499999999980220E-01     0.0000000000000000E+00 
    1.0000000000000000E+00     9.7499999999993414E-01     0.0000000000000000E+00 
    1.0000000000000000E+00     5.4999999999881310E-01     0.0000000000000000E+00 
    1.0000000000000000E+00     9.9999999999814140E-02     0.0000000000000000E+00 
    1.0000000000000000E+00     1.4999999999970290E-01     0.0000000000000000E+00 
    1.0000000000000000E+00     1.9999999999955689E-01     0.0000000000000000E+00 
    1.0000000000000000E+00     2.4999999999941089E-01     0.0000000000000000E+00 
    1.0000000000000000E+00     2.9999999999926502E-01     0.0000000000000000E+00 
    1.0000000000000000E+00     3.4999999999911913E-01     0.0000000000000000E+00 
    1.0000000000000000E+00     3.9999999999897312E-01     0.0000000000000000E+00 
    1.0000000000000000E+00     4.4999999999882723E-01     0.0000000000000000E+00 
    1.0000000000000000E+00     4.9999999999869210E-01     0.0000000000000000E+00 
    1.0000000000000000E+00     4.9999999999899403E-02     0.0000000000000000E+00 
    1.0000000000000000E+00     5.9999999999894504E-01     0.0000000000000000E+00 
    1.0000000000000000E+00     6.4999999999907687E-01     0.0000000000000000E+00 
    1.0000000000000000E+00     6.9999999999920870E-01     0.0000000000000000E+00 
    1.0000000000000000E+00     7.4999999999934064E-01     0.0000000000000000E+00 
    1.0000000000000000E+00     7.9999999999947247E-01     0.0000000000000000E+00 
    1.0000000000000000E+00     8.4999999999960441E-01     0.0000000000000000E+00 
    1.0000000000000000E+00     8.9999999999973623E-01     0.0000000000000000E+00 
    1.0000000000000000E+00     9.4999999999986817E-01     0.0000000000000000E+00 
    4.7500000000196618E-01     1.0000000000000000E+00     0.0000000000000000E+00 
    9.2499999999968763E-01     1.0000000000000000E+00     0.0000000000000000E+00 
    8.7499999999961831E-01     1.0000000000000000E+00     0.0000000000000000E+00 
    8.2499999999982654E-01     1.0000000000000000E+00     0.0000000000000000E+00 
    7.7500000000017355E-01     1.0000000000000000E+00     0.0000000000000000E+00 
    7.2500000000052045E-01     1.0000000000000000E+00     0.0000000000000000E+00 
    6.7500000000086724E-01     1.0000000000000000E+00     0.0000000000000000E+00 
    6.2500000000121403E-01     1.0000000000000000E+00     0.0000000000000000E+00 
    5.7500000000156093E-01     1.0000000000000000E+00     0.0000000000000000E+00 
    5.2500000000189684E-01     1.0000000000000000E+00     0.0000000000000000E+00 
    9.7499999999989595E-01     1.0000000000000000E+00     0.0000000000000000E+00 
    4.2500000000176902E-01     1.0000000000000000E+00     0.0000000000000000E+00 
    3.7500000000156092E-01     1.0000000000000000E+00     0.0000000000000000E+00 
    3.2500000000135282E-01     1.0000000000000000E+00     0.0000000000000000E+00 
    2.7500000000114472E-01     1.0000000000000000E+00     0.0000000000000000E+00 
    2.2500000000093659E-01     1.0000000000000000E+00     0.0000000000000000E+00 
    1.7500000000072849E-01     1.0000000000000000E+00     0.0000000000000000E+00 
    1.2500000000052039E-01     1.0000000000000000E+00     0.0000000000000000E+00 
    7.5000000000312261E-02     1.0000000000000000E+00     0.0000000000000000E+00 
    2.5000000000104109E-02     1.0000000000000000E+00     0.0000000000000000E+00 
    4.5000000000187301E-01     1.0000000000000000E+00     0.0000000000000000E+00 
    8.9999999999958358E-01     1.0000000000000000E+00     0.0000000000000000E+00 
    8.4999999999965303E-01     1.0000000000000000E+00     0.0000000000000000E+00 
    8.0000000000000004E-01     1.0000000000000000E+00     0.0000000000000000E+00 
    7.5000000000034706E-01     1.0000000000000000E+00     0.0000000000000000E+00 
    7.0000000000069384E-01     1.0000000000000000E+00     0.0000000000000000E+00 
    6.5000000000104063E-01     1.0000000000000000E+00     0.0000000000000000E+00 
    6.0000000000138742E-01     1.0000000000000000E+00     0.0000000000000000E+00 
    5.5000000000173432E-01     1.0000000000000000E+00     0.0000000000000000E+00 
    5.0000000000205946E-01     1.0000000000000000E+00     0.0000000000000000E+00 
    9.4999999999979179E-01     1.0000000000000000E+00     0.0000000000000000E+00 
    4.0000000000166491E-01     1.0000000000000000E+00     0.0000000000000000E+00 
    3.5000000000145681E-01     1.0000000000000000E+00     0.0000000000000000E+00 
    3.0000000000124871E-01     1.0000000000000000E+00     0.0000000000000000E+00 
    2.5000000000104061E-01     1.0000000000000000E+00     0.0000000000000000E+00 
    2.0000000000083251E-01     1.0000000000000000E+00     0.0000000000000000E+00 
    1.5000000000062441E-01     1.0000000000000000E+00     0.0000000000000000E+00 
    1.0000000000041630E-01     1.0000000000000000E+00     0.0000000000000000E+00 
[...]
CELL_DATA 1600 
SCALARS Pressure double 1 
LOOKUP_TABLE default 

    8.2665115468795003E-01 
    8.0788895012813899E-01 
    8.0779275715738919E-01 
    8.2474014221632930E-01 
    8.2297181481734438E-01 
    8.0761856024893874E-01 
    8.0738195621130315E-01 
    8.2133595249200497E-01 
    8.1981982663598862E-01 
    8.0709582396154977E-01 
    8.0677093867333605E-01 
    8.1841198226482592E-01 
    8.1710226534617536E-01 
    8.0641632532864260E-01 
    8.0603954618743245E-01 
    8.1588170933864212E-01 
    8.1474240396300412E-01 
    8.0564693901750661E-01 
    8.0524381569939119E-01 
    8.1367737038145749E-01 
    8.1268044855393407E-01 
    8.0483462827207841E-01 
    8.0442310800094874E-01 
    8.1174619758765765E-01 
    8.1086980835345968E-01 
    8.0401238199580050E-01 
    8.0360507109752333E-01 
    8.1004702717670962E-01 
    8.0927408932925071E-01 
    8.0320337210766479E-01 
    8.0280912691310802E-01 
    8.0854766111066045E-01 
    8.0786478941950912E-01 
    8.0242388063079617E-01 
    8.0204893054549142E-01 
    8.0722285784004522E-01 
    8.0661954839091499E-01 
    8.0168536732238316E-01 
    8.0133410973473529E-01 
    8.0605280819388936E-01 
    8.0552082042009820E-01 
    8.0099593394579394E-01 
    8.0067149821669781E-01 
    8.0502197895884720E-01 
    8.0455486633055573E-01 
    8.0036136377244405E-01 
    8.0006601244126740E-01 
    8.0411823443175834E-01 
    8.0371098775761030E-01 
    7.9978586158523812E-01 
    7.9952127675827023E-01 
    8.0333216879707703E-01 
    8.0298094533883280E-01 
    7.9927258245922583E-01 
    7.9904007128997268E-01 
    8.0265659946252521E-01 
    8.0235851802069469E-01 
    7.9882401177859297E-01 
    7.9862465508337621E-01 
    8.0208618444056934E-01 
    8.0183917168941687E-01 
    7.9844224074864878E-01 
    7.9827700162804127E-01 
    8.0161713624406983E-01 
    8.0141981286183128E-01 
    7.9812916799674738E-01 
    7.9799897066093972E-01 
    8.0124700979698726E-01 
    8.0109860361433449E-01 
    7.9788664227841943E-01 
    7.9779241420015690E-01 
    8.0097453106433836E-01 
    8.0087476915961164E-01 
    7.9771649942781930E-01 
    7.9765902798431854E-01 
    8.0079926967111359E-01 
    8.0074772395459515E-01 
    7.9761982485006633E-01 
    7.9759791861466645E-01 
    8.0071889984098144E-01 
    7.9684189992211585E-01 
    7.8683599318097708E-01 
    7.8682702994094489E-01 
    7.9681933104796066E-01 
    7.9677477055334700E-01 
    7.8680918272179634E-01 
    7.8678263596859932E-01 
    7.9670929100643695E-01 
    7.9662426612409265E-01 
    7.8674765827031456E-01 
    7.8670459524664982E-01 
    7.9652126820641045E-01 
    7.9640198825228325E-01 
    7.8665385983901781E-01 
    7.8659592196409900E-01 
    7.9626817478134149E-01 
    7.9612158782641307E-01 
    7.8653129832063839E-01 
    7.8646054274529631E-01 
    7.9596396500148370E-01 
    7.9579699709047869E-01 
    7.8638423732850482E-01 
    7.8630298439510693E-01 
    7.9562231108639081E-01 
    7.9544145901611862E-01 
    7.8621739938726065E-01 
    7.8612810464294636E-01 
    7.9525591121928640E-01 
    7.9506705301997171E-01 
    7.8603572403465727E-01 
    7.8594087841481353E-01 
    7.9487618394932602E-01 
    7.9468451885383462E-01 
    7.8584418180402060E-01 
    7.8574623825333756E-01 
    7.9449319036624777E-01 
    7.9430325233049659E-01 
    7.8564763931060122E-01 
    7.8554896202241298E-01 
    7.9411568386346221E-01 
    7.9393139380966871E-01 
    7.8545076740676067E-01 
    7.8535359933575777E-01 
    7.9375122540329912E-01 
    7.9357596099831629E-01 
    7.8525798377319511E-01 
    7.8516442831712907E-01 
    7.9340632676420186E-01 
    7.9324299727378345E-01 
    7.8507342200332464E-01 
    7.8498543533079812E-01 
    7.9308659993230757E-01 
    7.9293771921439482E-01 
    7.8490092047563176E-01 
    7.8482031166320720E-01 
    7.9279690068847997E-01 
    7.9266465481676596E-01 
    7.8474402567095192E-01 
    7.8467246243129163E-01 
    7.9254146052143626E-01 
    7.9242776850073060E-01 
    7.8460600569206518E-01 
    7.8454502365495560E-01 
    7.9232400425017813E-01 
    7.9223057066312907E-01 
    7.8448986941392385E-01 
    7.8444088075091511E-01 
    7.9214784985802877E-01 
    7.9207620321805783E-01 
    7.8439837811185742E-01 
    7.8436265747624101E-01 
    7.9201596657400175E-01 
    7.9196743079452836E-01 
    7.8433396872111716E-01 
    7.8431245374370839E-01 
    7.9193077691036029E-01 
    7.9190588390853389E-01 
    7.8429799402025357E-01 
    7.8429003237138806E-01 
    7.9189202882763488E-01 
    7.7671995835431629E-01 
    7.6615088273439680E-01 
    7.6614834224125139E-01 
    7.7671554400426790E-01 
    7.7670674173985410E-01 
    7.6614327716759334E-01 
    7.6613572043005707E-01 
    7.7669361370283896E-01 
    7.7667625098520343E-01 
    7.6612571756031411E-01 
    7.6611332802565379E-01 
    7.7665477432525998E-01 
    7.7662933287507718E-01 
    7.6609862521044558E-01 
    7.6608169594155373E-01 
    7.7660010227509424E-01 
    7.7656728241279205E-01 
    7.6606263981634604E-01 
    7.6604156842832560E-01 
    7.7653109502991358E-01 
    7.7649178127202134E-01 
    7.6601860453447823E-01 
    7.6599388118938361E-01 
    7.7644959924331269E-01 
    7.7640482161240598E-01 
    7.6596754086291863E-01 
    7.6593973455430664E-01 
    7.7635773330323488E-01 
    7.7630862929641653E-01 
    7.6591062091290918E-01 
    7.6588036537458815E-01 
    7.7625781255945081E-01 
    7.7620559211835893E-01 
    7.6584913932126442E-01 
    7.6581711927031781E-01 
    7.7615228127868319E-01 
    7.7609819599997487E-01 
    7.6578448609963468E-01 
    7.6575142431337717E-01 
    7.7604365342490933E-01 
    7.7598897056188476E-01 
    7.6571812135294548E-01 
    7.6568476695707099E-01 
    7.7593446311829406E-01 
    7.7588044448054749E-01 
    7.6565155257454209E-01 
    7.6561867083265678E-01 
    7.7582722483625743E-01 
    7.7577511043367453E-01 
    7.6558631506402408E-01 
    7.6555467889360151E-01 
    7.7572440297332479E-01 
    7.7567539912651118E-01 
    7.6552395588642896E-01 
    7.6549433925350108E-01 
    7.7562839017431484E-01 
    7.7558366175757876E-01 
    7.6546602160668020E-01 
    7.6543919473929101E-01 
    7.7554149372007897E-01 
    7.7550216000652994E-01 
    7.6541404937758983E-01 
    7.6539077477795925E-01 
    7.7546592852705898E-01 
    7.7543306077701124E-01 
    7.6536955788423933E-01 
    7.6535058138628242E-01 
    7.7540381069316988E-01 
    7.7537842143630675E-01 
    7.6533401913942178E-01 
    7.6532002533359045E-01 
    7.7535711672958862E-01 
    7.7534007817203199E-01 
    7.6530870921130578E-01 
    7.6530007930098121E-01 
    7.7532738885382846E-01 
    7.7531892243033484E-01 
    7.6529395366582875E-01 
    7.6529021712056877E-01 
    7.7531427695531285E-01 
    7.5501303396303288E-01 
    7.4327206893346964E-01 
    7.4327078453756601E-01 
    7.5501134156726302E-01 
    7.5500797001194209E-01 
    7.4326822829236550E-01 
    7.4326442091132294E-01 
    7.5500294312106397E-01 
    7.5499629128394175E-01 
    7.4325938716906526E-01 
    7.4325315668091041E-01 
    7.5498805256468582E-01 
    7.5497827290255826E-01 
    7.4324576412402210E-01 
    7.4323724921778078E-01 
    7.5496700598350619E-01 
    7.5495431297584692E-01 
    7.4322765660195522E-01 
    7.4321703566594433E-01 
    7.5494026220011301E-01 
    7.5492492876328843E-01 
    7.4320544035254155E-01 
    7.4319292894765099E-01 
    7.5490839417251310E-01 
    7.5489074593684269E-01 
    7.4317956386196460E-01 
    7.4316541140796821E-01 
    7.5487207716267724E-01 
    7.5485248614697698E-01 
    7.4315054157426286E-01 
    7.4313502779841911E-01 
    7.5483207597161950E-01 
    7.5481095410180710E-01 
    7.4311894673908474E-01 
    7.4310237804770118E-01 
    7.5478923199113290E-01 
    7.5476702469569967E-01 
    7.4308540413982083E-01 
    7.4306810996559602E-01 
    7.5474445049945937E-01 
    7.5472163055270436E-01 
    7.4305058277843805E-01 
    7.4303291190003262E-01 
    7.5469868852530719E-01 
    7.5467575027583800E-01 
    7.4301518847866088E-01 
    7.4299750523587760E-01 
    7.5465294353693368E-01 
    7.5463039761603024E-01 
    7.4297995619356183E-01 
    7.4296263636840876E-01 
    7.5460824310837049E-01 
    7.5458661161523599E-01 
    7.4294564141256958E-01 
    7.4292906716464513E-01 
    7.5456563545300137E-01 
    7.5454544732460993E-01 
    7.4291300904920221E-01 
    7.4289756121469497E-01 
    7.5452617989767512E-01 
    7.5450796517829122E-01 
    7.4288281520713073E-01 
    7.4286885779366829E-01 
    7.5449093345559137E-01 
    7.5447521134984485E-01 
    7.4285576717683388E-01 
    7.4284360605560951E-01 
    7.5446091797014159E-01 
    7.5444815702086843E-01 
    7.4283240828638830E-01 
    7.4282215201717638E-01 
    7.5443700008796144E-01 
    7.5442745054929117E-01 
    7.4281270254429543E-01 
    7.4280368031729793E-01 
    7.5441936534389276E-01 
    7.5441230587818153E-01 
    7.4279412369643516E-01 
    7.4278559645219566E-01 
    7.5440680916562008E-01 
    7.3092492399959719E-01 
    7.1798001641499787E-01 
    7.1797905295815001E-01 
    7.3092384854679748E-01 
    7.3092171012482665E-01 
    7.1797713863130774E-01 
    7.1797429308198257E-01 
    7.3091852851903194E-01 
    7.3091432655184441E-01 
    7.1797053861622251E-01 
    7.1796590038409891E-01 
    7.3090913054558260E-01 
    7.3090297051667730E-01 
    7.1796040653395188E-01 
    7.1795408826147211E-01 
    7.3089588020158336E-01 
    7.3088789700518608E-01 
    7.1794697980254496E-01 
    7.1793911839682190E-01 
    7.3087906191099139E-01 
    7.3086941937161898E-01 
    7.1793054423635538E-01 
    7.1792130040731517E-01 
    7.3085901718904089E-01 
    7.3084790638961905E-01 
    7.1791143282946646E-01 
    7.1790099019625198E-01 
    7.3083614109672479E-01 
    7.3082377840244916E-01 
    7.1789002391724810E-01 
    7.1787858806412119E-01 
    7.3081087823915347E-01 
    7.3079750325108594E-01 
    7.1786673932078005E-01 
    7.1785453693808465E-01 
    7.3078371866586611E-01 
    7.3076959216519677E-01 
    7.1784204269314211E-01 
    7.1782932085282380E-01 
    7.3075519375363440E-01 
    7.3074059562350657E-01 
    7.1781643814055085E-01 
    7.1780346370451675E-01 
    7.3072587201299677E-01 
    7.3071109905278642E-01 
    7.1779046908408506E-01 
    7.1777752816877427E-01 
    7.3069635459409421E-01 
    7.3068171800689541E-01 
    7.1776471714036016E-01 
    7.1775211438200504E-01 
    7.3066726993041753E-01 
    7.3065309194675954E-01 
    7.1773980032683482E-01 
    7.1772785719794419E-01 
    7.3063926612894192E-01 
    7.3062587437980608E-01 
    7.1771636855464904E-01 
    7.1770541849053393E-01 
    7.3061299741387209E-01 
    7.3060071311224073E-01 
    7.1769509019691180E-01 
    7.1768546334898364E-01 
    7.3058909374239611E-01 
    7.3057820105693805E-01 
    7.1767660926451649E-01 
    7.1766858175466097E-01 
    7.3056807729804041E-01 
    7.3055872800185251E-01 
    7.1766139937843121E-01 
    7.1765500946191296E-01 
    7.3055008749171280E-01 
    7.3054194424704233E-01 
    7.1764920810295285E-01 
    7.1764342848166973E-01 
    7.3053375625604200E-01 
    7.3052405552413513E-01 
    7.1763598299880671E-01 
    7.1762875868276321E-01 
    7.3051498640253199E-01 
    7.0444943375278712E-01 
    6.9034615288866052E-01 
    6.9034527146627744E-01 
    7.0444852762500410E-01 
    7.0444672797526309E-01 
    6.9034352110348041E-01 
    6.9034092120243828E-01 
    7.0444405439900537E-01 
    7.0444052898384613E-01 
    6.9033749353400020E-01 
    6.9033326197519829E-01 
    7.0443617625498178E-01 
    7.0443102328016483E-01 
    6.9032825255725394E-01 
    6.9032249350869679E-01 
    7.0442509972384615E-01 
    7.0441843786286906E-01 
    6.9031601527423625E-01 
    6.9030885051472957E-01 
    7.0441107257946123E-01 
    7.0440304134186171E-01 
    6.9030103409448229E-01 
    6.9029260306052409E-01 
    7.0439438417910849E-01 
    7.0438514365415239E-01 
    6.9028359661697136E-01 
    6.9027405609645232E-01 
    7.0437536483803054E-01 
    7.0436509528694713E-01 
    6.9026402492973782E-01 
    6.9025354861409316E-01 
    7.0435438502355052E-01 
    7.0434328652331779E-01 
    6.9024267468032985E-01 
    6.9023145265802832E-01 
    7.0433185470666659E-01 
    7.0432014693712908E-01 
    6.9021993403780779E-01 
    6.9020817222875752E-01 
    7.0430822302556439E-01 
    7.0429614523986717E-01 
    6.9019622250807766E-01 
    6.9018414195837285E-01 
    7.0428397831878919E-01 
    7.0427178948710789E-01 
    6.9017198938559177E-01 
    6.9015982520669694E-01 
    7.0425964846703681E-01 
    7.0424762747678127E-01 
    6.9014771128981445E-01 
    6.9013571071898827E-01 
    7.0423580120017903E-01 
    7.0422424669903949E-01 
    6.9012388743743758E-01 
    6.9011230569105164E-01 
    7.0421304321756695E-01 
    7.0420227178734240E-01 
    6.9010102913560767E-01 
    6.9009011936282816E-01 
    7.0419201446458568E-01 
    7.0418235288493136E-01 
    6.9007963339390666E-01 
    6.9006961928633392E-01 
    7.0417336553718424E-01 
    7.0416512259976172E-01 
    6.9006010819226882E-01 
    6.9005109950717813E-01 
    7.0415767605646906E-01 
    7.0415104035127019E-01 
    6.9004253176791097E-01 
    6.9003422061025144E-01 
    7.0414515247238973E-01 
    7.0413977880802836E-01 
    6.9002570347424963E-01 
    6.9001575346666533E-01 
    7.0413424855964457E-01 
    7.0412716100148420E-01 
    6.9000445535340404E-01 
    6.8999740009684307E-01 
    7.0412092022349182E-01 
    6.7568276699963858E-01 
    6.6047035773911977E-01 
    6.6046948864249266E-01 
    6.7568189494513231E-01 
    6.7568016318430701E-01 
    6.6046776273495467E-01 
    6.6046519928586667E-01 
    6.7567759097025804E-01 
    6.7567419988977584E-01 
    6.6046181998281372E-01 
    6.6045764835258647E-01 
    6.7567001342652022E-01 
    6.7566505695592605E-01 
    6.6045270971442493E-01 
    6.6044703120829118E-01 
    6.7565935777624220E-01 
    6.7565294512906771E-01 
    6.6044064182834883E-01 
    6.6043357244959466E-01 
    6.7564585020537060E-01 
    6.7563810613942421E-01 
    6.6042585584701363E-01 
    6.6041752670896281E-01 
    6.7562974799349518E-01 
    6.7562081273537944E-01 
    6.6040862164662795E-01 
    6.6039917920099223E-01 
    6.7561133921003225E-01 
    6.7560136810575711E-01 
    6.6038923984825260E-01 
    6.6037884600411279E-01 
    6.7559094191472302E-01 
    6.7558010488688058E-01 
    6.6036804202684618E-01 
    6.6035687421841560E-01 
    6.7556890297557515E-01 
    6.7555738377221886E-01 
    6.6034539082215093E-01 
    6.6033364201440514E-01 
    6.7554559642613177E-01 
    6.7553359154390624E-01 
    6.6032167988600954E-01 
    6.6030955840693240E-01 
    6.7552142106009383E-01 
    6.7550913806716528E-01 
    6.6029733336375596E-01 
    6.6028506225353278E-01 
    6.7549679658673289E-01 
    6.7548445125454859E-01 
    6.6027280410765565E-01 
    6.6026061920266688E-01 
    6.7547215687621809E-01 
    6.7545996778424933E-01 
    6.6024856858600067E-01 
    6.6023671329316569E-01 
    6.7544793688112392E-01 
    6.7543611417030636E-01 
    6.6022511303810727E-01 
    6.6021382397852524E-01 
    6.7542454442307376E-01 
    6.7541326333304930E-01 
    6.6020289480409300E-01 
    6.6019235967164613E-01 
    6.7540229092192861E-01 
    6.7539161973978856E-01 
    6.6018222495091472E-01 
    6.6017244308492529E-01 
    6.7538119269380048E-01 
    6.7537085850554923E-01 
    6.6016285696409460E-01 
    6.6015306543065333E-01 
    6.7536027174244706E-01 
    6.7534862359964931E-01 
    6.6014203210638089E-01 
    6.6012709562763994E-01 
    6.7533374397363399E-01 
    6.7531784771983250E-01 
    6.6011147123555469E-01 
    6.6010367168365758E-01 
    6.7530977040419504E-01 
    6.4471795166197843E-01 
    6.2843288999062863E-01 
    6.2843200097649954E-01 
    6.4471707708350001E-01 
    6.4471534008861842E-01 
    6.2843023488606764E-01 
    6.2842761063914210E-01 
    6.4471275986248533E-01 
    6.4470935806841700E-01 
    6.2842414962344628E-01 
    6.2841987487660245E-01 
    6.4470515814398588E-01 
    6.4470018521048800E-01 
    6.2841481094550200E-01 
    6.2840898388206767E-01 
    6.4469446609107750E-01 
    6.4468802934762015E-01 
    6.2840242126776502E-01 
    6.2839515224022413E-01 
    6.4468090531678512E-01 
    6.4467312614167049E-01 
    6.2838720751487520E-01 
    6.2837861939999184E-01 
    6.4466472579932177E-01 
    6.4465574012540106E-01 
    6.2836942180500499E-01 
    6.2835965024211682E-01 
    6.4464620683724316E-01 
    6.4463616555624115E-01 
    6.2834934182091251E-01 
    6.2833853523512317E-01 
    6.4462565783009906E-01 
    6.4461472715504908E-01 
    6.2832727073994887E-01 
    6.2831559011740168E-01 
    6.4460341899755402E-01 
    6.4459178081427426E-01 
    6.2830353662581462E-01 
    6.2829115492784771E-01 
    6.4457986206798334E-01 
    6.4456771423550185E-01 
    6.2827849098865129E-01 
    6.2826559193188836E-01 
    6.4455539080116908E-01 
    6.4454294722534133E-01 
    6.2825250583520564E-01 
    6.2823928143709962E-01 
    6.4453044087083633E-01 
    6.4451793085926801E-01 
    6.2822596771138450E-01 
    6.2821261323897826E-01 
    6.4450547781045997E-01 
    6.4449314338515040E-01 
    6.2819926526068970E-01 
    6.2818596821161299E-01 
    6.4448098949149812E-01 
    6.4446907690387467E-01 
    6.2817276138091027E-01 
    6.2815967503119241E-01 
    6.4445746282471517E-01 
    6.4444619648000701E-01 
    6.2814672366923952E-01 
    6.2813389374173179E-01 
    6.4443531090446948E-01 
    6.4442480695708670E-01 
    6.2812111964979278E-01 
    6.2810823300410068E-01 
    6.4441462032732189E-01 
    6.4440454695189953E-01 
    6.2809484231197288E-01 
    6.2807999901217848E-01 
    6.4439404833986846E-01 
    6.4438164867065562E-01 
    6.2806115613555746E-01 
    6.2803992758348626E-01 
    6.4436585933342472E-01 
    6.4435192625082238E-01 
    6.2802605142346823E-01 
    6.2802063237537376E-01 
    6.4434528802044100E-01 
    6.1162092202288409E-01 
    5.9428561838012162E-01 
    5.9428468736703266E-01 
    6.1162001456279325E-01 
    6.1161821139786599E-01 
    5.9428283690176842E-01 
    5.9428008554124145E-01 
    6.1161553127295731E-01 
    6.1161199545193368E-01 
    5.9427645441892918E-01 
    5.9427196624688494E-01 
    6.1160762680461056E-01 
    6.1160244962601296E-01 
    5.9426664509665927E-01 
    5.9426051636857347E-01 
    6.1159648961923208E-01 
    6.1158977391913782E-01 
    5.9425360681331341E-01 
    5.9424594456749702E-01 
    6.1158233112419924E-01 
    6.1157419132665369E-01 
    5.9423755919093080E-01 
    5.9422848170151132E-01 
    6.1156538613817957E-01 
    6.1155594871037833E-01 
    5.9421874460648039E-01 
    5.9420838192959125E-01 
    6.1154591374987144E-01 
    6.1153531752770207E-01 
    5.9419742923379382E-01 
    5.9418592363871692E-01 
    6.1152419788228363E-01 
    6.1151259421446003E-01 
    5.9417390383159274E-01 
    5.9416141006930601E-01 
    6.1150054747229254E-01 
    6.1148810012183419E-01 
    5.9414848416783461E-01 
    5.9413516947321743E-01 
    6.1147529609819784E-01 
    6.1146218072830916E-01 
    5.9412151080495490E-01 
    5.9410755435773321E-01 
    6.1144880061228868E-01 
    6.1143520344345459E-01 
    5.9409334753941290E-01 
    5.9407893871020467E-01 
    6.1142143773575508E-01 
    6.1140755240883660E-01 
    5.9406437676589674E-01 
    5.9404971046947774E-01 
    6.1139359614907340E-01 
    6.1137961640855087E-01 
    5.9403498736605742E-01 
    5.9402025198574115E-01 
    6.1136565780040519E-01 
    6.1135175944877851E-01 
    5.9400554278092144E-01 
    5.9399088670178424E-01 
    6.1133795044460593E-01 
    6.1132424168236699E-01 
    5.9397628909806532E-01 
    5.9396171368351924E-01 
    6.1131061032795198E-01 
    6.1129696806471823E-01 
    5.9394703941882421E-01 
    5.9393195744908600E-01 
    6.1128308984073210E-01 
    6.1126843255386731E-01 
    5.9391568945712092E-01 
    5.9389612595285235E-01 