# vtk DataFile Version 2.0
Pressure Field Data 
ASCII 
DATASET UNSTRUCTURED_GRID 

POINTS 1681 double 

    0.0000000000000000E+00     0.0000000000000000E+00     0.0000000000000000E+00 
    1.0000000000000000E+00     0.0000000000000000E+00     0.0000000000000000E+00 
    1.0000000000000000E+00     1.0000000000000000E+00     0.0000000000000000E+00 
    0.0000000000000000E+00     1.0000000000000000E+00     0.0000000000000000E+00 
    5.2499999999875258E-01     0.0000000000000000E+00     0.0000000000000000E+00 
    7.4999999999856765E-02     0.0000000000000000E+00     0.0000000000000000E+00 
    1.2499999999975850E-01     0.0000000000000000E+00     0.0000000000000000E+00 
    1.7499999999962990E-01     0.0000000000000000E+00     0.0000000000000000E+00 
    2.2499999999948389E-01     0.0000000000000000E+00     0.0000000000000000E+00 
    2.7499999999933789E-01     0.0000000000000000E+00     0.0000000000000000E+00 
    3.2499999999919210E-01     0.0000000000000000E+00     0.0000000000000000E+00 
    3.7499999999904610E-01     0.0000000000000000E+00     0.0000000000000000E+00 
    4.2499999999890020E-01     0.0000000000000000E+00     0.0000000000000000E+00 
    4.7499999999875958E-01     0.0000000000000000E+00     0.0000000000000000E+00 
    2.4999999999949701E-02     0.0000000000000000E+00     0.0000000000000000E+00 
    5.7499999999887907E-01     0.0000000000000000E+00     0.0000000000000000E+00 
    6.2499999999901101E-01     0.0000000000000000E+00     0.0000000000000000E+00 
    6.7499999999914273E-01     0.0000000000000000E+00     0.0000000000000000E+00 
    7.2499999999927467E-01     0.0000000000000000E+00     0.0000000000000000E+00 
    7.7499999999940661E-01     0.0000000000000000E+00     0.0000000000000000E+00 
    8.2499999999953844E-01     0.0000000000000000E+00     0.0000000000000000E+00 
    8.7499999999967026E-01     0.0000000000000000E+00     0.0000000000000000E+00 
    9.2499999999980220E-01     0.0000000000000000E+00     0.0000000000000000E+00 
    9.7499999999993414E-01     0.0000000000000000E+00     0.0000000000000000E+00 
    5.4999999999881310E-01     0.0000000000000000E+00     0.0000000000000000E+00 
    9.9999999999814140E-02     0.0000000000000000E+00     0.0000000000000000E+00 
    1.4999999999970290E-01     0.0000000000000000E+00     0.0000000000000000E+00 
    1.9999999999955689E-01     0.0000000000000000E+00     0.0000000000000000E+00 
    2.4999999999941089E-01     0.0000000000000000E+00     0.0000000000000000E+00 
    2.9999999999926502E-01     0.0000000000000000E+00     0.0000000000000000E+00 
    3.4999999999911913E-01     0.0000000000000000E+00     0.0000000000000000E+00 
    3.9999999999897312E-01     0.0000000000000000E+00     0.0000000000000000E+00 
    4.4999999999882723E-01     0.0000000000000000E+00     0.0000000000000000E+00 
    4.9999999999869210E-01     0.0000000000000000E+00     0.0000000000000000E+00 
    4.9999999999899403E-02     0.0000000000000000E+00     0.0000000000000000E+00 
    5.9999999999894504E-01     0.0000000000000000E+00     0.0000000000000000E+00 
    6.4999999999907687E-01     0.0000000000000000E+00     0.0000000000000000E+00 
    6.9999999999920870E-01     0.0000000000000000E+00     0.0000000000000000E+00 
    7.4999999999934064E-01     0.0000000000000000E+00     0.0000000000000000E+00 
    7.9999999999947247E-01     0.0000000000000000E+00     0.0000000000000000E+00 
    8.4999999999960441E-01     0.0000000000000000E+00     0.0000000000000000E+00 
    8.9999999999973623E-01     0.0000000000000000E+00     0.0000000000000000E+00 
    9.4999999999986817E-01     0.0000000000000000E+00     0.0000000000000000E+00 
    1.0000000000000000E+00     5.2499999999875258E-01     0.0000000000000000E+00 
    1.0000000000000000E+00     7.4999999999856765E-02     0.0000000000000000E+00 
    1.0000000000000000E+00     1.2499999999975850E-01     0.0000000000000000E+00 
    1.0000000000000000E+00     1.7499999999962990E-01     0.0000000000000000E+00 
    1.0000000000000000E+00     2.2499999999948389E-01     0.0000000000000000E+00 
    1.0000000000000000E+00     2.7499999999933789E-01     0.0000000000000000E+00 
    1.0000000000000000E+00     3.2499999999919210E-01     0.0000000000000000E+00 
    1.0000000000000000E+00     3.7499999999904610E-01     0.0000000000000000E+00 
    1.0000000000000000E+00     4.2499999999890020E-01     0.0000000000000000E+00 
    1.0000000000000000E+00     4.7499999999875958E-01     0.0000000000000000E+00 
    1.0000000000000000E+00     2.4999999999949701E-02     0.0000000000000000E+00 
    1.0000000000000000E+00     5.7499999999887907E-01     0.0000000000000000E+00 
    1.0000000000000000E+00     6.2499999999901101E-01     0.0000000000000000E+00 
    1.0000000000000000E+00     6.7499999999914273E-01     0.0000000000000000E+00 
    1.0000000000000000E+00     7.2499999999927467E-01     0.0000000000000000E+00 
    1.0000000000000000E+00     7.7499999999940661E-01     0.0000000000000000E+00 
    1.0000000000000000E+00     8.2499999999953844E-01     0.0000000000000000E+00 
    1.0000000000000000E+00     8.7499999999967026E-01     0.0000000000000000E+00 
    1.0000000000000000E+00     9.2499999999980220E-01     0.0000000000000000E+00 
    1.0000000000000000E+00     9.7499999999993414E-01     0.0000000000000000E+00 
    1.0000000000000000E+00     5.4999999999881310E-01     0.0000000000000000E+00 
    1.0000000000000000E+00     9.9999999999814140E-02     0.0000000000000000E+00 
    1.0000000000000000E+00     1.4999999999970290E-01     0.0000000000000000E+00 
    1.0000000000000000E+00     1.9999999999955689E-01     0.0000000000000000E+00 
    1.0000000000000000E+00     2.4999999999941089E-01     0.0000000000000000E+00 
    1.0000000000000000E+00     2.9999999999926502E-01     0.0000000000000000E+00 
    1.0000000000000000E+00     3.4999999999911913E-01     0.0000000000000000E+00 
    1.0000000000000000E+00     3.9999999999897312E-01     0.0000000000000000E+00 
    1.0000000000000000E+00     4.4999999999882723E-01     0.0000000000000000E+00 
    1.0000000000000000E+00     4.9999999999869210E-01     0.0000000000000000E+00 
    1.0000000000000000E+00     4.9999999999899403E-02     0.0000000000000000E+00 
    1.0000000000000000E+00     5.9999999999894504E-01     0.0000000000000000E+00 
    1.0000000000000000E+00     6.4999999999907687E-01     0.0000000000000000E+00 
    1.0000000000000000E+00     6.9999999999920870E-01     0.0000000000000000E+00 
    1.0000000000000000E+00     7.4999999999934064E-01     0.0000000000000000E+00 
    1.0000000000000000E+00     7.9999999999947247E-01     0.0000000000000000E+00 
    1.0000000000000000E+00     8.4999999999960441E-01     0.0000000000000000E+00 
    1.0000000000000000E+00     8.9999999999973623E-01     0.0000000000000000E+00 
    1.0000000000000000E+00     9.4999999999986817E-01     0.0000000000000000E+00 
    4.7500000000196618E-01     1.0000000000000000E+00     0.0000000000000000E+00 
    9.2499999999968763E-01     1.0000000000000000E+00     0.0000000000000000E+00 
    8.7499999999961831E-01     1.0000000000000000E+00     0.0000000000000000E+00 
    8.2499999999982654E-01     1.0000000000000000E+00     0.0000000000000000E+00 
    7.7500000000017355E-01     1.0000000000000000E+00     0.0000000000000000E+00 
    7.2500000000052045E-01     1.0000000000000000E+00     0.0000000000000000E+00 
    6.7500000000086724E-01     1.0000000000000000E+00     0.0000000000000000E+00 
    6.2500000000121403E-01     1.0000000000000000E+00     0.0000000000000000E+00 
    5.7500000000156093E-01     1.0000000000000000E+00     0.0000000000000000E+00 
    5.2500000000189684E-01     1.0000000000000000E+00     0.0000000000000000E+00 
    9.7499999999989595E-01     1.0000000000000000E+00     0.0000000000000000E+00 
    4.2500000000176902E-01     1.0000000000000000E+00     0.0000000000000000E+00 
    3.7500000000156092E-01     1.0000000000000000E+00     0.0000000000000000E+00 
    3.2500000000135282E-01     1.0000000000000000E+00     0.0000000000000000E+00 
    2.7500000000114472E-01     1.0000000000000000E+00     0.0000000000000000E+00 
    2.2500000000093659E-01     1.0000000000000000E+00     0.0000000000000000E+00 
    1.7500000000072849E-01     1.0000000000000000E+00     0.0000000000000000E+00 
    1.2500000000052039E-01     1.0000000000000000E+00     0.0000000000000000E+00 
    7.5000000000312261E-02     1.0000000000000000E+00     0.0000000000000000E+00 
    2.5000000000104109E-02     1.0000000000000000E+00     0.0000000000000000E+00 
    4.5000000000187301E-01     1.0000000000000000E+00     0.0000000000000000E+00 
    8.9999999999958358E-01     1.0000000000000000E+00     0.0000000000000000E+00 
    8.4999999999965303E-01     1.0000000000000000E+00     0.0000000000000000E+00 
    8.0000000000000004E-01     1.0000000000000000E+00     0.0000000000000000E+00 
    7.5000000000034706E-01     1.0000000000000000E+00     0.0000000000000000E+00 
    7.0000000000069384E-01     1.0000000000000000E+00     0.0000000000000000E+00 
    6.5000000000104063E-01     1.0000000000000000E+00     0.0000000000000000E+00 
    6.0000000000138742E-01     1.0000000000000000E+00     0.0000000000000000E+00 
    5.5000000000173432E-01     1.0000000000000000E+00     0.0000000000000000E+00 
    5.0000000000205946E-01     1.0000000000000000E+00     0.0000000000000000E+00 
    9.4999999999979179E-01     1.0000000000000000E+00     0.0000000000000000E+00 
    4.0000000000166491E-01     1.0000000000000000E+00     0.0000000000000000E+00 
    3.5000000000145681E-01     1.0000000000000000E+00     0.0000000000000000E+00 
    3.0000000000124871E-01     1.0000000000000000E+00     0.0000000000000000E+00 
    2.5000000000104061E-01     1.0000000000000000E+00     0.0000000000000000E+00 
    2.0000000000083251E-01     1.0000000000000000E+00     0.0000000000000000E+00 
    1.5000000000062441E-01     1.0000000000000000E+00     0.0000000000000000E+00 
    1.0000000000041630E-01     1.0000000000000000E+00     0.0000000000000000E+00 
[...]
CELL_DATA 1600 
SCALARS Pressure double 1 
LOOKUP_TABLE default 

    8.9720888693376166E-01 
    8.7789378524518780E-01 
    8.7779474968421134E-01 
    8.9528246486659069E-01 
    8.9349468652059771E-01 
    8.7761511093731093E-01 
    8.7737081999421196E-01 
    8.9183739519912186E-01 
    8.9029828254097354E-01 
    8.7707498208938561E-01 
    8.7673856821506913E-01 
    8.8886616110086469E-01 
    8.8753108379454093E-01 
    8.7637078076935115E-01 
    8.7597934691773149E-01 
    8.8628425917477205E-01 
    8.8511793255067861E-01 
    8.7557076024450309E-01 
    8.7515048146938745E-01 
    8.8402526746101606E-01 
    8.8300023661049676E-01 
    8.7472310582803203E-01 
    8.7429250299089700E-01 
    8.8203752442030303E-01 
    8.8113244108060573E-01 
    8.7386193422561742E-01 
    8.7343415063413954E-01 
    8.8028084722622957E-01 
    8.7947908813474351E-01 
    8.7301147561284187E-01 
    8.7259587413716555E-01 
    8.7872393633683055E-01 
    8.7801254160224174E-01 
    8.7218901102876079E-01 
    8.7179230000020869E-01 
    8.7734238736681136E-01 
    8.7671125277355166E-01 
    8.7140694497367888E-01 
    8.7103397492302748E-01 
    8.7611717960353908E-01 
    8.7555844346617973E-01 
    8.7067427328426428E-01 
    8.7032860280936220E-01 
    8.7503352870225914E-01 
    8.7454110652708450E-01 
    8.6999762659700597E-01 
    8.6968192591601123E-01 
    8.7408001600560903E-01 
    8.7364924750755524E-01 
    8.6938201533869430E-01 
    8.6909835561885262E-01 
    8.7324792833900589E-01 
    8.7287531028816867E-01 
    8.6883136467894295E-01 
    8.6858142701000374E-01 
    8.7253075885693354E-01 
    8.7221374397500961E-01 
    8.6834890173121193E-01 
    8.6813412949552338E-01 
    8.7192383200532364E-01 
    8.7166067883573672E-01 
    8.6793743834621495E-01 
    8.6775914848367464E-01 
    8.7142402377982897E-01 
    8.7121368378473740E-01 
    8.6759957557846012E-01 
    8.6745903143932068E-01 
    8.7102954678549949E-01 
    8.7087156105766139E-01 
    8.6733781853532699E-01 
    8.6723620812531177E-01 
    8.7073971116049320E-01 
    8.7063395136194188E-01 
    8.6715437241898308E-01 
    8.6709219368317603E-01 
    8.7055401235947016E-01 
    8.7049891181793204E-01 
    8.6704883181578152E-01 
    8.6702372922120685E-01 
    8.7046739500791825E-01 
    8.6608158447841121E-01 
    8.5512520241859979E-01 
    8.5511524090528490E-01 
    8.6605761346232080E-01 
    8.6601025400149623E-01 
    8.5509540299748998E-01 
    8.5506589170221192E-01 
    8.6594061563271363E-01 
    8.6585011815113244E-01 
    8.5502699926446268E-01 
    8.5497910019118295E-01 
    8.6574038816922028E-01 
    8.6561317822091632E-01 
    8.5492264131407958E-01 
    8.5485813104195341E-01 
    8.6547030444846174E-01 
    8.6531359954716203E-01 
    8.5478612871694881E-01 
    8.5470723451884723E-01 
    8.6514487791117323E-01 
    8.6496591042036353E-01 
    8.5462208014677998E-01 
    8.5453132038982815E-01 
    8.6477840678300577E-01 
    8.6458400375476696E-01 
    8.5443562562584108E-01 
    8.5433567524163045E-01 
    8.6438425788962281E-01 
    8.6418064175150222E-01 
    8.5423215193802771E-01 
    8.5412573686488513E-01 
    8.6397454273669616E-01 
    8.6376726383549296E-01 
    8.5401710552047849E-01 
    8.5390692434466209E-01 
    8.6356002580501234E-01 
    8.6335397034033512E-01 
    8.5379584793382957E-01 
    8.5368451680700397E-01 
    8.6315016392315291E-01 
    8.6294960210069604E-01 
    8.5357355565531978E-01 
    8.5346357201098311E-01 
    8.6275321400617977E-01 
    8.6256186697832415E-01 
    8.5335515527595507E-01 
    8.5324887605445521E-01 
    8.6237637117390797E-01 
    8.6219748409546559E-01 
    8.5314528573626891E-01 
    8.5304491627871437E-01 
    8.6202591497728664E-01 
    8.6186232898708914E-01 
    8.5294828013223445E-01 
    8.5285587024450604E-01 
    8.6170735120717323E-01 
    8.6156157035405279E-01 
    8.5276816005379497E-01 
    8.5268560332915644E-01 
    8.6142554217050471E-01 
    8.6129979235648779E-01 
    8.5260863359975758E-01 
    8.5253766266067443E-01 
    8.6118481874008557E-01 
    8.6108109198321348E-01 
    8.5247307706145437E-01 
    8.5241523011532772E-01 
    8.6098905308504459E-01 
    8.6090910323879677E-01 
    8.5236442366338239E-01 
    8.5232086580903155E-01 
    8.6084157441886489E-01 
    8.6078665088035011E-01 
    8.5228457186383666E-01 
    8.5225513480439197E-01 
    8.6074417326842778E-01 
    8.6071325101685203E-01 
    8.5223126199512289E-01 
    8.5221503321394321E-01 
    8.6069442757053038E-01 
    8.4388480380071784E-01 
    8.3202547793923320E-01 
    8.3202224052332008E-01 
    8.4387958320519585E-01 
    8.4386917656769367E-01 
    8.3201579056888519E-01 
    8.3200617692214418E-01 
    8.4385366255279981E-01 
    8.4383315194151109E-01 
    8.3199346347596603E-01 
    8.3197773031569155E-01 
    8.4380778837582959E-01 
    8.4377774707439757E-01 
    8.3195907367161370E-01 
    8.3193760538227857E-01 
    8.4374323275434582E-01 
    8.4370447719227615E-01 
    8.3191345213279289E-01 
    8.3188675457571715E-01 
    8.4366173661698773E-01 
    8.4361528904086092E-01 
    8.3185766638689718E-01 
    8.3182635328611865E-01 
    8.4356543159896424E-01 
    8.4351247794442219E-01 
    8.3179299204216306E-01 
    8.3175776947653635E-01 
    8.4345675573533807E-01 
    8.4339860423888047E-01 
    8.3172088147703527E-01 
    8.3168253203022402E-01 
    8.4333837207056606E-01 
    8.4327641508060158E-01 
    8.3164293228029373E-01 
    8.3160229962039578E-01 
    8.4321309439404224E-01 
    8.4314877460727755E-01 
    8.3156085682123371E-01 
    8.3151883120035153E-01 
    8.4308382213973598E-01 
    8.4301860373657123E-01 
    8.3147645383404101E-01 
    8.3143395881189752E-01 
    8.4295348511517876E-01 
    8.4288882974539570E-01 
    8.3139158253148127E-01 
    8.3134956302672891E-01 
    8.4282499774968378E-01 
    8.4276234490465340E-01 
    8.3130813931768777E-01 
    8.3126755075901493E-01 
    8.4270122171758655E-01 
    8.4264197253850570E-01 
    8.3122803634697895E-01 
    8.3118983391276902E-01 
    8.4258493464478923E-01 
    8.4253043719119625E-01 
    8.3115317907028508E-01 
    8.3111830367187545E-01 
    8.4247879983225882E-01 
    8.4243033065075434E-01 
    8.3108543329814122E-01 
    8.3105478284496159E-01 
    8.4238532266397104E-01 
    8.4234404739809809E-01 
    8.3102654830517708E-01 
    8.3100089078334294E-01 
    8.4230674228662084E-01 
    8.4227358471108493E-01 
    8.3097790426688067E-01 
    8.3095754821036549E-01 
    8.4224463637986802E-01 
    8.4221971981615085E-01 
    8.3093949860151883E-01 
    8.3092279271263525E-01 
    8.4219813378808783E-01 
    8.4217807856751403E-01 
    8.3090574061900280E-01 
    8.3089315945641196E-01 
    8.4216317596101131E-01 
    8.1943686567486596E-01 
    8.0608837503441078E-01 
    8.0608649007678967E-01 
    8.1943454004115168E-01 
    8.1942991104212926E-01 
    8.0608274142047032E-01 
    8.0607716435414467E-01 
    8.1942301782812799E-01 
    8.1941390822952687E-01 
    8.0606980017584584E-01 
    8.0606069643720557E-01 
    8.1940263949014969E-01 
    8.1938927842064113E-01 
    8.0604990708561153E-01 
    8.0603749243310674E-01 
    8.1937390124536791E-01 
    8.1935659330195187E-01 
    8.0602351902636171E-01 
    8.0600805946023313E-01 
    8.1933744866330183E-01 
    8.1931656971630829E-01 
    8.0599119215829551E-01 
    8.0597300113359638E-01 
    8.1929406671566052E-01 
    8.1927005732369806E-01 
    8.0595357573733117E-01 
    8.0593301039993825E-01 
    8.1924466614333968E-01 
    8.1921802424897505E-01 
    8.0591140436715736E-01 
    8.0588886143225358E-01 
    8.1919026871889244E-01 
    8.1916154217188719E-01 
    8.0586548966452309E-01 
    8.0584140113314684E-01 
    8.1913199230987310E-01 
    8.1910177146747176E-01 
    8.0581671162423085E-01 
    8.0579154034724609E-01 
    8.1907103616847265E-01 
    8.1903994668756208E-01 
    8.0576600962477563E-01 
    8.0574024455604831E-01 
    8.1900866661352312E-01 
    8.1897736240671815E-01 
    8.0571437263947387E-01 
    8.0568852333107710E-01 
    8.1894620293825515E-01 
    8.1891535898936374E-01 
    8.0566282750226548E-01 
    8.0563741673790745E-01 
    8.1888500267451780E-01 
    8.1885530672578954E-01 
    8.0561242237716935E-01 
    8.0558797413149874E-01 
    8.1882644352932688E-01 
    8.1879858371913317E-01 
    8.0556419799013468E-01 
    8.0554121289045955E-01 
    8.1877189397084416E-01 
    8.1874653332171765E-01 
    8.0551912517901680E-01 
    8.0549801898668760E-01 
    8.1872264671013140E-01 
    8.1870035312969369E-01 
    8.0547793877320173E-01 
    8.0545885621749191E-01 
    8.1867972304383874E-01 
    8.1866073353774682E-01 
    8.0544060383048377E-01 
    8.0542273003580078E-01 
    8.1864317412614462E-01 
    8.1862642906807026E-01 
    8.0540413929366184E-01 
    8.0538226139537550E-01 
    8.1860891987374129E-01 
    8.1859069356830350E-01 
    8.0536030937457648E-01 
    8.0534906551009444E-01 
    8.1857941969321635E-01 
    7.9197965541498361E-01 
    7.7712095354467037E-01 
    7.7711939279164710E-01 
    7.9197798921086260E-01 
    7.9197467748548200E-01 
    7.7711629143953220E-01 
    7.7711168185321278E-01 
    7.9196975373186829E-01 
    7.9196325631173670E-01 
    7.7710560075140955E-01 
    7.7709808864307273E-01 
    7.9195522826322007E-01 
    7.9194571738021891E-01 
    7.7708918982323316E-01 
    7.7707895239526381E-01 
    7.9193477622772535E-01 
    7.9192246209692774E-01 
    7.7706742826444630E-01 
    7.7705467310274490E-01 
    7.9190883691990355E-01 
    7.9189396715887539E-01 
    7.7704074629191067E-01 
    7.7702571085132033E-01 
    7.9187792367988863E-01 
    7.9186078161717155E-01 
    7.7700963335505413E-01 
    7.7699258384096070E-01 
    7.9184262023201613E-01 
    7.9182352276836865E-01 
    7.7697463571297798E-01 
    7.7695586563669106E-01 
    7.9180357630609488E-01 
    7.9178287161182326E-01 
    7.7693635342683531E-01 
    7.7691618192400569E-01 
    7.9176150298617876E-01 
    7.9173956810489476E-01 
    7.7689543685599083E-01 
    7.7687420667660312E-01 
    7.9171716784948143E-01 
    7.9169440612048281E-01 
    7.7685258237115551E-01 
    7.7683065721210920E-01 
    7.9167138962232564E-01 
    7.9164822760244180E-01 
    7.7680852643967857E-01 
    7.7678628682823969E-01 
    7.9162503151719044E-01 
    7.9160191458039497E-01 
    7.7676403607654010E-01 
    7.7674187192120114E-01 
    7.9157899112204566E-01 
    7.9155637563564751E-01 
    7.7671989080602855E-01 
    7.7669818581958616E-01 
    7.9153418130506459E-01 
    7.9151251764040309E-01 
    7.7667684339055643E-01 
    7.7665593780094389E-01 
    7.9149148654608492E-01 
    7.9147117554317425E-01 
    7.7663552171577321E-01 
    7.7661560911602756E-01 
    7.9145164564500325E-01 
    7.9143290877614247E-01 
    7.7659614295721202E-01 
    7.7657692984475446E-01 
    7.9141488362857171E-01 
    7.9139730321643387E-01 
    7.7655749553070452E-01 
    7.7653672262150264E-01 
    7.9137949910069783E-01 
    7.9135983230910045E-01 
    7.7651194565610560E-01 
    7.7648419262106871E-01 
    7.9133592395154728E-01 
    7.9131417260315506E-01 
    7.7646439870337780E-01 
    7.7645593689800430E-01 
    7.9130382305070068E-01 
    7.6152506820278154E-01 
    7.4520370227944499E-01 
    7.4520219082851935E-01 
    7.6152355095766955E-01 
    7.6152053606717895E-01 
    7.4519918693114318E-01 
    7.4519472124130925E-01 
    7.6151605500342734E-01 
    7.6151014336915268E-01 
    7.4518882846869017E-01 
    7.4518154625149513E-01 
    7.6150284002570512E-01 
    7.6149418700180327E-01 
    7.4517291498086491E-01 
    7.4516297779409479E-01 
    7.6148422950536243E-01 
    7.6147301593448502E-01 
    7.4515178059242071E-01 
    7.4513937205082026E-01 
    7.6146059787016906E-01 
    7.6144703005069481E-01 
    7.4512580361329150E-01 
    7.4511112947359992E-01 
    7.6143237033080435E-01 
    7.6141667962846427E-01 
    7.4509540654263118E-01 
    7.4507869440298391E-01 
    7.6140002186088607E-01 
    7.6138246387021202E-01 
    7.4506105525038901E-01 
    7.4504255382020002E-01 
    7.6136407533794370E-01 
    7.6134492868571801E-01 
    7.4502325729552743E-01 
    7.4500323519143175E-01 
    7.6132509895823663E-01 
    7.6130466368177119E-01 
    7.4498255920661194E-01 
    7.4496130302975672E-01 
    7.6128370268830658E-01 
    7.6126229789044941E-01 
    7.4493954208135904E-01 
    7.4491735316205943E-01 
    7.6124053298474181E-01 
    7.6121849304935574E-01 
    7.4489481396328405E-01 
    7.4487200237130624E-01 
    7.6119626398351492E-01 
    7.6117393170533654E-01 
    7.4484899545489702E-01 
    7.4482586795637995E-01 
    7.6115158097275870E-01 
    7.6112929360096049E-01 
    7.4480268998071486E-01 
    7.4477952334542852E-01 
    7.6110714568394433E-01 
    7.6108520311461825E-01 
    7.4475641560435435E-01 
    7.4473338984111614E-01 
    7.6106351407930917E-01 
    7.6104209591916594E-01 
    7.4471042634182938E-01 
    7.4468742762629825E-01 
    7.6102091092183821E-01 
    7.6099981885172918E-01 
    7.4466414648642065E-01 
    7.4464002284785002E-01 
    7.6097847603797097E-01 
    7.6095609609968817E-01 
    7.4461376935547507E-01 
    7.4458236402715594E-01 
    7.6093081845906463E-01 
    7.6089931871825522E-01 
    7.4454581439186185E-01 
    7.4451618878697889E-01 
    7.6086786210128599E-01 
    7.6084902516174413E-01 
    7.4449949101135415E-01 
    7.4449202263205971E-01 
    7.6084149081836128E-01 
    7.2816566495574886E-01 
    7.1041586347888508E-01 
    7.1041428031833853E-01 
    7.2816413095206955E-01 
    7.2816108126215018E-01 
    7.1041113148968515E-01 
    7.1040644571901523E-01 
    7.2815654565217558E-01 
    7.2815055792277084E-01 
    7.1040025577263777E-01 
    7.1039259693342949E-01 
    7.2814315456706191E-01 
    7.2813437451195795E-01 
    7.1038350666237182E-01 
    7.1037302453197571E-01 
    7.2812425908396339E-01 
    7.2811285202168285E-01 
    7.1036119222578120E-01 
    7.1034805354621200E-01 
    7.2810019948909499E-01 
    7.2808635007691747E-01 
    7.1033365441239560E-01 
    7.1031804284142297E-01 
    7.2807135478880014E-01 
    7.2805526701146339E-01 
    7.1030126890994660E-01 
    7.1028338469337682E-01 
    7.2803814246790211E-01 
    7.2802003915181468E-01 
    7.1026444417897827E-01 
    7.1024450314733434E-01 
    7.2800101723990329E-01 
    7.2798113897663619E-01 
    7.1022361901398645E-01 
    7.1020185061925656E-01 
    7.2796046852322704E-01 
    7.2793907175862793E-01 
    7.1017925794881176E-01 
    7.1015590175946197E-01 
    7.2791701601452208E-01 
    7.2789436971763100E-01 
    7.1013184307252231E-01 
    7.1010714247822726E-01 
    7.2787120189928378E-01 
    7.2784758151110907E-01 
    7.1008185916470190E-01 
    7.1005604953565338E-01 
    7.2782357645145501E-01 
    7.2779925214958685E-01 
    7.1002976519675443E-01 
    7.1000304994161267E-01 
    7.2777466945461733E-01 
    7.2774988139535401E-01 
    7.0997593509381840E-01 
    7.0994843202896274E-01 
    7.2772492803514122E-01 
    7.2769982796117139E-01 
    7.0992051959688252E-01 
    7.0989212172269367E-01 
    7.2767456349780413E-01 
    7.2764905343831154E-01 
    7.0986306462442650E-01 
    7.0983298772309633E-01 
    7.2762309893147492E-01 
    7.2759626587555237E-01 
    7.0980113792507149E-01 
    7.0976584499140749E-01 
    7.2756759999046783E-01 
    7.2753488210019934E-01 
    7.0972343850634656E-01 
    7.0967481400210652E-01 
    7.2749441459852227E-01 
    7.2745329346800924E-01 
    7.0963490729662992E-01 
    7.0961011325294043E-01 
    7.2742599790227169E-01 
    7.2741102785788836E-01 
    7.0959520522905206E-01 
    7.0958775630912885E-01 
    7.2740367853807819E-01 
    6.9195433367578640E-01 
    6.7277504522156695E-01 
    6.7277325263040810E-01 
    6.9195266921264398E-01 
    6.9194935669878055E-01 
    6.7276968226185963E-01 
    6.7276435941499924E-01 
    6.9194442349865382E-01 
    6.9193790102454666E-01 
    6.7275731338717981E-01 
    6.7274857567253310E-01 
    6.9192982305968509E-01 
    6.9192022534374609E-01 
    6.7273817947440262E-01 
    6.7272615955878645E-01 
    6.9190914546960702E-01 
    6.9189662286229459E-01 
    6.7271255220111947E-01 
    6.7269739514893667E-01 
    6.9188269877194708E-01 
    6.9186741625700510E-01 
    6.7268072757138531E-01 
    6.7266258998190886E-01 
    6.9185082014771770E-01 
    6.9183295698418734E-01 
    6.7264302412482513E-01 
    6.7262207281676101E-01 
    6.9181387492370661E-01 
    6.9179362361091190E-01 
    6.7259977973195373E-01 
    6.7257618911668482E-01 
    6.9177225400181963E-01 
    6.9174981812906888E-01 
    6.7255134541235551E-01 
    6.7252529275818573E-01 
    6.9172636879024241E-01 
    6.9170195913314103E-01 
    6.7249807433182140E-01 
    6.7246973146696321E-01 
    6.9167664209995972E-01 
    6.9165046967416755E-01 
    6.7244030245766462E-01 
    6.7240982091256840E-01 
    6.9162349184560112E-01 
    6.9159575516386218E-01 
    6.7237831344701737E-01 
    6.7234579637321712E-01 
    6.9156730067430561E-01 
    6.9153816089902453E-01 
    6.7231227082159417E-01 
    6.7227771530484259E-01 
    6.9150835528664578E-01 
    6.9147788310493452E-01 
    6.7224207391745505E-01 
    6.7220523667640952E-01 
    6.9144671185239748E-01 
    6.9141475733501756E-01 
    6.7216700474156399E-01 
    6.7212702411131520E-01 
    6.9138184708072947E-01 
    6.9134764749593725E-01 
    6.7208464734439399E-01 
    6.7203861573902113E-01 
    6.9131150393028540E-01 
    6.9127205152532911E-01 
    6.7198631088235861E-01 
    6.7192360028994047E-01 
    6.9122628250562412E-01 
    6.9117112161491845E-01 
    6.7185650981501654E-01 
    6.7180423051191318E-01 
    6.9111756109058375E-01 
    6.9108078317913291E-01 
    6.7176950732914720E-01 
    6.7174512603628611E-01 
    6.9105742765169409E-01 
    6.9104207060270295E-01 
    6.7172887372910550E-01 
    6.7172074655857961E-01 
    6.9103439101515607E-01 
    6.5286415091437389E-01 
    6.3219689219648545E-01 
    6.3219457891533237E-01 
    6.5286215677904780E-01 
    6.5285818068135648E-01 
    6.3218995983175985E-01 
    6.3218305023827681E-01 
    6.5285224438580236E-01 
    6.5284437342830803E-01 
    6.3217386858942659E-01 
    6.3216243458719645E-01 
    6.5283459522664178E-01 
    6.5282293852004403E-01 
    6.3214876854905899E-01 
    6.3213289111951865E-01 
    6.5280943316438333E-01 
    6.5279411002209786E-01 
    6.3211482306026967E-01 
    6.3209458502680471E-01 
    6.5277700086125479E-01 
    6.5275813822891737E-01 
    6.3207219728944375E-01 
    6.3204767937202144E-01 
    6.5273755528006516E-01 
    6.5271528554705582E-01 
    6.3202104958294048E-01 
    6.3199232440846931E-01 
    6.5269136263352545E-01 
    6.5266581981269411E-01 
    6.3196151772936193E-01 
    6.3192863980812719E-01 
    6.5263868950335613E-01 
    6.5261000258663104E-01 
    6.3189369597355460E-01 
    6.3185668489796110E-01 
    6.5257978751134393E-01 
    6.5254806911298235E-01 
    6.3181759631494572E-01 
    6.3177640795116896E-01 
    6.5251486703613792E-01 
    6.5248019359574383E-01 
    6.3173308132745443E-01 
    6.3168755589160575E-01 
    6.5244405082533741E-01 
    6.5240642631692125E-01 
    6.3163974061946881E-01 
    6.3158950164443917E-01 
    6.5236728720903991E-01 
    6.5232657122899695E-01 
    6.3153664339974180E-01 
    6.3148087863741198E-01 
    6.5228417283358009E-01 
    6.5223992076222714E-01 
    6.3142177829643309E-01 
    6.3135868266213224E-01 
    6.5219353962343640E-01 
    6.5214457959763683E-01 
    6.3129053397471380E-01 
    6.3121554956467807E-01 
    6.5209227702704742E-01 
    6.5203525446110833E-01 
    6.3113069330925109E-01 
    6.3103247497459058E-01 
    6.5197087656944319E-01 
    6.5189501044843956E-01 
    6.3092575021494290E-01 
    6.3083170403049016E-01 
    6.5181111881025100E-01 
    6.5173965002747403E-01 
    6.3076353695697762E-01 
    6.3071352584538287E-01 