# vtk DataFile Version 2.0
Pressure Field Data 
ASCII 
DATASET UNSTRUCTURED_GRID 

POINTS 1681 double 

    0.0000000000000000E+00     0.0000000000000000E+00     0.0000000000000000E+00 
    1.0000000000000000E+00     0.0000000000000000E+00     0.0000000000000000E+00 
    1.0000000000000000E+00     1.0000000000000000E+00     0.0000000000000000E+00 
    0.0000000000000000E+00     1.0000000000000000E+00     0.0000000000000000E+00 
    5.2499999999875258E-01     0.0000000000000000E+00     0.0000000000000000E+00 
    7.4999999999856765E-02     0.0000000000000000E+00     0.0000000000000000E+00 
    1.2499999999975850E-01     0.0000000000000000E+00     0.0000000000000000E+00 
    1.7499999999962990E-01     0.0000000000000000E+00     0.0000000000000000E+00 
    2.2499999999948389E-01     0.0000000000000000E+00     0.0000000000000000E+00 
    2.7499999999933789E-01     0.0000000000000000E+00     0.0000000000000000E+00 
    3.2499999999919210E-01     0.0000000000000000E+00     0.0000000000000000E+00 
    3.7499999999904610E-01     0.0000000000000000E+00     0.0000000000000000E+00 
    4.2499999999890020E-01     0.0000000000000000E+00     0.0000000000000000E+00 
    4.7499999999875958E-01     0.0000000000000000E+00     0.0000000000000000E+00 
    2.4999999999949701E-02     0.0000000000000000E+00     0.0000000000000000E+00 
    5.7499999999887907E-01     0.0000000000000000E+00     0.0000000000000000E+00 
    6.2499999999901101E-01     0.0000000000000000E+00     0.0000000000000000E+00 
    6.7499999999914273E-01     0.0000000000000000E+00     0.0000000000000000E+00 
    7.2499999999927467E-01     0.0000000000000000E+00     0.0000000000000000E+00 
    7.7499999999940661E-01     0.0000000000000000E+00     0.0000000000000000E+00 
    8.2499999999953844E-01     0.0000000000000000E+00     0.0000000000000000E+00 
    8.7499999999967026E-01     0.0000000000000000E+00     0.0000000000000000E+00 
    9.2499999999980220E-01     0.0000000000000000E+00     0.0000000000000000E+00 
    9.7499999999993414E-01     0.0000000000000000E+00     0.0000000000000000E+00 
    5.4999999999881310E-01     0.0000000000000000E+00     0.0000000000000000E+00 
    9.9999999999814140E-02     0.0000000000000000E+00     0.0000000000000000E+00 
    1.4999999999970290E-01     0.0000000000000000E+00     0.0000000000000000E+00 
    1.9999999999955689E-01     0.0000000000000000E+00     0.0000000000000000E+00 
    2.4999999999941089E-01     0.0000000000000000E+00     0.0000000000000000E+00 
    2.9999999999926502E-01     0.0000000000000000E+00     0.0000000000000000E+00 
    3.4999999999911913E-01     0.0000000000000000E+00     0.0000000000000000E+00 
    3.9999999999897312E-01     0.0000000000000000E+00     0.0000000000000000E+00 
    4.4999999999882723E-01     0.0000000000000000E+00     0.0000000000000000E+00 
    4.9999999999869210E-01     0.0000000000000000E+00     0.0000000000000000E+00 
    4.9999999999899403E-02     0.0000000000000000E+00     0.0000000000000000E+00 
    5.9999999999894504E-01     0.0000000000000000E+00     0.0000000000000000E+00 
    6.4999999999907687E-01     0.0000000000000000E+00     0.0000000000000000E+00 
    6.9999999999920870E-01     0.0000000000000000E+00     0.0000000000000000E+00 
    7.4999999999934064E-01     0.0000000000000000E+00     0.0000000000000000E+00 
    7.9999999999947247E-01     0.0000000000000000E+00     0.0000000000000000E+00 
    8.4999999999960441E-01     0.0000000000000000E+00     0.0000000000000000E+00 
    8.9999999999973623E-01     0.0000000000000000E+00     0.0000000000000000E+00 
    9.4999999999986817E-01     0.0000000000000000E+00     0.0000000000000000E+00 
    1.0000000000000000E+00     5.2499999999875258E-01     0.0000000000000000E+00 
    1.0000000000000000E+00     7.4999999999856765E-02     0.0000000000000000E+00 
    1.0000000000000000E+00     1.2499999999975850E-01     0.0000000000000000E+00 
    1.0000000000000000E+00     1.7499999999962990E-01     0.0000000000000000E+00 
    1.0000000000000000E+00     2.2499999999948389E-01     0.0000000000000000E+00 
    1.0000000000000000E+00     2.7499999999933789E-01     0.0000000000000000E+00 
    1.0000000000000000E+00     3.2499999999919210E-01     0.0000000000000000E+00 
    1.0000000000000000E+00     3.7499999999904610E-01     0.0000000000000000E+00 
    1.0000000000000000E+00     4.2499999999890020E-01     0.0000000000000000E+00 
    1.0000000000000000E+00     4.7499999999875958E-01     0.0000000000000000E+00 
    1.0000000000000000E+00     2.4999999999949701E-02     0.0000000000000000E+00 
    1.0000000000000000E+00     5.7499999999887907E-01     0.0000000000000000E+00 
    1.0000000000000000E+00     6.2499999999901101E-01     0.0000000000000000E+00 
    1.0000000000000000E+00     6.7499999999914273E-01     0.0000000000000000E+00 
    1.0000000000000000E+00     7.2499999999927467E-01     0.0000000000000000E+00 
    1.0000000000000000E+00     7.7499999999940661E-01     0.0000000000000000E+00 
    1.0000000000000000E+00     8.2499999999953844E-01     0.0000000000000000E+00 
    1.0000000000000000E+00     8.7499999999967026E-01     0.0000000000000000E+00 
    1.0000000000000000E+00     9.2499999999980220E-01     0.0000000000000000E+00 
    1.0000000000000000E+00     9.7499999999993414E-01     0.0000000000000000E+00 
    1.0000000000000000E+00     5.4999999999881310E-01     0.0000000000000000E+00 
    1.0000000000000000E+00     9.9999999999814140E-02     0.0000000000000000E+00 
    1.0000000000000000E+00     1.4999999999970290E-01     0.0000000000000000E+00 
    1.0000000000000000E+00     1.9999999999955689E-01     0.0000000000000000E+00 
    1.0000000000000000E+00     2.4999999999941089E-01     0.0000000000000000E+00 
    1.0000000000000000E+00     2.9999999999926502E-01     0.0000000000000000E+00 
    1.0000000000000000E+00     3.4999999999911913E-01     0.0000000000000000E+00 
    1.0000000000000000E+00     3.9999999999897312E-01     0.0000000000000000E+00 
    1.0000000000000000E+00     4.4999999999882723E-01     0.0000000000000000E+00 
    1.0000000000000000E+00     4.9999999999869210E-01     0.0000000000000000E+00 
    1.0000000000000000E+00     4.9999999999899403E-02     0.0000000000000000E+00 
    1.0000000000000000E+00     5.9999999999894504E-01     0.0000000000000000E+00 
    1.0000000000000000E+00     6.4999999999907687E-01     0.0000000000000000E+00 
    1.0000000000000000E+00     6.9999999999920870E-01     0.0000000000000000E+00 
    1.0000000000000000E+00     7.4999999999934064E-01     0.0000000000000000E+00 
    1.0000000000000000E+00     7.9999999999947247E-01     0.0000000000000000E+00 
    1.0000000000000000E+00     8.4999999999960441E-01     0.0000000000000000E+00 
    1.0000000000000000E+00     8.9999999999973623E-01     0.0000000000000000E+00 
    1.0000000000000000E+00     9.4999999999986817E-01     0.0000000000000000E+00 
    4.7500000000196618E-01     1.0000000000000000E+00     0.0000000000000000E+00 
    9.2499999999968763E-01     1.0000000000000000E+00     0.0000000000000000E+00 
    8.7499999999961831E-01     1.0000000000000000E+00     0.0000000000000000E+00 
    8.2499999999982654E-01     1.0000000000000000E+00     0.0000000000000000E+00 
    7.7500000000017355E-01     1.0000000000000000E+00     0.0000000000000000E+00 
    7.2500000000052045E-01     1.0000000000000000E+00     0.0000000000000000E+00 
    6.7500000000086724E-01     1.0000000000000000E+00     0.0000000000000000E+00 
    6.2500000000121403E-01     1.0000000000000000E+00     0.0000000000000000E+00 
    5.7500000000156093E-01     1.0000000000000000E+00     0.0000000000000000E+00 
    5.2500000000189684E-01     1.0000000000000000E+00     0.0000000000000000E+00 
    9.7499999999989595E-01     1.0000000000000000E+00     0.0000000000000000E+00 
    4.2500000000176902E-01     1.0000000000000000E+00     0.0000000000000000E+00 
    3.7500000000156092E-01     1.0000000000000000E+00     0.0000000000000000E+00 
    3.2500000000135282E-01     1.0000000000000000E+00     0.0000000000000000E+00 
    2.7500000000114472E-01     1.0000000000000000E+00     0.0000000000000000E+00 
    2.2500000000093659E-01     1.0000000000000000E+00     0.0000000000000000E+00 
    1.7500000000072849E-01     1.0000000000000000E+00     0.0000000000000000E+00 
    1.2500000000052039E-01     1.0000000000000000E+00     0.0000000000000000E+00 
    7.5000000000312261E-02     1.0000000000000000E+00     0.0000000000000000E+00 
    2.5000000000104109E-02     1.0000000000000000E+00     0.0000000000000000E+00 
    4.5000000000187301E-01     1.0000000000000000E+00     0.0000000000000000E+00 
    8.9999999999958358E-01     1.0000000000000000E+00     0.0000000000000000E+00 
    8.4999999999965303E-01     1.0000000000000000E+00     0.0000000000000000E+00 
    8.0000000000000004E-01     1.0000000000000000E+00     0.0000000000000000E+00 
    7.5000000000034706E-01     1.0000000000000000E+00     0.0000000000000000E+00 
    7.0000000000069384E-01     1.0000000000000000E+00     0.0000000000000000E+00 
    6.5000000000104063E-01     1.0000000000000000E+00     0.0000000000000000E+00 
    6.0000000000138742E-01     1.0000000000000000E+00     0.0000000000000000E+00 
    5.5000000000173432E-01     1.0000000000000000E+00     0.0000000000000000E+00 
    5.0000000000205946E-01     1.0000000000000000E+00     0.0000000000000000E+00 
    9.4999999999979179E-01     1.0000000000000000E+00     0.0000000000000000E+00 
    4.0000000000166491E-01     1.0000000000000000E+00     0.0000000000000000E+00 
    3.5000000000145681E-01     1.0000000000000000E+00     0.0000000000000000E+00 
    3.0000000000124871E-01     1.0000000000000000E+00     0.0000000000000000E+00 
    2.5000000000104061E-01     1.0000000000000000E+00     0.0000000000000000E+00 
    2.0000000000083251E-01     1.0000000000000000E+00     0.0000000000000000E+00 
    1.5000000000062441E-01     1.0000000000000000E+00     0.0000000000000000E+00 
    1.0000000000041630E-01     1.0000000000000000E+00     0.0000000000000000E+00 
[...]
CELL_DATA 1600 
SCALARS Pressure double 1 
LOOKUP_TABLE default 

    9.6702418141161561E-01 
    9.4667492001757103E-01 
    9.4656994914788839E-01 
    9.6506932919587463E-01 
    9.6324369114186092E-01 
    9.4637887175645474E-01 
    9.4611836745480404E-01 
    9.6154370234773900E-01 
    9.5995807209005724E-01 
    9.4580199625285721E-01 
    9.4544113241215988E-01 
    9.5847628526039841E-01 
    9.5708892233986342E-01 
    9.4504535264961487E-01 
    9.4462273877299707E-01 
    9.5578763799585864E-01 
    9.5456506998650281E-01 
    9.4418012389003536E-01 
    9.4372329547583700E-01 
    9.5341473525075526E-01 
    9.5233092952599763E-01 
    9.4325716396166293E-01 
    9.4278590325625822E-01 
    9.5130863553835887E-01 
    9.5034344098706525E-01 
    9.4231306820016403E-01 
    9.4184169295361098E-01 
    9.4943146612407070E-01 
    9.4856930020284624E-01 
    9.4137437356402842E-01 
    9.4091333736964777E-01 
    9.4775394590496298E-01 
    9.4698277084151883E-01 
    9.4046050142559257E-01 
    9.4001752175904885E-01 
    9.4625346527953491E-01 
    9.4556400532123552E-01 
    9.3958583495053227E-01 
    9.3916669328425240E-01 
    9.4491262084801342E-01 
    9.4429776762223427E-01 
    9.3876119450088613E-01 
    9.3837030701188839E-01 
    9.4371810301479708E-01 
    9.4317246489283846E-01 
    9.3799489128836644E-01 
    9.3763571801292578E-01 
    9.4265985325897583E-01 
    9.4217941427989360E-01 
    9.3729348347311225E-01 
    9.3696882257223191E-01 
    9.4173042637549331E-01 
    9.4131228805468425E-01 
    9.3666231972567138E-01 
    9.3637451777808800E-01 
    9.4092450716805642E-01 
    9.4056669117366398E-01 
    9.3610592487887601E-01 
    9.3585701890476602E-01 
    9.4023853781698852E-01 
    9.3993982516098995E-01 
    9.3562824832716662E-01 
    9.3542002693730109E-01 
    9.3967039880443848E-01 
    9.3943015148984654E-01 
    9.3523271647164574E-01 
    9.3506658322599856E-01 
    9.3921898381649294E-01 
    9.3903671858453042E-01 
    9.3492169565277750E-01 
    9.3479768522339080E-01 
    9.3888290214187087E-01 
    9.3875634567100208E-01 
    9.3469320061439798E-01 
    9.3460497878589810E-01 
    9.3865423980775853E-01 
    9.3857458467416488E-01 
    9.3453426074947188E-01 
    9.3449715950353374E-01 
    9.3853229282598560E-01 
    9.3345212971760250E-01 
    9.2074973180783615E-01 
    9.2073748646742493E-01 
    9.3342505132207121E-01 
    9.3337149452367152E-01 
    9.2071310037563747E-01 
    9.2067682851620014E-01 
    9.3329265961451346E-01 
    9.3319007781704000E-01 
    9.2062902685415859E-01 
    9.2057014438488893E-01 
    9.3306550468624549E-01 
    9.3292083686890948E-01 
    9.2050071247301890E-01 
    9.2042133317291119E-01 
    9.3275804713855404E-01 
    9.3257913486883015E-01 
    9.2033266758166143E-01 
    9.2023542474901332E-01 
    9.3238608899013731E-01 
    9.3218086086779062E-01 
    9.2013035140888466E-01 
    9.2001822265811872E-01 
    9.3196534498952921E-01 
    9.3174136575280153E-01 
    9.1989983362616967E-01 
    9.1977599212852545E-01 
    9.3151066898023782E-01 
    9.3127491706854981E-01 
    9.1964751226448649E-01 
    9.1951520889983973E-01 
    9.3103568690033056E-01 
    9.3079446982870828E-01 
    9.1937989296290268E-01 
    9.1924236747564203E-01 
    9.3055267318939527E-01 
    9.3031162290995051E-01 
    9.1910342423803604E-01 
    9.1896384108190854E-01 
    9.3007256687737483E-01 
    9.2983667879661058E-01 
    9.1882437960853036E-01 
    9.1868578332060691E-01 
    9.2960506232715268E-01 
    9.2937875532462311E-01 
    9.1854877605154084E-01 
    9.1841406057940622E-01 
    9.2915873403913718E-01 
    9.2894591713081043E-01 
    9.1828231728384846E-01 
    9.1815420265006942E-01 
    9.2874116934937201E-01 
    9.2854530467727270E-01 
    9.1803034732437361E-01 
    9.1791135323958284E-01 
    9.2835908862799210E-01 
    9.2818323916877477E-01 
    9.1779778897280562E-01 
    9.1769018179719486E-01 
    9.2801842528172673E-01 
    9.2786526122682644E-01 
    9.1758900346090300E-01 
    9.1749464370851819E-01 
    9.2772429252433630E-01 
    9.2759596512332398E-01 
    9.1740735895443115E-01 
    9.1732716844374551E-01 
    9.2748055880748514E-01 
    9.2737804154084702E-01 
    9.1725363378903146E-01 
    9.1718536761983283E-01 
    9.2728774375145440E-01 
    9.2720763811843432E-01 
    9.1711911458416284E-01 
    9.1705454230252648E-01 
    9.2713413165254333E-01 
    9.2707510525136372E-01 
    9.1700679376492533E-01 
    9.1698473163710748E-01 
    9.2704588583763781E-01 
    9.0743830420934346E-01 
    8.9318929825113524E-01 
    8.9318433494614524E-01 
    9.0743117794933170E-01 
    9.0741698175522278E-01 
    8.9317445417387709E-01 
    8.9315974360949724E-01 
    9.0739583824187753E-01 
    9.0736790966314085E-01 
    8.9314031171005148E-01 
    8.9311628741409976E-01 
    9.0733339758717535E-01 
    9.0729254128291270E-01 
    8.9308781979115759E-01 
    8.9305507733541178E-01 
    9.0724561529307490E-01 
    9.0719292658893558E-01 
    8.9301824701757881E-01 
    8.9297753318560680E-01 
    9.0713481152388686E-01 
    9.0707163271317748E-01 
    8.9293315637195636E-01 
    8.9288535204402986E-01 
    9.0700377592126180E-01 
    9.0693164701185658E-01 
    8.9283436932142934E-01 
    8.9278046967541969E-01 
    9.0685566899867009E-01 
    9.0677627922228410E-01 
    8.9272392561996472E-01 
    8.9266501939865084E-01 
    9.0669392666873183E-01 
    9.0660906943678032E-01 
    8.9260404166682483E-01 
    8.9254129016262496E-01 
    9.0652217235301269E-01 
    9.0643370472582663E-01 
    8.9247706835347651E-01 
    8.9241168403497972E-01 
    9.0634413822059179E-01 
    9.0625394482725752E-01 
    8.9234544784530490E-01 
    8.9227867163757102E-01 
    9.0616359487686238E-01 
    9.0607355504167186E-01 
    8.9221166662070617E-01 
    8.9214474112806985E-01 
    9.0598428621991900E-01 
    9.0589624115116585E-01 
    8.9207819778836561E-01 
    8.9201232972835198E-01 
    9.0580986151527965E-01 
    9.0572557410479693E-01 
    8.9194741517994336E-01 
    8.9188370939240069E-01 
    9.0564378536356682E-01 
    9.0556487302441624E-01 
    8.9182143184825835E-01 
    8.9176074497958291E-01 
    9.0548917248050564E-01 
    9.0541695328759186E-01 
    8.9170171680219290E-01 
    8.9164425147126769E-01 
    9.0534837643257571E-01 
    9.0528341232515619E-01 
    8.9158795158757864E-01 
    8.9153182417947030E-01 
    9.0522167375110785E-01 
    9.0516205183157361E-01 
    8.9147362552741860E-01 
    8.9140923406533223E-01 
    9.0510192448776006E-01 
    9.0503775204765613E-01 
    8.9134162066838152E-01 
    8.9128920447554405E-01 
    9.0497829225549631E-01 
    9.0494038929385567E-01 
    8.9125870454813549E-01 
    8.9124462029023521E-01 
    9.0492359025869806E-01 
    8.7789514066156826E-01 
    8.6152419398464852E-01 
    8.6152061290151782E-01 
    8.7789115038934284E-01 
    8.7788321092797639E-01 
    8.6151348794485927E-01 
    8.6150288394408359E-01 
    8.7787139564351580E-01 
    8.7785579147773396E-01 
    8.6148887616308201E-01 
    8.6147154856026953E-01 
    8.7783649791924723E-01 
    8.7781362678923358E-01 
    8.6145099347266330E-01 
    8.6142731145655926E-01 
    8.7778730196888988E-01 
    8.7775765900249081E-01 
    8.6140061108598498E-01 
    8.6137100868024175E-01 
    8.7772484459803890E-01 
    8.7768901605201644E-01 
    8.6133862796474425E-01 
    8.6130359967279957E-01 
    8.7765034061740621E-01 
    8.7760899482673904E-01 
    8.6126606109261494E-01 
    8.6122615555898741E-01 
    8.7756516377585003E-01 
    8.7751904036887840E-01 
    8.6118403188377857E-01 
    8.6113984371320262E-01 
    8.7747082452007519E-01 
    8.7742072230247792E-01 
    8.6109374879243761E-01 
    8.6104590810804282E-01 
    8.7736894502659402E-01 
    8.7731570822284188E-01 
    8.6099648486451918E-01 
    8.6094564323055944E-01 
    8.7726123048799565E-01 
    8.7720573213578357E-01 
    8.6089354675897245E-01 
    8.6084035633497713E-01 
    8.7714943356086350E-01 
    8.7709255317653390E-01 
    8.6078622742834265E-01 
    8.6073130629372063E-01 
    8.7703530470701574E-01 
    8.7697789348159716E-01 
    8.6067572453875230E-01 
    8.6061959107854635E-01 
    8.7692051114565728E-01 
    8.7686332778398213E-01 
    8.6056297974814611E-01 
    8.6050590938418325E-01 
    8.7680647966243330E-01 
    8.7675004923672895E-01 
    8.6044831015747381E-01 
    8.6038996324053663E-01 
    8.7669403083305419E-01 
    8.7663826820673929E-01 
    8.6033038505492998E-01 
    8.6026858769042658E-01 
    8.7658233298213806E-01 
    8.7652526918113816E-01 
    8.6020255532809975E-01 
    8.6012837348937221E-01 
    8.7646502570709428E-01 
    8.7639758295640058E-01 
    8.6004395168248282E-01 
    8.5996308784723963E-01 
    8.7632244159422878E-01 
    8.7625605190642986E-01 
    8.5990433897873542E-01 
    8.5986589534572611E-01 
    8.7621223248060986E-01 
    8.7618623134545748E-01 
    8.5984114484720786E-01 
    8.5982876900947514E-01 
    8.7617336917001298E-01 
    8.4407057208910485E-01 
    8.2553323972668602E-01 
    8.2552961585116880E-01 
    8.4406708334763514E-01 
    8.4406013877247910E-01 
    8.2552239529506355E-01 
    8.2551162718702531E-01 
    8.4404979592196072E-01 
    8.4403612119937166E-01 
    8.2549736837412002E-01 
    8.2547968067547695E-01 
    8.4401918753504668E-01 
    8.4399907390405704E-01 
    8.2545863021458754E-01 
    8.2543428717151279E-01 
    8.4397586515826162E-01 
    8.4394965187562632E-01 
    8.2540672558837469E-01 
    8.2537602312678982E-01 
    8.4392053015780033E-01 
    8.4388860136076660E-01 
    8.2534226074372175E-01 
    8.2530552226894494E-01 
    8.4385397175497989E-01 
    8.4381675211094420E-01 
    8.2526589386783700E-01 
    8.2522346336722285E-01 
    8.4377705720171325E-01 
    8.4373500520723987E-01 
    8.2517831941185338E-01 
    8.2513055040453354E-01 
    8.4369071699688103E-01 
    8.4364431525477568E-01 
    8.2508024316222772E-01 
    8.2502748119031044E-01 
    8.4359592339658440E-01 
    8.4354566420248456E-01 
    8.2497234243197060E-01 
    8.2491489628009562E-01 
    8.4349365805590137E-01 
    8.4344002062264878E-01 
    8.2485519952830155E-01 
    8.2479329075686747E-01 
    8.4338485971789379E-01 
    8.4332827096521779E-01 
    8.2472918234414205E-01 
    8.2466284875921658E-01 
    8.4327033160914311E-01 
    8.4321109141302553E-01 
    8.2459420881052992E-01 
    8.2452309763303222E-01 
    8.4315055877912304E-01 
    8.4308867868355364E-01 
    8.2444922035526591E-01 
    8.2437207114037059E-01 
    8.4302529585317620E-01 
    8.4296008968676439E-01 
    8.2429078279256074E-01 
    8.2420383230525052E-01 
    8.4289245129907808E-01 
    8.4282123403844023E-01 
    8.2410848780790324E-01 
    8.2400051801053653E-01 
    8.4274422892858036E-01 
    8.4265740189795657E-01 
    8.2387964357118126E-01 
    8.2376093122902261E-01 
    8.4255854428288113E-01 
    8.4246056695545202E-01 
    8.2366652394156514E-01 
    8.2359887766691031E-01 
    8.4238482910650969E-01 
    8.4233269499033869E-01 
    8.2354834283071687E-01 
    8.2351054482454134E-01 
    8.4229581777671469E-01 
    8.4227124789398966E-01 
    8.2348534345137725E-01 
    8.2347274195833542E-01 
    8.4225896091554775E-01 
    8.0590473788800576E-01 
    7.8516083990224017E-01 
    7.8515621553734671E-01 
    8.0590075668540895E-01 
    8.0589281268908430E-01 
    7.8514696984144539E-01 
    7.8513311780417205E-01 
    8.0588094260098264E-01 
    8.0586518942281815E-01 
    7.8511467804594437E-01 
    7.8509166968962751E-01 
    8.0584559943673084E-01 
    8.0582222133364145E-01 
    7.8506411120708719E-01 
    7.8503201965023484E-01 
    8.0579510580164437E-01 
    8.0576430516473851E-01 
    7.8499540984087046E-01 
    7.8495429336612410E-01 
    8.0572987294425313E-01 
    8.0569186328905074E-01 
    7.8490867729279956E-01 
    7.8485856251931252E-01 
    8.0565033023746357E-01 
    8.0560532677110364E-01 
    7.8480394166506673E-01 
    7.8474479636106842E-01 
    8.0555690360800492E-01 
    8.0550510766172356E-01 
    7.8468109374979622E-01 
    7.8461278191880657E-01 
    8.0544998006224156E-01 
    8.0539155358917891E-01 
    7.8453978386614576E-01 
    7.8446198940015943E-01 
    8.0532984929972173E-01 
    8.0526487202849506E-01 
    7.8437924406626436E-01 
    7.8429133368792014E-01 
    8.0519660426950401E-01 
    8.0512499767673740E-01 
    7.8419796226111538E-01 
    7.8409871947548104E-01 
    8.0504996095824288E-01 
    8.0497134213089683E-01 
    7.8399303154374411E-01 
    7.8388008454185543E-01 
    8.0488890163157600E-01 
    8.0480226998106097E-01 
    7.8375870315129970E-01 
    7.8362716849465275E-01 
    8.0471087817265985E-01 
    8.0461383788865859E-01 
    7.8348302726596486E-01 
    7.8332334666674419E-01 
    8.0450972826884748E-01 
    8.0439623380942238E-01 
    7.8314695911345966E-01 
    7.8295921302946514E-01 
    8.0426983313678424E-01 
    8.0412775573685125E-01 
    7.8277455196338475E-01 
    7.8261317321688162E-01 
    8.0397570433835142E-01 
    8.0383326359414053E-01 
    7.8248614459675592E-01 
    7.8238805758312147E-01 
    8.0371987523236754E-01 
    8.0363554992977015E-01 
    7.8230841283605856E-01 
    7.8224241111777360E-01 
    8.0356979234496151E-01 
    8.0351744940807213E-01 
    7.8218968381631837E-01 
    7.8215018136937686E-01 
    8.0347820627191913E-01 
    8.0345205087667437E-01 
    7.8212386686296409E-01 
    7.8211071574082314E-01 
    8.0343897519293450E-01 
    7.6324353542647838E-01 
    7.4002448279834054E-01 
    7.4001671786823975E-01 
    7.6323780902304494E-01 
    7.6322632916972288E-01 
    7.4000109754155985E-01 
    7.3997750436859067E-01 
    7.6320906816692491E-01 
    7.6318599628956485E-01 
    7.3994580650139008E-01 
    7.3990585403142206E-01 
    7.6315707865835603E-01 
    7.6312227345745653E-01 
    7.3985747507558031E-01 
    7.3980047088640533E-01 
    7.6308153018968805E-01 
    7.6303478755296161E-01 
    7.3973460953916992E-01 
    7.3965961777943678E-01 
    7.6298197073717922E-01 
    7.6292298796992619E-01 
    7.3957517050730981E-01 
    7.3948087719305344E-01 
    7.6285772609626923E-01 
    7.6278604490197366E-01 
    7.3937626451569172E-01 
    7.3926075490244569E-01 
    7.6270776977292332E-01 
    7.6262268210192119E-01 
    7.3913364199168652E-01 
    7.3899406750312069E-01 
    7.6253050657006682E-01 
    7.6243089397913444E-01 
    7.3884101153143567E-01 
    7.3867332262402807E-01 
    7.6232339760872347E-01 
    7.6220744006671426E-01 
    7.3848983653760292E-01 
    7.3828965532899016E-01 
    7.6208226653791722E-01 
    7.6194688067238703E-01 
    7.3807264799802552E-01 
    7.3784013264568593E-01 
    7.6179996654707616E-01 
    7.6163983067178720E-01 
    7.3759551140211899E-01 
    7.3734454166886976E-01 
    7.6146449091535540E-01 
    7.6127223596302629E-01 
    7.3709515701418715E-01 
    7.3685699173421471E-01 
    7.6106309060535327E-01 
    7.6084088908844394E-01 
    7.3664022907197446E-01 
    7.3645316455103049E-01 
    7.6061437039740531E-01 
    7.6039677550295770E-01 
    7.3629958689343433E-01 
    7.3617716450229831E-01 
    7.6020352660348778E-01 
    7.6004482360809067E-01 
    7.3607790053413147E-01 
    7.3599323394395422E-01 
    7.5991988297080659E-01 
    7.5981920041372475E-01 
    7.3591893966332589E-01 
    7.3585416712360641E-01 
    7.5973398276738080E-01 
    7.5966129411678041E-01 
    7.3579880524203323E-01 
    7.3575278026623880E-01 
    7.5960088207043630E-01 
    7.5955265762769641E-01 
    7.3571603165457589E-01 
    7.3568851155796344E-01 
    7.5951655035449683E-01 
    7.5949250780636457E-01 
    7.3567018442733212E-01 
    7.3566102672304512E-01 
    7.5948049520088301E-01 
    7.1522528932156781E-01 
    6.8834823594657968E-01 
    6.8832719811219512E-01 
    7.1521302828416644E-01 
    7.1518831305275588E-01 
    6.8828563493158745E-01 
    6.8822437690954708E-01 
    7.1515087999068661E-01 
    7.1510042239187943E-01 
    6.8814442890820882E-01 
    6.8804698451489787E-01 
    7.1503658482175314E-01 
    7.1495895857804515E-01 
    6.8793345816830276E-01 
    6.8780551691417280E-01 
    7.1486708132099019E-01 
    7.1476044491056367E-01 
    6.8766510360054844E-01 
    6.8751444636485115E-01 
    7.1463851738744510E-01 
    7.1450078696084385E-01 
    6.8735604989378485E-01 
    6.8719266754270003E-01 
    7.1434683681251843E-01 
    7.1417645866471746E-01 
    6.8702725529310638E-01 
    6.8686290927778393E-01 
    7.1398980762168640E-01 
    7.1378758905366468E-01 
    6.8670279001166246E-01 
    6.8655003508154988E-01 
    7.1357125172462077E-01 
    7.1334314592579173E-01 
    6.8640766073982162E-01 
    6.8627845011341626E-01 
    7.1310660232904821E-01 
    7.1286590382007953E-01 
    6.8616481675127150E-01 
    6.8606861650972439E-01 
    7.1262615168039112E-01 
    7.1239304009232340E-01 
    6.8599087183380580E-01 
    6.8593140868612912E-01 
    7.1217252260857977E-01 
    7.1197032710569441E-01 
    6.8588852730623484E-01 
    6.8585898264266376E-01 
    7.1179134157025914E-01 
    7.1163895961228063E-01 
    6.8583854685963230E-01 
    6.8582309587789203E-01 
    7.1151434372989975E-01 
    7.1141555364448317E-01 
    6.8580966256450882E-01 
    6.8579679387967307E-01 
    7.1133729365549581E-01 
    7.1127264439955373E-01 
    6.8578413480910250E-01 
    6.8577179211769090E-01 
    7.1121613163972719E-01 
    7.1116522588244280E-01 
    6.8575996120503757E-01 
    6.8574882424209360E-01 
    7.1111935639140500E-01 
    7.1107850450407484E-01 
    6.8573854123293365E-01 
    6.8572925127199325E-01 
    7.1104269835559275E-01 
    7.1101196269514655E-01 
    6.8572107369573132E-01 
    6.8571410905906027E-01 
    7.1098631841300897E-01 
    7.1096578269148458E-01 
    6.8570843995208408E-01 
    6.8570413166671862E-01 
    7.1095036912931697E-01 
    7.1094008784021956E-01 
    6.8570123272095784E-01 
    6.8569977524686976E-01 
    7.1093494552619441E-01 
    6.6026292473455483E-01 
    6.3400743917656954E-01 
    6.3401385243576536E-01 
    6.6025377563770926E-01 
    6.6023640179806076E-01 
    6.3402652486532274E-01 
    6.3404523855243455E-01 
    6.6021218068536913E-01 
    6.6018264770060642E-01 
    6.3406973261840405E-01 
    6.3409967473597173E-01 
    6.6014942629721862E-01 
    6.6011418887290063E-01 
    6.3413463302892292E-01 
    6.3417405536966442E-01 
    6.6007862724464006E-01 
    6.6004442436070965E-01 
    6.3421726070451456E-01 
    6.3426344602336659E-01 
    6.6001322146544172E-01 
    6.5998657500009206E-01 
    6.3431171194038438E-01 
    6.3436110644583099E-01 
    6.5996589810179274E-01 
    6.5995238183879368E-01 
    6.3441068280064072E-01 
    6.3445956409512427E-01 
    6.5994689470789569E-01 
    6.5994986658891275E-01 
    6.3450700302371832E-01 
    6.3455242488322972E-01 
    6.5996117571189172E-01 
    6.5998007235920153E-01 
    6.3459544484528541E-01 
    6.3463585670574407E-01 
    6.6000518307337319E-01 
    6.6003463370426596E-01 
    6.3467359825731817E-01 
    6.3470870489267284E-01 
    6.6006630008074274E-01 
    6.6009814242912845E-01 
    6.3474126498909045E-01 
    6.3477138723672122E-01 
    6.6012852490633556E-01 
    6.6015640528047659E-01 
    6.3479918311333605E-01 
    6.3482476102446517E-01 
    6.6018133255457978E-01 
    6.6020328810308582E-01 
    6.3484822589843659E-01 
    6.3486967963257357E-01 
    6.6022247749227780E-01 
    6.6023917347404248E-01 
    6.3488922085242372E-01 
    6.3490694421815252E-01 
    6.6025364263381692E-01 
    6.6026612744848434E-01 
    6.3492293970851188E-01 
    6.3493729201972171E-01 
    6.6027684640858808E-01 
    6.6028599575939706E-01 
    6.3495008007137332E-01 
    6.3496137659856178E-01 
    6.6029375066820994E-01 
    6.6030026618809123E-01 
    6.3497124781625502E-01 
    6.3497975314468691E-01 
    6.6030567810521501E-01 
    6.6031010367682152E-01 
    6.3498694498629726E-01 
    6.3499286854625203E-01 