# vtk DataFile Version 2.0
Pressure Field Data 
ASCII 
DATASET UNSTRUCTURED_GRID 

POINTS 1681 double 

    0.0000000000000000E+00     0.0000000000000000E+00     0.0000000000000000E+00 
    1.0000000000000000E+00     0.0000000000000000E+00     0.0000000000000000E+00 
    1.0000000000000000E+00     1.0000000000000000E+00     0.0000000000000000E+00 
    0.0000000000000000E+00     1.0000000000000000E+00     0.0000000000000000E+00 
    5.2499999999875258E-01     0.0000000000000000E+00     0.0000000000000000E+00 
    7.4999999999856765E-02     0.0000000000000000E+00     0.0000000000000000E+00 
    1.2499999999975850E-01     0.0000000000000000E+00     0.0000000000000000E+00 
    1.7499999999962990E-01     0.0000000000000000E+00     0.0000000000000000E+00 
    2.2499999999948389E-01     0.0000000000000000E+00     0.0000000000000000E+00 
    2.7499999999933789E-01     0.0000000000000000E+00     0.0000000000000000E+00 
    3.2499999999919210E-01     0.0000000000000000E+00     0.0000000000000000E+00 
    3.7499999999904610E-01     0.0000000000000000E+00     0.0000000000000000E+00 
    4.2499999999890020E-01     0.0000000000000000E+00     0.0000000000000000E+00 
    4.7499999999875958E-01     0.0000000000000000E+00     0.0000000000000000E+00 
    2.4999999999949701E-02     0.0000000000000000E+00     0.0000000000000000E+00 
    5.7499999999887907E-01     0.0000000000000000E+00     0.0000000000000000E+00 
    6.2499999999901101E-01     0.0000000000000000E+00     0.0000000000000000E+00 
    6.7499999999914273E-01     0.0000000000000000E+00     0.0000000000000000E+00 
    7.2499999999927467E-01     0.0000000000000000E+00     0.0000000000000000E+00 
    7.7499999999940661E-01     0.0000000000000000E+00     0.0000000000000000E+00 
    8.2499999999953844E-01     0.0000000000000000E+00     0.0000000000000000E+00 
    8.7499999999967026E-01     0.0000000000000000E+00     0.0000000000000000E+00 
    9.2499999999980220E-01     0.0000000000000000E+00     0.0000000000000000E+00 
    9.7499999999993414E-01     0.0000000000000000E+00     0.0000000000000000E+00 
    5.4999999999881310E-01     0.0000000000000000E+00     0.0000000000000000E+00 
    9.9999999999814140E-02     0.0000000000000000E+00     0.0000000000000000E+00 
    1.4999999999970290E-01     0.0000000000000000E+00     0.0000000000000000E+00 
    1.9999999999955689E-01     0.0000000000000000E+00     0.0000000000000000E+00 
    2.4999999999941089E-01     0.0000000000000000E+00     0.0000000000000000E+00 
    2.9999999999926502E-01     0.0000000000000000E+00     0.0000000000000000E+00 
    3.4999999999911913E-01     0.0000000000000000E+00     0.0000000000000000E+00 
    3.9999999999897312E-01     0.0000000000000000E+00     0.0000000000000000E+00 
    4.4999999999882723E-01     0.0000000000000000E+00     0.0000000000000000E+00 
    4.9999999999869210E-01     0.0000000000000000E+00     0.0000000000000000E+00 
    4.9999999999899403E-02     0.0000000000000000E+00     0.0000000000000000E+00 
    5.9999999999894504E-01     0.0000000000000000E+00     0.0000000000000000E+00 
    6.4999999999907687E-01     0.0000000000000000E+00     0.0000000000000000E+00 
    6.9999999999920870E-01     0.0000000000000000E+00     0.0000000000000000E+00 
    7.4999999999934064E-01     0.0000000000000000E+00     0.0000000000000000E+00 
    7.9999999999947247E-01     0.0000000000000000E+00     0.0000000000000000E+00 
    8.4999999999960441E-01     0.0000000000000000E+00     0.0000000000000000E+00 
    8.9999999999973623E-01     0.0000000000000000E+00     0.0000000000000000E+00 
    9.4999999999986817E-01     0.0000000000000000E+00     0.0000000000000000E+00 
    1.0000000000000000E+00     5.2499999999875258E-01     0.0000000000000000E+00 
    1.0000000000000000E+00     7.4999999999856765E-02     0.0000000000000000E+00 
    1.0000000000000000E+00     1.2499999999975850E-01     0.0000000000000000E+00 
    1.0000000000000000E+00     1.7499999999962990E-01     0.0000000000000000E+00 
    1.0000000000000000E+00     2.2499999999948389E-01     0.0000000000000000E+00 
    1.0000000000000000E+00     2.7499999999933789E-01     0.0000000000000000E+00 
    1.0000000000000000E+00     3.2499999999919210E-01     0.0000000000000000E+00 
    1.0000000000000000E+00     3.7499999999904610E-01     0.0000000000000000E+00 
    1.0000000000000000E+00     4.2499999999890020E-01     0.0000000000000000E+00 
    1.0000000000000000E+00     4.7499999999875958E-01     0.0000000000000000E+00 
    1.0000000000000000E+00     2.4999999999949701E-02     0.0000000000000000E+00 
    1.0000000000000000E+00     5.7499999999887907E-01     0.0000000000000000E+00 
    1.0000000000000000E+00     6.2499999999901101E-01     0.0000000000000000E+00 
    1.0000000000000000E+00     6.7499999999914273E-01     0.0000000000000000E+00 
    1.0000000000000000E+00     7.2499999999927467E-01     0.0000000000000000E+00 
    1.0000000000000000E+00     7.7499999999940661E-01     0.0000000000000000E+00 
    1.0000000000000000E+00     8.2499999999953844E-01     0.0000000000000000E+00 
    1.0000000000000000E+00     8.7499999999967026E-01     0.0000000000000000E+00 
    1.0000000000000000E+00     9.2499999999980220E-01     0.0000000000000000E+00 
    1.0000000000000000E+00     9.7499999999993414E-01     0.0000000000000000E+00 
    1.0000000000000000E+00     5.4999999999881310E-01     0.0000000000000000E+00 
    1.0000000000000000E+00     9.9999999999814140E-02     0.0000000000000000E+00 
    1.0000000000000000E+00     1.4999999999970290E-01     0.0000000000000000E+00 
    1.0000000000000000E+00     1.9999999999955689E-01     0.0000000000000000E+00 
    1.0000000000000000E+00     2.4999999999941089E-01     0.0000000000000000E+00 
    1.0000000000000000E+00     2.9999999999926502E-01     0.0000000000000000E+00 
    1.0000000000000000E+00     3.4999999999911913E-01     0.0000000000000000E+00 
    1.0000000000000000E+00     3.9999999999897312E-01     0.0000000000000000E+00 
    1.0000000000000000E+00     4.4999999999882723E-01     0.0000000000000000E+00 
    1.0000000000000000E+00     4.9999999999869210E-01     0.0000000000000000E+00 
    1.0000000000000000E+00     4.9999999999899403E-02     0.0000000000000000E+00 
    1.0000000000000000E+00     5.9999999999894504E-01     0.0000000000000000E+00 
    1.0000000000000000E+00     6.4999999999907687E-01     0.0000000000000000E+00 
    1.0000000000000000E+00     6.9999999999920870E-01     0.0000000000000000E+00 
    1.0000000000000000E+00     7.4999999999934064E-01     0.0000000000000000E+00 
    1.0000000000000000E+00     7.9999999999947247E-01     0.0000000000000000E+00 
    1.0000000000000000E+00     8.4999999999960441E-01     0.0000000000000000E+00 
    1.0000000000000000E+00     8.9999999999973623E-01     0.0000000000000000E+00 
    1.0000000000000000E+00     9.4999999999986817E-01     0.0000000000000000E+00 
    4.7500000000196618E-01     1.0000000000000000E+00     0.0000000000000000E+00 
    9.2499999999968763E-01     1.0000000000000000E+00     0.0000000000000000E+00 
    8.7499999999961831E-01     1.0000000000000000E+00     0.0000000000000000E+00 
    8.2499999999982654E-01     1.0000000000000000E+00     0.0000000000000000E+00 
    7.7500000000017355E-01     1.0000000000000000E+00     0.0000000000000000E+00 
    7.2500000000052045E-01     1.0000000000000000E+00     0.0000000000000000E+00 
    6.7500000000086724E-01     1.0000000000000000E+00     0.0000000000000000E+00 
    6.2500000000121403E-01     1.0000000000000000E+00     0.0000000000000000E+00 
    5.7500000000156093E-01     1.0000000000000000E+00     0.0000000000000000E+00 
    5.2500000000189684E-01     1.0000000000000000E+00     0.0000000000000000E+00 
    9.7499999999989595E-01     1.0000000000000000E+00     0.0000000000000000E+00 
    4.2500000000176902E-01     1.0000000000000000E+00     0.0000000000000000E+00 
    3.7500000000156092E-01     1.0000000000000000E+00     0.0000000000000000E+00 
    3.2500000000135282E-01     1.0000000000000000E+00     0.0000000000000000E+00 
    2.7500000000114472E-01     1.0000000000000000E+00     0.0000000000000000E+00 
    2.2500000000093659E-01     1.0000000000000000E+00     0.0000000000000000E+00 
    1.7500000000072849E-01     1.0000000000000000E+00     0.0000000000000000E+00 
    1.2500000000052039E-01     1.0000000000000000E+00     0.0000000000000000E+00 
    7.5000000000312261E-02     1.0000000000000000E+00     0.0000000000000000E+00 
    2.5000000000104109E-02     1.0000000000000000E+00     0.0000000000000000E+00 
    4.5000000000187301E-01     1.0000000000000000E+00     0.0000000000000000E+00 
    8.9999999999958358E-01     1.0000000000000000E+00     0.0000000000000000E+00 
    8.4999999999965303E-01     1.0000000000000000E+00     0.0000000000000000E+00 
    8.0000000000000004E-01     1.0000000000000000E+00     0.0000000000000000E+00 
    7.5000000000034706E-01     1.0000000000000000E+00     0.0000000000000000E+00 
    7.0000000000069384E-01     1.0000000000000000E+00     0.0000000000000000E+00 
    6.5000000000104063E-01     1.0000000000000000E+00     0.0000000000000000E+00 
    6.0000000000138742E-01     1.0000000000000000E+00     0.0000000000000000E+00 
    5.5000000000173432E-01     1.0000000000000000E+00     0.0000000000000000E+00 
    5.0000000000205946E-01     1.0000000000000000E+00     0.0000000000000000E+00 
    9.4999999999979179E-01     1.0000000000000000E+00     0.0000000000000000E+00 
    4.0000000000166491E-01     1.0000000000000000E+00     0.0000000000000000E+00 
    3.5000000000145681E-01     1.0000000000000000E+00     0.0000000000000000E+00 
    3.0000000000124871E-01     1.0000000000000000E+00     0.0000000000000000E+00 
    2.5000000000104061E-01     1.0000000000000000E+00     0.0000000000000000E+00 
    2.0000000000083251E-01     1.0000000000000000E+00     0.0000000000000000E+00 
    1.5000000000062441E-01     1.0000000000000000E+00     0.0000000000000000E+00 
    1.0000000000041630E-01     1.0000000000000000E+00     0.0000000000000000E+00 
[...]
CELL_DATA 1600 
SCALARS Pressure double 1 
LOOKUP_TABLE default 

    1.0969186959954149E+00 
    1.0601499464287174E+00 
    1.0598567489596045E+00 
    1.0945444130088069E+00 
    1.0919001610675800E+00 
    1.0592737980439642E+00 
    1.0584463439007141E+00 
    1.0891789965643779E+00 
    1.0864159978688002E+00 
    1.0573964303415897E+00 
    1.0561427474370519E+00 
    1.0836281850889791E+00 
    1.0808239287323169E+00 
    1.0547034641877149E+00 
    1.0530982355266525E+00 
    1.0780058103996990E+00 
    1.0751713132260328E+00 
    1.0513476423946129E+00 
    1.0494693789732386E+00 
    1.0723124276798766E+00 
    1.0694160477941841E+00 
    1.0474762296497662E+00 
    1.0453928660601517E+00 
    1.0664738068783310E+00 
    1.0635016384603904E+00 
    1.0432920441312632E+00 
    1.0412423292586781E+00 
    1.0605038739998391E+00 
    1.0574201194945418E+00 
    1.0392465552437897E+00 
    1.0373141334329117E+00 
    1.0543063191465969E+00 
    1.0514866371839899E+00 
    1.0355003798548845E+00 
    1.0338030358464607E+00 
    1.0489822168258889E+00 
    1.0466422272639067E+00 
    1.0321875941242245E+00 
    1.0306510578634402E+00 
    1.0444482515769473E+00 
    1.0423936414830655E+00 
    1.0291930748236282E+00 
    1.0278131849166199E+00 
    1.0404723704463583E+00 
    1.0386789699705561E+00 
    1.0265108475699283E+00 
    1.0252854662570932E+00 
    1.0370084798220316E+00 
    1.0354564039519385E+00 
    1.0241364090212737E+00 
    1.0230630256207607E+00 
    1.0340186714649811E+00 
    1.0326916020673576E+00 
    1.0220646618282880E+00 
    1.0211406713340492E+00 
    1.0314718755004295E+00 
    1.0303565045311400E+00 
    1.0202904256328342E+00 
    1.0195133222167334E+00 
    1.0293428111264782E+00 
    1.0284284054885793E+00 
    1.0188087913447608E+00 
    1.0181763016181482E+00 
    1.0276111676703132E+00 
    1.0268892315293401E+00 
    1.0176153645537256E+00 
    1.0171255383167745E+00 
    1.0262609708123613E+00 
    1.0257249871912946E+00 
    1.0167064307481239E+00 
    1.0163577017973386E+00 
    1.0252801000999541E+00 
    1.0249253382439920E+00 
    1.0160790654539784E+00 
    1.0158702912515631E+00 
    1.0246599326788375E+00 
    1.0244833113705247E+00 
    1.0157312054035608E+00 
    1.0156616916170191E+00 
    1.0243950951729894E+00 
    1.0249828475093625E+00 
    9.9059398658830333E-01 
    9.9052181039558940E-01 
    1.0248070045707902E+00 
    1.0244573666173717E+00 
    9.9038546673450767E-01 
    9.9019671024582845E-01 
    1.0239459158611750E+00 
    1.0232886345938457E+00 
    9.8996724528834501E-01 
    9.8970758347608623E-01 
    1.0225043152271807E+00 
    1.0216153150938203E+00 
    9.8942631910705214E-01 
    9.8912944447493434E-01 
    1.0206478817071898E+00 
    1.0196295926364847E+00 
    9.8881989637651013E-01 
    9.8849786440516041E-01 
    1.0185846082634145E+00 
    1.0175314061701066E+00 
    9.8816200217120331E-01 
    9.8781094080473686E-01 
    1.0164862991053674E+00 
    1.0154682629340566E+00 
    9.8744456562767946E-01 
    9.8706463671531219E-01 
    1.0144861401149845E+00 
    1.0135327520906550E+00 
    9.8667418486671332E-01 
    9.8627645894825933E-01 
    1.0126000730804330E+00 
    1.0116859178024293E+00 
    9.8587452219491356E-01 
    9.8547122631541817E-01 
    1.0107920480574653E+00 
    1.0099215100503127E+00 
    9.8506922607430880E-01 
    9.8467098835088207E-01 
    1.0090770952744952E+00 
    1.0082612880172137E+00 
    9.8427880081207841E-01 
    9.8389478055135648E-01 
    1.0074762959154784E+00 
    1.0067240778174091E+00 
    9.8352088259567938E-01 
    9.8315890819999519E-01 
    1.0060063690675138E+00 
    1.0053247043951732E+00 
    9.8281051286383259E-01 
    9.8247721401772481E-01 
    1.0046804385804609E+00 
    1.0040747650639545E+00 
    9.8216039833830393E-01 
    9.8186132866029818E-01 
    1.0035087326581684E+00 
    1.0029832605081592E+00 
    9.8158115046151317E-01 
    9.8132089790334598E-01 
    1.0024991514381696E+00 
    1.0020571038101618E+00 
    9.8108149941466272E-01 
    9.8086378281109321E-01 
    1.0016577220090312E+00 
    1.0013015256582920E+00 
    9.8066847994511741E-01 
    9.8049623088484994E-01 
    1.0009889576592463E+00 
    1.0007203911361271E+00 
    9.8034758762130070E-01 
    9.8022301730517725E-01 
    1.0004961353594997E+00 
    1.0003164407103107E+00 
    9.8012290501510857E-01 
    9.8004755605958760E-01 
    1.0001815027373997E+00 
    1.0000914653520003E+00 
    9.7999719781501249E-01 
    9.7997198110203232E-01 
    1.0000464231937269E+00 
    9.6171792219694296E-01 
    9.3558679876885120E-01 
    9.3558198407657589E-01 
    9.6171218118314228E-01 
    9.6169927706284875E-01 
    9.3557193828336016E-01 
    9.3555622741365840E-01 
    9.6167698971292137E-01 
    9.6164296685487027E-01 
    9.3553460426920676E-01 
    9.3550697693298879E-01 
    9.6159518971225388E-01 
    9.6153229697641540E-01 
    9.3547336635307976E-01 
    9.3543388205074718E-01 
    9.6145374651467419E-01 
    9.6135978997796334E-01 
    9.3538870983312350E-01 
    9.3533810420203123E-01 
    9.6125128708961960E-01 
    9.6112945821223750E-01 
    9.3528238119521634E-01 
    9.3522191050950687E-01 
    9.6099568336937369E-01 
    9.6085139167815203E-01 
    9.3515710736623325E-01 
    9.3508842470746656E-01 
    9.6069802043980412E-01 
    9.6053700253188701E-01 
    9.3501634593198979E-01 
    9.3494137816276979E-01 
    9.6036975709131189E-01 
    9.6019768010600559E-01 
    9.3486404602158457E-01 
    9.3478488589847542E-01 
    9.6002213637317968E-01 
    9.5984445284775233E-01 
    9.3470444070020153E-01 
    9.3462325505754928E-01 
    9.5966591314980998E-01 
    9.5948775307703216E-01 
    9.3454187096872321E-01 
    9.3446082385431417E-01 
    9.5931115698782354E-01 
    9.5913725493467550E-01 
    9.3438063899835389E-01 
    9.3430182834951647E-01 
    9.5896712043986398E-01 
    9.5880176881707491E-01 
    9.3422488765659073E-01 
    9.3415029391276361E-01 
    9.5864215595301017E-01 
    9.5848917747253681E-01 
    9.3407850308399398E-01 
    9.3400994809772053E-01 
    9.5834366821956640E-01 
    9.5820640199367779E-01 
    9.3394503706929966E-01 
    9.3388415174486517E-01 
    9.5807809148957268E-01 
    9.5795938839285077E-01 
    9.3382764614069069E-01 
    9.3377584536060410E-01 
    9.5785088359138437E-01 
    9.5775310746679720E-01 
    9.3372904457451722E-01 
    9.3368750814267998E-01 
    9.5766653023528037E-01 
    9.5759156231126885E-01 
    9.3365146887182970E-01 
    9.3362112739096803E-01 
    9.5752855467139264E-01 
    9.5747779919966403E-01 
    9.3359665163606464E-01 
    9.3357817643454388E-01 
    9.5743952899811857E-01 
    9.5741391865013004E-01 
    9.3356580318195681E-01 
    9.3355959960477164E-01 
    9.5740108442641680E-01 
    9.1005501301353042E-01 
    8.8480255317882084E-01 
    8.8480119784413502E-01 
    9.1005219229341239E-01 
    9.1004655580609928E-01 
    8.8479849471747163E-01 
    8.8479445894780140E-01 
    9.1003811817811053E-01 
    9.1002690834155142E-01 
    8.8478911337139354E-01 
    8.8478248856541386E-01 
    9.1001297223431599E-01 
    9.0999637429863023E-01 
    8.8477462284847297E-01 
    8.8476556221376002E-01 
    9.0997719817502898E-01 
    9.0995554681996926E-01 
    8.8475536018737810E-01 
    8.8474407760903462E-01 
    9.0993154216813665E-01 
    9.0990532441049810E-01 
    8.8473178233550787E-01 
    8.8471854886985313E-01 
    9.0987705094872129E-01 
    9.0984689508813743E-01 
    8.8470445792131203E-01 
    8.8468959590234331E-01 
    9.0981504452945983E-01 
    9.0978169971269240E-01 
    8.8467405437016033E-01 
    8.8465792942071964E-01 
    9.0974707205878591E-01 
    9.0971138214764780E-01 
    8.8464132104334536E-01 
    8.8462433244417427E-01 
    9.0967485786509927E-01 
    9.0963773254606162E-01 
    8.8460706934641442E-01 
    8.8458963927508538E-01 
    9.0960024313657439E-01 
    9.0956262839315338E-01 
    8.8457215083348306E-01 
    8.8455471297812471E-01 
    9.0952512713442046E-01 
    9.0948797655686331E-01 
    8.8453743429840104E-01 
    8.8452042230662176E-01 
    9.0945141062392199E-01 
    9.0941565853534145E-01 
    8.8450378274358632E-01 
    8.8448761890428640E-01 
    9.0938094328181673E-01 
    9.0934748028835855E-01 
    8.8447203098782556E-01 
    8.8445711547515671E-01 
    9.0931547614848518E-01 
    9.0928512745026979E-01 
    8.8444296453778215E-01 
    8.8442966548014645E-01 
    9.0925661969441240E-01 
    9.0923012630384625E-01 
    8.8441730021806186E-01 
    8.8440594479516521E-01 
    9.0920580772387527E-01 
    9.0918381061149989E-01 
    8.8439566893909649E-01 
    8.8438653565881109E-01 
    9.0916426711235088E-01 
    9.0914729422353757E-01 
    8.8437860088419695E-01 
    8.8437191314896069E-01 
    9.0913299324069430E-01 
    9.0912144928756267E-01 
    8.8436651331755844E-01 
    8.8436243435679363E-01 
    9.0911273092656730E-01 
    9.0910688984902421E-01 
    8.8435970115256202E-01 
    8.8435833037211309E-01 
    9.0910396064383991E-01 
    8.5968427147505388E-01 
    8.3462902053055021E-01 
    8.3462872289728207E-01 
    8.5968363480068377E-01 
    8.5968236528651543E-01 
    8.3462812945250642E-01 
    8.3462724382910713E-01 
    8.5968047058449926E-01 
    8.5967796212886782E-01 
    8.3462607145002332E-01 
    8.3462461949662470E-01 
    8.5967485508168395E-01 
    8.5967116825774614E-01 
    8.3462289686664226E-01 
    8.3462091412176320E-01 
    8.5966692402775136E-01 
    8.5966214819896847E-01 
    8.3461868342506851E-01 
    8.3461621846855827E-01 
    8.5965686987306933E-01 
    8.5965112128119581E-01 
    8.3461353439108621E-01 
    8.3461064768710935E-01 
    8.5964493759675453E-01 
    8.5963835672682354E-01 
    8.3460757610673186E-01 
    8.3460433854761418E-01 
    8.5963141908341378E-01 
    8.5962416733613423E-01 
    8.3460095493938202E-01 
    8.3459744612125053E-01 
    8.5961664614807387E-01 
    8.5960890189692440E-01 
    8.3459383371363238E-01 
    8.3459013998456144E-01 
    8.5960098238352112E-01 
    8.5959293653010049E-01 
    8.3458638771180294E-01 
    8.3458260004156104E-01 
    8.5958481407063925E-01 
    8.5957666523566933E-01 
    8.3457880034471721E-01 
    8.3457501207155316E-01 
    8.5956854043396369E-01 
    8.5956048993345247E-01 
    8.3457125860592019E-01 
    8.3456756311981106E-01 
    8.5955256354367415E-01 
    8.5954481030198604E-01 
    8.3456394842928727E-01 
    8.3456043685269465E-01 
    8.5953727816566239E-01 
    8.5953001371190774E-01 
    8.3455705007207770E-01 
    8.3455380899867027E-01 
    8.5952306184768779E-01 
    8.5951646553116046E-01 
    8.3455073364331067E-01 
    8.3454784299258566E-01 
    8.5951026550636245E-01 
    8.5950450005267542E-01 
    8.3454515489146042E-01 
    8.3454268593310788E-01 
    8.5949920475046149E-01 
    8.5949441226413270E-01 
    8.3454045135660160E-01 
    8.3453846495307316E-01 
    8.5949015214378977E-01 
    8.5948645064643370E-01 
    8.3453673898089009E-01 
    8.3453528409034350E-01 
    8.5948333057764115E-01 
    8.5948081115446451E-01 
    8.3453410925828386E-01 
    8.3453322173307642E-01 
    8.5947890789020776E-01 
    8.5947763250161302E-01 
    8.3453262699018538E-01 
    8.3453232869864669E-01 
    8.5947699283888190E-01 
    8.0960323527576827E-01 
    7.8459120533815374E-01 
    7.8459114050784173E-01 
    8.0960309633312755E-01 
    8.0960281930221534E-01 
    7.8459101124651776E-01 
    7.8459081835024158E-01 
    8.0960240588650945E-01 
    8.0960185862831502E-01 
    7.8459056300700136E-01 
    7.8459024678943134E-01 
    8.0960118089334865E-01 
    8.0960037685030795E-01 
    7.8458987164517180E-01 
    7.8458943988492402E-01 
    8.0959945144553802E-01 
    8.0959841037293367E-01 
    7.8458895416827412E-01 
    7.8458841748736941E-01 
    8.0959726003924370E-01 
    8.0959600752497407E-01 
    7.8458783314854652E-01 
    7.8458720475202037E-01 
    8.0959466054111162E-01 
    8.0959322738192674E-01 
    7.8458653616975660E-01 
    7.8458583152166272E-01 
    8.0959171687412923E-01 
    8.0959013832268512E-01 
    7.8458509515024211E-01 
    7.8458433159386765E-01 
    8.0958850145362238E-01 
    8.0958681635417717E-01 
    7.8458354555883525E-01 
    7.8458274189037158E-01 
    8.0958509341064988E-01 
    8.0958334324435877E-01 
    7.8458192554277528E-01 
    7.8458110154887328E-01 
    8.0958157664608932E-01 
    8.0957980450945377E-01 
    7.8458027498898386E-01 
    7.8457945095957904E-01 
    8.0957803776357806E-01 
    8.0957628730554088E-01 
    7.8457863454183696E-01 
    7.8457783077028409E-01 
    8.0957456393299188E-01 
    8.0957287827737112E-01 
    7.8457704460171807E-01 
    7.8457628088460851E-01 
    8.0957124073815190E-01 
    8.0956966141851860E-01 
    7.8457554432916066E-01 
    7.8457483947823248E-01 
    8.0956815006288330E-01 
    8.0956671599663055E-01 
    7.8457417067928270E-01 
    7.8457354205752561E-01 
    8.0956536806846524E-01 
    8.0956411459572275E-01 
    7.8457295749045697E-01 
    7.8457242058391097E-01 
    8.0956296331297595E-01 
    8.0956192132425875E-01 
    7.8457193464979502E-01 
    7.8457150268563969E-01 
    8.0956099505919921E-01 
    8.0956019023332826E-01 
    7.8457112735609114E-01 
    7.8457081097645920E-01 
    8.0955951181280794E-01 
    8.0955896398379068E-01 
    7.8457055549842336E-01 
    7.8457036249798440E-01 
    8.0955855012660061E-01 
    8.0955827279488657E-01 
    7.8457023316573493E-01 
    7.8457016829951032E-01 
    8.0955813369987795E-01 
    7.5958559359673905E-01 
    7.3458297600888811E-01 
    7.3458296190049255E-01 
    7.5958556335271188E-01 
    7.5958550305107930E-01 
    7.3458293377071948E-01 
    7.3458289179295677E-01 
    7.5958541306343563E-01 
    7.5958529394431362E-01 
    7.3458283622595111E-01 
    7.3458276741221396E-01 
    7.5958514642777408E-01 
    7.5958497142289039E-01 
    7.3458268577591235E-01 
    7.3458259182025532E-01 
    7.5958477000815516E-01 
    7.5958454342484560E-01 
    7.3458248612439525E-01 
    7.3458236933986021E-01 
    7.5958429306938480E-01 
    7.5958402048474749E-01 
    7.3458224218653989E-01 
    7.3458210544825131E-01 
    7.5958372735096269E-01 
    7.5958341547477048E-01 
    7.3458195996790854E-01 
    7.3458180664232964E-01 
    7.5958308677849595E-01 
    7.5958274328821118E-01 
    7.3458164641671087E-01 
    7.3458148027880099E-01 
    7.5958238712125437E-01 
    7.5958202047318490E-01 
    7.3458130925281429E-01 
    7.3458113439311723E-01 
    7.5958164560425412E-01 
    7.5958126482547517E-01 
    7.3458095677773028E-01 
    7.3458077750168160E-01 
    7.5958088048437744E-01 
    7.5958049495053415E-01 
    7.3458059767025696E-01 
    7.3458041839218524E-01 
    7.5958011060095154E-01 
    7.5957972980541066E-01 
    7.3458024077280182E-01 
    7.3458006590723313E-01 
    7.5957935491185136E-01 
    7.5957898823188974E-01 
    7.3457989487364395E-01 
    7.3457972872658817E-01 
    7.5957863202655862E-01 
    7.5957828849235809E-01 
    7.3457956849050432E-01 
    7.3457941515339864E-01 
    7.5957795974770326E-01 
    7.5957764781985437E-01 
    7.3457926966075082E-01 
    7.3457913290968146E-01 
    7.5957735463240617E-01 
    7.5957708199341900E-01 
    7.3457900574341983E-01 
    7.3457888894610102E-01 
    7.5957683158425959E-01 
    7.5957660494922630E-01 
    7.3457878323792991E-01 
    7.3457868927073755E-01 
    7.5957640348601885E-01 
    7.5957622843711059E-01 
    7.3457860762396110E-01 
    7.3457853880106794E-01 
    7.5957608088208284E-01 
    7.5957596173096043E-01 
    7.3457848322645092E-01 
    7.3457844124280913E-01 
    7.5957587171859586E-01 
    7.5957581140013442E-01 
    7.3457841310903427E-01 
    7.3457839899861277E-01 
    7.5957578114758706E-01 
    7.0958175514663524E-01 
    6.8458118589516836E-01 
    6.8458118282265912E-01 
    7.0958174856464740E-01 
    7.0958173544130743E-01 
    6.8458117669664709E-01 
    6.8458116755489873E-01 
    7.0958171585751539E-01 
    7.0958168993399795E-01 
    6.8458115545377241E-01 
    6.8458114046787133E-01 
    7.0958165783056437E-01 
    7.0958161974512080E-01 
    6.8458112268958282E-01 
    6.8458110222850999E-01 
    7.0958157591245241E-01 
    7.0958152660277518E-01 
    6.8458107921079570E-01 
    6.8458105377834466E-01 
    7.0958147212007117E-01 
    7.0958141280021503E-01 
    6.8458102608794913E-01 
    6.8458099631032243E-01 
    7.0958134900890368E-01 
    7.0958128113940289E-01 
    6.8458096462904638E-01 
    6.8458093123943942E-01 
    7.0958120961012261E-01 
    7.0958113486203922E-01 
    6.8458089634735353E-01 
    6.8458086016790387E-01 
    7.0958105735597587E-01 
    7.0958097756976357E-01 
    6.8458082292414413E-01 
    6.8458078484568963E-01 
    7.0958089599529406E-01 
    7.0958081313548915E-01 
    6.8458074616730369E-01 
    6.8458070712744890E-01 
    7.0958072950119877E-01 
    7.0958064560805212E-01 
    6.8458066796681760E-01 
    6.8458062892684768E-01 
    7.0958056197327957E-01 
    7.0958047911252276E-01 
    6.8458059024823481E-01 
    6.8458055216944724E-01 
    7.0958039753665492E-01 
    7.0958031774863173E-01 
    6.8458051492525585E-01 
    6.8458047874528760E-01 
    7.0958024024039035E-01 
    7.0958016548981440E-01 
    6.8458044385260830E-01 
    6.8458041046234797E-01 
    7.0958009395778876E-01 
    7.0958002608535731E-01 
    6.8458037878037425E-01 
    6.8458034900202280E-01 
    7.0957996229100251E-01 
    7.0957990296806484E-01 
    6.8458032131089352E-01 
    6.8458029587771752E-01 
    7.0957984848231725E-01 
    7.0957979916970904E-01 
    6.8458027285930512E-01 
    6.8458025239757836E-01 
    7.0957975533429452E-01 
    7.0957971724635738E-01 
    6.8458023461869588E-01 
    6.8458021963227556E-01 
    7.0957968514074410E-01 
    7.0957965921541488E-01 
    6.8458020753071791E-01 
    6.8458019838863626E-01 
    7.0957963963022352E-01 
    7.0957962650593109E-01 
    6.8458019226239741E-01 
    6.8458018918977304E-01 
    7.0957961992346108E-01 
    6.5958092081568154E-01 
    6.3458079811541879E-01 
    6.3458079743365114E-01 
    6.5958091937743801E-01 
    6.5958091650988671E-01 
    6.3458079607439266E-01 
    6.3458079404602297E-01 
    6.5958091223070670E-01 
    6.5958090656627888E-01 
    6.3458079136104695E-01 
    6.3458078803601792E-01 
    6.5958089955152532E-01 
    6.5958089122969277E-01 
    6.3458078409143492E-01 
    6.3458077955161696E-01 
    6.5958088165208562E-01 
    6.5958087087775175E-01 
    6.3458077444455241E-01 
    6.3458076880172731E-01 
    6.5958085897311636E-01 
    6.5958084601157330E-01 
    6.3458076265793062E-01 
    6.3458075605104025E-01 
    6.5958083207303275E-01 
    6.5958081724342854E-01 
    6.3458074902178918E-01 
    6.3458074161351385E-01 
    6.5958080161418808E-01 
    6.5958078528166930E-01 
    6.3458073387188829E-01 
    6.3458072584464142E-01 
    6.5958076834656576E-01 
    6.5958075091328594E-01 
    6.3458071758126322E-01 
    6.3458070913269926E-01 
    6.5958073308931087E-01 
    6.5958071498453019E-01 
    6.3458070055103688E-01 
    6.3458069188918453E-01 
    6.5958069671056507E-01 
    6.5958067838007961E-01 
    6.3458068320054517E-01 
    6.3458067453868638E-01 
    6.5958066010608718E-01 
    6.5958064200125255E-01 
    6.3458066595701101E-01 
    6.3458065750842774E-01 
    6.5958062417719832E-01 
    6.5958060674381613E-01 
    6.3458064924502455E-01 
    6.3458064121774793E-01 
    6.5958058980858891E-01 
    6.5958057347592858E-01 
    6.3458063347608851E-01 
    6.3458062606777610E-01 
    6.5958055784653291E-01 
    6.5958054301676272E-01 
    6.3458061903848551E-01 
    6.3458061243155417E-01 
    6.5958052907805009E-01 
    6.5958051611633262E-01 
    6.3458060628771595E-01 
    6.3458060064484978E-01 
    6.5958050421152481E-01 
    6.5958049343702496E-01 
    6.3458059553774571E-01 
    6.3458059099789033E-01 
    6.5958048385926227E-01 
    6.5958047553728805E-01 
    6.3458058705327347E-01 
    6.3458058372821469E-01 