# vtk DataFile Version 2.0
Pressure Field Data 
ASCII 
DATASET UNSTRUCTURED_GRID 

POINTS 1681 double 

    0.0000000000000000E+00     0.0000000000000000E+00     0.0000000000000000E+00 
    1.0000000000000000E+00     0.0000000000000000E+00     0.0000000000000000E+00 
    1.0000000000000000E+00     1.0000000000000000E+00     0.0000000000000000E+00 
    0.0000000000000000E+00     1.0000000000000000E+00     0.0000000000000000E+00 
    5.2499999999875258E-01     0.0000000000000000E+00     0.0000000000000000E+00 
    7.4999999999856765E-02     0.0000000000000000E+00     0.0000000000000000E+00 
    1.2499999999975850E-01     0.0000000000000000E+00     0.0000000000000000E+00 
    1.7499999999962990E-01     0.0000000000000000E+00     0.0000000000000000E+00 
    2.2499999999948389E-01     0.0000000000000000E+00     0.0000000000000000E+00 
    2.7499999999933789E-01     0.0000000000000000E+00     0.0000000000000000E+00 
    3.2499999999919210E-01     0.0000000000000000E+00     0.0000000000000000E+00 
    3.7499999999904610E-01     0.0000000000000000E+00     0.0000000000000000E+00 
    4.2499999999890020E-01     0.0000000000000000E+00     0.0000000000000000E+00 
    4.7499999999875958E-01     0.0000000000000000E+00     0.0000000000000000E+00 
    2.4999999999949701E-02     0.0000000000000000E+00     0.0000000000000000E+00 
    5.7499999999887907E-01     0.0000000000000000E+00     0.0000000000000000E+00 
    6.2499999999901101E-01     0.0000000000000000E+00     0.0000000000000000E+00 
    6.7499999999914273E-01     0.0000000000000000E+00     0.0000000000000000E+00 
    7.2499999999927467E-01     0.0000000000000000E+00     0.0000000000000000E+00 
    7.7499999999940661E-01     0.0000000000000000E+00     0.0000000000000000E+00 
    8.2499999999953844E-01     0.0000000000000000E+00     0.0000000000000000E+00 
    8.7499999999967026E-01     0.0000000000000000E+00     0.0000000000000000E+00 
    9.2499999999980220E-01     0.0000000000000000E+00     0.0000000000000000E+00 
    9.7499999999993414E-01     0.0000000000000000E+00     0.0000000000000000E+00 
    5.4999999999881310E-01     0.0000000000000000E+00     0.0000000000000000E+00 
    9.9999999999814140E-02     0.0000000000000000E+00     0.0000000000000000E+00 
    1.4999999999970290E-01     0.0000000000000000E+00     0.0000000000000000E+00 
    1.9999999999955689E-01     0.0000000000000000E+00     0.0000000000000000E+00 
    2.4999999999941089E-01     0.0000000000000000E+00     0.0000000000000000E+00 
    2.9999999999926502E-01     0.0000000000000000E+00     0.0000000000000000E+00 
    3.4999999999911913E-01     0.0000000000000000E+00     0.0000000000000000E+00 
    3.9999999999897312E-01     0.0000000000000000E+00     0.0000000000000000E+00 
    4.4999999999882723E-01     0.0000000000000000E+00     0.0000000000000000E+00 
    4.9999999999869210E-01     0.0000000000000000E+00     0.0000000000000000E+00 
    4.9999999999899403E-02     0.0000000000000000E+00     0.0000000000000000E+00 
    5.9999999999894504E-01     0.0000000000000000E+00     0.0000000000000000E+00 
    6.4999999999907687E-01     0.0000000000000000E+00     0.0000000000000000E+00 
    6.9999999999920870E-01     0.0000000000000000E+00     0.0000000000000000E+00 
    7.4999999999934064E-01     0.0000000000000000E+00     0.0000000000000000E+00 
    7.9999999999947247E-01     0.0000000000000000E+00     0.0000000000000000E+00 
    8.4999999999960441E-01     0.0000000000000000E+00     0.0000000000000000E+00 
    8.9999999999973623E-01     0.0000000000000000E+00     0.0000000000000000E+00 
    9.4999999999986817E-01     0.0000000000000000E+00     0.0000000000000000E+00 
    1.0000000000000000E+00     5.2499999999875258E-01     0.0000000000000000E+00 
    1.0000000000000000E+00     7.4999999999856765E-02     0.0000000000000000E+00 
    1.0000000000000000E+00     1.2499999999975850E-01     0.0000000000000000E+00 
    1.0000000000000000E+00     1.7499999999962990E-01     0.0000000000000000E+00 
    1.0000000000000000E+00     2.2499999999948389E-01     0.0000000000000000E+00 
    1.0000000000000000E+00     2.7499999999933789E-01     0.0000000000000000E+00 
    1.0000000000000000E+00     3.2499999999919210E-01     0.0000000000000000E+00 
    1.0000000000000000E+00     3.7499999999904610E-01     0.0000000000000000E+00 
    1.0000000000000000E+00     4.2499999999890020E-01     0.0000000000000000E+00 
    1.0000000000000000E+00     4.7499999999875958E-01     0.0000000000000000E+00 
    1.0000000000000000E+00     2.4999999999949701E-02     0.0000000000000000E+00 
    1.0000000000000000E+00     5.7499999999887907E-01     0.0000000000000000E+00 
    1.0000000000000000E+00     6.2499999999901101E-01     0.0000000000000000E+00 
    1.0000000000000000E+00     6.7499999999914273E-01     0.0000000000000000E+00 
    1.0000000000000000E+00     7.2499999999927467E-01     0.0000000000000000E+00 
    1.0000000000000000E+00     7.7499999999940661E-01     0.0000000000000000E+00 
    1.0000000000000000E+00     8.2499999999953844E-01     0.0000000000000000E+00 
    1.0000000000000000E+00     8.7499999999967026E-01     0.0000000000000000E+00 
    1.0000000000000000E+00     9.2499999999980220E-01     0.0000000000000000E+00 
    1.0000000000000000E+00     9.7499999999993414E-01     0.0000000000000000E+00 
    1.0000000000000000E+00     5.4999999999881310E-01     0.0000000000000000E+00 
    1.0000000000000000E+00     9.9999999999814140E-02     0.0000000000000000E+00 
    1.0000000000000000E+00     1.4999999999970290E-01     0.0000000000000000E+00 
    1.0000000000000000E+00     1.9999999999955689E-01     0.0000000000000000E+00 
    1.0000000000000000E+00     2.4999999999941089E-01     0.0000000000000000E+00 
    1.0000000000000000E+00     2.9999999999926502E-01     0.0000000000000000E+00 
    1.0000000000000000E+00     3.4999999999911913E-01     0.0000000000000000E+00 
    1.0000000000000000E+00     3.9999999999897312E-01     0.0000000000000000E+00 
    1.0000000000000000E+00     4.4999999999882723E-01     0.0000000000000000E+00 
    1.0000000000000000E+00     4.9999999999869210E-01     0.0000000000000000E+00 
    1.0000000000000000E+00     4.9999999999899403E-02     0.0000000000000000E+00 
    1.0000000000000000E+00     5.9999999999894504E-01     0.0000000000000000E+00 
    1.0000000000000000E+00     6.4999999999907687E-01     0.0000000000000000E+00 
    1.0000000000000000E+00     6.9999999999920870E-01     0.0000000000000000E+00 
    1.0000000000000000E+00     7.4999999999934064E-01     0.0000000000000000E+00 
    1.0000000000000000E+00     7.9999999999947247E-01     0.0000000000000000E+00 
    1.0000000000000000E+00     8.4999999999960441E-01     0.0000000000000000E+00 
    1.0000000000000000E+00     8.9999999999973623E-01     0.0000000000000000E+00 
    1.0000000000000000E+00     9.4999999999986817E-01     0.0000000000000000E+00 
    4.7500000000196618E-01     1.0000000000000000E+00     0.0000000000000000E+00 
    9.2499999999968763E-01     1.0000000000000000E+00     0.0000000000000000E+00 
    8.7499999999961831E-01     1.0000000000000000E+00     0.0000000000000000E+00 
    8.2499999999982654E-01     1.0000000000000000E+00     0.0000000000000000E+00 
    7.7500000000017355E-01     1.0000000000000000E+00     0.0000000000000000E+00 
    7.2500000000052045E-01     1.0000000000000000E+00     0.0000000000000000E+00 
    6.7500000000086724E-01     1.0000000000000000E+00     0.0000000000000000E+00 
    6.2500000000121403E-01     1.0000000000000000E+00     0.0000000000000000E+00 
    5.7500000000156093E-01     1.0000000000000000E+00     0.0000000000000000E+00 
    5.2500000000189684E-01     1.0000000000000000E+00     0.0000000000000000E+00 
    9.7499999999989595E-01     1.0000000000000000E+00     0.0000000000000000E+00 
    4.2500000000176902E-01     1.0000000000000000E+00     0.0000000000000000E+00 
    3.7500000000156092E-01     1.0000000000000000E+00     0.0000000000000000E+00 
    3.2500000000135282E-01     1.0000000000000000E+00     0.0000000000000000E+00 
    2.7500000000114472E-01     1.0000000000000000E+00     0.0000000000000000E+00 
    2.2500000000093659E-01     1.0000000000000000E+00     0.0000000000000000E+00 
    1.7500000000072849E-01     1.0000000000000000E+00     0.0000000000000000E+00 
    1.2500000000052039E-01     1.0000000000000000E+00     0.0000000000000000E+00 
    7.5000000000312261E-02     1.0000000000000000E+00     0.0000000000000000E+00 
    2.5000000000104109E-02     1.0000000000000000E+00     0.0000000000000000E+00 
    4.5000000000187301E-01     1.0000000000000000E+00     0.0000000000000000E+00 
    8.9999999999958358E-01     1.0000000000000000E+00     0.0000000000000000E+00 
    8.4999999999965303E-01     1.0000000000000000E+00     0.0000000000000000E+00 
    8.0000000000000004E-01     1.0000000000000000E+00     0.0000000000000000E+00 
    7.5000000000034706E-01     1.0000000000000000E+00     0.0000000000000000E+00 
    7.0000000000069384E-01     1.0000000000000000E+00     0.0000000000000000E+00 
    6.5000000000104063E-01     1.0000000000000000E+00     0.0000000000000000E+00 
    6.0000000000138742E-01     1.0000000000000000E+00     0.0000000000000000E+00 
    5.5000000000173432E-01     1.0000000000000000E+00     0.0000000000000000E+00 
    5.0000000000205946E-01     1.0000000000000000E+00     0.0000000000000000E+00 
    9.4999999999979179E-01     1.0000000000000000E+00     0.0000000000000000E+00 
    4.0000000000166491E-01     1.0000000000000000E+00     0.0000000000000000E+00 
    3.5000000000145681E-01     1.0000000000000000E+00     0.0000000000000000E+00 
    3.0000000000124871E-01     1.0000000000000000E+00     0.0000000000000000E+00 
    2.5000000000104061E-01     1.0000000000000000E+00     0.0000000000000000E+00 
    2.0000000000083251E-01     1.0000000000000000E+00     0.0000000000000000E+00 
    1.5000000000062441E-01     1.0000000000000000E+00     0.0000000000000000E+00 
    1.0000000000041630E-01     1.0000000000000000E+00     0.0000000000000000E+00 
[...]
CELL_DATA 1600 
SCALARS Pressure double 1 
LOOKUP_TABLE default 

    8.1934901028592200E-01 
    8.0062989008684504E-01 
    8.0053390830948290E-01 
    8.1743920583813134E-01 
    8.1567237088741207E-01 
    8.0036011440848476E-01 
    8.0012407844368416E-01 
    8.1403813593582497E-01 
    8.1252374311580733E-01 
    7.9983866206616427E-01 
    7.9951462567394904E-01 
    8.1111771922493459E-01 
    8.0980989631164135E-01 
    7.9916098102329891E-01 
    7.9878527821316092E-01 
    8.0859129611336866E-01 
    8.0745399792890282E-01 
    7.9839384361876986E-01 
    7.9799197830473889E-01 
    8.0639101334279562E-01 
    8.0539617332598845E-01 
    7.9758412394356892E-01 
    7.9717400179827147E-01 
    8.0446402843088871E-01 
    8.0358976130939708E-01 
    7.9676472928295816E-01 
    7.9635891781070767E-01 
    8.0276911033876597E-01 
    8.0199830306900732E-01 
    7.9595875499673452E-01 
    7.9556607376478550E-01 
    8.0127399827270918E-01 
    8.0059323549329864E-01 
    7.9518241047871174E-01 
    7.9480905387011080E-01 
    7.9995339111419950E-01 
    7.9935214009351230E-01 
    7.9444708624239135E-01 
    7.9409741819043111E-01 
    7.9878742262083602E-01 
    7.9825741505280656E-01 
    7.9376081787434116E-01 
    7.9343793571861332E-01 
    7.9776050457178194E-01 
    7.9729526708876719E-01 
    7.9312932526837732E-01 
    7.9283546081791889E-01 
    7.9686044797821820E-01 
    7.9645494528996896E-01 
    7.9255675232913647E-01 
    7.9229355807605295E-01 
    7.9607779513335164E-01 
    7.9572815897151317E-01 
    7.9204619538304577E-01 
    7.9181494976672950E-01 
    7.9540531260068736E-01 
    7.9510863662003350E-01 
    7.9160008274194837E-01 
    7.9140183850820622E-01 
    7.9483760822201799E-01 
    7.9459179414874914E-01 
    7.9122044968934890E-01 
    7.9105614224655429E-01 
    7.9437084465896901E-01 
    7.9417448831304449E-01 
    7.9090913959776266E-01 
    7.9077966578344994E-01 
    7.9400252724747022E-01 
    7.9385483217056030E-01 
    7.9066794698550291E-01 
    7.9057420899673281E-01 
    7.9373133480297220E-01 
    7.9363200979029602E-01 
    7.9049866215221742E-01 
    7.9044144268727756E-01 
    7.9355681522554800E-01 
    7.9350547454029841E-01 
    7.9040240523846250E-01 
    7.9038063447660079E-01 
    7.9347682307280509E-01 
    7.8964294242962352E-01 
    7.7971195033766594E-01 
    7.7970305793431494E-01 
    7.8962047433527571E-01 
    7.8957611508867875E-01 
    7.7968535206938194E-01 
    7.7965901600280718E-01 
    7.8951093467074096E-01 
    7.8942630355640619E-01 
    7.7962431677112121E-01 
    7.7958159804782656E-01 
    7.8932379020162136E-01 
    7.8920508123083621E-01 
    7.7953127044674886E-01 
    7.7947380120237042E-01 
    7.8907192033834050E-01 
    7.8892606235310547E-01 
    7.7940970400730236E-01 
    7.7933952939891660E-01 
    7.8876923936980181E-01 
    7.8860313639193302E-01 
    7.7926385590465908E-01 
    7.7918328205030696E-01 
    7.8842937441781302E-01 
    7.8824949930592214E-01 
    7.7909841926847301E-01 
    7.7900988570068364E-01 
    7.8806497508887041E-01 
    7.8787718067564672E-01 
    7.7891830085764469E-01 
    7.7882428108428403E-01 
    7.8768740910070822E-01 
    7.8749686865508628E-01 
    7.7872843576574369E-01 
    7.7863136420552326E-01 
    7.8730668537686199E-01 
    7.8711790649256064E-01 
    7.7853365310584333E-01 
    7.7843587458185182E-01 
    7.8693150449251925E-01 
    7.8674838159643190E-01 
    7.7833858464462957E-01 
    7.7824232209246125E-01 
    7.8656937442357289E-01 
    7.8639525872855476E-01 
    7.7814760775501723E-01 
    7.7805494404061371E-01 
    7.8622675410017762E-01 
    7.8606452854986508E-01 
    7.7796481474229973E-01 
    7.7787768506393662E-01 
    7.8590920293885669E-01 
    7.8576135521081503E-01 
    7.7779400183241010E-01 
    7.7771419386618978E-01 
    7.8562152440952626E-01 
    7.8549021447001599E-01 
    7.7763867247271190E-01 
    7.7756783204541391E-01 
    7.8536789777461335E-01 
    7.8525501845969869E-01 
    7.7750205072063450E-01 
    7.7744169102234850E-01 
    7.8515199543392045E-01 
    7.8505922499635616E-01 
    7.7738710033525027E-01 
    7.7733861081029942E-01 
    7.8497708274055811E-01 
    7.8490592383734281E-01 
    7.7729653764588558E-01 
    7.7726117276313567E-01 
    7.8484607893394809E-01 
    7.8479783679044113E-01 
    7.7723276518812512E-01 
    7.7721146354527704E-01 
    7.8476138478031332E-01 
    7.8473662644160769E-01 
    7.7719716793864435E-01 
    7.7718933200732421E-01 
    7.8472287590652423E-01 
    7.6968456421874332E-01 
    7.5921701960295773E-01 
    7.5921452958179836E-01 
    7.6968020743869636E-01 
    7.6967151981543369E-01 
    7.5920956488399027E-01 
    7.5920215741645891E-01 
    7.6965856244125264E-01 
    7.6964142513920486E-01 
    7.5919235154928788E-01 
    7.5918020543376263E-01 
    7.6962022713904676E-01 
    7.6959511584478724E-01 
    7.5916579098339498E-01 
    7.5914919340429921E-01 
    7.6956626491922020E-01 
    7.6953387205621815E-01 
    7.5913051053094083E-01 
    7.5910985206082460E-01 
    7.6949815660276899E-01 
    7.6945935712347158E-01 
    7.5908733873148126E-01 
    7.5906310146443923E-01 
    7.6941772896992200E-01 
    7.6937354190046847E-01 
    7.5903728049282193E-01 
    7.5901002448523402E-01 
    7.6932707778435894E-01 
    7.6927862841558459E-01 
    7.5898148967629908E-01 
    7.5895183901266527E-01 
    7.6922849345473210E-01 
    7.6917697851142963E-01 
    7.5892124132212402E-01 
    7.5888987051251156E-01 
    7.6912439337527061E-01 
    7.6907105039931978E-01 
    7.5885790480624671E-01 
    7.5882552601565534E-01 
    7.6901726303729800E-01 
    7.6896334453326332E-01 
    7.5879291886364564E-01 
    7.5876027035382054E-01 
    7.6890960676094211E-01 
    7.6885635920873585E-01 
    7.5872776919374652E-01 
    7.5869560527479529E-01 
    7.6880390810579402E-01 
    7.6875255568423695E-01 
    7.5866396921169121E-01 
    7.5863305194445685E-01 
    7.6870259957254383E-01 
    7.6865433231498781E-01 
    7.5860304440454263E-01 
    7.5857413724481948E-01 
    7.6860804101126767E-01 
    7.6856400706800465E-01 
    7.5854652062824468E-01 
    7.5852038405890410E-01 
    7.6852250604685812E-01 
    7.6848380757649604E-01 
    7.5849591621388990E-01 
    7.5847330467668783E-01 
    7.6844817525231846E-01 
    7.6841586634033798E-01 
    7.5845273533854529E-01 
    7.5843439091693998E-01 
    7.6838713082909682E-01 
    7.6836220866333049E-01 
    7.5841844727865793E-01 
    7.5840506443404099E-01 
    7.6834132210730099E-01 
    7.6832465526950722E-01 
    7.5839436496209167E-01 
    7.5838638558244120E-01 
    7.6831230171327103E-01 
    7.6830415498457405E-01 
    7.5838099875443987E-01 
    7.5837795976143774E-01 
    7.6829977874121069E-01 
    7.4819293515322705E-01 
    7.3657755607605646E-01 
    7.3657631251064737E-01 
    7.4819128825446579E-01 
    7.4818800710445255E-01 
    7.3657383731592418E-01 
    7.3657015020435967E-01 
    7.4818311454295361E-01 
    7.4817663985284333E-01 
    7.3656527482135581E-01 
    7.3655923955079661E-01 
    7.4816861988339056E-01 
    7.4815909925226720E-01 
    7.3655207773911013E-01 
    7.3654382767687820E-01 
    7.4814813022050219E-01 
    7.4813577243358598E-01 
    7.3653453247910095E-01 
    7.3652423991753779E-01 
    7.4812209259816520E-01 
    7.4810716412414546E-01 
    7.3651300222840488E-01 
    7.3650087590671731E-01 
    7.4809106674705850E-01 
    7.4807388613919890E-01 
    7.3648792149321107E-01 
    7.3647420335720770E-01 
    7.4805571351512934E-01 
    7.4803664523575142E-01 
    7.3645978947747170E-01 
    7.3644475122238995E-01 
    7.4801678241441782E-01 
    7.4799623052817088E-01 
    7.3642916313037932E-01 
    7.3641310269112714E-01 
    7.4797509903696424E-01 
    7.4795350101358027E-01 
    7.3639665012800193E-01 
    7.3637988818166800E-01 
    7.4793155278682721E-01 
    7.4790937360049969E-01 
    7.3636290189453113E-01 
    7.3634577839505078E-01 
    7.4788708529043213E-01 
    7.4786481198177046E-01 
    7.3632860668005229E-01 
    7.3631147739175506E-01 
    7.4784267980820263E-01 
    7.4782081665420264E-01 
    7.3629448258392816E-01 
    7.3627771546777510E-01 
    7.4779935192001479E-01 
    7.4777841630653563E-01 
    7.3626127012163589E-01 
    7.3624524113713352E-01 
    7.4775814161220233E-01 
    7.4773866052394578E-01 
    7.3622972315363389E-01 
    7.3621481019402302E-01 
    7.4772010636389763E-01 
    7.4770261271146010E-01 
    7.3620059463977772E-01 
    7.3618716553392138E-01 
    7.4768631273148589E-01 
    7.4767133784761630E-01 
    7.3617460559451742E-01 
    7.3616298567782246E-01 
    7.4765781497833073E-01 
    7.4764586061466565E-01 
    7.3615235403834622E-01 
    7.3614271461466008E-01 
    7.4763556793468622E-01 
    7.4762697870808970E-01 
    7.3613398116169726E-01 
    7.3612587445699618E-01 
    7.4762002378154091E-01 
    7.4761442448457427E-01 
    7.3611768620735651E-01 
    7.3611054348770288E-01 
    7.4761039809048013E-01 
    7.2436766865739532E-01 
    7.1157165345369444E-01 
    7.1157072683296296E-01 
    7.2436663041947624E-01 
    7.2436456579514874E-01 
    7.1156888557114750E-01 
    7.1156614831683396E-01 
    7.2436149353287582E-01 
    7.2435743526556229E-01 
    7.1156253622740517E-01 
    7.1155807319645448E-01 
    7.2435241600777645E-01 
    7.2434646435276218E-01 
    7.1155278601274874E-01 
    7.1154670440655376E-01 
    7.2433961249609824E-01 
    7.2433189618110838E-01 
    7.1153986103796296E-01 
    7.1153229145537999E-01 
    7.2432335460600117E-01 
    7.2431403031121189E-01 
    7.1152403403862152E-01 
    7.1151512993450727E-01 
    7.2430396905619998E-01 
    7.2429321969056226E-01 
    7.1150562298939501E-01 
    7.1149555968125000E-01 
    7.2428183402205493E-01 
    7.2426986668286453E-01 
    7.1148498905275259E-01 
    7.1147396264628060E-01 
    7.2425737499470855E-01 
    7.2424441883283019E-01 
    7.1146253444114149E-01 
    7.1145076079305092E-01 
    7.2423106048852104E-01 
    7.2421736452935903E-01 
    7.1143870037546886E-01 
    7.1142641412193530E-01 
    7.2420339765582165E-01 
    7.2418922855219825E-01 
    7.1141396516788136E-01 
    7.1140141878941143E-01 
    7.2417492772868119E-01 
    7.2416056734994694E-01 
    7.1138884233501498E-01 
    7.1137630514372829E-01 
    7.2414622104311444E-01 
    7.2413196367415711E-01 
    7.1136387843928361E-01 
    7.1135163518315381E-01 
    7.2411787107562986E-01 
    7.2410401969821048E-01 
    7.1133964985804932E-01 
    7.1132799813355052E-01 
    7.2409048614071125E-01 
    7.2407734648154509E-01 
    7.1131675632979652E-01 
    7.1130600052906512E-01 
    7.2406467527657126E-01 
    7.2405254397843410E-01 
    7.1129580505984591E-01 
    7.1128623983507022E-01 
    7.2404101831848244E-01 
    7.2403015376301094E-01 
    7.1127736554420729E-01 
    7.1126922471575527E-01 
    7.2401998726757610E-01 
    7.2401052163696433E-01 
    7.1126182455336540E-01 
    7.1125510237992673E-01 
    7.2400169434707451E-01 
    7.2399331085381002E-01 
    7.1124884972610414E-01 
    7.1124251576393283E-01 
    7.2398488354620449E-01 
    7.2397515318108840E-01 
    7.1123448858092442E-01 
    7.1122669541784467E-01 
    7.2396609948057433E-01 
    6.9820141150198556E-01 
    6.8426956220076585E-01 
    6.8426872259583094E-01 
    6.9820054491839822E-01 
    6.9819882382809517E-01 
    6.8426705540400168E-01 
    6.8426457926654882E-01 
    6.9819626695848835E-01 
    6.9819289542125673E-01 
    6.8426131511677890E-01 
    6.8425728597350011E-01 
    6.9818873270747228E-01 
    6.9818380480258513E-01 
    6.8425251700435874E-01 
    6.8424703557501176E-01 
    6.9817814024195446E-01 
    6.9817177012616605E-01 
    6.8424087127252031E-01 
    6.8423405591055664E-01 
    6.9816472811360175E-01 
    6.9815705040102582E-01 
    6.8422662352345187E-01 
    6.8421861035409470E-01 
    6.9814877569877176E-01 
    6.9813994520465295E-01 
    6.8421005483907393E-01 
    6.8420099759333930E-01 
    6.9813060257926074E-01 
    6.9812079392443771E-01 
    6.8419148139588881E-01 
    6.8418155117746848E-01 
    6.9811056776615810E-01 
    6.9809997504268628E-01 
    6.8417125401087608E-01 
    6.8416063910410341E-01 
    6.9808906909859691E-01 
    6.9807790568497907E-01 
    6.8414975779619946E-01 
    6.8413866355525743E-01 
    6.9806654296580484E-01 
    6.9805504152995956E-01 
    6.8412741197726379E-01 
    6.8411606078349618E-01 
    6.9804346440765819E-01 
    6.9803187708869530E-01 
    6.8410466981249052E-01 
    6.8409330099985344E-01 
    6.9802034753784492E-01 
    6.9800894619908749E-01 
    6.8408201833458415E-01 
    6.8407088777267488E-01 
    6.9799774597404440E-01 
    6.9798682214889229E-01 
    6.8405997707491895E-01 
    6.8404935551109758E-01 
    6.9797625222407145E-01 
    6.9796611556452393E-01 
    6.8403909332741608E-01 
    6.8402926078938542E-01 
    6.9795649271976901E-01 
    6.9794746413283670E-01 
    6.8401992645102028E-01 
    6.8401115398862111E-01 
    6.9793910770526013E-01 
    6.9793149419145317E-01 
    6.8400299631994255E-01 
    6.8399548446334446E-01 
    6.9792467840296024E-01 
    6.9791868206872176E-01 
    6.8398860573360398E-01 
    6.8398225801830104E-01 
    6.9791345882811096E-01 
    6.9790881437099128E-01 
    6.8397613865358942E-01 
    6.8396940775050785E-01 
    6.9790418405341881E-01 
    6.9789793716538462E-01 
    6.8396121022299039E-01 
    6.8395500983126434E-01 
    6.9789180252838168E-01 
    6.6978850107946530E-01 
    6.5476954447857794E-01 
    6.5476871571860795E-01 
    6.6978767002155126E-01 
    6.6978601977371799E-01 
    6.5476706998190115E-01 
    6.5476462568021498E-01 
    6.6978356878531564E-01 
    6.6978033772538825E-01 
    6.5476140348842782E-01 
    6.5475742582241070E-01 
    6.6977634910279282E-01 
    6.6977162727528017E-01 
    6.5475271680408764E-01 
    6.5474730228786082E-01 
    6.6976619848333763E-01 
    6.6976009087042088E-01 
    6.5474120988718287E-01 
    6.5473446899174037E-01 
    6.6975333448803487E-01 
    6.6974596128891684E-01 
    6.5472711077533108E-01 
    6.5471916819620279E-01 
    6.6973800511146664E-01 
    6.6972950165767231E-01 
    6.5471067599149058E-01 
    6.5470167066684071E-01 
    6.6972048846589305E-01 
    6.6971100487911117E-01 
    6.5469219048171312E-01 
    6.5468227543025048E-01 
    6.6970109200862049E-01 
    6.6969079269250675E-01 
    6.5467196721698129E-01 
    6.5466130922590593E-01 
    6.6968015144762250E-01 
    6.6966921441298377E-01 
    6.5465034648061871E-01 
    6.5463912559190141E-01 
    6.6965802928148799E-01 
    6.6964664521542372E-01 
    6.5462769468749693E-01 
    6.5461610331621578E-01 
    6.6963511273916354E-01 
    6.6962348359928425E-01 
    6.5460440231465211E-01 
    6.5459264361872804E-01 
    6.6961181057748498E-01 
    6.6960014723388339E-01 
    6.5458087999257630E-01 
    6.5456916463121728E-01 
    6.6958854754546582E-01 
    6.6957706538275319E-01 
    6.5455755056618714E-01 
    6.5454608975534001E-01 
    6.6956575372984872E-01 
    6.6955466348480952E-01 
    6.5453483165105408E-01 
    6.5452382087794181E-01 
    6.6954384155072322E-01 
    6.6953332768620499E-01 
    6.5451309333458285E-01 
    6.5450266939604851E-01 
    6.6952314910884891E-01 
    6.6951331087679455E-01 
    6.5449254154626002E-01 
    6.5448265069406120E-01 
    6.6950377797813743E-01 
    6.6949443994698055E-01 
    6.5447283738822271E-01 
    6.5446272841474462E-01 
    6.6948503357538736E-01 
    6.6947494146580921E-01 
    6.5445141828636100E-01 
    6.5443641104650407E-01 
    6.6946252685282814E-01 
    6.6944892164133984E-01 
    6.5442045351510758E-01 
    6.5441253379916586E-01 
    6.6944146454801412E-01 
    6.3922208859543450E-01 
    6.2315364325805878E-01 
    6.2315280083190738E-01 
    6.3922125746551761E-01 
    6.3921960693613433E-01 
    6.2315112753955748E-01 
    6.2314864165317474E-01 
    6.3921715545706259E-01 
    6.3921392384563958E-01 
    6.2314536382808916E-01 
    6.2314131635162173E-01 
    6.3920993464576159E-01 
    6.3920521205602299E-01 
    6.2313652302576772E-01 
    6.2313100917321673E-01 
    6.3919978195338856E-01 
    6.3919367193157894E-01 
    6.2312480166856332E-01 
    6.2311792897140017E-01 
    6.3918691133766725E-01 
    6.3917953130430305E-01 
    6.2311042115562731E-01 
    6.2310230993416227E-01 
    6.3917156477840287E-01 
    6.3916304654781475E-01 
    6.2309362867951545E-01 
    6.2308441244083390E-01 
    6.3915401326737442E-01 
    6.3914450348546981E-01 
    6.2307469795778081E-01 
    6.2306452367120546E-01 
    6.3913455767186411E-01 
    6.3912421824714327E-01 
    6.2305392973002993E-01 
    6.2304295799310871E-01 
    6.3911352961367007E-01 
    6.3910253818731078E-01 
    6.2303165202389388E-01 
    6.2302005707443642E-01 
    6.3909129242829121E-01 
    6.3907984286818142E-01 
    6.2300822005332435E-01 
    6.2299618946922652E-01 
    6.3906824212786195E-01 
    6.3905654491790564E-01 
    6.2298401533711256E-01 
    6.2297174902686592E-01 
    6.3904480800720509E-01 
    6.3903309013632414E-01 
    6.2295944302184114E-01 
    6.2294715053427618E-01 
    6.3902145183602688E-01 
    6.3900995508334391E-01 
    6.2293492488839419E-01 
    6.2292281851677167E-01 
    6.3899866267682748E-01 
    6.3898763711810036E-01 
    6.2291088129269434E-01 
    6.2289915768044157E-01 
    6.3897693860473836E-01 
    6.3896662137611593E-01 
    6.2288768169212927E-01 
    6.2287646757182935E-01 
    6.3895672689630678E-01 
    6.3894727068549795E-01 
    6.2286549164801785E-01 
    6.2285465441693189E-01 
    6.3893821556670771E-01 
    6.3892941274459147E-01 
    6.2284369281358620E-01 
    6.2283194378215079E-01 
    6.3892045325600644E-01 
    6.3891021845715334E-01 
    6.2281759114563062E-01 
    6.2280027898119050E-01 
    6.3889627682882666E-01 
    6.3888207247089712E-01 
    6.2278692584933293E-01 
    6.2278104816863222E-01 
    6.3887491743196412E-01 
    6.0657032449262760E-01 
    5.8947653308420089E-01 
    5.8947565333191698E-01 
    6.0656946472539042E-01 
    6.0656775654591977E-01 
    5.8947390503664421E-01 
    5.8947130612239207E-01 
    6.0656521799126695E-01 
    6.0656186948424207E-01 
    5.8946787697481484E-01 
    5.8946363951195124E-01 
    6.0655773298479498E-01 
    6.0655283182815911E-01 
    5.8945861698869118E-01 
    5.8945283397432757E-01 
    6.0654719071103091E-01 
    6.0654083571251904E-01 
    5.8944631637700240E-01 
    5.8943909148020956E-01 
    6.0653379432029841E-01 
    6.0652609545333114E-01 
    5.8943118798052796E-01 
    5.8942263602321432E-01 
    6.0651776947865765E-01 
    6.0650884822157547E-01 
    5.8941346723477006E-01 
    5.8940371475232478E-01 
    6.0649936496885748E-01 
    6.0648935446444130E-01 
    5.8939341324973216E-01 
    5.8938259895998169E-01 
    6.0647885289650927E-01 
    6.0646789787415223E-01 
    5.8937130969299267E-01 
    5.8935958484706130E-01 
    6.0645652839082076E-01 
    6.0644478477042385E-01 
    5.8934746541104677E-01 
    5.8933499395261690E-01 
    6.0643270859000498E-01 
    6.0642034257014787E-01 
    5.8932221458519307E-01 
    5.8930917290207852E-01 
    6.0640773042007901E-01 
    6.0639491661802924E-01 
    5.8929591585963792E-01 
    5.8928249158061285E-01 
    6.0638194609727181E-01 
    6.0636886379165711E-01 
    5.8926894903044047E-01 
    5.8925533748778303E-01 
    6.0635571396645838E-01 
    6.0634253921148618E-01 
    5.8924170567379852E-01 
    5.8922810029925066E-01 
    6.0632937888484550E-01 
    6.0631626662710625E-01 
    5.8921456358203006E-01 
    5.8920112886047338E-01 
    6.0630322622871957E-01 
    6.0629026442296075E-01 
    5.8918781249015140E-01 
    5.8917459799336047E-01 
    6.0627735757520740E-01 
    6.0626442532407609E-01 
    5.8916140268883199E-01 
    5.8914800032967141E-01 
    6.0625127353700370E-01 
    6.0623745496334447E-01 
    5.8913381709680335E-01 
    5.8911731116540167E-01 