# vtk DataFile Version 2.0
Pressure Field Data 
ASCII 
DATASET UNSTRUCTURED_GRID 

POINTS 1681 double 

    0.0000000000000000E+00     0.0000000000000000E+00     0.0000000000000000E+00 
    1.0000000000000000E+00     0.0000000000000000E+00     0.0000000000000000E+00 
    1.0000000000000000E+00     1.0000000000000000E+00     0.0000000000000000E+00 
    0.0000000000000000E+00     1.0000000000000000E+00     0.0000000000000000E+00 
    5.2499999999875258E-01     0.0000000000000000E+00     0.0000000000000000E+00 
    7.4999999999856765E-02     0.0000000000000000E+00     0.0000000000000000E+00 
    1.2499999999975850E-01     0.0000000000000000E+00     0.0000000000000000E+00 
    1.7499999999962990E-01     0.0000000000000000E+00     0.0000000000000000E+00 
    2.2499999999948389E-01     0.0000000000000000E+00     0.0000000000000000E+00 
    2.7499999999933789E-01     0.0000000000000000E+00     0.0000000000000000E+00 
    3.2499999999919210E-01     0.0000000000000000E+00     0.0000000000000000E+00 
    3.7499999999904610E-01     0.0000000000000000E+00     0.0000000000000000E+00 
    4.2499999999890020E-01     0.0000000000000000E+00     0.0000000000000000E+00 
    4.7499999999875958E-01     0.0000000000000000E+00     0.0000000000000000E+00 
    2.4999999999949701E-02     0.0000000000000000E+00     0.0000000000000000E+00 
    5.7499999999887907E-01     0.0000000000000000E+00     0.0000000000000000E+00 
    6.2499999999901101E-01     0.0000000000000000E+00     0.0000000000000000E+00 
    6.7499999999914273E-01     0.0000000000000000E+00     0.0000000000000000E+00 
    7.2499999999927467E-01     0.0000000000000000E+00     0.0000000000000000E+00 
    7.7499999999940661E-01     0.0000000000000000E+00     0.0000000000000000E+00 
    8.2499999999953844E-01     0.0000000000000000E+00     0.0000000000000000E+00 
    8.7499999999967026E-01     0.0000000000000000E+00     0.0000000000000000E+00 
    9.2499999999980220E-01     0.0000000000000000E+00     0.0000000000000000E+00 
    9.7499999999993414E-01     0.0000000000000000E+00     0.0000000000000000E+00 
    5.4999999999881310E-01     0.0000000000000000E+00     0.0000000000000000E+00 
    9.9999999999814140E-02     0.0000000000000000E+00     0.0000000000000000E+00 
    1.4999999999970290E-01     0.0000000000000000E+00     0.0000000000000000E+00 
    1.9999999999955689E-01     0.0000000000000000E+00     0.0000000000000000E+00 
    2.4999999999941089E-01     0.0000000000000000E+00     0.0000000000000000E+00 
    2.9999999999926502E-01     0.0000000000000000E+00     0.0000000000000000E+00 
    3.4999999999911913E-01     0.0000000000000000E+00     0.0000000000000000E+00 
    3.9999999999897312E-01     0.0000000000000000E+00     0.0000000000000000E+00 
    4.4999999999882723E-01     0.0000000000000000E+00     0.0000000000000000E+00 
    4.9999999999869210E-01     0.0000000000000000E+00     0.0000000000000000E+00 
    4.9999999999899403E-02     0.0000000000000000E+00     0.0000000000000000E+00 
    5.9999999999894504E-01     0.0000000000000000E+00     0.0000000000000000E+00 
    6.4999999999907687E-01     0.0000000000000000E+00     0.0000000000000000E+00 
    6.9999999999920870E-01     0.0000000000000000E+00     0.0000000000000000E+00 
    7.4999999999934064E-01     0.0000000000000000E+00     0.0000000000000000E+00 
    7.9999999999947247E-01     0.0000000000000000E+00     0.0000000000000000E+00 
    8.4999999999960441E-01     0.0000000000000000E+00     0.0000000000000000E+00 
    8.9999999999973623E-01     0.0000000000000000E+00     0.0000000000000000E+00 
    9.4999999999986817E-01     0.0000000000000000E+00     0.0000000000000000E+00 
    1.0000000000000000E+00     5.2499999999875258E-01     0.0000000000000000E+00 
    1.0000000000000000E+00     7.4999999999856765E-02     0.0000000000000000E+00 
    1.0000000000000000E+00     1.2499999999975850E-01     0.0000000000000000E+00 
    1.0000000000000000E+00     1.7499999999962990E-01     0.0000000000000000E+00 
    1.0000000000000000E+00     2.2499999999948389E-01     0.0000000000000000E+00 
    1.0000000000000000E+00     2.7499999999933789E-01     0.0000000000000000E+00 
    1.0000000000000000E+00     3.2499999999919210E-01     0.0000000000000000E+00 
    1.0000000000000000E+00     3.7499999999904610E-01     0.0000000000000000E+00 
    1.0000000000000000E+00     4.2499999999890020E-01     0.0000000000000000E+00 
    1.0000000000000000E+00     4.7499999999875958E-01     0.0000000000000000E+00 
    1.0000000000000000E+00     2.4999999999949701E-02     0.0000000000000000E+00 
    1.0000000000000000E+00     5.7499999999887907E-01     0.0000000000000000E+00 
    1.0000000000000000E+00     6.2499999999901101E-01     0.0000000000000000E+00 
    1.0000000000000000E+00     6.7499999999914273E-01     0.0000000000000000E+00 
    1.0000000000000000E+00     7.2499999999927467E-01     0.0000000000000000E+00 
    1.0000000000000000E+00     7.7499999999940661E-01     0.0000000000000000E+00 
    1.0000000000000000E+00     8.2499999999953844E-01     0.0000000000000000E+00 
    1.0000000000000000E+00     8.7499999999967026E-01     0.0000000000000000E+00 
    1.0000000000000000E+00     9.2499999999980220E-01     0.0000000000000000E+00 
    1.0000000000000000E+00     9.7499999999993414E-01     0.0000000000000000E+00 
    1.0000000000000000E+00     5.4999999999881310E-01     0.0000000000000000E+00 
    1.0000000000000000E+00     9.9999999999814140E-02     0.0000000000000000E+00 
    1.0000000000000000E+00     1.4999999999970290E-01     0.0000000000000000E+00 
    1.0000000000000000E+00     1.9999999999955689E-01     0.0000000000000000E+00 
    1.0000000000000000E+00     2.4999999999941089E-01     0.0000000000000000E+00 
    1.0000000000000000E+00     2.9999999999926502E-01     0.0000000000000000E+00 
    1.0000000000000000E+00     3.4999999999911913E-01     0.0000000000000000E+00 
    1.0000000000000000E+00     3.9999999999897312E-01     0.0000000000000000E+00 
    1.0000000000000000E+00     4.4999999999882723E-01     0.0000000000000000E+00 
    1.0000000000000000E+00     4.9999999999869210E-01     0.0000000000000000E+00 
    1.0000000000000000E+00     4.9999999999899403E-02     0.0000000000000000E+00 
    1.0000000000000000E+00     5.9999999999894504E-01     0.0000000000000000E+00 
    1.0000000000000000E+00     6.4999999999907687E-01     0.0000000000000000E+00 
    1.0000000000000000E+00     6.9999999999920870E-01     0.0000000000000000E+00 
    1.0000000000000000E+00     7.4999999999934064E-01     0.0000000000000000E+00 
    1.0000000000000000E+00     7.9999999999947247E-01     0.0000000000000000E+00 
    1.0000000000000000E+00     8.4999999999960441E-01     0.0000000000000000E+00 
    1.0000000000000000E+00     8.9999999999973623E-01     0.0000000000000000E+00 
    1.0000000000000000E+00     9.4999999999986817E-01     0.0000000000000000E+00 
    4.7500000000196618E-01     1.0000000000000000E+00     0.0000000000000000E+00 
    9.2499999999968763E-01     1.0000000000000000E+00     0.0000000000000000E+00 
    8.7499999999961831E-01     1.0000000000000000E+00     0.0000000000000000E+00 
    8.2499999999982654E-01     1.0000000000000000E+00     0.0000000000000000E+00 
    7.7500000000017355E-01     1.0000000000000000E+00     0.0000000000000000E+00 
    7.2500000000052045E-01     1.0000000000000000E+00     0.0000000000000000E+00 
    6.7500000000086724E-01     1.0000000000000000E+00     0.0000000000000000E+00 
    6.2500000000121403E-01     1.0000000000000000E+00     0.0000000000000000E+00 
    5.7500000000156093E-01     1.0000000000000000E+00     0.0000000000000000E+00 
    5.2500000000189684E-01     1.0000000000000000E+00     0.0000000000000000E+00 
    9.7499999999989595E-01     1.0000000000000000E+00     0.0000000000000000E+00 
    4.2500000000176902E-01     1.0000000000000000E+00     0.0000000000000000E+00 
    3.7500000000156092E-01     1.0000000000000000E+00     0.0000000000000000E+00 
    3.2500000000135282E-01     1.0000000000000000E+00     0.0000000000000000E+00 
    2.7500000000114472E-01     1.0000000000000000E+00     0.0000000000000000E+00 
    2.2500000000093659E-01     1.0000000000000000E+00     0.0000000000000000E+00 
    1.7500000000072849E-01     1.0000000000000000E+00     0.0000000000000000E+00 
    1.2500000000052039E-01     1.0000000000000000E+00     0.0000000000000000E+00 
    7.5000000000312261E-02     1.0000000000000000E+00     0.0000000000000000E+00 
    2.5000000000104109E-02     1.0000000000000000E+00     0.0000000000000000E+00 
    4.5000000000187301E-01     1.0000000000000000E+00     0.0000000000000000E+00 
    8.9999999999958358E-01     1.0000000000000000E+00     0.0000000000000000E+00 
    8.4999999999965303E-01     1.0000000000000000E+00     0.0000000000000000E+00 
    8.0000000000000004E-01     1.0000000000000000E+00     0.0000000000000000E+00 
    7.5000000000034706E-01     1.0000000000000000E+00     0.0000000000000000E+00 
    7.0000000000069384E-01     1.0000000000000000E+00     0.0000000000000000E+00 
    6.5000000000104063E-01     1.0000000000000000E+00     0.0000000000000000E+00 
    6.0000000000138742E-01     1.0000000000000000E+00     0.0000000000000000E+00 
    5.5000000000173432E-01     1.0000000000000000E+00     0.0000000000000000E+00 
    5.0000000000205946E-01     1.0000000000000000E+00     0.0000000000000000E+00 
    9.4999999999979179E-01     1.0000000000000000E+00     0.0000000000000000E+00 
    4.0000000000166491E-01     1.0000000000000000E+00     0.0000000000000000E+00 
    3.5000000000145681E-01     1.0000000000000000E+00     0.0000000000000000E+00 
    3.0000000000124871E-01     1.0000000000000000E+00     0.0000000000000000E+00 
    2.5000000000104061E-01     1.0000000000000000E+00     0.0000000000000000E+00 
    2.0000000000083251E-01     1.0000000000000000E+00     0.0000000000000000E+00 
    1.5000000000062441E-01     1.0000000000000000E+00     0.0000000000000000E+00 
    1.0000000000041630E-01     1.0000000000000000E+00     0.0000000000000000E+00 
[...]
CELL_DATA 1600 
SCALARS Pressure double 1 
LOOKUP_TABLE default 

    8.6810495156375977E-01 
    8.4905374196612782E-01 
    8.4895609379744674E-01 
    8.6618586547918364E-01 
    8.6440744265303715E-01 
    8.4877911486568325E-01 
    8.4853858444232744E-01 
    8.6276050779484414E-01 
    8.6123254148736317E-01 
    8.4824749855336568E-01 
    8.4791673322724903E-01 
    8.5981222071608121E-01 
    8.5848949305678235E-01 
    8.4755540436528598E-01 
    8.4717115837001411E-01 
    8.5725547781586797E-01 
    8.5610234106160754E-01 
    8.4677041225190519E-01 
    8.4635855341851773E-01 
    8.5502317398202032E-01 
    8.5401188203849865E-01 
    8.4594010648593065E-01 
    8.4551887284662097E-01 
    8.5306308641083040E-01 
    8.5217203731973845E-01 
    8.4509804761529828E-01 
    8.4468031773160357E-01 
    8.5133453819421867E-01 
    8.5054687949808916E-01 
    8.4426794433406971E-01 
    8.4386283198475576E-01 
    8.4980578105580207E-01 
    8.4910834181018746E-01 
    8.4346658688807807E-01 
    8.4308056588953895E-01 
    8.4845199605807631E-01 
    8.4783447532398837E-01 
    8.4270591774482395E-01 
    8.4234361790525802E-01 
    8.4725377513901901E-01 
    8.4670812608867430E-01 
    8.4199449786264824E-01 
    8.4165926992769291E-01 
    8.4619596857904211E-01 
    8.4571593084582553E-01 
    8.4133854817548581E-01 
    8.4103286617433703E-01 
    8.4526680979622293E-01 
    8.4484755433044745E-01 
    8.4074269201614715E-01 
    8.4046844108460561E-01 
    8.4445725083883838E-01 
    8.4409511061271114E-01 
    8.4021048692854716E-01 
    8.3996917054910836E-01 
    8.4376045894271900E-01 
    8.4345272570725383E-01 
    8.3974480835771459E-01 
    8.3953769901262842E-01 
    8.4317143727317456E-01 
    8.4291620953599389E-01 
    8.3934812928570679E-01 
    8.3917637902655362E-01 
    8.4268674189975379E-01 
    8.4248281189047880E-01 
    8.3902272512075993E-01 
    8.3888744391314407E-01 
    8.4230426976544470E-01 
    8.4215103144183101E-01 
    8.3877081035085177E-01 
    8.3867308832047915E-01 
    8.4202306461604315E-01 
    8.4192035093551587E-01 
    8.3859449452003920E-01 
    8.3853508179189240E-01 
    8.4184276676344283E-01 
    8.4178972059912005E-01 
    8.3849441513286571E-01 
    8.3847134039143445E-01 
    8.4175966656243828E-01 
    8.3760542486758427E-01 
    8.2710049121553197E-01 
    8.2709102454395422E-01 
    8.3758214709945056E-01 
    8.3753617127697533E-01 
    8.2707217308663428E-01 
    8.2704413016181866E-01 
    8.3746858838593963E-01 
    8.3738079515939301E-01 
    8.2700717578908289E-01 
    8.2696166969746776E-01 
    8.3727439110789159E-01 
    8.3715109812852717E-01 
    8.2690804151301101E-01 
    8.2684678021519775E-01 
    8.3701269876152662E-01 
    8.3686098966343525E-01 
    8.2677842372057619E-01 
    8.2670354901484944E-01 
    8.3669774722001677E-01 
    8.3652470274093316E-01 
    8.2662276305403792E-01 
    8.2653669454304790E-01 
    8.3634352515792099E-01 
    8.3615580955411661E-01 
    8.2644598663020363E-01 
    8.2635129051116207E-01 
    8.3596307018634541E-01 
    8.3576673693420289E-01 
    8.2625325990645315E-01 
    8.2615254635871838E-01 
    8.3556815433000919E-01 
    8.3536858250139545E-01 
    8.2604979528527667E-01 
    8.2594564271672344E-01 
    8.3516919950126423E-01 
    8.3497110461465351E-01 
    8.2584071265117598E-01 
    8.2573561495536685E-01 
    8.3477532232397200E-01 
    8.3458280668752971E-01 
    8.2563094374714852E-01 
    8.2552727619844857E-01 
    8.3439444594483936E-01 
    8.3421106720869398E-01 
    8.2542517170281182E-01 
    8.2532517135696315E-01 
    8.3403344114085975E-01 
    8.3386228653719330E-01 
    8.2522779771097454E-01 
    8.2513355474615668E-01 
    8.3369827477054326E-01 
    8.3354203405675176E-01 
    8.2504292804305790E-01 
    8.2495638510262737E-01 
    8.3339415352072521E-01 
    8.3325518704489887E-01 
    8.2487437577897837E-01 
    8.2479733276623746E-01 
    8.3312565687793849E-01 
    8.3300605695758634E-01 
    8.2472567204062797E-01 
    8.2465979305821502E-01 
    8.3289685583271511E-01 
    8.3279849888710622E-01 
    8.2460007826288872E-01 
    8.2454689084468569E-01 
    8.3271140907682650E-01 
    8.3263598402307770E-01 
    8.2450056811199635E-01 
    8.2446140376095245E-01 
    8.3257258335784123E-01 
    8.3252148900150202E-01 
    8.2442960218022654E-01 
    8.2440516682218956E-01 
    8.3248279295846239E-01 
    8.3245613892037573E-01 
    8.2438768434703869E-01 
    8.2437707388190373E-01 
    8.3244086042633769E-01 
    8.1639433284656160E-01 
    8.0514890030923014E-01 
    8.0514600892581956E-01 
    8.1638951077166277E-01 
    8.1637989686091517E-01 
    8.0514024638206927E-01 
    8.0513165323747682E-01 
    8.1636556110339265E-01 
    8.1634660397345338E-01 
    8.0512028381521550E-01 
    8.0510620747803829E-01 
    8.1632315720024207E-01 
    8.1629538251657330E-01 
    8.0508950859972417E-01 
    8.0507028605352693E-01 
    8.1626346965529195E-01 
    8.1622763400470311E-01 
    8.0504865248580659E-01 
    8.0502473347777936E-01 
    8.1618811410320891E-01 
    8.1614516907387558E-01 
    8.0499866664387065E-01 
    8.0497060069395032E-01 
    8.1609907606497356E-01 
    8.1605012774356156E-01 
    8.0494069447730643E-01 
    8.0490911602140669E-01 
    8.1599862987677141E-01 
    8.1594489902621370E-01 
    8.0487604157569270E-01 
    8.0484165466872470E-01 
    8.1588926037365617E-01 
    8.1583204569018475E-01 
    8.0480614518547466E-01 
    8.0476970847024665E-01 
    8.1577359145619144E-01 
    8.1571423713555613E-01 
    8.0473254445945097E-01 
    8.0469485684720610E-01 
    8.1565432360414680E-01 
    8.1559419173014303E-01 
    8.0465685228540684E-01 
    8.0461873961835206E-01 
    8.1553418110153963E-01 
    8.1547462889435129E-01 
    8.0458072915013079E-01 
    8.0454303194036014E-01 
    8.1541586887327699E-01 
    8.1535823051453182E-01 
    8.0450585912005534E-01 
    8.0446942121340814E-01 
    8.1530203823760850E-01 
    8.1524761072774043E-01 
    8.0443392744119202E-01 
    8.0439958496392405E-01 
    8.1519526032160528E-01 
    8.1514529241082501E-01 
    8.0436659799076593E-01 
    8.0433516661905535E-01 
    8.1509800478157479E-01 
    8.1505368673308842E-01 
    8.0430548514881917E-01 
    8.0427773936992342E-01 
    8.1501261765510524E-01 
    8.1497506438136291E-01 
    8.0425210179715001E-01 
    8.0422872268773704E-01 
    8.1494127580042852E-01 
    8.1491147123207375E-01 
    8.0420771211267306E-01 
    8.0418910241749153E-01 
    8.1488581437880980E-01 
    8.1486435369273724E-01 
    8.0417276596956999E-01 
    8.0415822454651387E-01 
    8.1484688637507929E-01 
    8.1483268241519913E-01 
    8.0414417675377026E-01 
    8.0413277247801807E-01 
    8.1482261400408151E-01 
    7.9325160576268705E-01 
    7.8066990721294660E-01 
    7.8066833285135773E-01 
    7.9324960119804333E-01 
    7.9324560982240100E-01 
    7.8066520117512350E-01 
    7.8066054036964339E-01 
    7.9323966307370775E-01 
    7.9323180001838467E-01 
    7.8065438372840767E-01 
    7.8064677020538453E-01 
    7.9322206831428743E-01 
    7.9321052439821660E-01 
    7.8063774461443769E-01 
    7.8062735761497271E-01 
    7.9319723334688308E-01 
    7.9318226859396868E-01 
    7.8061566559646878E-01 
    7.8060273051206852E-01 
    7.9316571157516658E-01 
    7.9314765133398779E-01 
    7.8058861968569004E-01 
    7.8057340560568533E-01 
    7.9312818410524688E-01 
    7.9310741288599140E-01 
    7.8055716571251899E-01 
    7.8053998218509879E-01 
    7.9308544700015349E-01 
    7.9306240166137865E-01 
    7.8052194172885436E-01 
    7.8050313536781435E-01 
    7.9303839753743410E-01 
    7.9301356031891468E-01 
    7.8048365824239263E-01 
    7.8046360941423387E-01 
    7.9298802029441706E-01 
    7.9296191193381582E-01 
    7.8044309167910308E-01 
    7.8042221138837398E-01 
    7.9293537348064203E-01 
    7.9290854655373966E-01 
    7.8040107827902205E-01 
    7.8037980531098716E-01 
    7.9288157575717599E-01 
    7.9285460829559640E-01 
    7.8035850850908073E-01 
    7.8033730680372559E-01 
    7.9282779358940936E-01 
    7.9280128287963758E-01 
    7.8031632185992794E-01 
    7.8029567787535581E-01 
    7.9277522880468609E-01 
    7.9274978491818582E-01 
    7.8027550131330903E-01 
    7.8025592050904180E-01 
    7.9272510509382432E-01 
    7.9270134272048864E-01 
    7.8023706503728407E-01 
    7.8021906463280399E-01 
    7.9267864951054567E-01 
    7.9265717358729737E-01 
    7.8020204726957954E-01 
    7.8018613563518924E-01 
    7.9263705620324509E-01 
    7.9261842579368358E-01 
    7.8017144049250697E-01 
    7.8015804788408327E-01 
    7.9260138670353408E-01 
    7.9258599694359388E-01 
    7.8014599381728356E-01 
    7.8013521211387038E-01 
    7.9257222242826075E-01 
    7.9255983703767685E-01 
    7.8012541777418665E-01 
    7.8011580684417103E-01 
    7.9254818100118141E-01 
    7.9253550842589915E-01 
    7.8010480207830091E-01 
    7.8009585304792028E-01 
    7.9252472118122852E-01 
    7.6740210957312527E-01 
    7.5345826289467777E-01 
    7.5345700863354459E-01 
    7.6740074844773221E-01 
    7.6739804290020641E-01 
    7.5345451655099849E-01 
    7.5345081267269698E-01 
    7.6739401969307852E-01 
    7.6738870955620508E-01 
    7.5344592647671460E-01 
    7.5343989072765571E-01 
    7.6738214735315846E-01 
    7.6737437223044280E-01 
    7.5343274155861262E-01 
    7.5342451850528280E-01 
    7.6736542764286009E-01 
    7.6735536130756921E-01 
    7.5341526449349172E-01 
    7.5340502579522206E-01 
    7.6734422511838407E-01 
    7.6733207503786993E-01 
    7.5339385196446063E-01 
    7.5338179576018238E-01 
    7.6731897097728119E-01 
    7.6730497667023934E-01 
    7.5336891306095743E-01 
    7.5335526277373899E-01 
    7.6729015954368429E-01 
    7.6727459058820213E-01 
    7.5334090673805421E-01 
    7.5332590962578738E-01 
    7.6725834422890804E-01 
    7.6724149819739818E-01 
    7.5331033883585408E-01 
    7.5329426438214941E-01 
    7.6722413340468443E-01 
    7.6720633381438463E-01 
    7.5327775877206082E-01 
    7.5326089687140907E-01 
    7.6718818631461627E-01 
    7.6716978058585861E-01 
    7.5324375574966462E-01 
    7.5322641449630523E-01 
    7.6715120896026023E-01 
    7.6713256626505977E-01 
    7.5320895399466492E-01 
    7.5319145663255016E-01 
    7.6711394963827029E-01 
    7.6709545829731884E-01 
    7.5317400591753780E-01 
    7.5315668594606777E-01 
    7.6707719322874701E-01 
    7.6705925674523845E-01 
    7.5313958064342856E-01 
    7.5312277263557570E-01 
    7.6704175181745304E-01 
    7.6702478101730887E-01 
    7.5310634151212907E-01 
    7.5309036105028482E-01 
    7.6700844477657570E-01 
    7.6699283840948795E-01 
    7.5307489460461130E-01 
    7.5305998714353140E-01 
    7.6697804684602933E-01 
    7.6696413500976002E-01 
    7.5304565091988473E-01 
    7.5303183849254018E-01 
    7.6695112965213286E-01 
    7.6693898364274005E-01 
    7.5301838880320981E-01 
    7.5300490842740198E-01 
    7.6692750092743300E-01 
    7.6691615773849198E-01 
    7.5299046577369155E-01 
    7.5297271677250510E-01 
    7.6690359774984396E-01 
    7.6688975676749160E-01 
    7.5295420817037617E-01 
    7.5294468860212049E-01 
    7.6688096148362495E-01 
    7.3885181148318912E-01 
    7.2359583827448082E-01 
    7.2359465932958567E-01 
    7.3885061086034587E-01 
    7.3884822585029686E-01 
    7.2359231741017227E-01 
    7.2358883781636230E-01 
    7.3884468211049348E-01 
    7.3884000858637811E-01 
    7.2358424907736296E-01 
    7.2357858228009708E-01 
    7.3883423707157225E-01 
    7.3882740222608456E-01 
    7.2357187102015574E-01 
    7.2356415142985908E-01 
    7.3881954161416952E-01 
    7.3881069571988733E-01 
    7.2355546220486755E-01 
    7.2354584461747951E-01 
    7.3880090794128694E-01 
    7.3879022456922860E-01 
    7.2353534251745832E-01 
    7.2352400232338221E-01 
    7.3877869475614877E-01 
    7.3876637047859384E-01 
    7.2351187300722830E-01 
    7.2349900607410234E-01 
    7.3875330649604287E-01 
    7.3873956030749355E-01 
    7.2348545553816512E-01 
    7.2347127789500409E-01 
    7.3872519210642928E-01 
    7.3871026473399715E-01 
    7.2345653208983107E-01 
    7.2344127947991033E-01 
    7.3869484362937676E-01 
    7.3867899677528182E-01 
    7.2342558378834365E-01 
    7.2340951104456119E-01 
    7.3866279463510598E-01 
    7.3864631007614590E-01 
    7.2339312950426249E-01 
    7.2337650953756505E-01 
    7.3862961827016338E-01 
    7.3861279655759982E-01 
    7.2335972346790267E-01 
    7.2334284533423077E-01 
    7.3859592425380938E-01 
    7.3857908236265690E-01 
    7.2332595053268911E-01 
    7.2330911526607444E-01 
    7.3856235314081609E-01 
    7.3854581941801578E-01 
    7.2329241568102753E-01 
    7.2327592648577554E-01 
    7.3852956351056331E-01 
    7.3851366544078101E-01 
    7.2325971867932382E-01 
    7.2324385571084593E-01 
    7.3849819993863874E-01 
    7.3848323123906978E-01 
    7.2322838676183743E-01 
    7.2321333452648928E-01 
    7.3846880374821344E-01 
    7.3845492464513363E-01 
    7.2319867191221943E-01 
    7.2318427478133496E-01 
    7.3844152984876021E-01 
    7.3842841249675106E-01 
    7.2316981691683346E-01 
    7.2315450225411093E-01 
    7.3841505376094430E-01 
    7.3840015375379164E-01 
    7.2313629584345984E-01 
    7.2311468949342428E-01 
    7.3838106063202902E-01 
    7.3836236764854335E-01 
    7.2309774417232420E-01 
    7.2309016428546280E-01 
    7.3835325485073633E-01 
    7.0770182062568288E-01 
    6.9117898428512603E-01 
    6.9117779302383353E-01 
    7.0770064234977437E-01 
    7.0769830142984347E-01 
    6.9117542579293445E-01 
    6.9117190707687848E-01 
    7.0769482273793516E-01 
    7.0769023434551315E-01 
    6.9116726459585343E-01 
    6.9116152827345290E-01 
    7.0768456665488044E-01 
    7.0767785228131119E-01 
    6.9115473005847061E-01 
    6.9114690391722178E-01 
    7.0767012606123492E-01 
    7.0766142507689689E-01 
    6.9113808586079550E-01 
    6.9112831397384122E-01 
    7.0765178867405698E-01 
    7.0764125846852177E-01 
    6.9111762843641311E-01 
    6.9110607153736847E-01 
    7.0762987834193825E-01 
    7.0761769442802347E-01 
    6.9109368767960044E-01 
    6.9108052337751447E-01 
    7.0760475508998499E-01 
    7.0759111088912696E-01 
    6.9106662724665335E-01 
    6.9105204998459735E-01 
    7.0757681454371257E-01 
    7.0756192087605507E-01 
    6.9103684434121160E-01 
    6.9102106507490990E-01 
    7.0754648674443599E-01 
    7.0753057095462690E-01 
    6.9100476888966278E-01 
    6.9098801434464674E-01 
    7.0751423414322856E-01 
    7.0749753862129749E-01 
    6.9097086172421440E-01 
    6.9095337284936342E-01 
    7.0748054816110961E-01 
    7.0746332770022458E-01 
    6.9093561080166044E-01 
    6.9091763951403129E-01 
    7.0744594292322560E-01 
    7.0742845965899159E-01 
    6.9089952315526648E-01 
    6.9088132518772460E-01 
    7.0741094299336404E-01 
    7.0739345593085434E-01 
    6.9086310689363972E-01 
    6.9084492501015182E-01 
    7.0737605731930908E-01 
    7.0735879852580663E-01 
    6.9082682781240390E-01 
    6.9080884837286016E-01 
    7.0734171790820632E-01 
    7.0732483120892808E-01 
    6.9079099240907060E-01 
    6.9077321508705514E-01 
    7.0730811398098514E-01 
    7.0729146736466619E-01 
    6.9075537344354143E-01 
    6.9073711919192693E-01 
    7.0727464582609822E-01 
    7.0725708641480522E-01 
    6.9071762560069805E-01 
    6.9069481640380836E-01 
    7.0723744422400481E-01 
    7.0721252466675932E-01 
    6.9066616403680592E-01 
    6.9063931978424042E-01 
    7.0718585318871152E-01 
    7.0716930083929219E-01 
    6.9062369469902385E-01 
    6.9061721265588316E-01 
    7.0716286257911332E-01 
    6.7403366698242562E-01 
    6.5626902665404874E-01 
    6.5626776965556632E-01 
    6.7403244950504826E-01 
    6.7403002942832269E-01 
    6.5626527005713220E-01 
    6.5626155127943919E-01 
    6.7402643074381685E-01 
    6.7402168070024882E-01 
    6.5625664003224227E-01 
    6.5625056501189283E-01 
    6.7401580862681909E-01 
    6.7400884569271091E-01 
    6.5624335660210653E-01 
    6.5623504681661304E-01 
    6.7400082487487001E-01 
    6.7399178097605461E-01 
    6.5622566930647386E-01 
    6.5621525938117142E-01 
    6.7398175065051413E-01 
    6.7397077242446668E-01 
    6.5620385402668802E-01 
    6.5619149191446879E-01 
    6.7395888670746495E-01 
    6.7394613579335905E-01 
    6.5617821339855975E-01 
    6.5616406049897724E-01 
    6.7393256385002631E-01 
    6.7391821689659226E-01 
    6.5614907686901547E-01 
    6.5613330774317380E-01 
    6.7390314276595276E-01 
    6.7388739104906381E-01 
    6.5611679986076477E-01 
    6.5609960135792844E-01 
    6.7387101301558916E-01 
    6.7385406150284843E-01 
    6.5608176161735732E-01 
    6.5606333106002546E-01 
    6.7383659076113933E-01 
    6.7381865623774817E-01 
    6.5604436085564577E-01 
    6.5602490251695234E-01 
    6.7380031427314580E-01 
    6.7378162166902067E-01 
    6.5600500732449862E-01 
    6.5598472549857068E-01 
    6.7376263506540024E-01 
    6.7374341002659088E-01 
    6.5596410498367486E-01 
    6.5594318962104947E-01 
    6.7372399967074814E-01 
    6.7370445256150502E-01 
    6.5592201632043512E-01 
    6.5590061052779758E-01 
    6.7368480936188846E-01 
    6.7366509731782576E-01 
    6.5587897864336386E-01 
    6.5585709464276698E-01 
    6.7364532072924932E-01 
    6.7362544352523535E-01 
    6.5583487485982406E-01 
    6.5581212638810138E-01 
    6.7360535507495223E-01 
    6.7358479693993611E-01 
    6.5578843022172739E-01 
    6.5576284293598108E-01 
    6.7356318761293110E-01 
    6.7353914795284675E-01 
    6.5573307118393531E-01 
    6.5569579938974465E-01 
    6.7350935269946788E-01 
    6.7347585343165228E-01 
    6.5565926539664487E-01 
    6.5563590584503284E-01 
    6.7345131345026821E-01 
    6.7343788795810067E-01 
    6.5562309179008527E-01 
    6.5561672480946898E-01 
    6.7343153266772704E-01 
    6.3788440065593610E-01 
    6.1887447500458825E-01 
    6.1887307959587856E-01 
    6.3788308711684483E-01 
    6.3788047383299529E-01 
    6.1887030172566260E-01 
    6.1886616302848529E-01 
    6.3787658349389709E-01 
    6.3787144210854785E-01 
    6.1886068847062747E-01 
    6.1885390483708513E-01 
    6.3786507759112820E-01 
    6.3785751940460933E-01 
    6.1884584031910050E-01 
    6.1883652439689307E-01 
    6.3784879847541276E-01 
    6.3783894718524614E-01 
    6.1882598780940379E-01 
    6.1881426254566185E-01 
    6.3782799938166557E-01 
    6.3781599038675307E-01 
    6.1880138183334055E-01 
    6.1878738011358525E-01 
    6.3780295699552170E-01 
    6.3778893745965470E-01 
    6.1877229299557968E-01 
    6.1875615718523758E-01 
    6.3777397145314108E-01 
    6.3775810001596545E-01 
    6.1873901038168655E-01 
    6.1872089113333839E-01 
    6.3774136547071536E-01 
    6.3772381130484723E-01 
    6.1870183864227646E-01 
    6.1868189250107419E-01 
    6.3770548200819877E-01 
    6.3768642285066801E-01 
    6.1866109233929278E-01 
    6.1863947734658387E-01 
    6.3766667957804113E-01 
    6.3764629799344774E-01 
    6.1861708562361273E-01 
    6.1859395328761313E-01 
    6.3762532337568090E-01 
    6.3760379965981373E-01 
    6.1857011322036548E-01 
    6.1854559328142522E-01 
    6.3758176826293156E-01 
    6.3755926636439397E-01 
    6.1852041369605781E-01 
    6.1849458312037298E-01 
    6.3753632431850549E-01 
    6.3751296163252003E-01 
    6.1846809249173273E-01 
    6.1844090497939352E-01 
    6.3748918046279390E-01 
    6.3746495457225349E-01 
    6.1841293863158808E-01 
    6.1838403425674848E-01 
    6.3744020940078938E-01 
    6.3741478325516376E-01 
    6.1835389060158319E-01 
    6.1832191894650523E-01 
    6.3738834424463586E-01 
    6.3736019116984344E-01 
    6.1828687712487218E-01 
    6.1824592953302715E-01 
    6.3732872006014363E-01 
    6.3729026183558490E-01 
    6.1819604980924325E-01 
    6.1814798263068504E-01 