# vtk DataFile Version 2.0
Pressure Field Data 
ASCII 
DATASET UNSTRUCTURED_GRID 

POINTS 1681 double 

    0.0000000000000000E+00     0.0000000000000000E+00     0.0000000000000000E+00 
    1.0000000000000000E+00     0.0000000000000000E+00     0.0000000000000000E+00 
    1.0000000000000000E+00     1.0000000000000000E+00     0.0000000000000000E+00 
    0.0000000000000000E+00     1.0000000000000000E+00     0.0000000000000000E+00 
    5.2499999999875258E-01     0.0000000000000000E+00     0.0000000000000000E+00 
    7.4999999999856765E-02     0.0000000000000000E+00     0.0000000000000000E+00 
    1.2499999999975850E-01     0.0000000000000000E+00     0.0000000000000000E+00 
    1.7499999999962990E-01     0.0000000000000000E+00     0.0000000000000000E+00 
    2.2499999999948389E-01     0.0000000000000000E+00     0.0000000000000000E+00 
    2.7499999999933789E-01     0.0000000000000000E+00     0.0000000000000000E+00 
    3.2499999999919210E-01     0.0000000000000000E+00     0.0000000000000000E+00 
    3.7499999999904610E-01     0.0000000000000000E+00     0.0000000000000000E+00 
    4.2499999999890020E-01     0.0000000000000000E+00     0.0000000000000000E+00 
    4.7499999999875958E-01     0.0000000000000000E+00     0.0000000000000000E+00 
    2.4999999999949701E-02     0.0000000000000000E+00     0.0000000000000000E+00 
    5.7499999999887907E-01     0.0000000000000000E+00     0.0000000000000000E+00 
    6.2499999999901101E-01     0.0000000000000000E+00     0.0000000000000000E+00 
    6.7499999999914273E-01     0.0000000000000000E+00     0.0000000000000000E+00 
    7.2499999999927467E-01     0.0000000000000000E+00     0.0000000000000000E+00 
    7.7499999999940661E-01     0.0000000000000000E+00     0.0000000000000000E+00 
    8.2499999999953844E-01     0.0000000000000000E+00     0.0000000000000000E+00 
    8.7499999999967026E-01     0.0000000000000000E+00     0.0000000000000000E+00 
    9.2499999999980220E-01     0.0000000000000000E+00     0.0000000000000000E+00 
    9.7499999999993414E-01     0.0000000000000000E+00     0.0000000000000000E+00 
    5.4999999999881310E-01     0.0000000000000000E+00     0.0000000000000000E+00 
    9.9999999999814140E-02     0.0000000000000000E+00     0.0000000000000000E+00 
    1.4999999999970290E-01     0.0000000000000000E+00     0.0000000000000000E+00 
    1.9999999999955689E-01     0.0000000000000000E+00     0.0000000000000000E+00 
    2.4999999999941089E-01     0.0000000000000000E+00     0.0000000000000000E+00 
    2.9999999999926502E-01     0.0000000000000000E+00     0.0000000000000000E+00 
    3.4999999999911913E-01     0.0000000000000000E+00     0.0000000000000000E+00 
    3.9999999999897312E-01     0.0000000000000000E+00     0.0000000000000000E+00 
    4.4999999999882723E-01     0.0000000000000000E+00     0.0000000000000000E+00 
    4.9999999999869210E-01     0.0000000000000000E+00     0.0000000000000000E+00 
    4.9999999999899403E-02     0.0000000000000000E+00     0.0000000000000000E+00 
    5.9999999999894504E-01     0.0000000000000000E+00     0.0000000000000000E+00 
    6.4999999999907687E-01     0.0000000000000000E+00     0.0000000000000000E+00 
    6.9999999999920870E-01     0.0000000000000000E+00     0.0000000000000000E+00 
    7.4999999999934064E-01     0.0000000000000000E+00     0.0000000000000000E+00 
    7.9999999999947247E-01     0.0000000000000000E+00     0.0000000000000000E+00 
    8.4999999999960441E-01     0.0000000000000000E+00     0.0000000000000000E+00 
    8.9999999999973623E-01     0.0000000000000000E+00     0.0000000000000000E+00 
    9.4999999999986817E-01     0.0000000000000000E+00     0.0000000000000000E+00 
    1.0000000000000000E+00     5.2499999999875258E-01     0.0000000000000000E+00 
    1.0000000000000000E+00     7.4999999999856765E-02     0.0000000000000000E+00 
    1.0000000000000000E+00     1.2499999999975850E-01     0.0000000000000000E+00 
    1.0000000000000000E+00     1.7499999999962990E-01     0.0000000000000000E+00 
    1.0000000000000000E+00     2.2499999999948389E-01     0.0000000000000000E+00 
    1.0000000000000000E+00     2.7499999999933789E-01     0.0000000000000000E+00 
    1.0000000000000000E+00     3.2499999999919210E-01     0.0000000000000000E+00 
    1.0000000000000000E+00     3.7499999999904610E-01     0.0000000000000000E+00 
    1.0000000000000000E+00     4.2499999999890020E-01     0.0000000000000000E+00 
    1.0000000000000000E+00     4.7499999999875958E-01     0.0000000000000000E+00 
    1.0000000000000000E+00     2.4999999999949701E-02     0.0000000000000000E+00 
    1.0000000000000000E+00     5.7499999999887907E-01     0.0000000000000000E+00 
    1.0000000000000000E+00     6.2499999999901101E-01     0.0000000000000000E+00 
    1.0000000000000000E+00     6.7499999999914273E-01     0.0000000000000000E+00 
    1.0000000000000000E+00     7.2499999999927467E-01     0.0000000000000000E+00 
    1.0000000000000000E+00     7.7499999999940661E-01     0.0000000000000000E+00 
    1.0000000000000000E+00     8.2499999999953844E-01     0.0000000000000000E+00 
    1.0000000000000000E+00     8.7499999999967026E-01     0.0000000000000000E+00 
    1.0000000000000000E+00     9.2499999999980220E-01     0.0000000000000000E+00 
    1.0000000000000000E+00     9.7499999999993414E-01     0.0000000000000000E+00 
    1.0000000000000000E+00     5.4999999999881310E-01     0.0000000000000000E+00 
    1.0000000000000000E+00     9.9999999999814140E-02     0.0000000000000000E+00 
    1.0000000000000000E+00     1.4999999999970290E-01     0.0000000000000000E+00 
    1.0000000000000000E+00     1.9999999999955689E-01     0.0000000000000000E+00 
    1.0000000000000000E+00     2.4999999999941089E-01     0.0000000000000000E+00 
    1.0000000000000000E+00     2.9999999999926502E-01     0.0000000000000000E+00 
    1.0000000000000000E+00     3.4999999999911913E-01     0.0000000000000000E+00 
    1.0000000000000000E+00     3.9999999999897312E-01     0.0000000000000000E+00 
    1.0000000000000000E+00     4.4999999999882723E-01     0.0000000000000000E+00 
    1.0000000000000000E+00     4.9999999999869210E-01     0.0000000000000000E+00 
    1.0000000000000000E+00     4.9999999999899403E-02     0.0000000000000000E+00 
    1.0000000000000000E+00     5.9999999999894504E-01     0.0000000000000000E+00 
    1.0000000000000000E+00     6.4999999999907687E-01     0.0000000000000000E+00 
    1.0000000000000000E+00     6.9999999999920870E-01     0.0000000000000000E+00 
    1.0000000000000000E+00     7.4999999999934064E-01     0.0000000000000000E+00 
    1.0000000000000000E+00     7.9999999999947247E-01     0.0000000000000000E+00 
    1.0000000000000000E+00     8.4999999999960441E-01     0.0000000000000000E+00 
    1.0000000000000000E+00     8.9999999999973623E-01     0.0000000000000000E+00 
    1.0000000000000000E+00     9.4999999999986817E-01     0.0000000000000000E+00 
    4.7500000000196618E-01     1.0000000000000000E+00     0.0000000000000000E+00 
    9.2499999999968763E-01     1.0000000000000000E+00     0.0000000000000000E+00 
    8.7499999999961831E-01     1.0000000000000000E+00     0.0000000000000000E+00 
    8.2499999999982654E-01     1.0000000000000000E+00     0.0000000000000000E+00 
    7.7500000000017355E-01     1.0000000000000000E+00     0.0000000000000000E+00 
    7.2500000000052045E-01     1.0000000000000000E+00     0.0000000000000000E+00 
    6.7500000000086724E-01     1.0000000000000000E+00     0.0000000000000000E+00 
    6.2500000000121403E-01     1.0000000000000000E+00     0.0000000000000000E+00 
    5.7500000000156093E-01     1.0000000000000000E+00     0.0000000000000000E+00 
    5.2500000000189684E-01     1.0000000000000000E+00     0.0000000000000000E+00 
    9.7499999999989595E-01     1.0000000000000000E+00     0.0000000000000000E+00 
    4.2500000000176902E-01     1.0000000000000000E+00     0.0000000000000000E+00 
    3.7500000000156092E-01     1.0000000000000000E+00     0.0000000000000000E+00 
    3.2500000000135282E-01     1.0000000000000000E+00     0.0000000000000000E+00 
    2.7500000000114472E-01     1.0000000000000000E+00     0.0000000000000000E+00 
    2.2500000000093659E-01     1.0000000000000000E+00     0.0000000000000000E+00 
    1.7500000000072849E-01     1.0000000000000000E+00     0.0000000000000000E+00 
    1.2500000000052039E-01     1.0000000000000000E+00     0.0000000000000000E+00 
    7.5000000000312261E-02     1.0000000000000000E+00     0.0000000000000000E+00 
    2.5000000000104109E-02     1.0000000000000000E+00     0.0000000000000000E+00 
    4.5000000000187301E-01     1.0000000000000000E+00     0.0000000000000000E+00 
    8.9999999999958358E-01     1.0000000000000000E+00     0.0000000000000000E+00 
    8.4999999999965303E-01     1.0000000000000000E+00     0.0000000000000000E+00 
    8.0000000000000004E-01     1.0000000000000000E+00     0.0000000000000000E+00 
    7.5000000000034706E-01     1.0000000000000000E+00     0.0000000000000000E+00 
    7.0000000000069384E-01     1.0000000000000000E+00     0.0000000000000000E+00 
    6.5000000000104063E-01     1.0000000000000000E+00     0.0000000000000000E+00 
    6.0000000000138742E-01     1.0000000000000000E+00     0.0000000000000000E+00 
    5.5000000000173432E-01     1.0000000000000000E+00     0.0000000000000000E+00 
    5.0000000000205946E-01     1.0000000000000000E+00     0.0000000000000000E+00 
    9.4999999999979179E-01     1.0000000000000000E+00     0.0000000000000000E+00 
    4.0000000000166491E-01     1.0000000000000000E+00     0.0000000000000000E+00 
    3.5000000000145681E-01     1.0000000000000000E+00     0.0000000000000000E+00 
    3.0000000000124871E-01     1.0000000000000000E+00     0.0000000000000000E+00 
    2.5000000000104061E-01     1.0000000000000000E+00     0.0000000000000000E+00 
    2.0000000000083251E-01     1.0000000000000000E+00     0.0000000000000000E+00 
    1.5000000000062441E-01     1.0000000000000000E+00     0.0000000000000000E+00 
    1.0000000000041630E-01     1.0000000000000000E+00     0.0000000000000000E+00 
[...]
CELL_DATA 1600 
SCALARS Pressure double 1 
LOOKUP_TABLE default 

    1.0523997775179699E+00 
    1.0276150054684614E+00 
    1.0274748385027506E+00 
    1.0503234824290788E+00 
    1.0483090562679540E+00 
    1.0272146388153918E+00 
    1.0268555914181376E+00 
    1.0463844953250645E+00 
    1.0445464673035856E+00 
    1.0264137822343535E+00 
    1.0259028840845459E+00 
    1.0427897845050829E+00 
    1.0411091004057094E+00 
    1.0253346460029666E+00 
    1.0247192168048600E+00 
    1.0394993621010726E+00 
    1.0379559501948332E+00 
    1.0240653933764456E+00 
    1.0233808211098858E+00 
    1.0364747104540182E+00 
    1.0350519424884395E+00 
    1.0226721593528749E+00 
    1.0219452194587852E+00 
    1.0336843707794396E+00 
    1.0323691090339635E+00 
    1.0212050804900088E+00 
    1.0204561861396408E+00 
    1.0311036228690464E+00 
    1.0298856930624958E+00 
    1.0197024254030893E+00 
    1.0189471986866563E+00 
    1.0287133801868282E+00 
    1.0275849906141425E+00 
    1.0181934702201250E+00 
    1.0174438066895442E+00 
    1.0264990432741627E+00 
    1.0254542359414718E+00 
    1.0167004007115870E+00 
    1.0159650757679366E+00 
    1.0244494090156295E+00 
    1.0234835034595724E+00 
    1.0152392658066425E+00 
    1.0145239564441004E+00 
    1.0225555072902739E+00 
    1.0216643808129116E+00 
    1.0138195623951627E+00 
    1.0131256905229129E+00 
    1.0208089426119378E+00 
    1.0199876814636566E+00 
    1.0124406879482781E+00 
    1.0117608174827166E+00 
    1.0191984221668182E+00 
    1.0184376855259623E+00 
    1.0110793141223180E+00 
    1.0103897054575450E+00 
    1.0176993783749460E+00 
    1.0169722853226750E+00 
    1.0096957820585626E+00 
    1.0090089964710369E+00 
    1.0162412742115217E+00 
    1.0155081141196189E+00 
    1.0083694732605897E+00 
    1.0078120417071219E+00 
    1.0148287032100620E+00 
    1.0142589518279779E+00 
    1.0073339486414326E+00 
    1.0069229409257823E+00 
    1.0137818480694218E+00 
    1.0133745779152719E+00 
    1.0065712642537872E+00 
    1.0062785188480035E+00 
    1.0130360281530237E+00 
    1.0127657360605216E+00 
    1.0060445320109479E+00 
    1.0058691645557907E+00 
    1.0125633349180145E+00 
    1.0124285516579543E+00 
    1.0057523115000415E+00 
    1.0056939025791545E+00 
    1.0123612051671662E+00 
    1.0085188909432607E+00 
    9.8854630394952192E-01 
    9.8851539645938236E-01 
    1.0084702009360191E+00 
    1.0083734438732310E+00 
    9.8845364541920011E-01 
    9.8836148460369821E-01 
    1.0082304068273593E+00 
    1.0080433230183896E+00 
    9.8823949482521967E-01 
    9.8808836537168543E-01 
    1.0078147095893379E+00 
    1.0075472710014906E+00 
    9.8790887229674806E-01 
    9.8770185585328574E-01 
    1.0072438179066829E+00 
    1.0069072012671036E+00 
    9.8746819559110166E-01 
    9.8720878307864768E-01 
    1.0065402595027846E+00 
    1.0061457760311574E+00 
    9.8692449180904995E-01 
    9.8661614316723534E-01 
    1.0057264446262459E+00 
    1.0052848401435044E+00 
    9.8628446644489876E-01 
    9.8593004968730158E-01 
    1.0048233921721481E+00 
    1.0043443589926837E+00 
    9.8555327663463221E-01 
    9.8515424379721450E-01 
    1.0038497987142512E+00 
    1.0033415334388012E+00 
    9.8473265362248552E-01 
    9.8428769418679374E-01 
    1.0028211003576835E+00 
    1.0022896800968486E+00 
    9.8381796834051050E-01 
    9.8332167662734793E-01 
    1.0017479861605096E+00 
    1.0011960889378715E+00 
    9.8279748974715464E-01 
    9.8224636064209214E-01 
    1.0006331391432914E+00 
    1.0000569985028263E+00 
    9.8167296652505176E-01 
    9.8108512019585525E-01 
    9.9946412822071473E-01 
    9.9885135552906235E-01 
    9.8049448410787188E-01 
    9.7992142098106216E-01 
    9.9822076292088457E-01 
    9.9757978898860589E-01 
    9.7938812764369609E-01 
    9.7890585317498491E-01 
    9.9694127144955624E-01 
    9.9633719480474514E-01 
    9.7847894126477575E-01 
    9.7810218585663267E-01 
    9.9579272705265298E-01 
    9.9531521234027343E-01 
    9.7776441144639270E-01 
    9.7746054895613721E-01 
    9.9489870631730648E-01 
    9.9453117331727714E-01 
    9.7719017232711058E-01 
    9.7695337775197499E-01 
    9.9420952215314551E-01 
    9.9393375711009624E-01 
    9.7675025196655896E-01 
    9.7658086881729844E-01 
    9.9370391123876123E-01 
    9.9352000915340744E-01 
    9.7644528946960585E-01 
    9.7634356259998711E-01 
    9.9338206865215717E-01 
    9.9329010199079137E-01 
    9.7627572456134482E-01 
    9.7624179951354439E-01 
    9.9324411682356917E-01 
    9.6639911470530393E-01 
    9.4147708399969621E-01 
    9.4144449395505236E-01 
    9.6637194544883653E-01 
    9.6631743206190401E-01 
    9.4137892333289841E-01 
    9.4128003400991611E-01 
    9.6623553209630886E-01 
    9.6612623201486292E-01 
    9.4114752022375436E-01 
    9.4098114329442950E-01 
    9.6598951845950032E-01 
    9.6582535681202830E-01 
    9.4078080370279216E-01 
    9.4054665588370245E-01 
    9.6563366592315258E-01 
    9.6541428718725586E-01 
    9.4027926880754364E-01 
    9.3997982270968417E-01 
    9.6516694879559883E-01 
    9.6489122923953252E-01 
    9.3965031370623320E-01 
    9.3929372278977752E-01 
    9.6458653096995017E-01 
    9.6425208849533484E-01 
    9.3891410844888790E-01 
    9.3851661152216170E-01 
    9.6388705724639068E-01 
    9.6349075464150125E-01 
    9.3810740182747998E-01 
    9.3769359833664812E-01 
    9.6306312190379695E-01 
    9.6260537817060987E-01 
    9.3728310017921901E-01 
    9.3688414141417620E-01 
    9.6212063277289461E-01 
    9.6161413468728696E-01 
    9.3650449868087116E-01 
    9.3615064565940997E-01 
    9.6109320141412458E-01 
    9.6056744600231159E-01 
    9.3582717471461752E-01 
    9.3553630680722066E-01 
    9.6004943098188478E-01 
    9.5955353138025856E-01 
    9.3527715046856441E-01 
    9.3504542413526570E-01 
    9.5909186761202148E-01 
    9.5867180445819367E-01 
    9.3483490870952013E-01 
    9.3464006990546566E-01 
    9.5829650507713671E-01 
    9.5796345101115288E-01 
    9.3445785413425642E-01 
    9.3428744908762740E-01 
    9.5766444708127496E-01 
    9.5739154730346399E-01 
    9.3412897859089283E-01 
    9.3398271835936408E-01 
    9.5714132450446476E-01 
    9.5691332951370089E-01 
    9.3384892993057012E-01 
    9.3372785026063665E-01 
    9.5670769137556178E-01 
    9.5652454802059950E-01 
    9.3361969193673799E-01 
    9.3352464338450103E-01 
    9.5636402316843827E-01 
    9.5622622584355321E-01 
    9.3344286905503737E-01 
    9.3337450959098800E-01 
    9.5611125004054143E-01 
    9.5601917445644624E-01 
    9.3331968197062076E-01 
    9.3327847962915922E-01 
    9.5595006228116541E-01 
    9.5590396103854303E-01 
    9.3325097255666312E-01 
    9.3323720737191251E-01 
    9.5588090247227508E-01 
    9.1355627792318406E-01 
    8.8524658499358966E-01 
    8.8523609864386732E-01 
    9.1351808962850389E-01 
    9.1344359731215330E-01 
    8.8521669315401330E-01 
    8.8519061511758201E-01 
    9.1333585276005047E-01 
    9.1319841347673247E-01 
    8.8516022266961347E-01 
    8.8512782541520785E-01 
    9.1303521879635663E-01 
    9.1285052166745062E-01 
    8.8509557799405791E-01 
    8.8506537915742245E-01 
    9.1264882856666307E-01 
    9.1243483404805803E-01 
    8.8503876222376887E-01 
    8.8501677863987505E-01 
    9.1221334285046773E-01 
    9.1198917281851832E-01 
    8.8499989096366150E-01 
    8.8498790545485073E-01 
    9.1176703318546160E-01 
    9.1155137730975966E-01 
    8.8497998153181212E-01 
    8.8497474769283979E-01 
    9.1134623120900338E-01 
    9.1115499065871464E-01 
    8.8497052769413143E-01 
    8.8496564144632761E-01 
    9.1098016478845267E-01 
    9.1082305517478057E-01 
    8.8495870524727949E-01 
    8.8494883831485849E-01 
    9.1068344092150921E-01 
    9.1055946950337618E-01 
    8.8493571159601281E-01 
    8.8491944654476395E-01 
    9.1044797748211392E-01 
    9.1034527035005119E-01 
    8.8490043851041900E-01 
    8.8487919330585529E-01 
    9.1024809881889235E-01 
    9.1015438170759189E-01 
    8.8485622682266996E-01 
    8.8483202595530663E-01 
    9.1006332008313040E-01 
    9.0997497970457120E-01 
    8.8480704209034844E-01 
    8.8478169310194354E-01 
    9.0988977875219124E-01 
    9.0980819368894017E-01 
    8.8475636525062129E-01 
    8.8473141442154946E-01 
    9.0973067096514293E-01 
    9.0965761772046083E-01 
    8.8470716716308828E-01 
    8.8468392162261555E-01 
    9.0958940376554531E-01 
    9.0952636322021696E-01 
    8.8466194838476031E-01 
    8.8464149121810975E-01 
    9.0946879588827334E-01 
    9.0941696845832809E-01 
    8.8462276773641468E-01 
    8.8460596997959307E-01 
    9.0937111554599426E-01 
    9.0933144059050797E-01 
    8.8459126491916662E-01 
    8.8457879489214852E-01 
    9.0929811661690885E-01 
    9.0927128687311431E-01 
    8.8456867796681193E-01 
    8.8456100824321948E-01 
    9.0925106534961087E-01 
    9.0923753718799438E-01 
    8.8455585609087539E-01 
    8.8455326832536108E-01 
    9.0923075898323080E-01 
    8.5933464001747817E-01 
    8.3448485247419790E-01 
    8.3448689752608574E-01 
    8.5934198868165401E-01 
    8.5935592988146536E-01 
    8.3449074147645763E-01 
    8.3449605074096511E-01 
    8.5937536948191406E-01 
    8.5939911089059307E-01 
    8.3450250307185703E-01 
    8.3450980595475333E-01 
    8.5942591123669609E-01 
    8.5945453044651965E-01 
    8.3451770025487493E-01 
    8.3452595893609050E-01 
    8.5948378639938527E-01 
    8.5951261372889143E-01 
    8.3453438436071548E-01 
    8.3454280565461891E-01 
    8.5954011771369621E-01 
    8.5956561267064369E-01 
    8.3455107670045048E-01 
    8.3455907476977964E-01 
    8.5958863623879478E-01 
    8.5960893657008319E-01 
    8.3456669949021778E-01 
    8.3457387176394238E-01 
    8.5962643677190098E-01 
    8.5964118693755509E-01 
    8.3458053237519247E-01 
    8.3458664023786622E-01 
    8.5965331618020113E-01 
    8.5966299459360163E-01 
    8.3459217040918665E-01 
    8.3459711205475573E-01 
    8.5967040943247464E-01 
    8.5967575383860451E-01 
    8.3460146650596445E-01 
    8.3460524546962134E-01 
    8.5967922301384980E-01 
    8.5968101295753196E-01 
    8.3460846939125621E-01 
    8.3461116595392459E-01 
    8.5968131924583657E-01 
    8.5968033542539657E-01 
    8.3461336869734037E-01 
    8.3461511574872593E-01 
    8.5967825135577247E-01 
    8.5967525174076964E-01 
    8.3461644865969320E-01 
    8.3461741134375322E-01 
    8.5967151488062998E-01 
    8.5966721160953630E-01 
    8.3461804910887050E-01 
    8.3461840777948038E-01 
    8.5966250438752978E-01 
    8.5965754652485682E-01 
    8.3461853290255084E-01 
    8.3461846903252257E-01 
    8.5965248152060914E-01 
    8.5964744250005931E-01 
    8.3461825909024323E-01 
    8.3461794379135668E-01 
    8.5964255173733928E-01 
    8.5963792025204566E-01 
    8.3461756113995822E-01 
    8.3461714598369818E-01 
    8.5963364747006255E-01 
    8.5962982094037055E-01 
    8.3461672962690636E-01 
    8.3461633949868697E-01 
    8.5962651610092766E-01 
    8.5962379608785855E-01 
    8.3461599887333193E-01 
    8.3461572664077666E-01 
    8.5962171158322942E-01 
    8.5962030069761497E-01 
    8.3461553712521641E-01 
    8.3461543995038190E-01 
    8.5961958888451717E-01 
    8.0954600270450661E-01 
    7.8456642312762370E-01 
    7.8456654838049078E-01 
    8.0954641507379554E-01 
    8.0954722589863659E-01 
    7.8456679678230534E-01 
    7.8456716422843220E-01 
    8.0954840990026344E-01 
    8.0954993347740134E-01 
    7.8456764479638563E-01 
    7.8456823098087769E-01 
    8.0955175729671325E-01 
    8.0955383848211460E-01 
    7.8456891395934125E-01 
    7.8456968387074277E-01 
    8.0955613242702706E-01 
    8.0955859427245180E-01 
    7.8457053009451738E-01 
    7.8457144151978730E-01 
    8.0956118009878120E-01 
    8.0956384787487012E-01 
    7.8457240679769691E-01 
    7.8457341457179286E-01 
    8.0956655819895840E-01 
    8.0956927485694929E-01 
    7.8457445368304646E-01 
    7.8457551334746667E-01 
    8.0957196521737118E-01 
    8.0957460048004881E-01 
    7.8457658330537394E-01 
    7.8457765394235779E-01 
    8.0957715579605516E-01 
    8.0957961027783809E-01 
    7.8457871638270549E-01 
    7.8457976255670192E-01 
    8.0958194691885121E-01 
    8.0958415244093740E-01 
    7.8458078524363728E-01 
    7.8458177809265317E-01 
    8.0958621708557210E-01 
    8.0958813436261978E-01 
    7.8458273562373604E-01 
    7.8458365321124635E-01 
    8.0958990076805382E-01 
    8.0959151548026476E-01 
    7.8458452705238357E-01 
    7.8458535412295360E-01 
    8.0959298004308955E-01 
    8.0959429804242478E-01 
    7.8458613212271777E-01 
    7.8458685941250794E-01 
    8.0959547478218896E-01 
    8.0959651696445933E-01 
    7.8458753494516020E-01 
    7.8458815819218597E-01 
    8.0959743237778914E-01 
    8.0959822959701699E-01 
    7.8458872906795540E-01 
    7.8458924785302464E-01 
    8.0959891769729075E-01 
    8.0959950598452435E-01 
    7.8458971511808318E-01 
    7.8459013164986924E-01 
    8.0960000374408880E-01 
    8.0960042000917820E-01 
    7.8459049838024753E-01 
    7.8459081631951666E-01 
    8.0960076335000641E-01 
    8.0960104168474178E-01 
    7.8459108649488674E-01 
    7.8459130989493853E-01 
    8.0960126211288830E-01 
    8.0960143077166258E-01 
    7.8459148742076656E-01 
    7.8459161984439252E-01 
    8.0960155271578282E-01 
    8.0960163182097789E-01 
    7.8459170777492893E-01 
    7.8459175163287553E-01 
    8.0960167071144351E-01 
    7.5957444351223191E-01 
    7.3457786740099562E-01 
    7.3457788656930734E-01 
    7.5957448994143129E-01 
    7.5957458227904506E-01 
    7.3457792473951322E-01 
    7.3457798158119325E-01 
    7.5957471949581323E-01 
    7.5957490007805584E-01 
    7.3457805660495679E-01 
    7.3457814916970821E-01 
    7.5957512206186173E-01 
    7.5957538307569905E-01 
    7.3457825849198455E-01 
    7.3457838365709982E-01 
    7.5957568038953738E-01 
    7.5957601096853955E-01 
    7.3457852363178877E-01 
    7.3457867727803050E-01 
    7.5957637152946889E-01 
    7.5957675859808593E-01 
    7.3457884336771806E-01 
    7.3457902059784819E-01 
    7.5957716856600344E-01 
    7.5957759774566225E-01 
    7.3457920760591378E-01 
    7.3457940298520807E-01 
    7.5957804242231453E-01 
    7.5957849890211782E-01 
    7.3457960529977229E-01 
    7.3457981309875287E-01 
    7.5957896355564913E-01 
    7.5957943285635399E-01 
    7.3458002492996743E-01 
    7.3458023935251415E-01 
    7.5957990341362513E-01 
    7.5958037200037110E-01 
    7.3458045494829760E-01 
    7.3458067033237839E-01 
    7.5958083557508527E-01 
    7.5958129129853791E-01 
    7.3458088416208600E-01 
    7.3458109514487191E-01 
    7.5958173654533656E-01 
    7.5958216891066621E-01 
    7.3458130204490135E-01 
    7.3458150368841402E-01 
    7.5958258621260244E-01 
    7.5958298649043587E-01 
    7.3458169896790937E-01 
    7.3458188684522208E-01 
    7.5958336799948389E-01 
    7.5958372920288808E-01 
    7.3458206635358048E-01 
    7.3458223659874600E-01 
    7.5958406876090856E-01 
    7.5958438551823115E-01 
    7.3458239675934778E-01 
    7.3458254608652607E-01 
    7.5958467848978783E-01 
    7.5958494684558753E-01 
    7.3458268390300896E-01 
    7.3458280960174216E-01 
    7.5958518989502455E-01 
    7.5958540707111255E-01 
    7.3458292264419633E-01 
    7.3458302255846364E-01 
    7.5958559791505664E-01 
    7.5958576206154726E-01 
    7.3458310893725964E-01 
    7.3458318143592949E-01 
    7.5958589922511821E-01 
    7.5958600918787489E-01 
    7.3458323977055662E-01 
    7.3458328371625281E-01 
    7.5958609178885828E-01 
    7.5958614691526649E-01 
    7.3458331310570246E-01 
    7.3458332782802027E-01 
    7.5958617449571442E-01 
    7.0957939362135025E-01 
    6.8458008939118087E-01 
    6.8458009317508828E-01 
    7.0957940200967895E-01 
    7.0957941872401720E-01 
    6.8458010071720099E-01 
    6.8458011196620916E-01 
    7.0957944364028769E-01 
    7.0957947657406506E-01 
    6.8458012684570169E-01 
    6.8458014525482302E-01 
    7.0957951728256452E-01 
    7.0957956546723144E-01 
    6.8458016706913338E-01 
    6.8458019214166210E-01 
    7.0957962077688153E-01 
    7.0957968281132944E-01 
    6.8458022030413668E-01 
    6.8458025136837486E-01 
    7.0957975112544136E-01 
    7.0957982523353802E-01 
    6.8458028512781721E-01 
    6.8458032135918556E-01 
    7.0957990461407472E-01 
    7.0957998871452155E-01 
    6.8458035982424137E-01 
    6.8458040027162814E-01 
    7.0958007695637138E-01 
    7.0958016874019991E-01 
    6.8458044243877447E-01 
    6.8458048605383637E-01 
    7.0958026345071401E-01 
    7.0958036046172135E-01 
    6.8458053083766290E-01 
    6.8458057650576032E-01 
    7.0958045914096912E-01 
    7.0958055885479954E-01 
    6.8458062277024290E-01 
    6.8458066934175144E-01 
    7.0958065897257994E-01 
    7.0958075887087557E-01 
    6.8458071593132330E-01 
    6.8458076225220521E-01 
    7.0958085793733605E-01 
    7.0958095557427758E-01 
    6.8458080802159427E-01 
    6.8458085296229898E-01 
    7.0958105120194670E-01 
    7.0958114426146635E-01 
    6.8458089680431322E-01 
    6.8458093928629726E-01 
    7.0958123421745778E-01 
    7.0958132056035217E-01 
    6.8458098015696045E-01 
    6.8458101917634595E-01 
    7.0958140280839943E-01 
    7.0958148050939329E-01 
    6.8458105611701214E-01 
    6.8458109076511509E-01 
    7.0958155324212846E-01 
    7.0958162061761731E-01 
    6.8458112292138906E-01 
    6.8458115240203032E-01 
    7.0958168228008445E-01 
    7.0958173790776780E-01 
    6.8458117903948534E-01 
    6.8458120268314515E-01 
    7.0958178721355059E-01 
    7.0958182994544949E-01 
    6.8458122319995263E-01 
    6.8458124047492330E-01 
    7.0958186588698180E-01 
    7.0958189485743450E-01 
    6.8458125441158368E-01 
    6.8458126493233162E-01 
    7.0958191671205628E-01 
    7.0958193134218828E-01 
    6.8458127197872065E-01 
    6.8458127551166970E-01 
    7.0958193867534980E-01 
    6.5958041054774919E-01 
    6.3458056038889221E-01 
    6.3458056117815431E-01 
    6.5958041227813846E-01 
    6.5958041572775017E-01 
    6.3458056275175234E-01 
    6.3458056509972038E-01 
    6.5958042087419566E-01 
    6.5958042768410008E-01 
    6.3458056820719533E-01 
    6.3458057205451734E-01 
    6.5958043611335126E-01 
    6.5958044610742439E-01 
    6.3458057661736433E-01 
    6.3458058186691635E-01 
    6.5958045760178374E-01 
    6.5958047052235513E-01 
    6.3458058777005089E-01 
    6.3458059428956615E-01 
    6.5958048478606313E-01 
    6.5958050030142945E-01 
    6.3458060138443018E-01 
    6.3458060901005531E-01 
    6.5958051696922648E-01 
    6.5958053468317690E-01 
    6.3458061711859304E-01 
    6.3458062565925055E-01 
    6.5958055333069787E-01 
    6.5958057279367865E-01 
    6.3458063457862357E-01 
    6.3458064382104362E-01 
    6.5958059294928550E-01 
    6.5958061367078791E-01 
    6.3458065332893809E-01 
    6.3458066304319949E-01 
    6.5958063482840112E-01 
    6.5958065629013396E-01 
    6.3458067290356157E-01 
    6.3458068284898095E-01 
    6.5958067792263930E-01 
    6.5958069959205923E-01 
    6.3458069281801799E-01 
    6.3458070274921874E-01 
    6.5958072116486077E-01 
    6.5958074250865539E-01 
    6.3458071258149340E-01 
    6.3458072225448969E-01 
    6.5958076349299788E-01 
    6.5958078399016074E-01 
    6.3458073170895757E-01 
    6.3458074088710514E-01 
    6.5958080387587981E-01 
    6.5958082303006693E-01 
    6.3458074973294187E-01 
    6.3458075819260984E-01 
    6.5958084133748895E-01 
    6.5958085868840610E-01 
    6.3458076621469872E-01 
    6.3458077375054378E-01 
    6.5958087497917295E-01 
    6.5958089011279497E-01 
    6.3458078075450763E-01 
    6.3458078718424038E-01 
    6.5958090399944413E-01 
    6.5958091655692774E-01 
    6.3458079300092118E-01 
    6.3458079816947677E-01 
    6.5958092771111287E-01 
    6.5958093739630408E-01 
    6.3458080265877970E-01 
    6.3458080644182113E-01 