# vtk DataFile Version 2.0
Pressure Field Data 
ASCII 
DATASET UNSTRUCTURED_GRID 

POINTS 1681 double 

    0.0000000000000000E+00     0.0000000000000000E+00     0.0000000000000000E+00 
    1.0000000000000000E+00     0.0000000000000000E+00     0.0000000000000000E+00 
    1.0000000000000000E+00     1.0000000000000000E+00     0.0000000000000000E+00 
    0.0000000000000000E+00     1.0000000000000000E+00     0.0000000000000000E+00 
    5.2499999999875258E-01     0.0000000000000000E+00     0.0000000000000000E+00 
    7.4999999999856765E-02     0.0000000000000000E+00     0.0000000000000000E+00 
    1.2499999999975850E-01     0.0000000000000000E+00     0.0000000000000000E+00 
    1.7499999999962990E-01     0.0000000000000000E+00     0.0000000000000000E+00 
    2.2499999999948389E-01     0.0000000000000000E+00     0.0000000000000000E+00 
    2.7499999999933789E-01     0.0000000000000000E+00     0.0000000000000000E+00 
    3.2499999999919210E-01     0.0000000000000000E+00     0.0000000000000000E+00 
    3.7499999999904610E-01     0.0000000000000000E+00     0.0000000000000000E+00 
    4.2499999999890020E-01     0.0000000000000000E+00     0.0000000000000000E+00 
    4.7499999999875958E-01     0.0000000000000000E+00     0.0000000000000000E+00 
    2.4999999999949701E-02     0.0000000000000000E+00     0.0000000000000000E+00 
    5.7499999999887907E-01     0.0000000000000000E+00     0.0000000000000000E+00 
    6.2499999999901101E-01     0.0000000000000000E+00     0.0000000000000000E+00 
    6.7499999999914273E-01     0.0000000000000000E+00     0.0000000000000000E+00 
    7.2499999999927467E-01     0.0000000000000000E+00     0.0000000000000000E+00 
    7.7499999999940661E-01     0.0000000000000000E+00     0.0000000000000000E+00 
    8.2499999999953844E-01     0.0000000000000000E+00     0.0000000000000000E+00 
    8.7499999999967026E-01     0.0000000000000000E+00     0.0000000000000000E+00 
    9.2499999999980220E-01     0.0000000000000000E+00     0.0000000000000000E+00 
    9.7499999999993414E-01     0.0000000000000000E+00     0.0000000000000000E+00 
    5.4999999999881310E-01     0.0000000000000000E+00     0.0000000000000000E+00 
    9.9999999999814140E-02     0.0000000000000000E+00     0.0000000000000000E+00 
    1.4999999999970290E-01     0.0000000000000000E+00     0.0000000000000000E+00 
    1.9999999999955689E-01     0.0000000000000000E+00     0.0000000000000000E+00 
    2.4999999999941089E-01     0.0000000000000000E+00     0.0000000000000000E+00 
    2.9999999999926502E-01     0.0000000000000000E+00     0.0000000000000000E+00 
    3.4999999999911913E-01     0.0000000000000000E+00     0.0000000000000000E+00 
    3.9999999999897312E-01     0.0000000000000000E+00     0.0000000000000000E+00 
    4.4999999999882723E-01     0.0000000000000000E+00     0.0000000000000000E+00 
    4.9999999999869210E-01     0.0000000000000000E+00     0.0000000000000000E+00 
    4.9999999999899403E-02     0.0000000000000000E+00     0.0000000000000000E+00 
    5.9999999999894504E-01     0.0000000000000000E+00     0.0000000000000000E+00 
    6.4999999999907687E-01     0.0000000000000000E+00     0.0000000000000000E+00 
    6.9999999999920870E-01     0.0000000000000000E+00     0.0000000000000000E+00 
    7.4999999999934064E-01     0.0000000000000000E+00     0.0000000000000000E+00 
    7.9999999999947247E-01     0.0000000000000000E+00     0.0000000000000000E+00 
    8.4999999999960441E-01     0.0000000000000000E+00     0.0000000000000000E+00 
    8.9999999999973623E-01     0.0000000000000000E+00     0.0000000000000000E+00 
    9.4999999999986817E-01     0.0000000000000000E+00     0.0000000000000000E+00 
    1.0000000000000000E+00     5.2499999999875258E-01     0.0000000000000000E+00 
    1.0000000000000000E+00     7.4999999999856765E-02     0.0000000000000000E+00 
    1.0000000000000000E+00     1.2499999999975850E-01     0.0000000000000000E+00 
    1.0000000000000000E+00     1.7499999999962990E-01     0.0000000000000000E+00 
    1.0000000000000000E+00     2.2499999999948389E-01     0.0000000000000000E+00 
    1.0000000000000000E+00     2.7499999999933789E-01     0.0000000000000000E+00 
    1.0000000000000000E+00     3.2499999999919210E-01     0.0000000000000000E+00 
    1.0000000000000000E+00     3.7499999999904610E-01     0.0000000000000000E+00 
    1.0000000000000000E+00     4.2499999999890020E-01     0.0000000000000000E+00 
    1.0000000000000000E+00     4.7499999999875958E-01     0.0000000000000000E+00 
    1.0000000000000000E+00     2.4999999999949701E-02     0.0000000000000000E+00 
    1.0000000000000000E+00     5.7499999999887907E-01     0.0000000000000000E+00 
    1.0000000000000000E+00     6.2499999999901101E-01     0.0000000000000000E+00 
    1.0000000000000000E+00     6.7499999999914273E-01     0.0000000000000000E+00 
    1.0000000000000000E+00     7.2499999999927467E-01     0.0000000000000000E+00 
    1.0000000000000000E+00     7.7499999999940661E-01     0.0000000000000000E+00 
    1.0000000000000000E+00     8.2499999999953844E-01     0.0000000000000000E+00 
    1.0000000000000000E+00     8.7499999999967026E-01     0.0000000000000000E+00 
    1.0000000000000000E+00     9.2499999999980220E-01     0.0000000000000000E+00 
    1.0000000000000000E+00     9.7499999999993414E-01     0.0000000000000000E+00 
    1.0000000000000000E+00     5.4999999999881310E-01     0.0000000000000000E+00 
    1.0000000000000000E+00     9.9999999999814140E-02     0.0000000000000000E+00 
    1.0000000000000000E+00     1.4999999999970290E-01     0.0000000000000000E+00 
    1.0000000000000000E+00     1.9999999999955689E-01     0.0000000000000000E+00 
    1.0000000000000000E+00     2.4999999999941089E-01     0.0000000000000000E+00 
    1.0000000000000000E+00     2.9999999999926502E-01     0.0000000000000000E+00 
    1.0000000000000000E+00     3.4999999999911913E-01     0.0000000000000000E+00 
    1.0000000000000000E+00     3.9999999999897312E-01     0.0000000000000000E+00 
    1.0000000000000000E+00     4.4999999999882723E-01     0.0000000000000000E+00 
    1.0000000000000000E+00     4.9999999999869210E-01     0.0000000000000000E+00 
    1.0000000000000000E+00     4.9999999999899403E-02     0.0000000000000000E+00 
    1.0000000000000000E+00     5.9999999999894504E-01     0.0000000000000000E+00 
    1.0000000000000000E+00     6.4999999999907687E-01     0.0000000000000000E+00 
    1.0000000000000000E+00     6.9999999999920870E-01     0.0000000000000000E+00 
    1.0000000000000000E+00     7.4999999999934064E-01     0.0000000000000000E+00 
    1.0000000000000000E+00     7.9999999999947247E-01     0.0000000000000000E+00 
    1.0000000000000000E+00     8.4999999999960441E-01     0.0000000000000000E+00 
    1.0000000000000000E+00     8.9999999999973623E-01     0.0000000000000000E+00 
    1.0000000000000000E+00     9.4999999999986817E-01     0.0000000000000000E+00 
    4.7500000000196618E-01     1.0000000000000000E+00     0.0000000000000000E+00 
    9.2499999999968763E-01     1.0000000000000000E+00     0.0000000000000000E+00 
    8.7499999999961831E-01     1.0000000000000000E+00     0.0000000000000000E+00 
    8.2499999999982654E-01     1.0000000000000000E+00     0.0000000000000000E+00 
    7.7500000000017355E-01     1.0000000000000000E+00     0.0000000000000000E+00 
    7.2500000000052045E-01     1.0000000000000000E+00     0.0000000000000000E+00 
    6.7500000000086724E-01     1.0000000000000000E+00     0.0000000000000000E+00 
    6.2500000000121403E-01     1.0000000000000000E+00     0.0000000000000000E+00 
    5.7500000000156093E-01     1.0000000000000000E+00     0.0000000000000000E+00 
    5.2500000000189684E-01     1.0000000000000000E+00     0.0000000000000000E+00 
    9.7499999999989595E-01     1.0000000000000000E+00     0.0000000000000000E+00 
    4.2500000000176902E-01     1.0000000000000000E+00     0.0000000000000000E+00 
    3.7500000000156092E-01     1.0000000000000000E+00     0.0000000000000000E+00 
    3.2500000000135282E-01     1.0000000000000000E+00     0.0000000000000000E+00 
    2.7500000000114472E-01     1.0000000000000000E+00     0.0000000000000000E+00 
    2.2500000000093659E-01     1.0000000000000000E+00     0.0000000000000000E+00 
    1.7500000000072849E-01     1.0000000000000000E+00     0.0000000000000000E+00 
    1.2500000000052039E-01     1.0000000000000000E+00     0.0000000000000000E+00 
    7.5000000000312261E-02     1.0000000000000000E+00     0.0000000000000000E+00 
    2.5000000000104109E-02     1.0000000000000000E+00     0.0000000000000000E+00 
    4.5000000000187301E-01     1.0000000000000000E+00     0.0000000000000000E+00 
    8.9999999999958358E-01     1.0000000000000000E+00     0.0000000000000000E+00 
    8.4999999999965303E-01     1.0000000000000000E+00     0.0000000000000000E+00 
    8.0000000000000004E-01     1.0000000000000000E+00     0.0000000000000000E+00 
    7.5000000000034706E-01     1.0000000000000000E+00     0.0000000000000000E+00 
    7.0000000000069384E-01     1.0000000000000000E+00     0.0000000000000000E+00 
    6.5000000000104063E-01     1.0000000000000000E+00     0.0000000000000000E+00 
    6.0000000000138742E-01     1.0000000000000000E+00     0.0000000000000000E+00 
    5.5000000000173432E-01     1.0000000000000000E+00     0.0000000000000000E+00 
    5.0000000000205946E-01     1.0000000000000000E+00     0.0000000000000000E+00 
    9.4999999999979179E-01     1.0000000000000000E+00     0.0000000000000000E+00 
    4.0000000000166491E-01     1.0000000000000000E+00     0.0000000000000000E+00 
    3.5000000000145681E-01     1.0000000000000000E+00     0.0000000000000000E+00 
    3.0000000000124871E-01     1.0000000000000000E+00     0.0000000000000000E+00 
    2.5000000000104061E-01     1.0000000000000000E+00     0.0000000000000000E+00 
    2.0000000000083251E-01     1.0000000000000000E+00     0.0000000000000000E+00 
    1.5000000000062441E-01     1.0000000000000000E+00     0.0000000000000000E+00 
    1.0000000000041630E-01     1.0000000000000000E+00     0.0000000000000000E+00 
[...]
CELL_DATA 1600 
SCALARS Pressure double 1 
LOOKUP_TABLE default 

    7.5343424771460954E-01 
    7.3502700049910086E-01 
    7.3493250623162187E-01 
    7.5153323608221057E-01 
    7.4977712368056770E-01 
    7.3476154490578960E-01 
    7.3452949592791106E-01 
    7.4815450591626975E-01 
    7.4665242745308880E-01 
    7.3424909710112585E-01 
    7.3393100360613472E-01 
    7.4525929416753889E-01 
    7.4396484669775043E-01 
    7.3358413382022614E-01 
    7.3321595268115303E-01 
    7.4276003023928194E-01 
    7.4163685615771535E-01 
    7.3283270734835593E-01 
    7.3243962410671215E-01 
    7.4058827355223267E-01 
    7.3960805458571988E-01 
    7.3204107325797907E-01 
    7.3164070739666942E-01 
    7.3869069361662132E-01 
    7.3783131904686905E-01 
    7.3124157748176799E-01 
    7.3084623034544327E-01 
    7.3702561651067389E-01 
    7.3626976202949557E-01 
    7.3045679066004410E-01 
    7.3007502987862072E-01 
    7.3556036386197610E-01 
    7.3489441191255611E-01 
    7.2970242424776721E-01 
    7.2934020364714258E-01 
    7.3426923370024844E-01 
    7.3368245601817450E-01 
    7.2898939272419827E-01 
    7.2865084555481330E-01 
    7.3313197153086263E-01 
    7.3261590965916712E-01 
    7.2832527486231902E-01 
    7.2801327666193250E-01 
    7.3213261119253159E-01 
    7.3168060614640817E-01 
    7.2771535105935847E-01 
    7.2743191981668565E-01 
    7.3125859445019437E-01 
    7.3086542910947150E-01 
    7.2716334120192505E-01 
    7.2690992255753872E-01 
    7.3050010153680855E-01 
    7.3016172878898944E-01 
    7.2667193095538862E-01 
    7.2644960224850530E-01 
    7.2984954248614453E-01 
    7.2956287922046792E-01 
    7.2624314878184437E-01 
    7.2605276598261048E-01 
    7.2930117228915281E-01 
    7.2906394460698409E-01 
    7.2587863801296459E-01 
    7.2572094262890863E-01 
    7.2885080266557012E-01 
    7.2866143139912953E-01 
    7.2557985533736213E-01 
    7.2545555284739360E-01 
    7.2849558976363749E-01 
    7.2835310664819264E-01 
    7.2534821557183415E-01 
    7.2525802819087015E-01 
    7.2823387608785095E-01 
    7.2813784823358230E-01 
    7.2518517453784248E-01 
    7.2512981143270028E-01 
    7.2806500132543883E-01 
    7.2801522586980560E-01 
    7.2509195500878776E-01 
    7.2507112134698370E-01 
    7.2798784363947844E-01 
    7.2447745981030298E-01 
    7.1509322500099159E-01 
    7.1508480959534049E-01 
    7.2445568390533088E-01 
    7.2441270722458107E-01 
    7.1506805600759171E-01 
    7.1504314002765579E-01 
    7.2434958221846624E-01 
    7.2426765735654519E-01 
    7.1501031870493847E-01 
    7.1496992296421746E-01 
    7.2416847495388914E-01 
    7.2405369185803825E-01 
    7.1492234797959642E-01 
    7.1486804303156304E-01 
    7.2392501889113647E-01 
    7.2378417540235251E-01 
    7.1480750154997974E-01 
    7.1474125170782010E-01 
    7.2363285582005710E-01 
    7.2347270565553246E-01 
    7.1466984776513698E-01 
    7.1459386226383681E-01 
    7.2330530489825717E-01 
    7.2313215714794465E-01 
    7.1451387910942832E-01 
    7.1443048753295735E-01 
    7.2295468315964051E-01 
    7.2277421774702832E-01 
    7.1434427689802915E-01 
    7.1425583229989875E-01 
    7.2259200920662248E-01 
    7.2240922060108503E-01 
    7.1416573089319224E-01 
    7.1407453887975691E-01 
    7.2222693238127877E-01 
    7.2204614594027483E-01 
    7.1398280908691858E-01 
    7.1389107906785032E-01 
    7.2186778778359095E-01 
    7.2169271407277891E-01 
    7.1379986965897735E-01 
    7.1370968393371825E-01 
    7.2152171535752463E-01 
    7.2135552135760872E-01 
    7.1362100649689997E-01 
    7.1353430306956356E-01 
    7.2119480569261796E-01 
    7.2104019048614654E-01 
    7.1345002031929949E-01 
    7.1336858589657159E-01 
    7.2089225079384078E-01 
    7.2075151882222310E-01 
    7.1329040864245230E-01 
    7.1321587893758742E-01 
    7.2061848791862715E-01 
    7.2049361632226927E-01 
    7.1314536916556936E-01 
    7.1307923426523412E-01 
    7.2037733067236442E-01 
    7.2027002926992012E-01 
    7.1301781234351969E-01 
    7.1296142530777673E-01 
    7.2017208508124131E-01 
    7.2008384844129558E-01 
    7.1291037943928803E-01 
    7.1286496572676894E-01 
    7.2000564932887978E-01 
    7.1993779883100784E-01 
    7.1282545948245357E-01 
    7.1279211784672114E-01 
    7.1988058859441062E-01 
    7.1983428412555828E-01 
    7.1276517071187340E-01 
    7.1274478976344957E-01 
    7.1979909634260075E-01 
    7.1977507276303354E-01 
    7.1273098666609180E-01 
    7.1272346862938063E-01 
    7.1976187360713062E-01 
    7.0571383936741472E-01 
    6.9598910795519164E-01 
    6.9598695257133392E-01 
    7.0570986466746821E-01 
    7.0570193808582782E-01 
    6.9598265340918475E-01 
    6.9597623572707379E-01 
    7.0569011399866877E-01 
    7.0567447398801253E-01 
    6.9596773615649565E-01 
    6.9595720393091620E-01 
    7.0565512730886581E-01 
    7.0563220964137097E-01 
    6.9594470084454763E-01 
    6.9593030080836948E-01 
    7.0560588123732448E-01 
    7.0557632478202736E-01 
    6.9591408923210241E-01 
    6.9589616231327311E-01 
    7.0554374311441359E-01 
    7.0550835689033742E-01 
    6.9587662627101443E-01 
    6.9585559654650109E-01 
    7.0547040224799784E-01 
    7.0543012851939224E-01 
    6.9583319698525015E-01 
    6.9580955901317376E-01 
    7.0538779602104074E-01 
    7.0534367394886632E-01 
    6.9578482081627857E-01 
    6.9575912653250649E-01 
    7.0529803839527550E-01 
    7.0525117050078490E-01 
    6.9573262546308878E-01 
    6.9570547130981364E-01 
    7.0520335474783669E-01 
    7.0515487740059768E-01 
    6.9567782144376933E-01 
    6.9564983621037180E-01 
    7.0510602509146725E-01 
    7.0505708355263130E-01 
    6.9562167827484567E-01 
    6.9559351201178832E-01 
    7.0500833648922245E-01 
    7.0496006458938321E-01 
    6.9556550294201314E-01 
    6.9553781721954655E-01 
    7.0491254466572384E-01 
    7.0486604892222027E-01 
    6.9551062117138718E-01 
    6.9548408089241665E-01 
    7.0482084434040937E-01 
    7.0477719217864732E-01 
    6.9545836189750232E-01 
    6.9543362883209514E-01 
    7.0473534757793055E-01 
    7.0469555926675853E-01 
    6.9541004524084904E-01 
    6.9538777338956881E-01 
    7.0465806935455388E-01 
    7.0462311319541315E-01 
    6.9536697412579773E-01 
    6.9534780673968788E-01 
    7.0459091928470030E-01 
    7.0456170910272320E-01 
    6.9533042872947237E-01 
    6.9531499523201534E-01 
    7.0453569669457605E-01 
    7.0451308743213892E-01 
    6.9530165750053408E-01 
    6.9529055876454182E-01 
    7.0449407439954448E-01 
    7.0447882771892456E-01 
    6.9528182279617246E-01 
    6.9527552199301013E-01 
    7.0446746225324164E-01 
    7.0445994374698728E-01 
    6.9527159357698121E-01 
    6.9526968815999879E-01 
    7.0445596405996969E-01 
    6.8579737340563485E-01 
    6.7509956533099624E-01 
    6.7509861367717494E-01 
    6.8579603584880200E-01 
    6.8579336948761005E-01 
    6.7509671844099850E-01 
    6.7509389305136425E-01 
    6.8578939067012434E-01 
    6.8578412133092614E-01 
    6.7509015414126905E-01 
    6.7508552247382869E-01 
    6.8577759013963169E-01 
    6.8576983269244851E-01 
    6.7508002317397686E-01 
    6.7507368571959947E-01 
    6.8576089139960461E-01 
    6.8575081525358006E-01 
    6.7506654384090758E-01 
    6.7505863537956623E-01 
    6.8573965954071603E-01 
    6.8572748552211449E-01 
    6.7505000212872479E-01 
    6.7504068966383379E-01 
    6.8571436009652287E-01 
    6.8570035545252039E-01 
    6.7503074716941569E-01 
    6.7502022726486821E-01 
    6.8568554871495579E-01 
    6.8567002158949208E-01 
    6.7500918583140423E-01 
    6.7499768184180975E-01 
    6.8565386000857231E-01 
    6.8563715378185786E-01 
    6.7498577719453767E-01 
    6.7497353655363779E-01 
    6.8561999625405179E-01 
    6.8560248397296064E-01 
    6.7496102719610207E-01 
    6.7494831886832007E-01 
    6.8558471637062757E-01 
    6.8556679546039889E-01 
    6.7493548365351952E-01 
    6.7492259585228065E-01 
    6.8554882555284480E-01 
    6.8553091299355362E-01 
    6.7490973187846837E-01 
    6.7489697017321004E-01 
    6.8551316592595579E-01 
    6.8549569408247113E-01 
    6.7488439113984666E-01 
    6.7487207710302000E-01 
    6.8547860860737198E-01 
    6.8546202191465500E-01 
    6.7486011229507370E-01 
    6.7484858287240868E-01 
    6.8544604758360794E-01 
    6.8543080029292014E-01 
    6.7483757696250923E-01 
    6.7482718473730907E-01 
    6.8541639578950186E-01 
    6.8540295087691827E-01 
    6.7481749849637285E-01 
    6.7480861271484160E-01 
    6.8539058338174486E-01 
    6.8537941199276153E-01 
    6.7480062394481688E-01 
    6.7479363030371353E-01 
    6.8536955571340219E-01 
    6.8536113227901874E-01 
    6.7478772991531755E-01 
    6.7478301679280894E-01 
    6.8535425388059035E-01 
    6.8534901588180452E-01 
    6.7477957063445981E-01 
    6.7477743322133787E-01 
    6.8534546768948623E-01 
    6.8534354420229682E-01 
    6.7477656280554288E-01 
    6.7477655607663156E-01 
    6.8534285527486105E-01 
    6.6388933622236690E-01 
    6.5217343025184449E-01 
    6.5217275647959572E-01 
    6.6388857132897461E-01 
    6.6388704954448041E-01 
    6.5217141700359871E-01 
    6.5216942414475498E-01 
    6.6388478340559520E-01 
    6.6388178761347971E-01 
    6.5216679191187144E-01 
    6.5216353647556780E-01 
    6.6387807972437640E-01 
    6.6387368036985883E-01 
    6.5215967635952976E-01 
    6.5215523248479146E-01 
    6.6386861328688962E-01 
    6.6386290527351743E-01 
    6.5215022815277413E-01 
    6.5214468900105638E-01 
    6.6385658611253318E-01 
    6.6384968848099013E-01 
    6.5213864294694879E-01 
    6.5213212012628041E-01 
    6.6384224785407053E-01 
    6.6383430240770425E-01 
    6.5212515283133088E-01 
    6.5211777545015381E-01 
    6.6382589292244965E-01 
    6.6381706269023788E-01 
    6.5211002440868060E-01 
    6.5210193811657235E-01 
    6.6380785742516724E-01 
    6.6379832517936277E-01 
    6.5209355691758331E-01 
    6.5208492304513554E-01 
    6.6378851626489510E-01 
    6.6377848318281840E-01 
    6.5207608058380828E-01 
    6.5206707543749853E-01 
    6.6376828056051107E-01 
    6.6375796509867691E-01 
    6.5205795530509947E-01 
    6.5204876966462921E-01 
    6.6374759552958107E-01 
    6.6373723258834449E-01 
    6.5203956976683797E-01 
    6.5203040863934114E-01 
    6.6372693899939372E-01 
    6.6371677948042196E-01 
    6.5202134110223842E-01 
    6.5201242379578539E-01 
    6.6370682076637255E-01 
    6.6369713165582922E-01 
    6.5200371521968803E-01 
    6.5199527578133720E-01 
    6.6368778308133747E-01 
    6.6367884820270473E-01 
    6.5198716784546951E-01 
    6.5197945576761807E-01 
    6.6367040251618692E-01 
    6.6366252395834757E-01 
    6.5197220587271987E-01 
    6.5196548629694195E-01 
    6.6365529295176007E-01 
    6.6364879226989648E-01 
    6.5195936652207986E-01 
    6.5195391625257393E-01 
    6.6364310644563596E-01 
    6.6363832011689383E-01 
    6.5194920293239933E-01 
    6.5194528655214989E-01 
    6.6363451401397000E-01 
    6.6363175605788194E-01 
    6.5194220948084280E-01 
    6.5193997968751261E-01 
    6.6363008435389659E-01 
    6.6362949121714787E-01 
    6.5193856870207267E-01 
    6.5193786541700716E-01 
    6.6362963479993675E-01 
    6.3996340286957742E-01 
    6.2727187932633788E-01 
    6.2727127793890047E-01 
    6.3996277458839124E-01 
    6.3996152615949942E-01 
    6.2727008337967960E-01 
    6.2726830806600098E-01 
    6.3995966988928110E-01 
    6.3995721953984852E-01 
    6.2726596578499505E-01 
    6.2726307181062257E-01 
    6.3995419061154069E-01 
    6.3995060049774211E-01 
    6.2725964302116466E-01 
    6.2725569794138691E-01 
    6.3994646853054904E-01 
    6.3994181597582123E-01 
    6.2725125674360926E-01 
    6.2724634122665779E-01 
    6.3993666600382193E-01 
    6.3993104364778419E-01 
    6.2724097478239593E-01 
    6.2723518235499798E-01 
    6.3992497575671037E-01 
    6.3991849094579134E-01 
    6.2722899039573832E-01 
    6.2722242681471319E-01 
    6.3991161954632614E-01 
    6.3990439355619111E-01 
    6.2721552093008670E-01 
    6.2720830341489953E-01 
    6.3989684659143320E-01 
    6.3988901383927155E-01 
    6.2720080624104924E-01 
    6.2719306261966501E-01 
    6.3988093201258989E-01 
    6.3987263930584704E-01 
    6.2718510693669605E-01 
    6.2717697468202882E-01 
    6.3986417535216666E-01 
    6.3985558118116248E-01 
    6.2716870236980660E-01 
    6.2716032744670003E-01 
    6.3984689917675586E-01 
    6.3983817303378010E-01 
    6.2715188818357548E-01 
    6.2714342354403363E-01 
    6.3982944771142369E-01 
    6.3982076938033017E-01 
    6.2713497302027832E-01 
    6.2712657642201497E-01 
    6.3981218535809603E-01 
    6.3980374402429274E-01 
    6.2711827359633121E-01 
    6.2711010404350875E-01 
    6.3979549469974584E-01 
    6.3978748746318892E-01 
    6.2710210637124786E-01 
    6.2709431748965372E-01 
    6.3977977285681953E-01 
    6.3977240139133396E-01 
    6.2708677137564417E-01 
    6.2707949709642519E-01 
    6.3976542268204040E-01 
    6.3975888389362068E-01 
    6.2707251551319998E-01 
    6.2706583355416112E-01 
    6.3975282686894075E-01 
    6.3974728272095527E-01 
    6.2705943384661222E-01 
    6.2705325504089438E-01 
    6.3974226147633684E-01 
    6.3973773193745309E-01 
    6.2704715184482640E-01 
    6.2704080393957429E-01 
    6.3973358209591358E-01 
    6.3972955926902497E-01 
    6.2703349265385588E-01 
    6.2702655872342916E-01 
    6.3972613039182913E-01 
    6.1411064904670121E-01 
    6.0048980323328183E-01 
    6.0048924263204850E-01 
    6.1411006966932424E-01 
    6.1410891928654776E-01 
    6.0048812999452683E-01 
    6.0048647841627201E-01 
    6.1410721060783091E-01 
    6.1410495776251428E-01 
    6.0048430254153173E-01 
    6.0048161842086412E-01 
    6.1410217627686614E-01 
    6.1409888315996375E-01 
    6.0047844357048419E-01 
    6.0047479701790041E-01 
    6.1409509694600894E-01 
    6.1409083770576101E-01 
    6.0047069932743213E-01 
    6.0046617261217683E-01 
    6.1408612703954557E-01 
    6.1408098805922628E-01 
    6.0046124053779248E-01 
    6.0045592832170858E-01 
    6.1407544536342196E-01 
    6.1406952500840228E-01 
    6.0045026273011359E-01 
    6.0044427207420936E-01 
    6.1406325447597143E-01 
    6.1405666263889913E-01 
    6.0043798620663491E-01 
    6.0043143651853748E-01 
    6.1404977972392261E-01 
    6.1404263727189845E-01 
    6.0042465593742889E-01 
    6.0041767892564868E-01 
    6.1403526809425502E-01 
    6.1402770622441638E-01 
    6.0041054147890227E-01 
    6.0040328112389418E-01 
    6.1401998686227055E-01 
    6.1401214630893852E-01 
    6.0039593691346083E-01 
    6.0038854941668263E-01 
    6.1400422188795378E-01 
    6.1399625184727713E-01 
    6.0038116070006420E-01 
    6.0037381429367576E-01 
    6.1398827523403443E-01 
    6.1398033172993871E-01 
    6.0036655513264525E-01 
    6.0035942945861398E-01 
    6.1397246142912432E-01 
    6.1396470452991403E-01 
    6.0035248465605529E-01 
    6.0034576898157266E-01 
    6.1395710089487299E-01 
    6.1394968940372263E-01 
    6.0033933111454818E-01 
    6.0033321940346274E-01 
    6.1394250697047392E-01 
    6.1393558699826678E-01 
    6.0032748058161323E-01 
    6.0032215753474882E-01 
    6.1392895686056570E-01 
    6.1392263363900379E-01 
    6.0031728533168416E-01 
    6.0031288398286520E-01 
    6.1391661662994890E-01 
    6.1391087360422858E-01 
    6.0030894478040264E-01 
    6.0030540303912683E-01 
    6.1390531416414729E-01 
    6.1389973310985368E-01 
    6.0030207738894903E-01 
    6.0029850386899186E-01 
    6.1389366857057126E-01 
    6.1388595095402743E-01 
    6.0029323959205927E-01 
    6.0028750105862960E-01 
    6.1387831180954744E-01 
    5.8641789769035635E-01 
    5.7190273361856470E-01 
    5.7190218060256981E-01 
    5.8641734714197047E-01 
    5.8641625472502079E-01 
    5.7190108321516731E-01 
    5.7189945482253601E-01 
    5.8641463379915137E-01 
    5.8641249937648510E-01 
    5.7189731045926928E-01 
    5.7189466648643672E-01 
    5.8640986787392546E-01 
    5.8640675714541990E-01 
    5.7189154059327563E-01 
    5.7188795183534202E-01 
    5.8640318652736267E-01 
    5.8639917687372445E-01 
    5.7188392067071492E-01 
    5.7187946899026354E-01 
    5.8639475058202473E-01 
    5.8638993161352926E-01 
    5.7187462014338597E-01 
    5.7186939896131472E-01 
    5.8638474551058151E-01 
    5.8637921941323889E-01 
    5.7186383177983890E-01 
    5.7185794646294885E-01 
    5.8637338207679701E-01 
    5.8636726389133975E-01 
    5.7185177242858454E-01 
    5.7184534067744985E-01 
    5.8636089690414306E-01 
    5.8635431484551481E-01 
    5.7183868382566927E-01 
    5.7183183614191968E-01 
    5.8634755315844322E-01 
    5.8634064903220262E-01 
    5.7182483358951974E-01 
    5.7181771387376645E-01 
    5.8633364143978417E-01 
    5.8632657117860987E-01 
    5.7181051649451942E-01 
    5.7180328280354709E-01 
    5.8631948091336150E-01 
    5.8631241521874256E-01 
    5.7179605606533557E-01 
    5.7178888151864504E-01 
    5.8630542061833169E-01 
    5.8629854561290828E-01 
    5.7178180643364418E-01 
    5.7177488015509803E-01 
    5.8629184068688056E-01 
    5.8628535827317207E-01 
    5.7176815411428983E-01 
    5.7176168177815623E-01 
    5.8627915264221331E-01 
    5.8627327965398146E-01 
    5.7175551847782080E-01 
    5.7174972100929722E-01 
    5.8626779626262304E-01 
    5.8626275957024265E-01 
    5.7174434680515018E-01 
    5.7173945229553202E-01 
    5.8625822504918579E-01 
    5.8625424320931840E-01 
    5.7173508972707543E-01 
    5.7173130100582970E-01 
    5.8625085330289350E-01 
    5.8624807116806954E-01 
    5.7172810555555009E-01 
    5.7172547471079560E-01 
    5.8624586436606130E-01 
    5.8624409404171052E-01 
    5.7172326802012896E-01 
    5.7172102900670219E-01 
    5.8624234198744585E-01 
    5.8623902376856230E-01 
    5.7171737287012303E-01 
    5.7171334955597564E-01 
    5.8623478680127949E-01 
    5.5695192787576220E-01 
    5.4157274825991497E-01 
    5.4157217175154559E-01 
    5.5695136311955429E-01 
    5.5695024209650879E-01 
    5.4157102709953109E-01 
    5.4156932731811214E-01 
    5.5694857796756680E-01 
    5.5694638550254238E-01 
    5.4156708700875333E-01 
    5.4156432185926662E-01 
    5.5694368065307920E-01 
    5.5694048051937595E-01 
    5.4156104857814369E-01 
    5.4155728490265242E-01 
    5.5693680337291185E-01 
    5.5693266868354196E-01 
    5.4155304961741424E-01 
    5.4154836257001526E-01 
    5.5692809714208158E-01 
    5.5692311067766109E-01 
    5.4154324468083737E-01 
    5.4153771794690109E-01 
    5.5691773247083209E-01 
    5.5691198696356825E-01 
    5.4153180544002733E-01 
    5.4152553129952641E-01 
    5.5690589986710093E-01 
    5.5689949816824635E-01 
    5.4151892071931296E-01 
    5.4151199992896482E-01 
    5.5689281013460579E-01 
    5.5688586531874795E-01 
    5.4150479616778824E-01 
    5.4149733765041119E-01 
    5.5687869456119521E-01 
    5.5687132999169076E-01 
    5.4148965352172618E-01 
    5.4148177379807061E-01 
    5.5686380502776500E-01 
    5.5685615436896940E-01 
    5.4147372929023252E-01 
    5.4146555150197284E-01 
    5.5684841398416329E-01 
    5.5684062108770893E-01 
    5.4145727249495235E-01 
    5.4144892470664729E-01 
    5.5683281409799701E-01 
    5.5682503256770988E-01 
    5.4144054070103187E-01 
    5.4143215282074875E-01 
    5.5681731706848425E-01 
    5.5680970900096471E-01 
    5.4142379269090735E-01 
    5.4141549049242865E-01 
    5.5680225028055297E-01 
    5.5679498281145690E-01 
    5.4140727386487031E-01 
    5.4139916619073647E-01 
    5.5678794759121342E-01 
    5.5678118315337299E-01 
    5.4139118380541706E-01 
    5.4138333126197780E-01 
    5.5677472279355800E-01 
    5.5676858949830754E-01 
    5.4137559291558801E-01 
    5.4136791716352761E-01 
    5.5676278638610011E-01 
    5.5675727781485174E-01 
    5.4136018477649783E-01 
    5.4135213737005894E-01 