# vtk DataFile Version 2.0
Pressure Field Data 
ASCII 
DATASET UNSTRUCTURED_GRID 

POINTS 1681 double 

    0.0000000000000000E+00     0.0000000000000000E+00     0.0000000000000000E+00 
    1.0000000000000000E+00     0.0000000000000000E+00     0.0000000000000000E+00 
    1.0000000000000000E+00     1.0000000000000000E+00     0.0000000000000000E+00 
    0.0000000000000000E+00     1.0000000000000000E+00     0.0000000000000000E+00 
    5.2499999999875258E-01     0.0000000000000000E+00     0.0000000000000000E+00 
    7.4999999999856765E-02     0.0000000000000000E+00     0.0000000000000000E+00 
    1.2499999999975850E-01     0.0000000000000000E+00     0.0000000000000000E+00 
    1.7499999999962990E-01     0.0000000000000000E+00     0.0000000000000000E+00 
    2.2499999999948389E-01     0.0000000000000000E+00     0.0000000000000000E+00 
    2.7499999999933789E-01     0.0000000000000000E+00     0.0000000000000000E+00 
    3.2499999999919210E-01     0.0000000000000000E+00     0.0000000000000000E+00 
    3.7499999999904610E-01     0.0000000000000000E+00     0.0000000000000000E+00 
    4.2499999999890020E-01     0.0000000000000000E+00     0.0000000000000000E+00 
    4.7499999999875958E-01     0.0000000000000000E+00     0.0000000000000000E+00 
    2.4999999999949701E-02     0.0000000000000000E+00     0.0000000000000000E+00 
    5.7499999999887907E-01     0.0000000000000000E+00     0.0000000000000000E+00 
    6.2499999999901101E-01     0.0000000000000000E+00     0.0000000000000000E+00 
    6.7499999999914273E-01     0.0000000000000000E+00     0.0000000000000000E+00 
    7.2499999999927467E-01     0.0000000000000000E+00     0.0000000000000000E+00 
    7.7499999999940661E-01     0.0000000000000000E+00     0.0000000000000000E+00 
    8.2499999999953844E-01     0.0000000000000000E+00     0.0000000000000000E+00 
    8.7499999999967026E-01     0.0000000000000000E+00     0.0000000000000000E+00 
    9.2499999999980220E-01     0.0000000000000000E+00     0.0000000000000000E+00 
    9.7499999999993414E-01     0.0000000000000000E+00     0.0000000000000000E+00 
    5.4999999999881310E-01     0.0000000000000000E+00     0.0000000000000000E+00 
    9.9999999999814140E-02     0.0000000000000000E+00     0.0000000000000000E+00 
    1.4999999999970290E-01     0.0000000000000000E+00     0.0000000000000000E+00 
    1.9999999999955689E-01     0.0000000000000000E+00     0.0000000000000000E+00 
    2.4999999999941089E-01     0.0000000000000000E+00     0.0000000000000000E+00 
    2.9999999999926502E-01     0.0000000000000000E+00     0.0000000000000000E+00 
    3.4999999999911913E-01     0.0000000000000000E+00     0.0000000000000000E+00 
    3.9999999999897312E-01     0.0000000000000000E+00     0.0000000000000000E+00 
    4.4999999999882723E-01     0.0000000000000000E+00     0.0000000000000000E+00 
    4.9999999999869210E-01     0.0000000000000000E+00     0.0000000000000000E+00 
    4.9999999999899403E-02     0.0000000000000000E+00     0.0000000000000000E+00 
    5.9999999999894504E-01     0.0000000000000000E+00     0.0000000000000000E+00 
    6.4999999999907687E-01     0.0000000000000000E+00     0.0000000000000000E+00 
    6.9999999999920870E-01     0.0000000000000000E+00     0.0000000000000000E+00 
    7.4999999999934064E-01     0.0000000000000000E+00     0.0000000000000000E+00 
    7.9999999999947247E-01     0.0000000000000000E+00     0.0000000000000000E+00 
    8.4999999999960441E-01     0.0000000000000000E+00     0.0000000000000000E+00 
    8.9999999999973623E-01     0.0000000000000000E+00     0.0000000000000000E+00 
    9.4999999999986817E-01     0.0000000000000000E+00     0.0000000000000000E+00 
    1.0000000000000000E+00     5.2499999999875258E-01     0.0000000000000000E+00 
    1.0000000000000000E+00     7.4999999999856765E-02     0.0000000000000000E+00 
    1.0000000000000000E+00     1.2499999999975850E-01     0.0000000000000000E+00 
    1.0000000000000000E+00     1.7499999999962990E-01     0.0000000000000000E+00 
    1.0000000000000000E+00     2.2499999999948389E-01     0.0000000000000000E+00 
    1.0000000000000000E+00     2.7499999999933789E-01     0.0000000000000000E+00 
    1.0000000000000000E+00     3.2499999999919210E-01     0.0000000000000000E+00 
    1.0000000000000000E+00     3.7499999999904610E-01     0.0000000000000000E+00 
    1.0000000000000000E+00     4.2499999999890020E-01     0.0000000000000000E+00 
    1.0000000000000000E+00     4.7499999999875958E-01     0.0000000000000000E+00 
    1.0000000000000000E+00     2.4999999999949701E-02     0.0000000000000000E+00 
    1.0000000000000000E+00     5.7499999999887907E-01     0.0000000000000000E+00 
    1.0000000000000000E+00     6.2499999999901101E-01     0.0000000000000000E+00 
    1.0000000000000000E+00     6.7499999999914273E-01     0.0000000000000000E+00 
    1.0000000000000000E+00     7.2499999999927467E-01     0.0000000000000000E+00 
    1.0000000000000000E+00     7.7499999999940661E-01     0.0000000000000000E+00 
    1.0000000000000000E+00     8.2499999999953844E-01     0.0000000000000000E+00 
    1.0000000000000000E+00     8.7499999999967026E-01     0.0000000000000000E+00 
    1.0000000000000000E+00     9.2499999999980220E-01     0.0000000000000000E+00 
    1.0000000000000000E+00     9.7499999999993414E-01     0.0000000000000000E+00 
    1.0000000000000000E+00     5.4999999999881310E-01     0.0000000000000000E+00 
    1.0000000000000000E+00     9.9999999999814140E-02     0.0000000000000000E+00 
    1.0000000000000000E+00     1.4999999999970290E-01     0.0000000000000000E+00 
    1.0000000000000000E+00     1.9999999999955689E-01     0.0000000000000000E+00 
    1.0000000000000000E+00     2.4999999999941089E-01     0.0000000000000000E+00 
    1.0000000000000000E+00     2.9999999999926502E-01     0.0000000000000000E+00 
    1.0000000000000000E+00     3.4999999999911913E-01     0.0000000000000000E+00 
    1.0000000000000000E+00     3.9999999999897312E-01     0.0000000000000000E+00 
    1.0000000000000000E+00     4.4999999999882723E-01     0.0000000000000000E+00 
    1.0000000000000000E+00     4.9999999999869210E-01     0.0000000000000000E+00 
    1.0000000000000000E+00     4.9999999999899403E-02     0.0000000000000000E+00 
    1.0000000000000000E+00     5.9999999999894504E-01     0.0000000000000000E+00 
    1.0000000000000000E+00     6.4999999999907687E-01     0.0000000000000000E+00 
    1.0000000000000000E+00     6.9999999999920870E-01     0.0000000000000000E+00 
    1.0000000000000000E+00     7.4999999999934064E-01     0.0000000000000000E+00 
    1.0000000000000000E+00     7.9999999999947247E-01     0.0000000000000000E+00 
    1.0000000000000000E+00     8.4999999999960441E-01     0.0000000000000000E+00 
    1.0000000000000000E+00     8.9999999999973623E-01     0.0000000000000000E+00 
    1.0000000000000000E+00     9.4999999999986817E-01     0.0000000000000000E+00 
    4.7500000000196618E-01     1.0000000000000000E+00     0.0000000000000000E+00 
    9.2499999999968763E-01     1.0000000000000000E+00     0.0000000000000000E+00 
    8.7499999999961831E-01     1.0000000000000000E+00     0.0000000000000000E+00 
    8.2499999999982654E-01     1.0000000000000000E+00     0.0000000000000000E+00 
    7.7500000000017355E-01     1.0000000000000000E+00     0.0000000000000000E+00 
    7.2500000000052045E-01     1.0000000000000000E+00     0.0000000000000000E+00 
    6.7500000000086724E-01     1.0000000000000000E+00     0.0000000000000000E+00 
    6.2500000000121403E-01     1.0000000000000000E+00     0.0000000000000000E+00 
    5.7500000000156093E-01     1.0000000000000000E+00     0.0000000000000000E+00 
    5.2500000000189684E-01     1.0000000000000000E+00     0.0000000000000000E+00 
    9.7499999999989595E-01     1.0000000000000000E+00     0.0000000000000000E+00 
    4.2500000000176902E-01     1.0000000000000000E+00     0.0000000000000000E+00 
    3.7500000000156092E-01     1.0000000000000000E+00     0.0000000000000000E+00 
    3.2500000000135282E-01     1.0000000000000000E+00     0.0000000000000000E+00 
    2.7500000000114472E-01     1.0000000000000000E+00     0.0000000000000000E+00 
    2.2500000000093659E-01     1.0000000000000000E+00     0.0000000000000000E+00 
    1.7500000000072849E-01     1.0000000000000000E+00     0.0000000000000000E+00 
    1.2500000000052039E-01     1.0000000000000000E+00     0.0000000000000000E+00 
    7.5000000000312261E-02     1.0000000000000000E+00     0.0000000000000000E+00 
    2.5000000000104109E-02     1.0000000000000000E+00     0.0000000000000000E+00 
    4.5000000000187301E-01     1.0000000000000000E+00     0.0000000000000000E+00 
    8.9999999999958358E-01     1.0000000000000000E+00     0.0000000000000000E+00 
    8.4999999999965303E-01     1.0000000000000000E+00     0.0000000000000000E+00 
    8.0000000000000004E-01     1.0000000000000000E+00     0.0000000000000000E+00 
    7.5000000000034706E-01     1.0000000000000000E+00     0.0000000000000000E+00 
    7.0000000000069384E-01     1.0000000000000000E+00     0.0000000000000000E+00 
    6.5000000000104063E-01     1.0000000000000000E+00     0.0000000000000000E+00 
    6.0000000000138742E-01     1.0000000000000000E+00     0.0000000000000000E+00 
    5.5000000000173432E-01     1.0000000000000000E+00     0.0000000000000000E+00 
    5.0000000000205946E-01     1.0000000000000000E+00     0.0000000000000000E+00 
    9.4999999999979179E-01     1.0000000000000000E+00     0.0000000000000000E+00 
    4.0000000000166491E-01     1.0000000000000000E+00     0.0000000000000000E+00 
    3.5000000000145681E-01     1.0000000000000000E+00     0.0000000000000000E+00 
    3.0000000000124871E-01     1.0000000000000000E+00     0.0000000000000000E+00 
    2.5000000000104061E-01     1.0000000000000000E+00     0.0000000000000000E+00 
    2.0000000000083251E-01     1.0000000000000000E+00     0.0000000000000000E+00 
    1.5000000000062441E-01     1.0000000000000000E+00     0.0000000000000000E+00 
    1.0000000000041630E-01     1.0000000000000000E+00     0.0000000000000000E+00 
[...]
CELL_DATA 1600 
SCALARS Pressure double 1 
LOOKUP_TABLE default 

    7.1588090293964812E-01 
    6.9762776760381928E-01 
    6.9753398358392971E-01 
    7.1398427533256825E-01 
    7.1223341720962519E-01 
    6.9736437074778934E-01 
    6.9713421590747582E-01 
    7.1061644263825441E-01 
    7.0912030778913204E-01 
    6.9685619617345318E-01 
    6.9654091567452214E-01 
    7.0773336573850942E-01 
    7.0644531793069920E-01 
    6.9619724803198413E-01 
    6.9583261786507311E-01 
    7.0524707709642520E-01 
    7.0413062592551046E-01 
    6.9545323524559488E-01 
    6.9506429177522322E-01 
    7.0308888714728568E-01 
    7.0211560803168960E-01 
    6.9467012489751889E-01 
    6.9427435576288554E-01 
    7.0120525902531794E-01 
    7.0035294528910996E-01 
    6.9388000500712965E-01 
    6.9348959005035404E-01 
    6.9955432968727727E-01 
    6.9880556581131914E-01 
    6.9310520691341637E-01 
    6.9272859905007034E-01 
    6.9810323974348099E-01 
    6.9744431940819895E-01 
    6.9236121528122085E-01 
    6.9200425857665859E-01 
    6.9682611050310750E-01 
    6.9624621813353693E-01 
    6.9165872714619026E-01 
    6.9132544906602600E-01 
    6.9570251339286160E-01 
    6.9519310423525993E-01 
    6.9100511146933008E-01 
    6.9069828516534348E-01 
    6.9471631007824641E-01 
    6.9427063965108693E-01 
    6.9040544541394133E-01 
    6.9012698946738915E-01 
    6.9385477167325482E-01 
    6.9346753800588767E-01 
    6.8986325139472238E-01 
    6.8961451462351464E-01 
    6.9310790897002150E-01 
    6.9277498056929965E-01 
    6.8938102256623879E-01 
    6.8916298764178485E-01 
    6.9246796339285632E-01 
    6.9218617300686813E-01 
    6.8896059895507267E-01 
    6.8877402885717021E-01 
    6.9192902167119785E-01 
    6.9169601124029834E-01 
    6.8860343857266371E-01 
    6.8844898304656632E-01 
    6.9148672712311343E-01 
    6.9130083317895086E-01 
    6.8831081512197068E-01 
    6.8818908909126708E-01 
    6.9113806739676775E-01 
    6.9099823808532446E-01 
    6.8808396350418866E-01 
    6.8799560263534720E-01 
    6.9088121987909268E-01 
    6.9078694723130885E-01 
    6.8792417424130281E-01 
    6.8786983343003327E-01 
    6.9071539559790207E-01 
    6.9066650109916594E-01 
    6.8783264426876334E-01 
    6.8781230359453427E-01 
    6.9063978290618577E-01 
    6.8729601006041907E-01 
    6.7818506887485386E-01 
    6.7817686735019123E-01 
    6.8727455349691047E-01 
    6.8723221489432951E-01 
    6.7816054109873469E-01 
    6.7813626298366902E-01 
    6.8717003878974559E-01 
    6.8708936370560414E-01 
    6.7810428599447470E-01 
    6.7806493571333148E-01 
    6.8699172012867138E-01 
    6.8687875143339805E-01 
    6.7801860071262254E-01 
    6.7796572248837583E-01 
    6.8675215357099617E-01 
    6.8661362983986396E-01 
    6.7790678559397743E-01 
    6.7784230832592163E-01 
    6.8646485762294041E-01 
    6.8630746454773239E-01 
    6.7777283415632206E-01 
    6.7769892401104126E-01 
    6.8614301201414873E-01 
    6.8597298443984722E-01 
    6.7762114942907392E-01 
    6.7754008659636833E-01 
    6.8579878290301677E-01 
    6.8562172213051731E-01 
    6.7745631121914673E-01 
    6.7737039418393563E-01 
    6.8544302999613116E-01 
    6.8526384886868874E-01 
    6.7728289794108154E-01 
    6.7719437354345424E-01 
    6.8508523829078960E-01 
    6.8490817858214981E-01 
    6.7710535827076457E-01 
    6.7701637377131174E-01 
    6.8473357505244326E-01 
    6.8456226258117947E-01 
    6.7692792465615870E-01 
    6.7684049748505559E-01 
    6.8439501038011907E-01 
    6.8423252679982394E-01 
    6.7675456008844814E-01 
    6.7667056117524527E-01 
    6.8407546407846220E-01 
    6.8392442295981637E-01 
    6.7658893018143662E-01 
    6.7651007731997881E-01 
    6.8377995713011175E-01 
    6.8364257744096546E-01 
    6.7643439379741144E-01 
    6.7636225216726442E-01 
    6.8351275589940141E-01 
    6.8339092941608359E-01 
    6.7629400679416407E-01 
    6.7622999440501785E-01 
    6.8327750330987302E-01 
    6.8317285456987542E-01 
    6.7617053470332944E-01 
    6.7611593101604983E-01 
    6.8307733487281064E-01 
    6.8299127333640497E-01 
    6.7606647092023076E-01 
    6.7602242673314850E-01 
    6.8291497893664654E-01 
    6.8284874235814241E-01 
    6.7598405556406904E-01 
    6.7595159804136373E-01 
    6.8279283653159362E-01 
    6.8274751321982019E-01 
    6.7592527278804082E-01 
    6.7590525592174733E-01 
    6.8271298513871626E-01 
    6.8268934953916294E-01 
    6.7589160699642925E-01 
    6.7588417385105648E-01 
    6.8267642389974981E-01 
    6.6913026283477162E-01 
    6.5977813426702381E-01 
    6.5977612111189554E-01 
    6.6912645476815635E-01 
    6.6911886029101175E-01 
    6.5977210485166204E-01 
    6.5976610797672164E-01 
    6.6910753112139154E-01 
    6.6909254550284070E-01 
    6.5975816385480257E-01 
    6.5974831787361166E-01 
    6.6907400853166366E-01 
    6.6905205089255559E-01 
    6.5973662737982719E-01 
    6.5972316124471064E-01 
    6.6902682703041605E-01 
    6.6899851305168268E-01 
    6.5970799926672219E-01 
    6.5969123148519815E-01 
    6.6896730448832931E-01 
    6.6893341400555528E-01 
    6.5967295743975074E-01 
    6.5965328539595713E-01 
    6.6889706911051305E-01 
    6.6885850990524309E-01 
    6.5963233155192269E-01 
    6.5961021923727359E-01 
    6.6881798691672267E-01 
    6.6877575902875652E-01 
    6.5958707811429595E-01 
    6.5956304338957061E-01 
    6.6873209153365853E-01 
    6.6868725431600118E-01 
    6.5953825504335872E-01 
    6.5951285708300555E-01 
    6.6864152017598855E-01 
    6.6859516329615531E-01 
    6.5948699682575884E-01 
    6.5946082421560659E-01 
    6.6854845785198125E-01 
    6.6850167676459349E-01 
    6.5943449117804487E-01 
    6.5940815101607642E-01 
    6.6845509059190134E-01 
    6.6840896655319504E-01 
    6.5938195785023146E-01 
    6.5935606610496889E-01 
    6.6836356768138716E-01 
    6.6831915209656423E-01 
    6.5933063004345049E-01 
    6.5930580335232902E-01 
    6.6827597239428926E-01 
    6.6823427514201050E-01 
    6.5928173877774598E-01 
    6.5925858781297864E-01 
    6.6819430047677997E-01 
    6.6815628179687658E-01 
    6.5923650043665627E-01 
    6.5921562489715824E-01 
    6.6812044553803351E-01 
    6.6808701101994949E-01 
    6.5919610753143876E-01 
    6.5917809258966997E-01 
    6.6805619033618635E-01 
    6.6802818822913124E-01 
    6.5916172199718703E-01 
    6.5914713488586851E-01 
    6.6800320181042760E-01 
    6.6798141976318604E-01 
    6.5913446646342910E-01 
    6.5912384503532773E-01 
    6.6796301999114338E-01 
    6.6794816248244204E-01 
    6.5911538367492628E-01 
    6.5910915562703754E-01 
    6.6793696650019141E-01 
    6.6792943830017559E-01 
    6.5910512328462179E-01 
    6.5910306060802548E-01 
    6.6792540126582534E-01 
    6.5000439876251215E-01 
    6.3976774032056982E-01 
    6.3976691296816879E-01 
    6.5000319085371794E-01 
    6.5000078206602452E-01 
    6.3976526457458183E-01 
    6.3976280573668376E-01 
    6.4999718590793498E-01 
    6.4999242106143684E-01 
    6.3975954988573369E-01 
    6.3975551422620436E-01 
    6.4998651249778716E-01 
    6.4997949165305524E-01 
    6.3975071995740962E-01 
    6.3974519226316318E-01 
    6.4997139631790390E-01 
    6.4996227041645749E-01 
    6.3973896021540333E-01 
    6.3973205664051169E-01 
    6.4995216373201281E-01 
    6.4994113160322264E-01 
    6.3972451796782015E-01 
    6.3971638406922704E-01 
    6.4992923460229823E-01 
    6.4991653820194084E-01 
    6.3970769809453365E-01 
    6.3969850630520697E-01 
    6.4990311243560439E-01 
    6.4988903155471478E-01 
    6.3968885790842778E-01 
    6.3967880489290774E-01 
    6.4987437368598877E-01 
    6.4985922049174438E-01 
    6.3966840186781171E-01 
    6.3965770590610893E-01 
    6.4984365683594170E-01 
    6.4982777045860418E-01 
    6.3964677639371670E-01 
    6.3963567488588491E-01 
    6.4981165166120169E-01 
    6.4979539300554556E-01 
    6.3962446497239234E-01 
    6.3961321215324518E-01 
    6.4977908902870840E-01 
    6.4976283597648721E-01 
    6.3960198372673160E-01 
    6.3959084869183258E-01 
    6.4974673155791574E-01 
    6.4973087472330671E-01 
    6.3957987766711000E-01 
    6.3956914282823918E-01 
    6.4971536546820796E-01 
    6.4970030466535134E-01 
    6.3955871786616048E-01 
    6.3954867796712045E-01 
    6.4968579392591363E-01 
    6.4967193548963886E-01 
    6.3953909981404089E-01 
    6.3953006160431347E-01 
    6.4965883213937536E-01 
    6.4964658712664025E-01 
    6.3952164306924564E-01 
    6.3951392545793428E-01 
    6.4963530407457315E-01 
    6.4962508677741204E-01 
    6.3950699139641654E-01 
    6.3950092440889961E-01 
    6.4961603870063356E-01 
    6.4960826169016983E-01 
    6.3949580757841828E-01 
    6.3949172001331811E-01 
    6.4960185258932124E-01 
    6.4959689411184018E-01 
    6.3948872756834663E-01 
    6.3948685818365070E-01 
    6.4959342937324394E-01 
    6.4959139289831969E-01 
    6.3948602463742032E-01 
    6.3948587110584743E-01 
    6.4959049954035120E-01 
    6.2905979130797851E-01 
    6.1788542933236879E-01 
    6.1788488086727789E-01 
    6.2905915009746693E-01 
    6.2905787396113666E-01 
    6.1788379038286656E-01 
    6.1788216761030113E-01 
    6.2905597268971891E-01 
    6.2905345790414657E-01 
    6.1788002368070183E-01 
    6.1787737167810330E-01 
    6.2905034379577995E-01 
    6.2904664734368287E-01 
    6.1787422683622695E-01 
    6.1787060658122428E-01 
    6.2904238834176729E-01 
    6.2903758935490639E-01 
    6.1786653051448948E-01 
    6.1786202037020899E-01 
    6.2903227564538433E-01 
    6.2902647508653542E-01 
    6.1785709996229121E-01 
    6.1785179512757737E-01 
    6.2902021807131359E-01 
    6.2901353741968835E-01 
    6.1784613366888308E-01 
    6.1784014529983644E-01 
    6.2900646828703088E-01 
    6.2899904807484763E-01 
    6.1783386159272513E-01 
    6.1782731593020512E-01 
    6.2899131634485117E-01 
    6.2898331473722868E-01 
    6.1782054346157778E-01 
    6.1781358106432238E-01 
    6.2897508689394899E-01 
    6.2896667838801579E-01 
    6.1780646731162647E-01 
    6.1779924244676332E-01 
    6.2895813665968281E-01 
    6.2894951096080265E-01 
    6.1779194836532825E-01 
    6.1778462860653682E-01 
    6.2894085230865771E-01 
    6.2893221345083794E-01 
    6.1777732835503518E-01 
    6.1777009445493436E-01 
    6.2892364884295648E-01 
    6.2891521464121658E-01 
    6.1776297543807468E-01 
    6.1775602156875509E-01 
    6.2890696871199725E-01 
    6.2889897066056966E-01 
    6.1774928490724113E-01 
    6.1774281939396403E-01 
    6.2889128188051280E-01 
    6.2888396562369275E-01 
    6.1773668095482459E-01 
    6.1773092762399628E-01 
    6.2887708708640533E-01 
    6.2887071349729051E-01 
    6.1772561967100836E-01 
    6.1772081969686476E-01 
    6.2886491416973977E-01 
    6.2885976042896308E-01 
    6.1771659261439893E-01 
    6.1771300531681983E-01 
    6.2885532520114940E-01 
    6.2885168175728046E-01 
    6.1771012558723415E-01 
    6.1770801923357521E-01 
    6.2884890037262609E-01 
    6.2884703980788914E-01 
    6.1770674318406549E-01 
    6.1770632663103520E-01 
    6.2884612294141873E-01 
    6.2884605642074853E-01 
    6.1770672035442109E-01 
    6.1770747922981806E-01 
    6.2884642048738681E-01 
    6.0625456001474987E-01 
    5.9417865584560492E-01 
    5.9417817318550792E-01 
    6.0625405703304180E-01 
    6.0625305768600513E-01 
    5.9417721459627071E-01 
    5.9417579013542055E-01 
    6.0625157186639966E-01 
    6.0624961068749639E-01 
    5.9417391100168715E-01 
    5.9417158977507956E-01 
    6.0624718686900991E-01 
    6.0624431490773345E-01 
    5.9416884055920882E-01 
    5.9416567903113171E-01 
    6.0624101112648121E-01 
    6.0623729367245127E-01 
    5.9416212244898248E-01 
    5.9415818964000400E-01 
    6.0623318249344693E-01 
    6.0622869930453782E-01 
    5.9415390097959420E-01 
    5.9414927836681297E-01 
    6.0622386755132818E-01 
    6.0621871237310476E-01 
    5.9414434519936021E-01 
    5.9413912634978117E-01 
    6.0621326056772928E-01 
    6.0620754055942505E-01 
    5.9413364814400604E-01 
    5.9412793834298305E-01 
    6.0620158237026389E-01 
    6.0619541759600115E-01 
    5.9412202612799603E-01 
    5.9411594209018936E-01 
    6.0618907938686406E-01 
    6.0618260243393762E-01 
    5.9410971822481839E-01 
    5.9410338793078887E-01 
    6.0617602296187834E-01 
    6.0616937872882448E-01 
    5.9409698601612060E-01 
    5.9409054871006794E-01 
    6.0616270903454317E-01 
    6.0615605473807710E-01 
    5.9408411368273706E-01 
    5.9407772007313298E-01 
    6.0614945828639244E-01 
    6.0614296375578525E-01 
    5.9407140852660278E-01 
    5.9406522124252747E-01 
    6.0613661690801135E-01 
    6.0613046526310688E-01 
    5.9405920203262386E-01 
    5.9405339638895927E-01 
    6.0612455819038547E-01 
    6.0611894701744196E-01 
    5.9404785155787554E-01 
    5.9404261660973467E-01 
    6.0611368515273656E-01 
    6.0610882820745915E-01 
    5.9403774248130026E-01 
    5.9403328194100136E-01 
    6.0610443408061043E-01 
    6.0610056292480252E-01 
    5.9402928937538468E-01 
    5.9402582019855110E-01 
    6.0609727681400460E-01 
    6.0609463874165714E-01 
    5.9402292952318592E-01 
    5.9402066951965271E-01 
    6.0609271022010058E-01 
    6.0609154626029027E-01 
    5.9401908496225286E-01 
    5.9401821259916343E-01 
    6.0609118953539898E-01 
    6.0609167879893400E-01 
    5.9401813232098133E-01 
    5.9401860781447491E-01 
    6.0609261534865755E-01 
    5.8166929526373490E-01 
    5.6873744609692933E-01 
    5.6873697462050243E-01 
    5.8166882002634435E-01 
    5.8166787632770478E-01 
    5.6873603846018783E-01 
    5.6873464781931959E-01 
    5.8166647431479446E-01 
    5.8166462522505635E-01 
    5.6873281396152675E-01 
    5.6873054921249244E-01 
    5.8166234149936735E-01 
    5.8165963689438838E-01 
    5.6872786704158484E-01 
    5.6872478210041022E-01 
    5.8165652652857036E-01 
    5.8165302689333109E-01 
    5.6872131023298012E-01 
    5.6871746846943150E-01 
    5.8164915584653720E-01 
    5.8164493259695915E-01 
    5.6871327501001467E-01 
    5.6870874920311520E-01 
    5.8164037768437893E-01 
    5.8163551295799654E-01 
    5.6870391151943400E-01 
    5.6869878352346503E-01 
    5.8163036155468950E-01 
    5.8162494787806318E-01 
    5.6869338784278778E-01 
    5.6868774813526679E-01 
    5.8161929757887065E-01 
    5.8161343753716499E-01 
    5.6868188905391570E-01 
    5.6867583620888662E-01 
    5.8160739584640664E-01 
    5.8160120179965291E-01 
    5.6866961612573175E-01 
    5.6866325619871372E-01 
    5.8159488587787600E-01 
    5.8158847974034711E-01 
    5.6865678463745650E-01 
    5.6865023040455875E-01 
    5.8158201621689687E-01 
    5.8157552930162948E-01 
    5.6864362314083505E-01 
    5.6863699307341509E-01 
    5.8156905414728510E-01 
    5.8156262705879547E-01 
    5.6863037089975832E-01 
    5.6862378763719512E-01 
    5.8155628548339189E-01 
    5.8155006799254505E-01 
    5.6861727442202969E-01 
    5.6861086223291213E-01 
    5.8154401424716984E-01 
    5.8153816493046251E-01 
    5.6860458149712867E-01 
    5.6859846151002935E-01 
    5.8153256161944877E-01 
    5.8152724654125088E-01 
    5.6859252954623030E-01 
    5.6858680944587103E-01 
    5.8152226211270974E-01 
    5.8151765007367551E-01 
    5.6858131928059386E-01 
    5.6857606736537913E-01 
    5.8151344986417097E-01 
    5.8150969561903842E-01 
    5.6857104522366575E-01 
    5.6856621474174129E-01 
    5.8150641071859810E-01 
    5.8150359834759735E-01 
    5.6856148348649183E-01 
    5.6855665302636993E-01 
    5.8150122817282546E-01 
    5.8149925730974095E-01 
    5.6855132115892359E-01 
    5.6854636938823944E-01 
    5.8149783275781830E-01 
    5.5539289449346863E-01 
    5.4164375119217989E-01 
    5.4164329957511970E-01 
    5.5539243041095887E-01 
    5.5539150911094370E-01 
    5.4164240336538527E-01 
    5.4164107325695166E-01 
    5.5539014096103290E-01 
    5.5538833742673233E-01 
    5.4163932116407676E-01 
    5.4163716004513462E-01 
    5.5538611097736112E-01 
    5.5538347514087405E-01 
    5.4163460393706342E-01 
    5.4163166798993856E-01 
    5.5538044453742497E-01 
    5.5537703489130796E-01 
    5.4162836848783347E-01 
    5.4162472285887653E-01 
    5.5537326302845458E-01 
    5.5536914686438699E-01 
    5.4162074967789742E-01 
    5.4161646866410662E-01 
    5.5536470538559479E-01 
    5.5535995862602527E-01 
    5.4161190067539078E-01 
    5.4160706770015377E-01 
    5.5535492763952754E-01 
    5.5534963446848828E-01 
    5.4160199284714305E-01 
    5.4159670033330864E-01 
    5.5534410210842966E-01 
    5.5533835446792945E-01 
    5.4159121546938382E-01 
    5.4158556464251451E-01 
    5.5533241632279740E-01 
    5.5532631326296533E-01 
    5.4157977529483359E-01 
    5.4157387589633366E-01 
    5.5532007162994179E-01 
    5.5531371844186983E-01 
    5.4156789590962773E-01 
    5.4156186574311826E-01 
    5.5530728130210738E-01 
    5.5530078828563034E-01 
    5.4155581668749553E-01 
    5.4154978082807870E-01 
    5.5529426779517976E-01 
    5.5528774837546147E-01 
    5.4154379092176497E-01 
    5.4153788022138150E-01 
    5.5528125846807974E-01 
    5.5527482608085499E-01 
    5.4153208222045279E-01 
    5.4152643027492808E-01 
    5.5526847833024762E-01 
    5.5526224079015341E-01 
    5.4152095702987824E-01 
    5.4151569352830098E-01 
    5.5525613653559336E-01 
    5.5525018468892151E-01 
    5.4151066778607260E-01 
    5.4150590244240304E-01 
    5.5524439812606774E-01 
    5.5523877971515967E-01 
    5.4150141075928626E-01 
    5.4149718957455384E-01 
    5.5523331590168112E-01 
    5.5522796529874696E-01 
    5.4149320638309861E-01 
    5.4148937420996035E-01 
    5.5522263726691612E-01 
    5.5521714805195921E-01 
    5.4148549730118323E-01 
    5.4148112889330746E-01 
    5.5521111614406982E-01 
    5.5520367553293581E-01 
    5.4147506405851265E-01 
    5.4146872638793586E-01 
    5.5519638520606396E-01 
    5.2749645390974276E-01 
    5.1295645236267051E-01 
    5.1295601547574154E-01 
    5.2749601391424195E-01 
    5.2749514111422680E-01 
    5.1295514896788319E-01 
    5.1295386406419952E-01 
    5.2749384654826670E-01 
    5.2749214261603194E-01 
    5.1295217343572386E-01 
    5.1295009088298771E-01 
    5.2749004282889012E-01 
    5.2748756182607137E-01 
    5.1294763133220134E-01 
    5.1294481086965649E-01 
    5.2748471541105024E-01 
    5.2748152058210418E-01 
    5.1294164677730503E-01 
    5.1293815756474603E-01 
    5.2747799555600794E-01 
    5.2747415978685830E-01 
    5.1293436299820871E-01 
    5.1293028412797692E-01 
    5.2747003398200532E-01 
    5.2746564011662289E-01 
    5.1292594331562968E-01 
    5.1292136426222990E-01 
    5.2746100144800345E-01 
    5.2745614253031448E-01 
    5.1291657203835783E-01 
    5.1291159311669066E-01 
    5.2745108923026363E-01 
    5.2744586874386923E-01 
    5.1290645540766011E-01 
    5.1290118829857301E-01 
    5.2744050961428690E-01 
    5.2743504175035461E-01 
    5.1289582269641187E-01 
    5.1289039107430978E-01 
    5.2742949644514914E-01 
    5.2742390639331982E-01 
    5.1288492752138082E-01 
    5.1287946779508653E-01 
    5.2741830570518666E-01 
    5.2741272991438326E-01 
    5.1287404937450665E-01 
    5.1286871151155344E-01 
    5.2740721597394447E-01 
    5.2740180223268229E-01 
    5.1286349527489983E-01 
    5.1285844357752475E-01 
    5.2739652837867601E-01 
    5.2739143532821176E-01 
    5.1285360117197021E-01 
    5.1284901458527077E-01 
    5.2738656502380887E-01 
    5.2738196007888394E-01 
    5.1284473194336122E-01 
    5.1284080259361842E-01 
    5.2737766315916101E-01 
    5.2737371590275761E-01 
    5.1283727635657417E-01 
    5.1283420208955044E-01 
    5.2737015701374901E-01 
    5.2736701884056902E-01 
    5.1283162495768608E-01 
    5.1282958123151801E-01 
    5.2736432110184495E-01 
    5.2736205900526922E-01 
    5.1282808814822556E-01 
    5.1282712283299936E-01 