# vtk DataFile Version 2.0
Pressure Field Data 
ASCII 
DATASET UNSTRUCTURED_GRID 

POINTS 1681 double 

    0.0000000000000000E+00     0.0000000000000000E+00     0.0000000000000000E+00 
    1.0000000000000000E+00     0.0000000000000000E+00     0.0000000000000000E+00 
    1.0000000000000000E+00     1.0000000000000000E+00     0.0000000000000000E+00 
    0.0000000000000000E+00     1.0000000000000000E+00     0.0000000000000000E+00 
    5.2499999999875258E-01     0.0000000000000000E+00     0.0000000000000000E+00 
    7.4999999999856765E-02     0.0000000000000000E+00     0.0000000000000000E+00 
    1.2499999999975850E-01     0.0000000000000000E+00     0.0000000000000000E+00 
    1.7499999999962990E-01     0.0000000000000000E+00     0.0000000000000000E+00 
    2.2499999999948389E-01     0.0000000000000000E+00     0.0000000000000000E+00 
    2.7499999999933789E-01     0.0000000000000000E+00     0.0000000000000000E+00 
    3.2499999999919210E-01     0.0000000000000000E+00     0.0000000000000000E+00 
    3.7499999999904610E-01     0.0000000000000000E+00     0.0000000000000000E+00 
    4.2499999999890020E-01     0.0000000000000000E+00     0.0000000000000000E+00 
    4.7499999999875958E-01     0.0000000000000000E+00     0.0000000000000000E+00 
    2.4999999999949701E-02     0.0000000000000000E+00     0.0000000000000000E+00 
    5.7499999999887907E-01     0.0000000000000000E+00     0.0000000000000000E+00 
    6.2499999999901101E-01     0.0000000000000000E+00     0.0000000000000000E+00 
    6.7499999999914273E-01     0.0000000000000000E+00     0.0000000000000000E+00 
    7.2499999999927467E-01     0.0000000000000000E+00     0.0000000000000000E+00 
    7.7499999999940661E-01     0.0000000000000000E+00     0.0000000000000000E+00 
    8.2499999999953844E-01     0.0000000000000000E+00     0.0000000000000000E+00 
    8.7499999999967026E-01     0.0000000000000000E+00     0.0000000000000000E+00 
    9.2499999999980220E-01     0.0000000000000000E+00     0.0000000000000000E+00 
    9.7499999999993414E-01     0.0000000000000000E+00     0.0000000000000000E+00 
    5.4999999999881310E-01     0.0000000000000000E+00     0.0000000000000000E+00 
    9.9999999999814140E-02     0.0000000000000000E+00     0.0000000000000000E+00 
    1.4999999999970290E-01     0.0000000000000000E+00     0.0000000000000000E+00 
    1.9999999999955689E-01     0.0000000000000000E+00     0.0000000000000000E+00 
    2.4999999999941089E-01     0.0000000000000000E+00     0.0000000000000000E+00 
    2.9999999999926502E-01     0.0000000000000000E+00     0.0000000000000000E+00 
    3.4999999999911913E-01     0.0000000000000000E+00     0.0000000000000000E+00 
    3.9999999999897312E-01     0.0000000000000000E+00     0.0000000000000000E+00 
    4.4999999999882723E-01     0.0000000000000000E+00     0.0000000000000000E+00 
    4.9999999999869210E-01     0.0000000000000000E+00     0.0000000000000000E+00 
    4.9999999999899403E-02     0.0000000000000000E+00     0.0000000000000000E+00 
    5.9999999999894504E-01     0.0000000000000000E+00     0.0000000000000000E+00 
    6.4999999999907687E-01     0.0000000000000000E+00     0.0000000000000000E+00 
    6.9999999999920870E-01     0.0000000000000000E+00     0.0000000000000000E+00 
    7.4999999999934064E-01     0.0000000000000000E+00     0.0000000000000000E+00 
    7.9999999999947247E-01     0.0000000000000000E+00     0.0000000000000000E+00 
    8.4999999999960441E-01     0.0000000000000000E+00     0.0000000000000000E+00 
    8.9999999999973623E-01     0.0000000000000000E+00     0.0000000000000000E+00 
    9.4999999999986817E-01     0.0000000000000000E+00     0.0000000000000000E+00 
    1.0000000000000000E+00     5.2499999999875258E-01     0.0000000000000000E+00 
    1.0000000000000000E+00     7.4999999999856765E-02     0.0000000000000000E+00 
    1.0000000000000000E+00     1.2499999999975850E-01     0.0000000000000000E+00 
    1.0000000000000000E+00     1.7499999999962990E-01     0.0000000000000000E+00 
    1.0000000000000000E+00     2.2499999999948389E-01     0.0000000000000000E+00 
    1.0000000000000000E+00     2.7499999999933789E-01     0.0000000000000000E+00 
    1.0000000000000000E+00     3.2499999999919210E-01     0.0000000000000000E+00 
    1.0000000000000000E+00     3.7499999999904610E-01     0.0000000000000000E+00 
    1.0000000000000000E+00     4.2499999999890020E-01     0.0000000000000000E+00 
    1.0000000000000000E+00     4.7499999999875958E-01     0.0000000000000000E+00 
    1.0000000000000000E+00     2.4999999999949701E-02     0.0000000000000000E+00 
    1.0000000000000000E+00     5.7499999999887907E-01     0.0000000000000000E+00 
    1.0000000000000000E+00     6.2499999999901101E-01     0.0000000000000000E+00 
    1.0000000000000000E+00     6.7499999999914273E-01     0.0000000000000000E+00 
    1.0000000000000000E+00     7.2499999999927467E-01     0.0000000000000000E+00 
    1.0000000000000000E+00     7.7499999999940661E-01     0.0000000000000000E+00 
    1.0000000000000000E+00     8.2499999999953844E-01     0.0000000000000000E+00 
    1.0000000000000000E+00     8.7499999999967026E-01     0.0000000000000000E+00 
    1.0000000000000000E+00     9.2499999999980220E-01     0.0000000000000000E+00 
    1.0000000000000000E+00     9.7499999999993414E-01     0.0000000000000000E+00 
    1.0000000000000000E+00     5.4999999999881310E-01     0.0000000000000000E+00 
    1.0000000000000000E+00     9.9999999999814140E-02     0.0000000000000000E+00 
    1.0000000000000000E+00     1.4999999999970290E-01     0.0000000000000000E+00 
    1.0000000000000000E+00     1.9999999999955689E-01     0.0000000000000000E+00 
    1.0000000000000000E+00     2.4999999999941089E-01     0.0000000000000000E+00 
    1.0000000000000000E+00     2.9999999999926502E-01     0.0000000000000000E+00 
    1.0000000000000000E+00     3.4999999999911913E-01     0.0000000000000000E+00 
    1.0000000000000000E+00     3.9999999999897312E-01     0.0000000000000000E+00 
    1.0000000000000000E+00     4.4999999999882723E-01     0.0000000000000000E+00 
    1.0000000000000000E+00     4.9999999999869210E-01     0.0000000000000000E+00 
    1.0000000000000000E+00     4.9999999999899403E-02     0.0000000000000000E+00 
    1.0000000000000000E+00     5.9999999999894504E-01     0.0000000000000000E+00 
    1.0000000000000000E+00     6.4999999999907687E-01     0.0000000000000000E+00 
    1.0000000000000000E+00     6.9999999999920870E-01     0.0000000000000000E+00 
    1.0000000000000000E+00     7.4999999999934064E-01     0.0000000000000000E+00 
    1.0000000000000000E+00     7.9999999999947247E-01     0.0000000000000000E+00 
    1.0000000000000000E+00     8.4999999999960441E-01     0.0000000000000000E+00 
    1.0000000000000000E+00     8.9999999999973623E-01     0.0000000000000000E+00 
    1.0000000000000000E+00     9.4999999999986817E-01     0.0000000000000000E+00 
    4.7500000000196618E-01     1.0000000000000000E+00     0.0000000000000000E+00 
    9.2499999999968763E-01     1.0000000000000000E+00     0.0000000000000000E+00 
    8.7499999999961831E-01     1.0000000000000000E+00     0.0000000000000000E+00 
    8.2499999999982654E-01     1.0000000000000000E+00     0.0000000000000000E+00 
    7.7500000000017355E-01     1.0000000000000000E+00     0.0000000000000000E+00 
    7.2500000000052045E-01     1.0000000000000000E+00     0.0000000000000000E+00 
    6.7500000000086724E-01     1.0000000000000000E+00     0.0000000000000000E+00 
    6.2500000000121403E-01     1.0000000000000000E+00     0.0000000000000000E+00 
    5.7500000000156093E-01     1.0000000000000000E+00     0.0000000000000000E+00 
    5.2500000000189684E-01     1.0000000000000000E+00     0.0000000000000000E+00 
    9.7499999999989595E-01     1.0000000000000000E+00     0.0000000000000000E+00 
    4.2500000000176902E-01     1.0000000000000000E+00     0.0000000000000000E+00 
    3.7500000000156092E-01     1.0000000000000000E+00     0.0000000000000000E+00 
    3.2500000000135282E-01     1.0000000000000000E+00     0.0000000000000000E+00 
    2.7500000000114472E-01     1.0000000000000000E+00     0.0000000000000000E+00 
    2.2500000000093659E-01     1.0000000000000000E+00     0.0000000000000000E+00 
    1.7500000000072849E-01     1.0000000000000000E+00     0.0000000000000000E+00 
    1.2500000000052039E-01     1.0000000000000000E+00     0.0000000000000000E+00 
    7.5000000000312261E-02     1.0000000000000000E+00     0.0000000000000000E+00 
    2.5000000000104109E-02     1.0000000000000000E+00     0.0000000000000000E+00 
    4.5000000000187301E-01     1.0000000000000000E+00     0.0000000000000000E+00 
    8.9999999999958358E-01     1.0000000000000000E+00     0.0000000000000000E+00 
    8.4999999999965303E-01     1.0000000000000000E+00     0.0000000000000000E+00 
    8.0000000000000004E-01     1.0000000000000000E+00     0.0000000000000000E+00 
    7.5000000000034706E-01     1.0000000000000000E+00     0.0000000000000000E+00 
    7.0000000000069384E-01     1.0000000000000000E+00     0.0000000000000000E+00 
    6.5000000000104063E-01     1.0000000000000000E+00     0.0000000000000000E+00 
    6.0000000000138742E-01     1.0000000000000000E+00     0.0000000000000000E+00 
    5.5000000000173432E-01     1.0000000000000000E+00     0.0000000000000000E+00 
    5.0000000000205946E-01     1.0000000000000000E+00     0.0000000000000000E+00 
    9.4999999999979179E-01     1.0000000000000000E+00     0.0000000000000000E+00 
    4.0000000000166491E-01     1.0000000000000000E+00     0.0000000000000000E+00 
    3.5000000000145681E-01     1.0000000000000000E+00     0.0000000000000000E+00 
    3.0000000000124871E-01     1.0000000000000000E+00     0.0000000000000000E+00 
    2.5000000000104061E-01     1.0000000000000000E+00     0.0000000000000000E+00 
    2.0000000000083251E-01     1.0000000000000000E+00     0.0000000000000000E+00 
    1.5000000000062441E-01     1.0000000000000000E+00     0.0000000000000000E+00 
    1.0000000000041630E-01     1.0000000000000000E+00     0.0000000000000000E+00 
[...]
CELL_DATA 1600 
SCALARS Pressure double 1 
LOOKUP_TABLE default 

    9.2495775811802006E-01 
    9.0532004509938979E-01 
    9.0521924225163486E-01 
    9.2302241386936479E-01 
    9.2122302613774654E-01 
    9.0503620681000241E-01 
    9.0478710705675169E-01 
    9.1955276770570782E-01 
    9.1799961473871672E-01 
    9.0448518521461940E-01 
    9.0414153253209806E-01 
    9.1655256527388751E-01 
    9.1520181722253602E-01 
    9.0376546198845997E-01 
    9.0336480479298598E-01 
    9.1393870200427085E-01 
    9.1275557362642656E-01 
    9.0294615370629583E-01 
    9.0251506469789289E-01 
    9.1164569427374254E-01 
    9.1060312763552353E-01 
    9.0207622486365413E-01 
    9.0163359264863285E-01 
    9.0962264296830597E-01 
    9.0869963017172017E-01 
    9.0119051517866322E-01 
    9.0074982659154335E-01 
    9.0783002519747114E-01 
    9.0701024480025494E-01 
    9.0031393055277131E-01 
    8.9988486958008462E-01 
    9.0623712958450964E-01 
    9.0550789434953372E-01 
    8.9946438334855094E-01 
    8.9905395777908748E-01 
    9.0482008482334586E-01 
    9.0417153997450761E-01 
    8.9865486641063419E-01 
    8.9826820530668205E-01 
    9.0356035918840738E-01 
    9.0298487368486102E-01 
    8.9789492254042880E-01 
    8.9753584313155577E-01 
    9.0244362163534697E-01 
    9.0193532651044228E-01 
    8.9719169016514344E-01 
    8.9686310270423852E-01 
    9.0145887825127402E-01 
    9.0101331691362474E-01 
    8.9655065100760534E-01 
    8.9625484947907208E-01 
    9.0059781848009979E-01 
    9.0021168257419815E-01 
    8.9597616770029487E-01 
    8.9571503982916023E-01 
    8.9985432183883063E-01 
    8.9952525275631012E-01 
    8.9547187257238980E-01 
    8.9524705184539166E-01 
    8.9922408767585560E-01 
    8.9895052774927209E-01 
    8.9504094807501189E-01 
    8.9485391978370821E-01 
    8.9870435628009471E-01 
    8.9848543145897664E-01 
    8.9468631436253787E-01 
    8.9453846310345808E-01 
    8.9829367599413823E-01 
    8.9812905698634549E-01 
    8.9441066269825453E-01 
    8.9430312239334842E-01 
    8.9799153738230275E-01 
    8.9788094750659753E-01 
    8.9421582331955041E-01 
    8.9414817194666762E-01 
    8.9779665408595821E-01 
    8.9773692694030538E-01 
    8.9409839846716455E-01 
    8.9406895068138292E-01 
    8.9770267187327368E-01 
    8.9306544917432540E-01 
    8.8156081259711749E-01 
    8.8155020083367630E-01 
    8.9304057697101491E-01 
    8.9299141956178463E-01 
    8.8152906748250071E-01 
    8.8149762955773336E-01 
    8.9291911171620175E-01 
    8.9282510443549201E-01 
    8.8145619672730624E-01 
    8.8140516422339776E-01 
    8.9271106077306128E-01 
    8.9257877426870780E-01 
    8.8134500272311522E-01 
    8.8127624733520060E-01 
    8.9243010587667260E-01 
    8.9226693620414432E-01 
    8.8119948666621173E-01 
    8.8111535243746519E-01 
    8.9209113003135110E-01 
    8.9190451055179054E-01 
    8.8102450989323078E-01 
    8.8092764911598609E-01 
    8.9170884123890370E-01 
    8.9150581365059667E-01 
    8.8082547728950944E-01 
    8.8071871190312978E-01 
    8.9129703981924835E-01 
    8.9108404814928899E-01 
    8.8060807486025239E-01 
    8.8049428743557201E-01 
    8.9086828196674606E-01 
    8.9065110004433468E-01 
    8.8037806601464774E-01 
    8.8026011854425568E-01 
    8.9043377856965555E-01 
    8.9021751413940786E-01 
    8.8014114162047208E-01 
    8.8002181814245040E-01 
    8.9000342745464711E-01 
    8.8979256746539259E-01 
    8.7990281546234539E-01 
    8.7978478396495774E-01 
    8.8958591577084456E-01 
    8.8938439112683765E-01 
    8.7966835601364113E-01 
    8.7955414520086572E-01 
    8.8918885394696290E-01 
    8.8900011070925034E-01 
    8.7944274584128845E-01 
    8.7933473264005857E-01 
    8.8881891819673375E-01 
    8.8864598750627422E-01 
    8.7923066045540665E-01 
    8.7913106404459906E-01 
    8.8848198775158416E-01 
    8.8832754935340508E-01 
    8.7903645762030025E-01 
    8.7894733391674174E-01 
    8.8818326672911019E-01 
    8.8804970001181238E-01 
    8.7886416219820751E-01 
    8.7878738406897128E-01 
    8.8792737501647812E-01 
    8.8781677970888040E-01 
    8.7871740467635018E-01 
    8.7865457402798852E-01 
    8.8771835311544856E-01 
    8.8763245689928783E-01 
    8.7859914654541404E-01 
    8.7855119170210361E-01 
    8.8755930583041820E-01 
    8.8749880082962285E-01 
    8.7851039286517940E-01 
    8.7847559781316953E-01 
    8.8745014575622572E-01 
    8.8741130179886729E-01 
    8.7844485016918328E-01 
    8.7842486946318810E-01 
    8.8738691594966801E-01 
    8.6967085414987766E-01 
    8.5706394341770442E-01 
    8.5706023216351168E-01 
    8.6966509993671648E-01 
    8.6965363215055635E-01 
    8.5705284068939691E-01 
    8.5704182893138026E-01 
    8.6963654161795712E-01 
    8.6961395345048920E-01 
    8.5702727349019714E-01 
    8.5700926848239245E-01 
    8.6958602762727910E-01 
    8.6955295764358076E-01 
    8.5698792543255875E-01 
    8.5696337268872347E-01 
    8.6951496833398512E-01 
    8.6947231331362118E-01 
    8.5693575460160065E-01 
    8.5690523057610446E-01 
    8.6942527224228905E-01 
    8.6937414802571100E-01 
    8.5687197405066395E-01 
    8.5683617143662616E-01 
    8.6931926402695014E-01 
    8.6926096133869846E-01 
    8.5679802103868652E-01 
    8.5675773197114924E-01 
    8.6919959615285847E-01 
    8.6913553725358383E-01 
    8.5671552308101817E-01 
    8.5667162188622969E-01 
    8.6906916365196185E-01 
    8.6900086237404883E-01 
    8.5662626353511251E-01 
    8.5657968979105781E-01 
    8.6893102640856368E-01 
    8.6886005281592193E-01 
    8.5653214804415845E-01 
    8.5648389034897709E-01 
    8.6878834099616531E-01 
    8.6871629110944060E-01 
    8.5643517248430012E-01 
    8.5638625302621774E-01 
    8.6864430263855918E-01 
    8.6857277307824965E-01 
    8.5633739241933027E-01 
    8.5628885202084615E-01 
    8.6850209672897116E-01 
    8.6843266356286286E-01 
    8.5624089307632312E-01 
    8.5619377555917897E-01 
    8.6836485811245756E-01 
    8.6829905830332299E-01 
    8.5614775676024879E-01 
    8.5610308943200408E-01 
    8.6823563409846438E-01 
    8.6817494572232357E-01 
    8.5606001914158658E-01 
    8.5601878020026012E-01 
    8.6811734103834959E-01 
    8.6806315126596101E-01 
    8.5597958897355697E-01 
    8.5594263223415756E-01 
    8.6801268342142723E-01 
    8.6796620616783915E-01 
    8.5590804582847868E-01 
    8.5587587371014850E-01 
    8.6792392206409896E-01 
    8.6788591090523093E-01 
    8.5584598517212918E-01 
    8.5581789588693236E-01 
    8.6785200905980120E-01 
    8.6782153774881976E-01 
    8.5579034530567899E-01 
    8.5576057641034253E-01 
    8.6779268942151200E-01 
    8.6776538135575865E-01 
    8.5573245911050277E-01 
    8.5571801537092551E-01 
    8.6774902377679763E-01 
    8.4363198309532617E-01 
    8.2934545382108238E-01 
    8.2934313810038063E-01 
    8.4362921488720111E-01 
    8.4362370661596309E-01 
    8.2933853334960772E-01 
    8.2933168426994019E-01 
    8.4361550766927118E-01 
    8.4360467751512502E-01 
    8.2932264286603741E-01 
    8.2931146820283963E-01 
    8.4359128603096623E-01 
    8.4357541358403620E-01 
    8.2929822645214291E-01 
    8.2928299084281853E-01 
    8.4355715085408745E-01 
    8.4353659850990848E-01 
    8.2926584152413785E-01 
    8.2924686536985914E-01 
    8.4351386680166107E-01 
    8.4348907510326554E-01 
    8.2922615574361969E-01 
    8.2920381223898709E-01 
    8.4346235142464798E-01 
    8.4343383190591859E-01 
    8.2917994040245979E-01 
    8.2915465144428047E-01 
    8.4340366030115654E-01 
    8.4337198745678976E-01 
    8.2912806193952659E-01 
    8.2910029352002768E-01 
    8.4333897078768616E-01 
    8.4330477375252511E-01 
    8.2907147255589320E-01 
    8.2904172982348057E-01 
    8.4326956532846564E-01 
    8.4323351948326286E-01 
    8.2901120015415719E-01 
    8.2898002205480092E-01 
    8.4319681464051222E-01 
    8.4315963313012998E-01 
    8.2894833728599893E-01 
    8.2891629037635284E-01 
    8.4312216061084377E-01 
    8.4308458544318421E-01 
    8.2888402803956440E-01 
    8.2885169844221041E-01 
    8.4304709797824806E-01 
    8.4300988970580926E-01 
    8.2881945023933135E-01 
    8.2878743124297172E-01 
    8.4297315216874991E-01 
    8.4293707548715369E-01 
    8.2875578649828918E-01 
    8.2872465537926721E-01 
    8.4290184622153863E-01 
    8.4286764409445014E-01 
    8.2869416701383625E-01 
    8.2866443276532120E-01 
    8.4283463668861891E-01 
    8.4280297044985486E-01 
    8.2863553332791329E-01 
    8.2860749553468804E-01 
    8.4277275470989987E-01 
    8.4274403200526582E-01 
    8.2858024847744216E-01 
    8.2855353509485485E-01 
    8.4271672013712751E-01 
    8.4269049158780052E-01 
    8.2852671825922319E-01 
    8.2849831079868186E-01 
    8.4266449854129133E-01 
    8.4263670564944737E-01 
    8.2846511952963364E-01 
    8.2842985936946989E-01 
    8.4260509305618869E-01 
    8.4257823022179079E-01 
    8.2840592126341361E-01 
    8.2839575721328973E-01 
    8.4256567500922164E-01 
    8.1420400203014642E-01 
    7.9821678151324427E-01 
    7.9821476789864787E-01 
    8.1420190064311337E-01 
    8.1419772342882601E-01 
    7.9821076512241118E-01 
    7.9820481323658798E-01 
    8.1419151240873866E-01 
    8.1418331567441649E-01 
    7.9819695780759103E-01 
    7.9818724875782265E-01 
    8.1417318664405847E-01 
    8.1416118401642745E-01 
    7.9817574021063675E-01 
    7.9816249047424792E-01 
    8.1414737175761209E-01 
    8.1413181904746590E-01 
    7.9814756202463355E-01 
    7.9813102146237114E-01 
    8.1411460018489390E-01 
    8.1409579446117053E-01 
    7.9811293944244455E-01 
    7.9809339058051276E-01 
    8.1407548600955260E-01 
    8.1405376363682214E-01 
    7.9807245333871335E-01 
    7.9805020989241759E-01 
    8.1403072063989346E-01 
    8.1400645460844989E-01 
    7.9802674597740042E-01 
    7.9800215071473157E-01 
    8.1398106721256769E-01 
    8.1395466397217786E-01 
    7.9797651640816658E-01 
    7.9794993830560090E-01 
    8.1392735400272531E-01 
    8.1389924972807182E-01 
    7.9792251431176531E-01 
    7.9789434463304942E-01 
    8.1387046654706174E-01 
    8.1384112243332229E-01 
    7.9786553132597349E-01 
    7.9783617770647530E-01 
    8.1381133743747347E-01 
    8.1378123304467498E-01 
    7.9780638755460642E-01 
    7.9777626401274726E-01 
    8.1375093131437848E-01 
    8.1372055368619822E-01 
    7.9774590801471723E-01 
    7.9771541597838458E-01 
    8.1369021926270213E-01 
    8.1366004225141264E-01 
    7.9768487630721452E-01 
    7.9765436389840383E-01 
    8.1363012801450629E-01 
    8.1360056673200765E-01 
    7.9762393117837838E-01 
    7.9759359279939512E-01 
    8.1357142280862249E-01 
    8.1354271633516340E-01 
    7.9756329810980930E-01 
    7.9753287843650078E-01 
    8.1351438890181937E-01 
    8.1348623648091534E-01 
    7.9750193808348135E-01 
    7.9746960680718360E-01 
    8.1345776677685167E-01 
    8.1342786449141691E-01 
    7.9743393118232209E-01 
    7.9739110631868737E-01 
    8.1339398316071154E-01 
    8.1335362217554275E-01 
    7.9734498897377049E-01 
    7.9731129882069474E-01 
    8.1331664786479385E-01 
    8.1329497501370895E-01 
    7.9729248329406144E-01 
    7.9728363256058776E-01 
    8.1328589034528431E-01 
    7.8139395651851185E-01 
    7.6374267607694990E-01 
    7.6374062305739998E-01 
    7.8139195307086939E-01 
    7.8138796940978672E-01 
    7.6373653880014913E-01 
    7.6373045957296726E-01 
    7.8138204377379417E-01 
    7.8137421966121146E-01 
    7.6372242679193880E-01 
    7.6371248524801627E-01 
    7.8136454433166558E-01 
    7.8135306853841313E-01 
    7.6370068273171299E-01 
    7.6368706995558577E-01 
    7.8133984648672827E-01 
    7.8132493582451856E-01 
    7.6367170053760602E-01 
    7.6365463098181663E-01 
    7.8130839761927495E-01 
    7.8129029631099312E-01 
    7.6363592063742680E-01 
    7.6361563163020074E-01 
    7.8127069963967544E-01 
    7.8124967854745830E-01 
    7.6359382876296023E-01 
    7.6357057938153972E-01 
    7.8122730705441479E-01 
    7.8120366210517678E-01 
    7.6354595320048513E-01 
    7.6352002207965441E-01 
    7.8117882338097544E-01 
    7.8115287306841985E-01 
    7.6349285973850767E-01 
    7.6346454138873765E-01 
    7.8112589557193135E-01 
    7.8109797715057239E-01 
    7.6343514325707384E-01 
    7.6340474195699282E-01 
    7.8106920545101544E-01 
    7.8103966889488818E-01 
    7.6337341364812616E-01 
    7.6334123289096756E-01 
    7.8100945585788306E-01 
    7.8097865354500939E-01 
    7.6330827105443166E-01 
    7.6327459405083631E-01 
    7.8094734641258245E-01 
    7.8091561389686825E-01 
    7.6324025903022019E-01 
    7.6320530941079623E-01 
    7.8088352705056419E-01 
    7.8085114339902673E-01 
    7.6316976714596052E-01 
    7.6313362018847264E-01 
    7.8081849877610632E-01 
    7.8078559378682622E-01 
    7.6309680113563705E-01 
    7.6305914860313251E-01 
    7.8075237016655474E-01 
    7.8071866683881441E-01 
    7.6302033207661912E-01 
    7.6297969234925966E-01 
    7.8068413181165286E-01 
    7.8064802871007377E-01 
    7.6293587010131214E-01 
    7.6288595120880642E-01 
    7.8060877140362261E-01 
    7.8056293315232994E-01 
    7.6282627418399906E-01 
    7.6276585606303049E-01 
    7.8050927159477379E-01 
    7.8046162090482185E-01 
    7.6272226412618904E-01 
    7.6269463820545058E-01 
    7.8043141938610749E-01 
    7.8041398184047128E-01 
    7.6267686824099357E-01 
    7.6266798366838440E-01 
    7.8040530512968853E-01 
    7.4526467995732038E-01 
    7.2595430436541020E-01 
    7.2595194527859153E-01 
    7.4526251450600400E-01 
    7.4525820340592430E-01 
    7.2594724391838117E-01 
    7.2594022992276519E-01 
    7.4525178029539807E-01 
    7.4524328383907645E-01 
    7.2593093771356454E-01 
    7.2591940433812663E-01 
    7.4523275573308101E-01 
    7.4522024022325972E-01 
    7.2590566888571972E-01 
    7.2588977229265783E-01 
    7.4520578397618831E-01 
    7.4518943603199850E-01 
    7.2587175724013020E-01 
    7.2585166805276180E-01 
    7.4517124776009092E-01 
    7.4515127279068016E-01 
    7.2582955056287279E-01 
    7.2580545192230406E-01 
    7.4512956691056098E-01 
    7.4510618791535710E-01 
    7.2577942034744392E-01 
    7.2575150478158135E-01 
    7.4508119540997297E-01 
    7.4505465054617137E-01 
    7.2572175445395659E-01 
    7.2569021830717217E-01 
    7.4502661568159090E-01 
    7.4499715393784649E-01 
    7.2565694425318295E-01 
    7.2562197820128527E-01 
    7.4496632862571854E-01 
    7.4493420249131392E-01 
    7.2558536277639374E-01 
    7.2554713560760675E-01 
    7.4490083671586915E-01 
    7.4486628956920597E-01 
    7.2550732700735332E-01 
    7.2546595676578451E-01 
    7.4483061456530542E-01 
    7.4479385788449737E-01 
    7.2542302962643657E-01 
    7.2537852873433351E-01 
    7.4475605468484618E-01 
    7.4471722367544102E-01 
    7.2533240584894476E-01 
    7.2528456616880677E-01 
    7.4467735886603870E-01 
    7.4463641652758916E-01 
    7.2523484373388658E-01 
    7.2518295937662636E-01 
    7.4459429359936979E-01 
    7.4455078981657241E-01 
    7.2512844401037790E-01 
    7.2507048760907888E-01 
    7.4450553646978135E-01 
    7.4445785080331317E-01 
    7.2500761931992630E-01 
    7.2493704668054704E-01 
    7.4440641109787231E-01 
    7.4434852340005586E-01 
    7.2485456185262021E-01 
    7.2476361544725221E-01 
    7.4427993125997405E-01 
    7.4420556770283042E-01 
    7.2468499191738367E-01 
    7.2463003220658784E-01 
    7.4414558607455406E-01 
    7.4410574624036452E-01 
    7.2459087365809893E-01 
    7.2456175553626412E-01 
    7.4407840585285712E-01 
    7.4406019624725050E-01 
    7.2454233911851007E-01 
    7.2453262959991660E-01 
    7.4405108952219978E-01 
    7.0579545391999132E-01 
    6.8475612476926528E-01 
    6.8475294367024686E-01 
    7.0579278041583260E-01 
    7.0578744518221581E-01 
    6.8474658394106480E-01 
    6.8473705523730077E-01 
    7.0577947095428772E-01 
    7.0576888463898224E-01 
    6.8472436985572072E-01 
    6.8470854049690721E-01 
    7.0575571506656387E-01 
    7.0573999230463169E-01 
    6.8468957944772924E-01 
    6.8466749810320537E-01 
    7.0572174736681226E-01 
    7.0570101200547253E-01 
    6.8464230651764135E-01 
    6.8461401287124124E-01 
    7.0567781848540789E-01 
    7.0565219929457956E-01 
    6.8458262279397286E-01 
    6.8454813849965346E-01 
    7.0562418676419869E-01 
    7.0559381257186526E-01 
    6.8451055767627533E-01 
    6.8446987206326049E-01 
    7.0556110709662945E-01 
    7.0552609858507453E-01 
    6.8442606562206931E-01 
    6.8437911216970371E-01 
    7.0548881207223479E-01 
    7.0544926797835106E-01 
    6.8432897228912104E-01 
    6.8427558924571941E-01 
    7.0540748026829547E-01 
    7.0536345400840572E-01 
    6.8421888350649795E-01 
    6.8415874524695852E-01 
    7.0531718207447347E-01 
    7.0526864063578754E-01 
    6.8409502388529075E-01 
    6.8402751310293886E-01 
    7.0521778282937497E-01 
    7.0516452968033905E-01 
    6.8395592879917566E-01 
    6.8387987558443530E-01 
    7.0510875668533646E-01 
    7.0505027327714009E-01 
    6.8379879392020160E-01 
    6.8371187332568717E-01 
    7.0498879002921622E-01 
    7.0492386360419501E-01 
    6.8361790558460078E-01 
    6.8351504411655839E-01 
    7.0485479894751280E-01 
    7.0478046493210667E-01 
    6.8340053124272548E-01 
    6.8327127682518196E-01 
    7.0469893776059300E-01 
    7.0460696359587405E-01 
    6.8312838301046042E-01 
    6.8298404569478799E-01 
    7.0450112663902875E-01 
    7.0438706274230889E-01 
    6.8286016590743059E-01 
    6.8276716612393207E-01 
    7.0428647782206721E-01 
    7.0421281312351536E-01 
    6.8269672929247727E-01 
    6.8263995400785027E-01 
    7.0415866251807613E-01 
    7.0411636285846146E-01 
    6.8259459283424473E-01 
    6.8256060081345959E-01 
    7.0408464338825794E-01 
    7.0406349897287113E-01 
    6.8253795322672639E-01 
    6.8252663356499088E-01 
    7.0405292734132774E-01 
    6.6277703107575980E-01 
    6.3974591497911026E-01 
    6.3974044091550708E-01 
    6.6277301592666937E-01 
    6.6276496974491184E-01 
    6.3972943873230370E-01 
    6.3971283731879591E-01 
    6.6275287599136556E-01 
    6.6273671727621986E-01 
    6.3969055715360590E-01 
    6.3966250825071636E-01 
    6.6271647325890148E-01 
    6.6269211956043050E-01 
    6.3962858812245804E-01 
    6.3958867932031760E-01 
    6.6266362681659685E-01 
    6.6263095958741580E-01 
    6.3954264634249836E-01 
    6.3949033173268000E-01 
    6.6259407499173051E-01 
    6.6255292097203444E-01 
    6.3943155115836525E-01 
    6.3936608719216348E-01 
    6.6250743408856738E-01 
    6.6245753670723717E-01 
    6.3929368137643205E-01 
    6.3921402395603077E-01 
    6.6240313339526802E-01 
    6.6234410626639550E-01 
    6.3912674040994566E-01 
    6.3903137360834217E-01 
    6.6228030890911194E-01 
    6.6221155836757239E-01 
    6.3892736022086016E-01 
    6.3881400034560909E-01 
    6.6213762438904689E-01 
    6.6205821474126714E-01 
    6.3869042143619503E-01 
    6.3855554433877615E-01 
    6.6197295472977702E-01 
    6.6188135793862202E-01 
    6.3840807659873244E-01 
    6.3824659574164366E-01 
    6.6178278347994457E-01 
    6.6167637277756508E-01 
    6.3806984687342827E-01 
    6.3787741949936605E-01 
    6.6156095822749239E-01 
    6.6143494807483116E-01 
    6.3767082833671507E-01 
    6.3745458516132147E-01 
    6.6129626087353865E-01 
    6.6114263809049867E-01 
    6.3723657500946096E-01 
    6.3702760986914719E-01 
    6.6097318247908265E-01 
    6.6079155673137346E-01 
    6.3684000306203492E-01 
    6.3668359517782092E-01 
    6.6060838404674815E-01 
    6.6044051896523959E-01 
    6.3656084503319099E-01 
    6.3646535078697075E-01 
    6.6030344694990928E-01 
    6.6019907777917985E-01 
    6.3638687695460350E-01 
    6.3631946685352314E-01 
    6.6011716577569712E-01 
    6.6004903905952339E-01 
    6.3626193491447303E-01 
    6.3621415577816598E-01 