# vtk DataFile Version 2.0
Pressure Field Data 
ASCII 
DATASET UNSTRUCTURED_GRID 

POINTS 1681 double 

    0.0000000000000000E+00     0.0000000000000000E+00     0.0000000000000000E+00 
    1.0000000000000000E+00     0.0000000000000000E+00     0.0000000000000000E+00 
    1.0000000000000000E+00     1.0000000000000000E+00     0.0000000000000000E+00 
    0.0000000000000000E+00     1.0000000000000000E+00     0.0000000000000000E+00 
    5.2499999999875258E-01     0.0000000000000000E+00     0.0000000000000000E+00 
    7.4999999999856765E-02     0.0000000000000000E+00     0.0000000000000000E+00 
    1.2499999999975850E-01     0.0000000000000000E+00     0.0000000000000000E+00 
    1.7499999999962990E-01     0.0000000000000000E+00     0.0000000000000000E+00 
    2.2499999999948389E-01     0.0000000000000000E+00     0.0000000000000000E+00 
    2.7499999999933789E-01     0.0000000000000000E+00     0.0000000000000000E+00 
    3.2499999999919210E-01     0.0000000000000000E+00     0.0000000000000000E+00 
    3.7499999999904610E-01     0.0000000000000000E+00     0.0000000000000000E+00 
    4.2499999999890020E-01     0.0000000000000000E+00     0.0000000000000000E+00 
    4.7499999999875958E-01     0.0000000000000000E+00     0.0000000000000000E+00 
    2.4999999999949701E-02     0.0000000000000000E+00     0.0000000000000000E+00 
    5.7499999999887907E-01     0.0000000000000000E+00     0.0000000000000000E+00 
    6.2499999999901101E-01     0.0000000000000000E+00     0.0000000000000000E+00 
    6.7499999999914273E-01     0.0000000000000000E+00     0.0000000000000000E+00 
    7.2499999999927467E-01     0.0000000000000000E+00     0.0000000000000000E+00 
    7.7499999999940661E-01     0.0000000000000000E+00     0.0000000000000000E+00 
    8.2499999999953844E-01     0.0000000000000000E+00     0.0000000000000000E+00 
    8.7499999999967026E-01     0.0000000000000000E+00     0.0000000000000000E+00 
    9.2499999999980220E-01     0.0000000000000000E+00     0.0000000000000000E+00 
    9.7499999999993414E-01     0.0000000000000000E+00     0.0000000000000000E+00 
    5.4999999999881310E-01     0.0000000000000000E+00     0.0000000000000000E+00 
    9.9999999999814140E-02     0.0000000000000000E+00     0.0000000000000000E+00 
    1.4999999999970290E-01     0.0000000000000000E+00     0.0000000000000000E+00 
    1.9999999999955689E-01     0.0000000000000000E+00     0.0000000000000000E+00 
    2.4999999999941089E-01     0.0000000000000000E+00     0.0000000000000000E+00 
    2.9999999999926502E-01     0.0000000000000000E+00     0.0000000000000000E+00 
    3.4999999999911913E-01     0.0000000000000000E+00     0.0000000000000000E+00 
    3.9999999999897312E-01     0.0000000000000000E+00     0.0000000000000000E+00 
    4.4999999999882723E-01     0.0000000000000000E+00     0.0000000000000000E+00 
    4.9999999999869210E-01     0.0000000000000000E+00     0.0000000000000000E+00 
    4.9999999999899403E-02     0.0000000000000000E+00     0.0000000000000000E+00 
    5.9999999999894504E-01     0.0000000000000000E+00     0.0000000000000000E+00 
    6.4999999999907687E-01     0.0000000000000000E+00     0.0000000000000000E+00 
    6.9999999999920870E-01     0.0000000000000000E+00     0.0000000000000000E+00 
    7.4999999999934064E-01     0.0000000000000000E+00     0.0000000000000000E+00 
    7.9999999999947247E-01     0.0000000000000000E+00     0.0000000000000000E+00 
    8.4999999999960441E-01     0.0000000000000000E+00     0.0000000000000000E+00 
    8.9999999999973623E-01     0.0000000000000000E+00     0.0000000000000000E+00 
    9.4999999999986817E-01     0.0000000000000000E+00     0.0000000000000000E+00 
    1.0000000000000000E+00     5.2499999999875258E-01     0.0000000000000000E+00 
    1.0000000000000000E+00     7.4999999999856765E-02     0.0000000000000000E+00 
    1.0000000000000000E+00     1.2499999999975850E-01     0.0000000000000000E+00 
    1.0000000000000000E+00     1.7499999999962990E-01     0.0000000000000000E+00 
    1.0000000000000000E+00     2.2499999999948389E-01     0.0000000000000000E+00 
    1.0000000000000000E+00     2.7499999999933789E-01     0.0000000000000000E+00 
    1.0000000000000000E+00     3.2499999999919210E-01     0.0000000000000000E+00 
    1.0000000000000000E+00     3.7499999999904610E-01     0.0000000000000000E+00 
    1.0000000000000000E+00     4.2499999999890020E-01     0.0000000000000000E+00 
    1.0000000000000000E+00     4.7499999999875958E-01     0.0000000000000000E+00 
    1.0000000000000000E+00     2.4999999999949701E-02     0.0000000000000000E+00 
    1.0000000000000000E+00     5.7499999999887907E-01     0.0000000000000000E+00 
    1.0000000000000000E+00     6.2499999999901101E-01     0.0000000000000000E+00 
    1.0000000000000000E+00     6.7499999999914273E-01     0.0000000000000000E+00 
    1.0000000000000000E+00     7.2499999999927467E-01     0.0000000000000000E+00 
    1.0000000000000000E+00     7.7499999999940661E-01     0.0000000000000000E+00 
    1.0000000000000000E+00     8.2499999999953844E-01     0.0000000000000000E+00 
    1.0000000000000000E+00     8.7499999999967026E-01     0.0000000000000000E+00 
    1.0000000000000000E+00     9.2499999999980220E-01     0.0000000000000000E+00 
    1.0000000000000000E+00     9.7499999999993414E-01     0.0000000000000000E+00 
    1.0000000000000000E+00     5.4999999999881310E-01     0.0000000000000000E+00 
    1.0000000000000000E+00     9.9999999999814140E-02     0.0000000000000000E+00 
    1.0000000000000000E+00     1.4999999999970290E-01     0.0000000000000000E+00 
    1.0000000000000000E+00     1.9999999999955689E-01     0.0000000000000000E+00 
    1.0000000000000000E+00     2.4999999999941089E-01     0.0000000000000000E+00 
    1.0000000000000000E+00     2.9999999999926502E-01     0.0000000000000000E+00 
    1.0000000000000000E+00     3.4999999999911913E-01     0.0000000000000000E+00 
    1.0000000000000000E+00     3.9999999999897312E-01     0.0000000000000000E+00 
    1.0000000000000000E+00     4.4999999999882723E-01     0.0000000000000000E+00 
    1.0000000000000000E+00     4.9999999999869210E-01     0.0000000000000000E+00 
    1.0000000000000000E+00     4.9999999999899403E-02     0.0000000000000000E+00 
    1.0000000000000000E+00     5.9999999999894504E-01     0.0000000000000000E+00 
    1.0000000000000000E+00     6.4999999999907687E-01     0.0000000000000000E+00 
    1.0000000000000000E+00     6.9999999999920870E-01     0.0000000000000000E+00 
    1.0000000000000000E+00     7.4999999999934064E-01     0.0000000000000000E+00 
    1.0000000000000000E+00     7.9999999999947247E-01     0.0000000000000000E+00 
    1.0000000000000000E+00     8.4999999999960441E-01     0.0000000000000000E+00 
    1.0000000000000000E+00     8.9999999999973623E-01     0.0000000000000000E+00 
    1.0000000000000000E+00     9.4999999999986817E-01     0.0000000000000000E+00 
    4.7500000000196618E-01     1.0000000000000000E+00     0.0000000000000000E+00 
    9.2499999999968763E-01     1.0000000000000000E+00     0.0000000000000000E+00 
    8.7499999999961831E-01     1.0000000000000000E+00     0.0000000000000000E+00 
    8.2499999999982654E-01     1.0000000000000000E+00     0.0000000000000000E+00 
    7.7500000000017355E-01     1.0000000000000000E+00     0.0000000000000000E+00 
    7.2500000000052045E-01     1.0000000000000000E+00     0.0000000000000000E+00 
    6.7500000000086724E-01     1.0000000000000000E+00     0.0000000000000000E+00 
    6.2500000000121403E-01     1.0000000000000000E+00     0.0000000000000000E+00 
    5.7500000000156093E-01     1.0000000000000000E+00     0.0000000000000000E+00 
    5.2500000000189684E-01     1.0000000000000000E+00     0.0000000000000000E+00 
    9.7499999999989595E-01     1.0000000000000000E+00     0.0000000000000000E+00 
    4.2500000000176902E-01     1.0000000000000000E+00     0.0000000000000000E+00 
    3.7500000000156092E-01     1.0000000000000000E+00     0.0000000000000000E+00 
    3.2500000000135282E-01     1.0000000000000000E+00     0.0000000000000000E+00 
    2.7500000000114472E-01     1.0000000000000000E+00     0.0000000000000000E+00 
    2.2500000000093659E-01     1.0000000000000000E+00     0.0000000000000000E+00 
    1.7500000000072849E-01     1.0000000000000000E+00     0.0000000000000000E+00 
    1.2500000000052039E-01     1.0000000000000000E+00     0.0000000000000000E+00 
    7.5000000000312261E-02     1.0000000000000000E+00     0.0000000000000000E+00 
    2.5000000000104109E-02     1.0000000000000000E+00     0.0000000000000000E+00 
    4.5000000000187301E-01     1.0000000000000000E+00     0.0000000000000000E+00 
    8.9999999999958358E-01     1.0000000000000000E+00     0.0000000000000000E+00 
    8.4999999999965303E-01     1.0000000000000000E+00     0.0000000000000000E+00 
    8.0000000000000004E-01     1.0000000000000000E+00     0.0000000000000000E+00 
    7.5000000000034706E-01     1.0000000000000000E+00     0.0000000000000000E+00 
    7.0000000000069384E-01     1.0000000000000000E+00     0.0000000000000000E+00 
    6.5000000000104063E-01     1.0000000000000000E+00     0.0000000000000000E+00 
    6.0000000000138742E-01     1.0000000000000000E+00     0.0000000000000000E+00 
    5.5000000000173432E-01     1.0000000000000000E+00     0.0000000000000000E+00 
    5.0000000000205946E-01     1.0000000000000000E+00     0.0000000000000000E+00 
    9.4999999999979179E-01     1.0000000000000000E+00     0.0000000000000000E+00 
    4.0000000000166491E-01     1.0000000000000000E+00     0.0000000000000000E+00 
    3.5000000000145681E-01     1.0000000000000000E+00     0.0000000000000000E+00 
    3.0000000000124871E-01     1.0000000000000000E+00     0.0000000000000000E+00 
    2.5000000000104061E-01     1.0000000000000000E+00     0.0000000000000000E+00 
    2.0000000000083251E-01     1.0000000000000000E+00     0.0000000000000000E+00 
    1.5000000000062441E-01     1.0000000000000000E+00     0.0000000000000000E+00 
    1.0000000000041630E-01     1.0000000000000000E+00     0.0000000000000000E+00 
[...]
CELL_DATA 1600 
SCALARS Pressure double 1 
LOOKUP_TABLE default 

    9.8851791634471231E-01 
    9.6762396070327261E-01 
    9.6751553997486328E-01 
    9.8654823071071529E-01 
    9.8470184567728403E-01 
    9.6731777835588506E-01 
    9.6704778047499096E-01 
    9.8297800929014911E-01 
    9.8136609279568277E-01 
    9.6671936588351381E-01 
    9.6634414300644289E-01 
    9.7985602644425385E-01 
    9.7843874075675774E-01 
    9.6593190915642801E-01 
    9.6549095717037392E-01 
    9.7710618415851835E-01 
    9.7585124951766511E-01 
    9.6502832315496023E-01 
    9.6454999009917552E-01 
    9.7466767987107161E-01 
    9.7354997402440691E-01 
    9.6406105659176877E-01 
    9.6356587731623089E-01 
    9.7249329881607971E-01 
    9.7149341007348711E-01 
    9.6306818044984388E-01 
    9.6257116602739212E-01 
    9.7054658247655301E-01 
    9.6964954783169277E-01 
    9.6207758854066439E-01 
    9.6158982643615687E-01 
    9.6879944099985105E-01 
    9.6799375265907317E-01 
    9.6110994069245048E-01 
    9.6063972427273525E-01 
    9.6723028810517742E-01 
    9.6650713135330013E-01 
    9.6018074393454644E-01 
    9.5973437562186548E-01 
    9.6582261387464785E-01 
    9.6517528737486680E-01 
    9.5930183445190753E-01 
    9.5888420012999531E-01 
    9.6456390008700743E-01 
    9.6398737610947538E-01 
    9.5848243847176551E-01 
    9.5809741957309935E-01 
    9.6344479736415578E-01 
    9.6293538777731369E-01 
    9.5772993303299825E-01 
    9.5738070048583468E-01 
    9.6245849928675953E-01 
    9.6201359923460550E-01 
    9.5705038550716148E-01 
    9.5673960066488162E-01 
    9.6160025857691023E-01 
    9.6121814004591311E-01 
    9.5644891097971096E-01 
    9.5617883208964904E-01 
    9.6086698475231869E-01 
    9.6054659429448697E-01 
    9.5592981943683442E-01 
    9.5570224055036279E-01 
    9.6025680227546273E-01 
    9.5999742191275228E-01 
    9.5549631294402548E-01 
    9.5531196771889282E-01 
    9.5976813954141138E-01 
    9.5956828346346590E-01 
    9.5514854500364987E-01 
    9.5500410648616241E-01 
    9.5939630599268022E-01 
    9.5924870644461879E-01 
    9.5487422420416268E-01 
    9.5475807017367731E-01 
    9.5912061362793444E-01 
    9.5902660929433048E-01 
    9.5467590723251972E-01 
    9.5463727604829596E-01 
    9.5898153163354860E-01 
    9.5366584080895134E-01 
    9.4005476188038040E-01 
    9.4004106489945682E-01 
    9.5363686225866939E-01 
    9.5357951748799419E-01 
    9.4001378863874341E-01 
    9.3997322277276973E-01 
    9.5349506595943156E-01 
    9.5338511056396569E-01 
    9.3991976500838315E-01 
    9.3985391184897515E-01 
    9.5325148828513673E-01 
    9.5309618551685660E-01 
    9.3977624740171428E-01 
    9.3968743113960473E-01 
    9.5292127147567629E-01 
    9.5272884715877970E-01 
    9.3958818566609548E-01 
    9.3947928503849587E-01 
    9.5252100695841491E-01 
    9.5229981037326550E-01 
    9.3936154393293470E-01 
    9.3923580778427551E-01 
    9.5206726168988864E-01 
    9.5182529590669696E-01 
    9.3910294394657334E-01 
    9.3896383386512838E-01 
    9.5157576951129130E-01 
    9.5132045499975071E-01 
    9.3881936621637208E-01 
    9.3867043094933134E-01 
    9.5106103825135202E-01 
    9.5079911805269135E-01 
    9.3851791414766761E-01 
    9.3836269362102842E-01 
    9.5053620720898713E-01 
    9.5027373479381461E-01 
    9.3820563512607225E-01 
    9.3804758910847141E-01 
    9.5001304917653273E-01 
    9.4975542153258441E-01 
    9.3788938784454234E-01 
    9.3773184284083155E-01 
    9.4950204958731399E-01 
    9.4925406136839319E-01 
    9.3757574231580887E-01 
    9.3742184852925592E-01 
    9.4901251874147763E-01 
    9.4877842046880367E-01 
    9.3727089462341651E-01 
    9.3712358046092792E-01 
    9.4855270444128914E-01 
    9.4833624855140930E-01 
    9.3698056662108309E-01 
    9.3684246511315372E-01 
    9.4812986931583909E-01 
    9.4793431665529926E-01 
    9.3670982419961557E-01 
    9.3658310237002940E-01 
    9.4775026183033850E-01 
    9.4757827259533578E-01 
    9.3646262153695636E-01 
    9.3634847847104663E-01 
    9.4741876324084595E-01 
    9.4727189263217626E-01 
    9.3624036756139195E-01 
    9.3613720464619699E-01 
    9.4713734864053689E-01 
    9.4701387332390274E-01 
    9.3603631975871104E-01 
    9.3593295365289175E-01 
    9.4689825970620101E-01 
    9.4678607918598512E-01 
    9.3583085102252161E-01 
    9.3575185364586921E-01 
    9.4668782673269369E-01 
    9.4662412715438515E-01 
    9.3570408577585573E-01 
    9.3568144716106438E-01 
    9.4659462333839473E-01 
    9.2566174133542423E-01 
    9.1015700383533082E-01 
    9.1015081390743324E-01 
    9.2565334603055760E-01 
    9.2563662438766037E-01 
    9.1013849007272096E-01 
    9.1012014137135677E-01 
    9.2561172622283383E-01 
    9.2557884552078218E-01 
    9.1009590102852611E-01 
    9.1006592482187110E-01 
    9.2553821889050258E-01 
    9.2549012364200189E-01 
    9.1003039042158262E-01 
    9.0998949654769556E-01 
    9.2543487514104639E-01 
    9.2537282372642027E-01 
    9.0994346189135600E-01 
    9.0989252385670627E-01 
    9.2530435139926537E-01 
    9.2522986841809862E-01 
    9.0983693717575254E-01 
    9.0977697243216049E-01 
    9.2514980988604378E-01 
    9.2506463238719450E-01 
    9.0971291451571312E-01 
    9.0964506101773412E-01 
    9.2497481070857823E-01 
    9.2488083466845028E-01 
    9.0957372056777752E-01 
    9.0949921110177445E-01 
    9.2478320605817166E-01 
    9.2468243569207076E-01 
    9.0942185804019537E-01 
    9.0934199233986801E-01 
    9.2457904054603857E-01 
    9.2447354094957401E-01 
    9.0925994836259949E-01 
    9.0917606147411090E-01 
    9.2436645777530813E-01 
    9.2425830954125432E-01 
    9.0909066524222637E-01 
    9.0900408803403143E-01 
    9.2414960929850920E-01 
    9.2404086111121786E-01 
    9.0891664870058264E-01 
    9.0882865085338638E-01 
    9.2393255582914924E-01 
    9.2382516567470874E-01 
    9.0874037491980220E-01 
    9.0865206659741016E-01 
    9.2371913685545282E-01 
    9.2361487885079674E-01 
    9.0856391926872104E-01 
    9.0847604586923869E-01 
    9.2351274796052307E-01 
    9.2341302060598951E-01 
    9.0838843143819803E-01 
    9.0830084824945889E-01 
    9.2331584751731344E-01 
    9.2322117038443463E-01 
    9.0821269373902236E-01 
    9.0812265969184680E-01 
    9.2312856027698031E-01 
    9.2303688298955799E-01 
    9.0802805142627219E-01 
    9.0792420800271112E-01 
    9.2294358977323976E-01 
    9.2284401120328352E-01 
    9.0781148891584540E-01 
    9.0770857356381784E-01 
    9.2273903253048839E-01 
    9.2264851561139927E-01 
    9.0763348646958242E-01 
    9.0758270144168274E-01 
    9.2258708968494330E-01 
    9.2254944614075796E-01 
    9.0754963578730796E-01 
    9.0753309865829013E-01 
    9.2253078910992425E-01 
    8.9342966082915454E-01 
    8.7544172724095481E-01 
    8.7543666359792893E-01 
    8.9342437450693335E-01 
    8.9341384933553847E-01 
    8.7542657435828353E-01 
    8.7541153126887750E-01 
    8.9339817378355291E-01 
    8.9337745253521073E-01 
    8.7539161824262124E-01 
    8.7536692820223949E-01 
    8.9335180405238035E-01 
    8.9332135999146123E-01 
    8.7533756231083415E-01 
    8.7530362957672503E-01 
    8.9328626477823914E-01 
    8.9324667508043110E-01 
    8.7526524643392745E-01 
    8.7522253620608270E-01 
    8.9320275914806080E-01 
    8.9315469603227515E-01 
    8.7517562843124241E-01 
    8.7512465803625161E-01 
    8.9310267469383864E-01 
    8.9304689300454776E-01 
    8.7506976434396544E-01 
    8.7501108988449794E-01 
    8.9298755663488238E-01 
    8.9292487781012486E-01 
    8.7494877896502621E-01 
    8.7488297593007225E-01 
    8.9285907390395014E-01 
    8.9279036582138205E-01 
    8.7481382301251576E-01 
    8.7474145762957112E-01 
    8.9271897609932094E-01 
    8.9264512661849216E-01 
    8.7466600890875712E-01 
    8.7458759312153300E-01 
    8.9256903576897439E-01 
    8.9249091483121423E-01 
    8.7450630753049341E-01 
    8.7442222187216967E-01 
    8.9241096320604441E-01 
    8.9232936191532197E-01 
    8.7433536621237029E-01 
    8.7424571304950716E-01 
    8.9224626443303245E-01 
    8.9216178326452178E-01 
    8.7415314994069493E-01 
    8.7405743579911699E-01 
    8.9207596949853352E-01 
    8.9198878022863248E-01 
    8.7395812760683433E-01 
    8.7385445064396705E-01 
    8.9190002394951062E-01 
    8.9180926356261381E-01 
    8.7374505677252368E-01 
    8.7362757813223813E-01 
    8.9171563264246589E-01 
    8.9161746767605243E-01 
    8.7349812094320645E-01 
    8.7335356668484465E-01 
    8.9151161840368609E-01 
    8.9139348302530685E-01 
    8.7320100603064899E-01 
    8.7306300849291907E-01 
    8.9126510127123659E-01 
    8.9114627210025299E-01 
    8.7295634370476083E-01 
    8.7287695180029712E-01 
    8.9105595110596447E-01 
    8.9099149130263611E-01 
    8.7281586985738913E-01 
    8.7277008932670119E-01 
    8.9094486356012648E-01 
    8.9091377852608267E-01 
    8.7273956588205681E-01 
    8.7272430323683958E-01 
    8.9089823243540189E-01 
    8.5617518985153596E-01 
    8.3560422960458725E-01 
    8.3559823711821535E-01 
    8.5616988516541748E-01 
    8.5615930061599133E-01 
    8.3558625495100725E-01 
    8.3556830320190600E-01 
    8.5614348793173667E-01 
    8.5612250786056032E-01 
    8.3554440674324226E-01 
    8.3551459128527672E-01 
    8.5609642651196016E-01 
    8.5606531429907173E-01 
    8.3547888186694663E-01 
    8.3543730172804320E-01 
    8.5602924535148306E-01 
    8.5598829691472500E-01 
    8.3538987103942064E-01 
    8.3533660530206999E-01 
    8.5594254859536445E-01 
    8.5589208139376860E-01 
    8.3527751329914890E-01 
    8.3521259448093776E-01 
    8.5583697648018320E-01 
    8.5577731365947818E-01 
    8.3514183562482713E-01 
    8.3506520654791927E-01 
    8.5571316944716758E-01 
    8.5564461464500163E-01 
    8.3498265455255261E-01 
    8.3489409713932017E-01 
    8.5557171125454134E-01 
    8.5549450849349362E-01 
    8.3479941229935639E-01 
    8.3469842534696137E-01 
    8.5541303756780918E-01 
    8.5532730467794305E-01 
    8.3459089068232928E-01 
    8.3447646591231417E-01 
    8.5523728145628697E-01 
    8.5514289156480083E-01 
    8.3435467410689923E-01 
    8.3422484720372558E-01 
    8.5504399137772047E-01 
    8.5494034124354368E-01 
    8.3408603959728145E-01 
    8.3393689895559042E-01 
    8.5483156117429904E-01 
    8.5471705973757683E-01 
    8.3377550181584337E-01 
    8.3359929343238315E-01 
    8.5459591521871958E-01 
    8.5446667245808383E-01 
    8.3340574754047159E-01 
    8.3319492262302541E-01 
    8.5432702045809050E-01 
    8.5417355944014461E-01 
    8.3297302395389983E-01 
    8.3275347633780528E-01 
    8.5400337724790243E-01 
    8.5382014141933649E-01 
    8.3255508885131801E-01 
    8.3239167942454928E-01 
    8.5363913368343092E-01 
    8.5348280623416284E-01 
    8.3226293091199544E-01 
    8.3215877634634527E-01 
    8.5336127451222954E-01 
    8.5326706594227297E-01 
    8.3207129431094673E-01 
    8.3199855115514254E-01 
    8.5319107746370026E-01 
    8.5313037241675749E-01 
    8.3194043960312569E-01 
    8.3189690416858530E-01 
    8.5308486369066572E-01 
    8.5305453409473597E-01 
    8.3186790345156958E-01 
    8.3185340995278312E-01 
    8.5303937216401704E-01 
    8.1366770123711940E-01 
    7.9022093241112767E-01 
    7.9021100034295944E-01 
    8.1366038981077893E-01 
    8.1364572737790186E-01 
    7.9019100874113479E-01 
    7.9016079453163124E-01 
    8.1362367396901369E-01 
    8.1359418637555259E-01 
    7.9012017452454542E-01 
    7.9006893952998825E-01 
    8.1355721396865865E-01 
    8.1351269608682364E-01 
    7.9000684764545093E-01 
    7.8993361566017450E-01 
    8.1346055928560634E-01 
    8.1340071392480717E-01 
    7.8984890799949314E-01 
    7.8975232283816377E-01 
    8.1333304981847920E-01 
    8.1325743067702561E-01 
    7.8964337534653395E-01 
    7.8952147894723834E-01 
    8.1317368698348513E-01 
    8.1308160678900687E-01 
    7.8938592760937643E-01 
    7.8923588647061504E-01 
    8.1298092365900965E-01 
    8.1287130061308288E-01 
    7.8907040567086550E-01 
    7.8888848386646282E-01 
    8.1275230833949585E-01 
    8.1262339527394256E-01 
    7.8868922091482163E-01 
    7.8847210237173937E-01 
    8.1248384669289475E-01 
    8.1233273122397665E-01 
    7.8823742809052944E-01 
    7.8798681468512199E-01 
    8.1216884040286874E-01 
    8.1199065084663968E-01 
    7.8772360288736287E-01 
    7.8745299564076510E-01 
    8.1179640019853394E-01 
    8.1158448205071254E-01 
    7.8718190800181320E-01 
    7.8691864264978229E-01 
    8.1135443084981207E-01 
    8.1110841562652958E-01 
    7.8667223766588956E-01 
    7.8645104881642103E-01 
    8.1085235530335209E-01 
    8.1059592780719802E-01 
    7.8626090590903253E-01 
    7.8610367093511446E-01 
    8.1035205828237666E-01 
    8.1013451968296191E-01 
    7.8597615945873189E-01 
    7.8587076129886291E-01 
    8.0995213523748921E-01 
    8.0980504373996909E-01 
    7.8577968110413920E-01 
    7.8569881586060641E-01 
    8.0968536890502230E-01 
    8.0958367623109273E-01 
    7.8562715758050472E-01 
    7.8556458357613179E-01 
    8.0949550536393566E-01 
    8.0942014759089631E-01 
    7.8551104162485397E-01 
    7.8546648814583120E-01 
    8.0935749647786526E-01 
    8.0930747115932644E-01 
    7.8543088740805689E-01 
    7.8540421120610571E-01 
    8.0927000761157031E-01 
    8.0924505820369741E-01 
    7.8538643860517443E-01 
    7.8537755575241619E-01 
    8.0923259136502268E-01 
    7.6494227757445377E-01 
    7.3742241952082710E-01 
    7.3740030720924077E-01 
    7.6492611838253866E-01 
    7.6489359088171049E-01 
    7.3735716690464848E-01 
    7.3729467267686533E-01 
    7.6484442161959687E-01 
    7.6477830051362861E-01 
    7.3721475269106718E-01 
    7.3711954157873749E-01 
    7.6469489358914766E-01 
    7.6459386796827644E-01 
    7.3701136049515381E-01 
    7.3689269911436350E-01 
    7.6447493353395046E-01 
    7.6433790626219100E-01 
    7.3676619255802045E-01 
    7.3663459058935843E-01 
    7.6418279693129787E-01 
    7.6400992487129249E-01 
    7.3650071923724925E-01 
    7.3636743608073507E-01 
    7.6382004961794059E-01 
    7.6361450471455317E-01 
    7.3623757963621828E-01 
    7.3611391237021040E-01 
    7.6339531010672812E-01 
    7.6316523719495633E-01 
    7.3599905407197663E-01 
    7.3589539749693966E-01 
    7.6292780745925026E-01 
    7.6268722016726820E-01 
    7.3580499065158489E-01 
    7.3572936405095979E-01 
    7.6244821748377878E-01 
    7.6221589230332631E-01 
    7.3566928990718083E-01 
    7.3562450297531501E-01 
    7.6199542589992730E-01 
    7.6179174282370798E-01 
    7.3559349298527910E-01 
    7.3557354651137130E-01 
    7.6160910831267192E-01 
    7.6145070007624105E-01 
    7.3556117950191646E-01 
    7.3555290761775693E-01 
    7.6131809690548213E-01 
    7.6121061033458959E-01 
    7.3554603318193745E-01 
    7.3553903382107821E-01 
    7.6112479056515503E-01 
    7.6105499340399840E-01 
    7.3553140347550916E-01 
    7.3552319799330035E-01 
    7.6099535816776476E-01 
    7.6094188651608230E-01 
    7.3551465247512182E-01 
    7.3550601268475591E-01 
    7.6089291629853506E-01 
    7.6084813096358817E-01 
    7.3549749978835510E-01 
    7.3548930971468207E-01 
    7.6080758017590910E-01 
    7.6077134287385151E-01 
    7.3548161482442742E-01 
    7.3547456523327748E-01 
    7.6073948853485263E-01 
    7.6071207690555365E-01 
    7.3546828994655544E-01 
    7.3546289782488783E-01 
    7.6068915843019114E-01 
    7.6067077461027988E-01 
    7.3545847839217937E-01 
    7.3545510249526147E-01 
    7.6065695829966495E-01 
    7.6064773393751428E-01 
    7.3545282282280355E-01 
    7.3545167428942304E-01 
    7.6064311772129334E-01 
    7.0967447933905348E-01 
    6.8406645687295109E-01 
    6.8407398433596334E-01 
    7.0967036686327978E-01 
    7.0966289266979399E-01 
    6.8408853738096898E-01 
    6.8410938868418081E-01 
    7.0965318171234415E-01 
    7.0964249104784527E-01 
    6.8413573305969111E-01 
    6.8416670907310750E-01 
    7.0963213702513928E-01 
    7.0962344273795808E-01 
    6.8420141523973077E-01 
    6.8423893122763513E-01 
    7.0961768697580374E-01 
    7.0961604662266387E-01 
    6.8427834594444459E-01 
    6.8431879145077334E-01 
    7.0961952834832087E-01 
    7.0962888924308332E-01 
    6.8435947885157189E-01 
    6.8439973032476364E-01 
    7.0964455117887215E-01 
    7.0966652067589098E-01 
    6.8443900157066262E-01 
    6.8447689017305446E-01 
    7.0969433354050226E-01 
    7.0972704862897451E-01 
    6.8451312831060684E-01 
    6.8454756205909839E-01 
    7.0976331308891571E-01 
    7.0980150854011947E-01 
    6.8458012270820601E-01 
    6.8461079708700989E-01 
    7.0983996329088328E-01 
    7.0987718573349246E-01 
    6.8463960309795135E-01 
    6.8466657380750440E-01 
    7.0991205368130594E-01 
    7.0994390170646793E-01 
    6.8469174981032876E-01 
    6.8471517694459705E-01 
    7.0997248811748015E-01 
    7.0999787471509457E-01 
    6.8473690596136505E-01 
    6.8475699205336360E-01 
    7.1002028349506019E-01 
    7.1003998695772363E-01 
    6.8477549376534863E-01 
    6.8479247162690937E-01 
    7.1005725244153772E-01 
    7.1007232613492544E-01 
    6.8480798685756528E-01 
    6.8482210025698187E-01 
    7.1008543278083824E-01 
    7.1009677748042521E-01 
    6.8483487126524867E-01 
    6.8484635716223208E-01 
    7.1010654673779483E-01 
    7.1011490916313014E-01 
    6.8485661238502327E-01 
    6.8486568794779024E-01 
    7.1012201609506032E-01 
    7.1012800216363325E-01 
    6.8487363095070353E-01 
    6.8488048416650316E-01 
    7.1013298579333883E-01 
    7.1013706964715473E-01 
    6.8488628569495902E-01 
    6.8489106867698213E-01 
    7.1014034101261503E-01 
    7.1014287213083649E-01 
    6.8489486106149300E-01 
    6.8489768541935792E-01 
    7.1014472046934085E-01 
    7.1014592893940121E-01 
    6.8489955879981701E-01 
    6.8490049262583619E-01 
    7.1014652605851369E-01 
    6.5935843027160179E-01 
    6.3448559333987098E-01 
    6.3448634813448057E-01 
    6.5936087775150853E-01 
    6.5936563254200586E-01 
    6.3448784518417045E-01 
    6.3449006066600999E-01 
    6.5937248573872587E-01 
    6.5938120777372966E-01 
    6.3449296119538989E-01 
    6.3449650555379811E-01 
    6.5939156348490879E-01 
    6.5940332056660800E-01 
    6.3450064633505754E-01 
    6.3450533146131227E-01 
    6.5941625446937469E-01 
    6.5943015122272597E-01 
    6.3451050554886457E-01 
    6.3451611112002282E-01 
    6.5944480907707015E-01 
    6.5946003954135701E-01 
    6.3452208966537582E-01 
    6.3452838256403932E-01 
    6.5947566814791658E-01 
    6.5949153508265568E-01 
    6.3453493186961307E-01 
    6.3454168096855268E-01 
    6.5950749565311273E-01 
    6.5952342047696744E-01 
    6.3454857511700680E-01 
    6.3455556186278106E-01 
    6.5953919528039440E-01 
    6.5955472027351214E-01 
    6.3456259136093163E-01 
    6.3456961659383271E-01 
    6.5956990917383795E-01 
    6.5958468802067727E-01 
    6.3457659350840268E-01 
    6.3458348108382712E-01 
    6.5959899393254517E-01 
    6.5961277391485618E-01 
    6.3459024134248454E-01 
    6.3459683931532807E-01 
    6.5962598376259052E-01 
    6.5963858705744860E-01 
    6.3460324297126869E-01 
    6.3460942311859081E-01 
    6.5965055424303654E-01 
    6.5966186176513075E-01 
    6.3461535328522622E-01 
    6.3462100958376055E-01 
    6.5967249127186811E-01 
    6.5968242887287876E-01 
    6.3462637056624704E-01 
    6.3463141707320592E-01 
    6.5969166445693950E-01 
    6.5970019106709810E-01 
    6.3463613208055625E-01 
    6.3464050054768661E-01 
    6.5970800433168508E-01 
    6.5971510194933713E-01 
    6.3464450926937688E-01 
    6.3464814673386594E-01 
    6.5972148322602253E-01 
    6.5972714866200477E-01 
    6.3465140298898937E-01 
    6.3465426951799453E-01 
    6.5973209958671764E-01 
    6.5973633783960184E-01 
    6.3465673912636356E-01 
    6.3465880584073509E-01 