# vtk DataFile Version 2.0
Pressure Field Data 
ASCII 
DATASET UNSTRUCTURED_GRID 

POINTS 1681 double 

    0.0000000000000000E+00     0.0000000000000000E+00     0.0000000000000000E+00 
    1.0000000000000000E+00     0.0000000000000000E+00     0.0000000000000000E+00 
    1.0000000000000000E+00     1.0000000000000000E+00     0.0000000000000000E+00 
    0.0000000000000000E+00     1.0000000000000000E+00     0.0000000000000000E+00 
    5.2499999999875258E-01     0.0000000000000000E+00     0.0000000000000000E+00 
    7.4999999999856765E-02     0.0000000000000000E+00     0.0000000000000000E+00 
    1.2499999999975850E-01     0.0000000000000000E+00     0.0000000000000000E+00 
    1.7499999999962990E-01     0.0000000000000000E+00     0.0000000000000000E+00 
    2.2499999999948389E-01     0.0000000000000000E+00     0.0000000000000000E+00 
    2.7499999999933789E-01     0.0000000000000000E+00     0.0000000000000000E+00 
    3.2499999999919210E-01     0.0000000000000000E+00     0.0000000000000000E+00 
    3.7499999999904610E-01     0.0000000000000000E+00     0.0000000000000000E+00 
    4.2499999999890020E-01     0.0000000000000000E+00     0.0000000000000000E+00 
    4.7499999999875958E-01     0.0000000000000000E+00     0.0000000000000000E+00 
    2.4999999999949701E-02     0.0000000000000000E+00     0.0000000000000000E+00 
    5.7499999999887907E-01     0.0000000000000000E+00     0.0000000000000000E+00 
    6.2499999999901101E-01     0.0000000000000000E+00     0.0000000000000000E+00 
    6.7499999999914273E-01     0.0000000000000000E+00     0.0000000000000000E+00 
    7.2499999999927467E-01     0.0000000000000000E+00     0.0000000000000000E+00 
    7.7499999999940661E-01     0.0000000000000000E+00     0.0000000000000000E+00 
    8.2499999999953844E-01     0.0000000000000000E+00     0.0000000000000000E+00 
    8.7499999999967026E-01     0.0000000000000000E+00     0.0000000000000000E+00 
    9.2499999999980220E-01     0.0000000000000000E+00     0.0000000000000000E+00 
    9.7499999999993414E-01     0.0000000000000000E+00     0.0000000000000000E+00 
    5.4999999999881310E-01     0.0000000000000000E+00     0.0000000000000000E+00 
    9.9999999999814140E-02     0.0000000000000000E+00     0.0000000000000000E+00 
    1.4999999999970290E-01     0.0000000000000000E+00     0.0000000000000000E+00 
    1.9999999999955689E-01     0.0000000000000000E+00     0.0000000000000000E+00 
    2.4999999999941089E-01     0.0000000000000000E+00     0.0000000000000000E+00 
    2.9999999999926502E-01     0.0000000000000000E+00     0.0000000000000000E+00 
    3.4999999999911913E-01     0.0000000000000000E+00     0.0000000000000000E+00 
    3.9999999999897312E-01     0.0000000000000000E+00     0.0000000000000000E+00 
    4.4999999999882723E-01     0.0000000000000000E+00     0.0000000000000000E+00 
    4.9999999999869210E-01     0.0000000000000000E+00     0.0000000000000000E+00 
    4.9999999999899403E-02     0.0000000000000000E+00     0.0000000000000000E+00 
    5.9999999999894504E-01     0.0000000000000000E+00     0.0000000000000000E+00 
    6.4999999999907687E-01     0.0000000000000000E+00     0.0000000000000000E+00 
    6.9999999999920870E-01     0.0000000000000000E+00     0.0000000000000000E+00 
    7.4999999999934064E-01     0.0000000000000000E+00     0.0000000000000000E+00 
    7.9999999999947247E-01     0.0000000000000000E+00     0.0000000000000000E+00 
    8.4999999999960441E-01     0.0000000000000000E+00     0.0000000000000000E+00 
    8.9999999999973623E-01     0.0000000000000000E+00     0.0000000000000000E+00 
    9.4999999999986817E-01     0.0000000000000000E+00     0.0000000000000000E+00 
    1.0000000000000000E+00     5.2499999999875258E-01     0.0000000000000000E+00 
    1.0000000000000000E+00     7.4999999999856765E-02     0.0000000000000000E+00 
    1.0000000000000000E+00     1.2499999999975850E-01     0.0000000000000000E+00 
    1.0000000000000000E+00     1.7499999999962990E-01     0.0000000000000000E+00 
    1.0000000000000000E+00     2.2499999999948389E-01     0.0000000000000000E+00 
    1.0000000000000000E+00     2.7499999999933789E-01     0.0000000000000000E+00 
    1.0000000000000000E+00     3.2499999999919210E-01     0.0000000000000000E+00 
    1.0000000000000000E+00     3.7499999999904610E-01     0.0000000000000000E+00 
    1.0000000000000000E+00     4.2499999999890020E-01     0.0000000000000000E+00 
    1.0000000000000000E+00     4.7499999999875958E-01     0.0000000000000000E+00 
    1.0000000000000000E+00     2.4999999999949701E-02     0.0000000000000000E+00 
    1.0000000000000000E+00     5.7499999999887907E-01     0.0000000000000000E+00 
    1.0000000000000000E+00     6.2499999999901101E-01     0.0000000000000000E+00 
    1.0000000000000000E+00     6.7499999999914273E-01     0.0000000000000000E+00 
    1.0000000000000000E+00     7.2499999999927467E-01     0.0000000000000000E+00 
    1.0000000000000000E+00     7.7499999999940661E-01     0.0000000000000000E+00 
    1.0000000000000000E+00     8.2499999999953844E-01     0.0000000000000000E+00 
    1.0000000000000000E+00     8.7499999999967026E-01     0.0000000000000000E+00 
    1.0000000000000000E+00     9.2499999999980220E-01     0.0000000000000000E+00 
    1.0000000000000000E+00     9.7499999999993414E-01     0.0000000000000000E+00 
    1.0000000000000000E+00     5.4999999999881310E-01     0.0000000000000000E+00 
    1.0000000000000000E+00     9.9999999999814140E-02     0.0000000000000000E+00 
    1.0000000000000000E+00     1.4999999999970290E-01     0.0000000000000000E+00 
    1.0000000000000000E+00     1.9999999999955689E-01     0.0000000000000000E+00 
    1.0000000000000000E+00     2.4999999999941089E-01     0.0000000000000000E+00 
    1.0000000000000000E+00     2.9999999999926502E-01     0.0000000000000000E+00 
    1.0000000000000000E+00     3.4999999999911913E-01     0.0000000000000000E+00 
    1.0000000000000000E+00     3.9999999999897312E-01     0.0000000000000000E+00 
    1.0000000000000000E+00     4.4999999999882723E-01     0.0000000000000000E+00 
    1.0000000000000000E+00     4.9999999999869210E-01     0.0000000000000000E+00 
    1.0000000000000000E+00     4.9999999999899403E-02     0.0000000000000000E+00 
    1.0000000000000000E+00     5.9999999999894504E-01     0.0000000000000000E+00 
    1.0000000000000000E+00     6.4999999999907687E-01     0.0000000000000000E+00 
    1.0000000000000000E+00     6.9999999999920870E-01     0.0000000000000000E+00 
    1.0000000000000000E+00     7.4999999999934064E-01     0.0000000000000000E+00 
    1.0000000000000000E+00     7.9999999999947247E-01     0.0000000000000000E+00 
    1.0000000000000000E+00     8.4999999999960441E-01     0.0000000000000000E+00 
    1.0000000000000000E+00     8.9999999999973623E-01     0.0000000000000000E+00 
    1.0000000000000000E+00     9.4999999999986817E-01     0.0000000000000000E+00 
    4.7500000000196618E-01     1.0000000000000000E+00     0.0000000000000000E+00 
    9.2499999999968763E-01     1.0000000000000000E+00     0.0000000000000000E+00 
    8.7499999999961831E-01     1.0000000000000000E+00     0.0000000000000000E+00 
    8.2499999999982654E-01     1.0000000000000000E+00     0.0000000000000000E+00 
    7.7500000000017355E-01     1.0000000000000000E+00     0.0000000000000000E+00 
    7.2500000000052045E-01     1.0000000000000000E+00     0.0000000000000000E+00 
    6.7500000000086724E-01     1.0000000000000000E+00     0.0000000000000000E+00 
    6.2500000000121403E-01     1.0000000000000000E+00     0.0000000000000000E+00 
    5.7500000000156093E-01     1.0000000000000000E+00     0.0000000000000000E+00 
    5.2500000000189684E-01     1.0000000000000000E+00     0.0000000000000000E+00 
    9.7499999999989595E-01     1.0000000000000000E+00     0.0000000000000000E+00 
    4.2500000000176902E-01     1.0000000000000000E+00     0.0000000000000000E+00 
    3.7500000000156092E-01     1.0000000000000000E+00     0.0000000000000000E+00 
    3.2500000000135282E-01     1.0000000000000000E+00     0.0000000000000000E+00 
    2.7500000000114472E-01     1.0000000000000000E+00     0.0000000000000000E+00 
    2.2500000000093659E-01     1.0000000000000000E+00     0.0000000000000000E+00 
    1.7500000000072849E-01     1.0000000000000000E+00     0.0000000000000000E+00 
    1.2500000000052039E-01     1.0000000000000000E+00     0.0000000000000000E+00 
    7.5000000000312261E-02     1.0000000000000000E+00     0.0000000000000000E+00 
    2.5000000000104109E-02     1.0000000000000000E+00     0.0000000000000000E+00 
    4.5000000000187301E-01     1.0000000000000000E+00     0.0000000000000000E+00 
    8.9999999999958358E-01     1.0000000000000000E+00     0.0000000000000000E+00 
    8.4999999999965303E-01     1.0000000000000000E+00     0.0000000000000000E+00 
    8.0000000000000004E-01     1.0000000000000000E+00     0.0000000000000000E+00 
    7.5000000000034706E-01     1.0000000000000000E+00     0.0000000000000000E+00 
    7.0000000000069384E-01     1.0000000000000000E+00     0.0000000000000000E+00 
    6.5000000000104063E-01     1.0000000000000000E+00     0.0000000000000000E+00 
    6.0000000000138742E-01     1.0000000000000000E+00     0.0000000000000000E+00 
    5.5000000000173432E-01     1.0000000000000000E+00     0.0000000000000000E+00 
    5.0000000000205946E-01     1.0000000000000000E+00     0.0000000000000000E+00 
    9.4999999999979179E-01     1.0000000000000000E+00     0.0000000000000000E+00 
    4.0000000000166491E-01     1.0000000000000000E+00     0.0000000000000000E+00 
    3.5000000000145681E-01     1.0000000000000000E+00     0.0000000000000000E+00 
    3.0000000000124871E-01     1.0000000000000000E+00     0.0000000000000000E+00 
    2.5000000000104061E-01     1.0000000000000000E+00     0.0000000000000000E+00 
    2.0000000000083251E-01     1.0000000000000000E+00     0.0000000000000000E+00 
    1.5000000000062441E-01     1.0000000000000000E+00     0.0000000000000000E+00 
    1.0000000000041630E-01     1.0000000000000000E+00     0.0000000000000000E+00 
[...]
CELL_DATA 1600 
SCALARS Pressure double 1 
LOOKUP_TABLE default 

    8.6204148463349273E-01 
    8.4303807097457029E-01 
    8.4294066815655411E-01 
    8.6012373068535386E-01 
    8.5834698811096422E-01 
    8.4276415888087497E-01 
    8.4252429185801203E-01 
    8.5670190376550737E-01 
    8.5517592206801107E-01 
    8.4223404357864695E-01 
    8.4190427317367567E-01 
    8.5375769699524817E-01 
    8.5243715832615841E-01 
    8.4154408123860325E-01 
    8.4116109995121902E-01 
    8.5120541030491259E-01 
    8.5005460560832613E-01 
    8.4076173288118961E-01 
    8.4035135459555388E-01 
    8.4897782316196435E-01 
    8.4796895698600283E-01 
    8.3993447735391191E-01 
    8.3951489060208973E-01 
    8.4702261745135021E-01 
    8.4613404447919238E-01 
    8.3909577787044687E-01 
    8.3867981484593335E-01 
    8.4529903162421738E-01 
    8.4451385984101734E-01 
    8.3826925172587008E-01 
    8.3786598242856070E-01 
    8.4377523976496349E-01 
    8.4308026143482273E-01 
    8.3747160280137301E-01 
    8.3708745961004982E-01 
    8.4242635049959813E-01 
    8.4181123006751268E-01 
    8.3671469179843472E-01 
    8.3635426526377499E-01 
    8.4123288746273273E-01 
    8.4068954525254458E-01 
    8.3600700219011526E-01 
    8.3567360581364680E-01 
    8.4017963599365741E-01 
    8.3970178022165620E-01 
    8.3535468135339219E-01 
    8.3505075372337079E-01 
    8.3925476727325521E-01 
    8.3883753858791199E-01 
    8.3476228254448170E-01 
    8.3448967489243919E-01 
    8.3844917318463486E-01 
    8.3808887505211116E-01 
    8.3423329614925201E-01 
    8.3399347926725875E-01 
    8.3775596222614290E-01 
    8.3744985735749233E-01 
    8.3377053270358026E-01 
    8.3356474723467266E-01 
    8.3717007959393219E-01 
    8.3691623760721678E-01 
    8.3337640180725137E-01 
    8.3320576850404138E-01 
    8.3668802357406236E-01 
    8.3648520782777314E-01 
    8.3305311654956959E-01 
    8.3291871490260416E-01 
    8.3630763360482263E-01 
    8.3615521039045548E-01 
    8.3280283190053550E-01 
    8.3270572703088308E-01 
    8.3602790128680160E-01 
    8.3592568894560637E-01 
    8.3262761882228309E-01 
    8.3256857842704335E-01 
    8.3584846697376125E-01 
    8.3579569961508304E-01 
    8.3252822297193507E-01 
    8.3250539120267086E-01 
    8.3576586489236782E-01 
    8.3165589949375418E-01 
    8.2123311206249161E-01 
    8.2122373170262819E-01 
    8.3163274279962518E-01 
    8.3158700867330893E-01 
    8.2120505237384078E-01 
    8.2117726581146600E-01 
    8.3151978492445366E-01 
    8.3143246432548701E-01 
    8.2114065001707903E-01 
    8.2109556225384162E-01 
    8.3132664171594173E-01 
    8.3120403369842577E-01 
    8.2104242925373427E-01 
    8.2098173670883900E-01 
    8.3106641699286321E-01 
    8.3091558199978310E-01 
    8.2091401889411386E-01 
    8.2083984883877770E-01 
    8.3075329849250190E-01 
    8.3058129088070276E-01 
    8.2075982926530400E-01 
    8.2067458440378138E-01 
    8.3040122096839508E-01 
    8.3021467653518499E-01 
    8.2058475272003883E-01 
    8.2049098055096059E-01 
    8.3002316440373669E-01 
    8.2982810692812281E-01 
    8.2039391661132932E-01 
    8.2029420731837632E-01 
    8.2963084105780205E-01 
    8.2943261930950030E-01 
    8.2019249286981322E-01 
    8.2008940400617447E-01 
    8.2923461212214522E-01 
    8.2903791118471115E-01 
    8.1998555938724016E-01 
    8.1988156351390273E-01 
    8.2884353341870909E-01 
    8.2865242537048323E-01 
    8.1977800513023147E-01 
    8.1967545604500713E-01 
    8.2846546782698938E-01 
    8.2828348051525524E-01 
    8.1957447031716968E-01 
    8.1947558375503537E-01 
    8.2810722678255333E-01 
    8.2793741818332356E-01 
    8.1937931368447159E-01 
    8.1928615894609946E-01 
    8.2777471892150334E-01 
    8.2761975011407252E-01 
    8.1919660008541284E-01 
    8.1911109970143037E-01 
    8.2747309385367063E-01 
    8.2733529705436648E-01 
    8.1903010291683409E-01 
    8.1895403792043586E-01 
    8.2720687506205137E-01 
    8.2708831499123014E-01 
    8.1888331649932289E-01 
    8.1881833439407081E-01 
    8.2698007869097989E-01 
    8.2688260508419642E-01 
    8.1875947110185865E-01 
    8.1870708822383387E-01 
    8.2679631119399688E-01 
    8.2672158995753886E-01 
    8.1866152407799730E-01 
    8.1862307868086848E-01 
    8.2665879938103970E-01 
    8.2660822726315397E-01 
    8.1859197402307382E-01 
    8.1856825503664499E-01 
    8.2656998878152332E-01 
    8.2654378075328094E-01 
    8.1855159501288843E-01 
    8.1854173203415048E-01 
    8.2652887000513875E-01 
    8.1062409135539659E-01 
    7.9949010852558822E-01 
    7.9948727649740381E-01 
    8.1061933878564330E-01 
    8.1060986319278039E-01 
    7.9948163188228893E-01 
    7.9947321385347470E-01 
    8.1059573315611766E-01 
    8.1057704747255865E-01 
    7.9946207513303524E-01 
    7.9944828328198414E-01 
    8.1055393592143454E-01 
    8.1052655801831719E-01 
    7.9943192067393265E-01 
    7.9941308398877364E-01 
    8.1049510102536393E-01 
    8.1045977762481991E-01 
    7.9939188349396872E-01 
    7.9936844221527248E-01 
    8.1042082343338884E-01 
    8.1037849445709143E-01 
    7.9934289504466116E-01 
    7.9931538781235134E-01 
    8.1033306455215537E-01 
    8.1028482293882143E-01 
    7.9928607634054250E-01 
    7.9925512549184086E-01 
    8.1023407180266793E-01 
    8.1018112400893427E-01 
    7.9922270822257946E-01 
    7.9918900464937637E-01 
    8.1012630094809535E-01 
    8.1006993052506193E-01 
    7.9915420113580593E-01 
    7.9911848940478691E-01 
    8.1001234529957544E-01 
    8.0995388078144570E-01 
    7.9908206568110030E-01 
    7.9904512986727638E-01 
    8.0989487388113113E-01 
    8.0983566151365327E-01 
    7.9900788475486662E-01 
    7.9897053527174311E-01 
    8.0977657935185909E-01 
    8.0971796072343272E-01 
    7.9893328776439620E-01 
    7.9889634931198550E-01 
    8.0966013564464978E-01 
    8.0960342998233947E-01 
    7.9885992706566833E-01 
    7.9882422760165650E-01 
    8.0954816473340319E-01 
    8.0949465540759391E-01 
    7.9878945626800180E-01 
    7.9875581649025429E-01 
    8.0944321149232035E-01 
    8.0939413596428333E-01 
    7.9872350897392164E-01 
    7.9869273068973068E-01 
    8.0934772478393524E-01 
    8.0930426624752794E-01 
    7.9866367342482458E-01 
    7.9863652147160702E-01 
    8.0926403993757268E-01 
    8.0922731471000198E-01 
    7.9861144757612212E-01 
    7.9858860528045350E-01 
    8.0919434445180782E-01 
    8.0916535866309980E-01 
    7.9856811356518798E-01 
    7.9855002454030277E-01 
    8.0914054088920062E-01 
    8.0911997866612928E-01 
    7.9853425258556743E-01 
    7.9852041184725375E-01 
    8.0910354944645257E-01 
    8.0909070057630172E-01 
    7.9850743173657346E-01 
    7.9849699634734084E-01 
    8.0908192573283777E-01 
    7.8771817307868530E-01 
    7.7527544471430199E-01 
    7.7527392207071488E-01 
    7.8771622203742686E-01 
    7.8771233690692843E-01 
    7.7527089307697650E-01 
    7.7526638466001052E-01 
    7.8770654776542715E-01 
    7.8769889212112620E-01 
    7.7526042868738276E-01 
    7.7525306256511684E-01 
    7.8768941590584962E-01 
    7.8767817366485671E-01 
    7.7524432944335442E-01 
    7.7523427820244717E-01 
    7.8766522841793751E-01 
    7.8765065137719814E-01 
    7.7522296333755447E-01 
    7.7521044479277246E-01 
    7.8763452159332836E-01 
    7.8761692556271334E-01 
    7.7519678776920908E-01 
    7.7518206251980082E-01 
    7.8759795681191436E-01 
    7.8757771546897049E-01 
    7.7516634413812469E-01 
    7.7514971234564156E-01 
    7.8755630782754527E-01 
    7.8753384590814235E-01 
    7.7513225128030161E-01 
    7.7511404928860228E-01 
    7.8751044701958028E-01 
    7.8748623332322454E-01 
    7.7509519872267274E-01 
    7.7507579574358709E-01 
    7.8746133140192076E-01 
    7.8743587183501840E-01 
    7.7505594013175938E-01 
    7.7503573510484070E-01 
    7.8740998878023316E-01 
    7.8738381956224968E-01 
    7.7501528714291368E-01 
    7.7499470581979579E-01 
    7.8735750426677920E-01 
    7.8733118533704438E-01 
    7.7497410363765595E-01 
    7.7495359585949164E-01 
    7.8730500716695140E-01 
    7.8727911568091558E-01 
    7.7493330032949781E-01 
    7.7491333726359868E-01 
    7.8725365788319168E-01 
    7.8722878134744578E-01 
    7.7489382897873649E-01 
    7.7487489950489430E-01 
    7.8720463359595938E-01 
    7.8718136127903771E-01 
    7.7485667397843105E-01 
    7.7483927762943305E-01 
    7.8715910899214958E-01 
    7.8713801742645939E-01 
    7.7482283400942653E-01 
    7.7480746177633797E-01 
    7.8711822026405409E-01 
    7.8709983864257438E-01 
    7.7479326868797782E-01 
    7.7478034008006491E-01 
    7.8708297076958056E-01 
    7.8706767153834245E-01 
    7.7476871614531684E-01 
    7.7475834534390076E-01 
    7.8705391068094854E-01 
    7.8704148169309718E-01 
    7.7474898142212056E-01 
    7.7473992275521986E-01 
    7.8702978361930620E-01 
    7.8701720566890798E-01 
    7.7472942901821062E-01 
    7.7472038288873657E-01 
    7.8700637327708822E-01 
    7.6215988068744855E-01 
    7.4838124972975184E-01 
    7.4838004667453273E-01 
    7.6215857140996590E-01 
    7.6215596887710535E-01 
    7.4837765634728692E-01 
    7.4837410367287260E-01 
    7.6215209871970324E-01 
    7.6214699040323730E-01 
    7.4836941688253922E-01 
    7.4836362741214479E-01 
    7.6214067745203895E-01 
    7.6213319761074427E-01 
    7.4835676999758727E-01 
    7.4834888271117372E-01 
    7.6212459287372014E-01 
    7.6211490944252058E-01 
    7.4834000694908709E-01 
    7.4833018738737267E-01 
    7.6210419764467452E-01 
    7.6209251183179583E-01 
    7.4831947191837456E-01 
    7.4830791157509846E-01 
    7.6207991026718347E-01 
    7.6206645500890913E-01 
    7.4829556044802537E-01 
    7.4828247559698169E-01 
    7.6205221179207860E-01 
    7.6203724991261212E-01 
    7.4826871695938024E-01 
    7.4825434725518158E-01 
    7.6202164211407175E-01 
    7.6200546447851858E-01 
    7.4823943188813946E-01 
    7.4822403884208954E-01 
    7.6198879632194305E-01 
    7.6197172009436853E-01 
    7.4820823857012553E-01 
    7.4819210387330393E-01 
    7.6195432128416707E-01 
    7.6193668832530226E-01 
    7.4817570976383752E-01 
    7.4815913330524952E-01 
    7.6191891250493204E-01 
    7.6190108786672162E-01 
    7.4814245341817975E-01 
    7.4812575063459918E-01 
    7.6188331110177654E-01 
    7.6186568141331079E-01 
    7.4810910677363707E-01 
    7.4809260449638548E-01 
    7.6184830033118134E-01 
    7.6183127143489582E-01 
    7.4807632667005253E-01 
    7.4806035542443172E-01 
    7.6181469991221484E-01 
    7.6179869182256854E-01 
    7.4804477069798958E-01 
    7.4802964791125570E-01 
    7.6178335282548360E-01 
    7.6176878592436703E-01 
    7.4801505409937108E-01 
    7.4800104123263389E-01 
    7.6175508736391195E-01 
    7.6174233899372346E-01 
    7.4798763422489734E-01 
    7.4797480848981135E-01 
    7.6173059370607221E-01 
    7.6171984679012406E-01 
    7.4796244561924163E-01 
    7.4795023783462555E-01 
    7.6170997640423344E-01 
    7.6170060516347904E-01 
    7.4793744835288534E-01 
    7.4792219736674115E-01 
    7.6169071832562074E-01 
    7.6167941087326274E-01 
    7.4790586616732524E-01 
    7.4789688331395576E-01 
    7.6167121947033289E-01 
    7.3395301493577225E-01 
    7.1888844946199237E-01 
    7.1888732401679312E-01 
    7.3395186540983903E-01 
    7.3394958195465754E-01 
    7.1888508853266564E-01 
    7.1888176734530895E-01 
    7.3394618914167720E-01 
    7.3394171466340963E-01 
    7.1887738788442923E-01 
    7.1887198007775344E-01 
    7.3393618896156265E-01 
    7.3392964525890181E-01 
    7.1886557632255055E-01 
    7.1885821151978291E-01 
    7.3392211959670017E-01 
    7.3391365084569715E-01 
    7.1884992310315421E-01 
    7.1884075105451928E-01 
    7.3390428069416891E-01 
    7.3389405361981175E-01 
    7.1883073790769214E-01 
    7.1881992874417400E-01 
    7.3388301685078194E-01 
    7.3387122031953533E-01 
    7.1880837118383079E-01 
    7.1879611537273347E-01 
    7.3385871661170132E-01 
    7.3384556091114017E-01 
    7.1878321396957889E-01 
    7.1876972213140367E-01 
    7.3383181094142069E-01 
    7.3381752690314339E-01 
    7.1875569749860146E-01 
    7.1874120017847432E-01 
    7.3380277140563743E-01 
    7.3378760939048193E-01 
    7.1872629272555644E-01 
    7.1871104011555709E-01 
    7.3377210804286008E-01 
    7.3375633668467444E-01 
    7.1869550970771279E-01 
    7.1867977118714910E-01 
    7.3374036664026787E-01 
    7.3372427106084581E-01 
    7.1866389647381934E-01 
    7.1864795957643546E-01 
    7.3370812468620505E-01 
    7.3369200351026131E-01 
    7.1863203635629602E-01 
    7.1861620414291538E-01 
    7.3367598429667180E-01 
    7.3366014385623435E-01 
    7.1860054110317140E-01 
    7.1858512519343332E-01 
    7.3364455793668826E-01 
    7.3362929946437394E-01 
    7.1857003239012207E-01 
    7.1855533363733670E-01 
    7.3361443566841922E-01 
    7.3360002321305284E-01 
    7.1854108944006090E-01 
    7.1852733997476292E-01 
    7.3358609965010024E-01 
    7.3357266779447039E-01 
    7.1851408627087110E-01 
    7.1850125244761065E-01 
    7.3355966576484821E-01 
    7.3354690550952029E-01 
    7.1848860350127963E-01 
    7.1847554131205682E-01 
    7.3353393174086923E-01 
    7.3351963962913580E-01 
    7.1846051570421954E-01 
    7.1844161754481550E-01 
    7.3350133086859881E-01 
    7.3348263271844627E-01 
    7.1842459287408944E-01 
    7.1841646658345870E-01 
    7.3347340508838832E-01 
    7.0319921136059682E-01 
    6.8689498181753350E-01 
    6.8689384934969322E-01 
    7.0319808900087422E-01 
    7.0319585939243712E-01 
    6.8689159921563292E-01 
    6.8688825502459638E-01 
    7.0319254650106544E-01 
    7.0318817735550276E-01 
    6.8688384346857645E-01 
    6.8687839336991574E-01 
    7.0318278125735767E-01 
    7.0317638968589735E-01 
    6.8687193552605097E-01 
    6.8686450270710298E-01 
    7.0316903631293715E-01 
    7.0316075702957526E-01 
    6.8685612968236398E-01 
    6.8684685324608363E-01 
    7.0315158996498139E-01 
    7.0314157549437373E-01 
    6.8683671223544163E-01 
    6.8682574753969095E-01 
    7.0313075623719834E-01 
    7.0311917704699822E-01 
    6.8681400210090893E-01 
    6.8680152090677493E-01 
    7.0310688499399765E-01 
    7.0309392934068871E-01 
    6.8678835097526347E-01 
    6.8677454133034910E-01 
    7.0308036150987152E-01 
    7.0306623504364185E-01 
    6.8676014296681898E-01 
    6.8674520880096901E-01 
    7.0305160555064106E-01 
    7.0303653063733951E-01 
    6.8672979360217412E-01 
    6.8671395389775647E-01 
    7.0302106981696899E-01 
    7.0300528438657073E-01 
    6.8669774783978454E-01 
    6.8668123501668432E-01 
    7.0298923725791040E-01 
    7.0297299272071478E-01 
    6.8666447618355098E-01 
    6.8664753287065716E-01 
    7.0295661610511395E-01 
    7.0294017329130665E-01 
    6.8663046680588957E-01 
    6.8661333904637811E-01 
    7.0292372998268715E-01 
    7.0290735060347553E-01 
    6.8659620864340287E-01 
    6.8657913053452313E-01 
    7.0289109658258764E-01 
    7.0287502359970033E-01 
    6.8656215210797100E-01 
    6.8654530738597830E-01 
    7.0285917700775558E-01 
    7.0284358390861279E-01 
    6.8652860672017790E-01 
    6.8651201751039503E-01 
    7.0282823876928013E-01 
    7.0281307578367780E-01 
    6.8649542559880161E-01 
    6.8647855083453679E-01 
    7.0279791170605499E-01 
    7.0278231452864526E-01 
    6.8646073885692305E-01 
    6.8644037431138538E-01 
    7.0276525460891115E-01 
    7.0274412057477309E-01 
    6.8641412701758764E-01 
    6.8638730652967173E-01 
    7.0272033785974986E-01 
    7.0270416945746261E-01 
    6.8637140515734185E-01 
    6.8636521927628447E-01 
    7.0269755842584070E-01 
    6.6998286021825870E-01 
    6.5246699716554935E-01 
    6.5246581100956103E-01 
    6.6998170685088487E-01 
    6.6997941458393684E-01 
    6.5246345275113982E-01 
    6.5245994513061212E-01 
    6.6997600665266721E-01 
    6.6997150941930739E-01 
    6.5245531403474666E-01 
    6.5244958728049962E-01 
    6.6996595128166170E-01 
    6.6995936246157151E-01 
    6.5244279434505614E-01 
    6.5243496631913300E-01 
    6.6995177498425762E-01 
    6.6994322270267326E-01 
    6.5242613591859044E-01 
    6.5241633750781070E-01 
    6.6993374132851569E-01 
    6.6992336845887157E-01 
    6.5240560711983508E-01 
    6.5239398246801517E-01 
    6.6991214359556328E-01 
    6.6990010815660983E-01 
    6.5238150294698705E-01 
    6.5236820962145325E-01 
    6.6988730547962938E-01 
    6.6987378081667825E-01 
    6.5235414520092339E-01 
    6.5233935399766940E-01 
    6.6985958131928303E-01 
    6.6984475601136839E-01 
    6.5232388186373347E-01 
    6.5230777610083746E-01 
    6.6982935574631941E-01 
    6.6981343314233799E-01 
    6.5229108533414448E-01 
    6.5227385933662374E-01 
    6.6979704248722305E-01 
    6.6978023959915067E-01 
    6.5225614878446703E-01 
    6.5223800491437778E-01 
    6.6976308162303255E-01 
    6.6974562673098725E-01 
    6.5221947903843525E-01 
    6.5220062184768191E-01 
    6.6972793367754702E-01 
    6.6971006113022380E-01 
    6.5218148239423079E-01 
    6.5216210656962037E-01 
    6.6969206664420688E-01 
    6.6967400505735752E-01 
    6.5214253476697015E-01 
    6.5212279816812035E-01 
    6.6965592590913359E-01 
    6.6963786914828882E-01 
    6.5210291260133102E-01 
    6.5208286785356451E-01 
    6.6961985769280741E-01 
    6.6960188386025832E-01 
    6.5206260788100823E-01 
    6.5204199122826167E-01 
    6.6958388300418270E-01 
    6.6956567805031408E-01 
    6.5202070389875189E-01 
    6.5199804359734548E-01 
    6.6954685021130322E-01 
    6.6952639670218839E-01 
    6.5197231895453733E-01 
    6.5193979736934904E-01 
    6.6950176871406752E-01 
    6.6947215144520045E-01 
    6.5190506387781710E-01 
    6.5188167864220725E-01 
    6.6944727618808986E-01 
    6.6943309685968666E-01 
    6.5186918103364377E-01 
    6.5186307504352814E-01 
    6.6942677782900217E-01 
    6.3434824845177196E-01 
    6.1562339238459696E-01 
    6.1562209597996842E-01 
    6.3434701663194693E-01 
    6.3434456656642424E-01 
    6.1561951609558530E-01 
    6.1561567411094420E-01 
    6.3434092043050827E-01 
    6.3433610358603021E-01 
    6.1561059461197232E-01 
    6.1560430396657284E-01 
    6.3433014325610448E-01 
    6.3432306820189732E-01 
    6.1559682994718667E-01 
    6.1558820163102568E-01 
    6.3431490865221374E-01 
    6.3430569630451961E-01 
    6.1557844938215023E-01 
    6.1556760485479534E-01 
    6.3429546434360073E-01 
    6.3428424745935075E-01 
    6.1555570099581181E-01 
    6.1554277203675956E-01 
    6.3427208185650275E-01 
    6.3425900525284729E-01 
    6.1552885347038588E-01 
    6.1551398200725582E-01 
    6.3424505686345611E-01 
    6.3423027736816073E-01 
    6.1549819550789042E-01 
    6.1548153288438079E-01 
    6.3421470885855380E-01 
    6.3419839475910333E-01 
    6.1546403396313965E-01 
    6.1544573929695801E-01 
    6.3418137971451638E-01 
    6.3416370943183187E-01 
    6.1542668990934568E-01 
    6.1540692694636900E-01 
    6.3414543046031557E-01 
    6.3412658988404236E-01 
    6.1538649119940725E-01 
    6.1536542244400250E-01 
    6.3410723488942100E-01 
    6.3408741214988584E-01 
    6.1534375851096013E-01 
    6.1532153395779754E-01 
    6.3406716693704612E-01 
    6.3404654181119036E-01 
    6.1529877812543599E-01 
    6.1527551221463816E-01 
    6.3402557464379883E-01 
    6.3400429553988191E-01 
    6.1525174473357758E-01 
    6.1522746410674811E-01 
    6.3398272186997207E-01 
    6.3396084988015911E-01 
    6.1520262603993614E-01 
    6.1517713047187661E-01 
    6.3393863969808817E-01 
    6.3391598657995585E-01 
    6.1515077597690737E-01 
    6.1512316001628964E-01 
    6.3389266070112105E-01 
    6.3386816669534207E-01 
    6.1509343334851585E-01 
    6.1505963283498388E-01 
    6.3384137351887515E-01 
    6.3380950663903113E-01 
    6.1501775609028031E-01 
    6.1497282208804793E-01 