# vtk DataFile Version 2.0
Pressure Field Data 
ASCII 
DATASET UNSTRUCTURED_GRID 

POINTS 1681 double 

    0.0000000000000000E+00     0.0000000000000000E+00     0.0000000000000000E+00 
    1.0000000000000000E+00     0.0000000000000000E+00     0.0000000000000000E+00 
    1.0000000000000000E+00     1.0000000000000000E+00     0.0000000000000000E+00 
    0.0000000000000000E+00     1.0000000000000000E+00     0.0000000000000000E+00 
    5.2499999999875258E-01     0.0000000000000000E+00     0.0000000000000000E+00 
    7.4999999999856765E-02     0.0000000000000000E+00     0.0000000000000000E+00 
    1.2499999999975850E-01     0.0000000000000000E+00     0.0000000000000000E+00 
    1.7499999999962990E-01     0.0000000000000000E+00     0.0000000000000000E+00 
    2.2499999999948389E-01     0.0000000000000000E+00     0.0000000000000000E+00 
    2.7499999999933789E-01     0.0000000000000000E+00     0.0000000000000000E+00 
    3.2499999999919210E-01     0.0000000000000000E+00     0.0000000000000000E+00 
    3.7499999999904610E-01     0.0000000000000000E+00     0.0000000000000000E+00 
    4.2499999999890020E-01     0.0000000000000000E+00     0.0000000000000000E+00 
    4.7499999999875958E-01     0.0000000000000000E+00     0.0000000000000000E+00 
    2.4999999999949701E-02     0.0000000000000000E+00     0.0000000000000000E+00 
    5.7499999999887907E-01     0.0000000000000000E+00     0.0000000000000000E+00 
    6.2499999999901101E-01     0.0000000000000000E+00     0.0000000000000000E+00 
    6.7499999999914273E-01     0.0000000000000000E+00     0.0000000000000000E+00 
    7.2499999999927467E-01     0.0000000000000000E+00     0.0000000000000000E+00 
    7.7499999999940661E-01     0.0000000000000000E+00     0.0000000000000000E+00 
    8.2499999999953844E-01     0.0000000000000000E+00     0.0000000000000000E+00 
    8.7499999999967026E-01     0.0000000000000000E+00     0.0000000000000000E+00 
    9.2499999999980220E-01     0.0000000000000000E+00     0.0000000000000000E+00 
    9.7499999999993414E-01     0.0000000000000000E+00     0.0000000000000000E+00 
    5.4999999999881310E-01     0.0000000000000000E+00     0.0000000000000000E+00 
    9.9999999999814140E-02     0.0000000000000000E+00     0.0000000000000000E+00 
    1.4999999999970290E-01     0.0000000000000000E+00     0.0000000000000000E+00 
    1.9999999999955689E-01     0.0000000000000000E+00     0.0000000000000000E+00 
    2.4999999999941089E-01     0.0000000000000000E+00     0.0000000000000000E+00 
    2.9999999999926502E-01     0.0000000000000000E+00     0.0000000000000000E+00 
    3.4999999999911913E-01     0.0000000000000000E+00     0.0000000000000000E+00 
    3.9999999999897312E-01     0.0000000000000000E+00     0.0000000000000000E+00 
    4.4999999999882723E-01     0.0000000000000000E+00     0.0000000000000000E+00 
    4.9999999999869210E-01     0.0000000000000000E+00     0.0000000000000000E+00 
    4.9999999999899403E-02     0.0000000000000000E+00     0.0000000000000000E+00 
    5.9999999999894504E-01     0.0000000000000000E+00     0.0000000000000000E+00 
    6.4999999999907687E-01     0.0000000000000000E+00     0.0000000000000000E+00 
    6.9999999999920870E-01     0.0000000000000000E+00     0.0000000000000000E+00 
    7.4999999999934064E-01     0.0000000000000000E+00     0.0000000000000000E+00 
    7.9999999999947247E-01     0.0000000000000000E+00     0.0000000000000000E+00 
    8.4999999999960441E-01     0.0000000000000000E+00     0.0000000000000000E+00 
    8.9999999999973623E-01     0.0000000000000000E+00     0.0000000000000000E+00 
    9.4999999999986817E-01     0.0000000000000000E+00     0.0000000000000000E+00 
    1.0000000000000000E+00     5.2499999999875258E-01     0.0000000000000000E+00 
    1.0000000000000000E+00     7.4999999999856765E-02     0.0000000000000000E+00 
    1.0000000000000000E+00     1.2499999999975850E-01     0.0000000000000000E+00 
    1.0000000000000000E+00     1.7499999999962990E-01     0.0000000000000000E+00 
    1.0000000000000000E+00     2.2499999999948389E-01     0.0000000000000000E+00 
    1.0000000000000000E+00     2.7499999999933789E-01     0.0000000000000000E+00 
    1.0000000000000000E+00     3.2499999999919210E-01     0.0000000000000000E+00 
    1.0000000000000000E+00     3.7499999999904610E-01     0.0000000000000000E+00 
    1.0000000000000000E+00     4.2499999999890020E-01     0.0000000000000000E+00 
    1.0000000000000000E+00     4.7499999999875958E-01     0.0000000000000000E+00 
    1.0000000000000000E+00     2.4999999999949701E-02     0.0000000000000000E+00 
    1.0000000000000000E+00     5.7499999999887907E-01     0.0000000000000000E+00 
    1.0000000000000000E+00     6.2499999999901101E-01     0.0000000000000000E+00 
    1.0000000000000000E+00     6.7499999999914273E-01     0.0000000000000000E+00 
    1.0000000000000000E+00     7.2499999999927467E-01     0.0000000000000000E+00 
    1.0000000000000000E+00     7.7499999999940661E-01     0.0000000000000000E+00 
    1.0000000000000000E+00     8.2499999999953844E-01     0.0000000000000000E+00 
    1.0000000000000000E+00     8.7499999999967026E-01     0.0000000000000000E+00 
    1.0000000000000000E+00     9.2499999999980220E-01     0.0000000000000000E+00 
    1.0000000000000000E+00     9.7499999999993414E-01     0.0000000000000000E+00 
    1.0000000000000000E+00     5.4999999999881310E-01     0.0000000000000000E+00 
    1.0000000000000000E+00     9.9999999999814140E-02     0.0000000000000000E+00 
    1.0000000000000000E+00     1.4999999999970290E-01     0.0000000000000000E+00 
    1.0000000000000000E+00     1.9999999999955689E-01     0.0000000000000000E+00 
    1.0000000000000000E+00     2.4999999999941089E-01     0.0000000000000000E+00 
    1.0000000000000000E+00     2.9999999999926502E-01     0.0000000000000000E+00 
    1.0000000000000000E+00     3.4999999999911913E-01     0.0000000000000000E+00 
    1.0000000000000000E+00     3.9999999999897312E-01     0.0000000000000000E+00 
    1.0000000000000000E+00     4.4999999999882723E-01     0.0000000000000000E+00 
    1.0000000000000000E+00     4.9999999999869210E-01     0.0000000000000000E+00 
    1.0000000000000000E+00     4.9999999999899403E-02     0.0000000000000000E+00 
    1.0000000000000000E+00     5.9999999999894504E-01     0.0000000000000000E+00 
    1.0000000000000000E+00     6.4999999999907687E-01     0.0000000000000000E+00 
    1.0000000000000000E+00     6.9999999999920870E-01     0.0000000000000000E+00 
    1.0000000000000000E+00     7.4999999999934064E-01     0.0000000000000000E+00 
    1.0000000000000000E+00     7.9999999999947247E-01     0.0000000000000000E+00 
    1.0000000000000000E+00     8.4999999999960441E-01     0.0000000000000000E+00 
    1.0000000000000000E+00     8.9999999999973623E-01     0.0000000000000000E+00 
    1.0000000000000000E+00     9.4999999999986817E-01     0.0000000000000000E+00 
    4.7500000000196618E-01     1.0000000000000000E+00     0.0000000000000000E+00 
    9.2499999999968763E-01     1.0000000000000000E+00     0.0000000000000000E+00 
    8.7499999999961831E-01     1.0000000000000000E+00     0.0000000000000000E+00 
    8.2499999999982654E-01     1.0000000000000000E+00     0.0000000000000000E+00 
    7.7500000000017355E-01     1.0000000000000000E+00     0.0000000000000000E+00 
    7.2500000000052045E-01     1.0000000000000000E+00     0.0000000000000000E+00 
    6.7500000000086724E-01     1.0000000000000000E+00     0.0000000000000000E+00 
    6.2500000000121403E-01     1.0000000000000000E+00     0.0000000000000000E+00 
    5.7500000000156093E-01     1.0000000000000000E+00     0.0000000000000000E+00 
    5.2500000000189684E-01     1.0000000000000000E+00     0.0000000000000000E+00 
    9.7499999999989595E-01     1.0000000000000000E+00     0.0000000000000000E+00 
    4.2500000000176902E-01     1.0000000000000000E+00     0.0000000000000000E+00 
    3.7500000000156092E-01     1.0000000000000000E+00     0.0000000000000000E+00 
    3.2500000000135282E-01     1.0000000000000000E+00     0.0000000000000000E+00 
    2.7500000000114472E-01     1.0000000000000000E+00     0.0000000000000000E+00 
    2.2500000000093659E-01     1.0000000000000000E+00     0.0000000000000000E+00 
    1.7500000000072849E-01     1.0000000000000000E+00     0.0000000000000000E+00 
    1.2500000000052039E-01     1.0000000000000000E+00     0.0000000000000000E+00 
    7.5000000000312261E-02     1.0000000000000000E+00     0.0000000000000000E+00 
    2.5000000000104109E-02     1.0000000000000000E+00     0.0000000000000000E+00 
    4.5000000000187301E-01     1.0000000000000000E+00     0.0000000000000000E+00 
    8.9999999999958358E-01     1.0000000000000000E+00     0.0000000000000000E+00 
    8.4999999999965303E-01     1.0000000000000000E+00     0.0000000000000000E+00 
    8.0000000000000004E-01     1.0000000000000000E+00     0.0000000000000000E+00 
    7.5000000000034706E-01     1.0000000000000000E+00     0.0000000000000000E+00 
    7.0000000000069384E-01     1.0000000000000000E+00     0.0000000000000000E+00 
    6.5000000000104063E-01     1.0000000000000000E+00     0.0000000000000000E+00 
    6.0000000000138742E-01     1.0000000000000000E+00     0.0000000000000000E+00 
    5.5000000000173432E-01     1.0000000000000000E+00     0.0000000000000000E+00 
    5.0000000000205946E-01     1.0000000000000000E+00     0.0000000000000000E+00 
    9.4999999999979179E-01     1.0000000000000000E+00     0.0000000000000000E+00 
    4.0000000000166491E-01     1.0000000000000000E+00     0.0000000000000000E+00 
    3.5000000000145681E-01     1.0000000000000000E+00     0.0000000000000000E+00 
    3.0000000000124871E-01     1.0000000000000000E+00     0.0000000000000000E+00 
    2.5000000000104061E-01     1.0000000000000000E+00     0.0000000000000000E+00 
    2.0000000000083251E-01     1.0000000000000000E+00     0.0000000000000000E+00 
    1.5000000000062441E-01     1.0000000000000000E+00     0.0000000000000000E+00 
    1.0000000000041630E-01     1.0000000000000000E+00     0.0000000000000000E+00 
[...]
CELL_DATA 1600 
SCALARS Pressure double 1 
LOOKUP_TABLE default 

    9.0444232901585397E-01 
    8.8505094013758634E-01 
    8.8495149354137270E-01 
    9.0251379233661810E-01 
    9.0072328525438317E-01 
    8.8477106558741081E-01 
    8.8452565789194104E-01 
    8.9906295709607853E-01 
    8.9752056413435732E-01 
    8.8422840771803757E-01 
    8.8389031406413687E-01 
    8.9608496081708522E-01 
    8.9474623273869403E-01 
    8.8352060498202389E-01 
    8.8312703170066975E-01 
    8.9349561614910433E-01 
    8.9232538090266100E-01 
    8.8271611069391398E-01 
    8.8229332463821863E-01 
    8.9122871287303063E-01 
    8.9019960543280929E-01 
    8.8186328993521379E-01 
    8.8142989671409155E-01 
    8.8923276234474258E-01 
    8.8832351204249171E-01 
    8.8099642604263295E-01 
    8.8056564819271521E-01 
    8.8746773246802313E-01 
    8.8666178539024942E-01 
    8.8013990511768847E-01 
    8.7972117974897690E-01 
    8.8590245910960819E-01 
    8.8518691852097986E-01 
    8.7931115427356543E-01 
    8.7891125918967039E-01 
    8.8451266160623399E-01 
    8.8387748153319146E-01 
    8.7852271463821652E-01 
    8.7814656526023882E-01 
    8.8327943363924888E-01 
    8.8271680667097818E-01 
    8.7778370962530916E-01 
    8.7743492510582477E-01 
    8.8218809773427631E-01 
    8.8169199048319358E-01 
    8.7710088893039362E-01 
    8.7678219603148966E-01 
    8.8122733613986426E-01 
    8.8079313699385497E-01 
    8.7647937420385635E-01 
    8.7619289700716596E-01 
    8.8038853207741308E-01 
    8.8001278475391032E-01 
    8.7592319477568381E-01 
    8.7567066403535243E-01 
    8.7966527198984634E-01 
    8.7934547510428085E-01 
    8.7543567556938751E-01 
    8.7521858130740460E-01 
    8.7905297179775710E-01 
    8.7878742924066733E-01 
    8.7501972011904539E-01 
    8.7483942241891222E-01 
    8.7854859790817652E-01 
    8.7833630557162212E-01 
    8.7467801309664439E-01 
    8.7453581128190983E-01 
    8.7815045005687198E-01 
    8.7799098699894151E-01 
    8.7441312268318738E-01 
    8.7431021231228334E-01 
    8.7785790146594389E-01 
    8.7775112991253723E-01 
    8.7422722344036063E-01 
    8.7416395757978016E-01 
    8.7767033979545750E-01 
    8.7761440313205075E-01 
    8.7411940314091430E-01 
    8.7409343700477515E-01 
    8.7758234876868213E-01 
    8.7313390871304319E-01 
    8.6204755899672147E-01 
    8.6203744857936182E-01 
    8.7310972990664915E-01 
    8.7306195581723156E-01 
    8.6201731395914971E-01 
    8.6198736125391373E-01 
    8.7299170168789231E-01 
    8.7290039438615230E-01 
    8.6194788660089683E-01 
    8.6189926916771187E-01 
    8.7278966880529019E-01 
    8.7266128681499266E-01 
    8.6184196117517975E-01 
    8.6177647708848071E-01 
    8.7251707477438711E-01 
    8.7235887631508258E-01 
    8.6170338290605364E-01 
    8.6162328599688909E-01 
    8.7218851734358049E-01 
    8.7200778070265672E-01 
    8.6153682571816459E-01 
    8.6144466492565974E-01 
    8.7181838840444270E-01 
    8.7162198975353966E-01 
    8.6134748241655601E-01 
    8.6124596629774353E-01 
    8.7142015401391149E-01 
    8.7121436654680251E-01 
    8.6114080824296435E-01 
    8.6103269858361775E-01 
    8.7100602756840040E-01 
    8.7079645285459351E-01 
    8.6092232216740316E-01 
    8.6081035491379476E-01 
    8.7058687586378369E-01 
    8.7037845086390642E-01 
    8.6069746099399724E-01 
    8.6058429056420671E-01 
    8.7017225674194965E-01 
    8.6996930124772687E-01 
    8.6047147798378709E-01 
    8.6035964045361379E-01 
    8.6977052548206135E-01 
    8.6957680848564944E-01 
    8.6024937701365878E-01 
    8.6014126784226275E-01 
    8.6938897182096753E-01 
    8.6920778406722266E-01 
    8.6003587380161539E-01 
    8.5993373617352042E-01 
    8.6903396516852138E-01 
    8.6886819058812048E-01 
    8.5983537652433439E-01 
    8.5974129662383159E-01 
    8.6871109522531587E-01 
    8.6856327704156866E-01 
    8.5965197831103046E-01 
    8.5956788313234478E-01 
    8.6842530030728815E-01 
    8.6829769829241898E-01 
    8.5948945143287614E-01 
    8.5941710026565354E-01 
    8.6818097501375990E-01 
    8.6807560514391446E-01 
    8.5935121877039000E-01 
    8.5929215801191794E-01 
    8.6798202991611728E-01 
    8.6790064358020436E-01 
    8.5924020830951975E-01 
    8.5919554760948313E-01 
    8.6783175644970789E-01 
    8.6777549952262756E-01 
    8.5915812216595144E-01 
    8.5912737213307677E-01 
    8.6773159219576523E-01 
    8.6769889416441948E-01 
    8.5910169691986538E-01 
    8.5908411136567253E-01 
    8.6767865766464147E-01 
    8.5065322516004871E-01 
    8.3861682234471702E-01 
    8.3861347769612515E-01 
    8.5064788343693665E-01 
    8.5063723591938223E-01 
    8.3860681468442233E-01 
    8.3859688467735283E-01 
    8.5062136401967148E-01 
    8.5060038177183739E-01 
    8.3858375446157041E-01 
    8.3856750733202046E-01 
    8.5057443655208498E-01 
    8.5054370778229582E-01 
    8.3854824303350139E-01 
    8.3852607721383121E-01 
    8.5050840483061407E-01 
    8.5046876454616738E-01 
    8.3850114064914105E-01 
    8.3847357834956526E-01 
    8.5042504862382129E-01 
    8.5037754090769835E-01 
    8.3844354859859227E-01 
    8.3841122195660578E-01 
    8.5032654470351854E-01 
    8.5027238014887940E-01 
    8.3837678024859041E-01 
    8.3834041555050198E-01 
    8.5021538167711941E-01 
    8.5015589560062321E-01 
    8.3830232918556191E-01 
    8.3826273073955626E-01 
    8.5009427783179803E-01 
    8.5003089175373814E-01 
    8.3822183710252540E-01 
    8.3817987154276818E-01 
    8.4996610624749858E-01 
    8.4990029387861088E-01 
    8.3813706281765799E-01 
    8.3809364432427991E-01 
    8.4983382924185402E-01 
    8.4976708746009599E-01 
    8.3804985329114834E-01 
    8.3800593001004076E-01 
    8.4970044283001489E-01 
    8.4963426760432348E-01 
    8.3796211710388302E-01 
    8.3791865882194860E-01 
    8.4956893089619812E-01 
    8.4950479768601983E-01 
    8.3787580034614373E-01 
    8.3783378707961409E-01 
    8.4944222790158874E-01 
    8.4938157552757865E-01 
    8.3779286386699547E-01 
    8.3775327405612454E-01 
    8.4932318767209314E-01 
    8.4926740346561735E-01 
    8.3771525823739046E-01 
    8.3767905235549733E-01 
    8.4921455256512146E-01 
    8.4916495282912030E-01 
    8.3764488460876962E-01 
    8.3761296998316737E-01 
    8.4911890629790598E-01 
    8.4907669168601307E-01 
    8.3758350008669125E-01 
    8.3755662343338444E-01 
    8.4903854955222979E-01 
    8.4900465172276629E-01 
    8.3753240577606647E-01 
    8.3751074693403349E-01 
    8.4897503597799839E-01 
    8.4894946141054706E-01 
    8.3749119474392963E-01 
    8.3747249618816177E-01 
    8.4892707567817716E-01 
    8.4890595866875662E-01 
    8.3745355262489374E-01 
    8.3744073700440025E-01 
    8.4889064642104806E-01 
    8.2582864921457877E-01 
    8.1225853534051007E-01 
    8.1225655430458710E-01 
    8.2582622349955448E-01 
    8.2582139568221646E-01 
    8.1225261477030708E-01 
    8.1224675421646675E-01 
    8.2581420723173837E-01 
    8.2580470860325461E-01 
    8.1223901643136975E-01 
    8.1222945165401295E-01 
    8.2579295988665413E-01 
    8.2577903094412153E-01 
    8.1221811669803434E-01 
    8.1220507491840288E-01 
    8.2576300124981183E-01 
    8.2574495958131577E-01 
    8.1219039608170052E-01 
    8.1217415617964417E-01 
    8.2572500363136381E-01 
    8.2570323957400460E-01 
    8.1215643720885167E-01 
    8.1213732693030616E-01 
    8.2567978160393285E-01 
    8.2565475145999812E-01 
    8.1211691861652646E-01 
    8.1209531079122255E-01 
    8.2562827793988502E-01 
    8.2560049641063282E-01 
    8.1207260696420835E-01 
    8.1204891536292423E-01 
    8.2557154831817547E-01 
    8.2554158069794858E-01 
    8.1202434866078488E-01 
    8.1199902370140520E-01 
    8.2551074568756588E-01 
    8.2547920004139352E-01 
    8.1197306121640711E-01 
    8.1194658553268251E-01 
    8.2544710464536053E-01 
    8.2541462402827459E-01 
    8.1191972426235615E-01 
    8.1189260796473040E-01 
    8.2538192586288128E-01 
    8.2534918044529215E-01 
    8.1186536976336421E-01 
    8.1183814489163642E-01 
    8.2531656013413957E-01 
    8.2528423871904155E-01 
    8.1181107012416542E-01 
    8.1178428302459671E-01 
    8.2525239066828204E-01 
    8.2522119017171480E-01 
    8.1175792089388810E-01 
    8.1173211922078947E-01 
    8.2519080983477011E-01 
    8.2516141876936011E-01 
    8.1170700928516748E-01 
    8.1168271427933647E-01 
    8.2513317961963895E-01 
    8.2510624365632346E-01 
    8.1165934275591578E-01 
    8.1163697708871929E-01 
    8.2508074226394679E-01 
    8.2505677147603040E-01 
    8.1161565227910160E-01 
    8.1159531518772876E-01 
    8.2503436262869900E-01 
    8.2501342393348021E-01 
    8.1157574121988130E-01 
    8.1155634734904203E-01 
    8.2499361599704479E-01 
    8.2497405663304924E-01 
    8.1153571795591184E-01 
    8.1151105930028244E-01 
    8.2495259428957746E-01 
    8.2493089365525041E-01 
    8.1148752841855809E-01 
    8.1147604041352750E-01 
    8.2491889790348438E-01 
    7.9790621231683900E-01 
    7.8278182628758186E-01 
    7.8278016715247789E-01 
    7.9790445025589996E-01 
    7.9790094798554578E-01 
    7.8277687008537322E-01 
    7.8277196927951975E-01 
    7.9789574100871152E-01 
    7.9788886997495956E-01 
    7.8276550354200958E-01 
    7.8275751559911577E-01 
    7.9788038036904008E-01 
    7.9787032256488377E-01 
    7.8274805205982101E-01 
    7.8273716342996724E-01 
    7.9785875183623800E-01 
    7.9784572831123624E-01 
    7.8272490410331885E-01 
    7.8271133232409684E-01 
    7.9783131688646192E-01 
    7.9781558711438594E-01 
    7.8269651012640651E-01 
    7.8268050325636196E-01 
    7.9779861307381605E-01 
    7.9778047322959833E-01 
    7.8266338108110445E-01 
    7.8264521648716201E-01 
    7.9776125028538036E-01 
    7.9774103103150396E-01 
    7.8262608576901105E-01 
    7.8260606850723335E-01 
    7.9771990618873867E-01 
    7.9769797024733169E-01 
    7.8258524743411961E-01 
    7.8256370828278132E-01 
    7.9767532129953500E-01 
    7.9765206086212348E-01 
    7.8254153961349426E-01 
    7.8251883260775645E-01 
    7.9762829368315558E-01 
    7.9760412752392473E-01 
    7.8249568081578813E-01 
    7.8247217983603179E-01 
    7.9757967290199439E-01 
    7.9755504277332689E-01 
    7.8244842689408167E-01 
    7.8242452027072817E-01 
    7.9753035211885093E-01 
    7.9750571737997600E-01 
    7.8240055849974999E-01 
    7.8237663920696987E-01 
    7.9748125565233052E-01 
    7.9745708348570932E-01 
    7.8235285737647675E-01 
    7.8232930267557588E-01 
    7.9743331502845727E-01 
    7.9741005905155526E-01 
    7.8230605518124241E-01 
    7.8228317828815663E-01 
    7.9738741399942514E-01 
    7.9736545944501735E-01 
    7.8226070643138468E-01 
    7.8223862278903278E-01 
    7.9734424073698018E-01 
    7.9732374015636553E-01 
    7.8221681642139018E-01 
    7.8219499366998324E-01 
    7.9730381965807950E-01 
    7.9728409792932897E-01 
    7.8217247568909742E-01 
    7.8214767937299112E-01 
    7.9726365423419610E-01 
    7.9724026736219966E-01 
    7.8211727440721479E-01 
    7.8208548342706596E-01 
    7.9721316573422729E-01 
    7.9719159107241977E-01 
    7.8206538805468773E-01 
    7.8205724529332665E-01 
    7.9718184258870406E-01 
    7.6689779699827210E-01 
    7.5026502925700989E-01 
    7.5026340661194324E-01 
    7.6689617676950106E-01 
    7.6689295685346526E-01 
    7.5026018112512483E-01 
    7.5025538493370958E-01 
    7.6688817040423274E-01 
    7.6688185497074035E-01 
    7.5024905448260970E-01 
    7.5024122925194581E-01 
    7.6687405148658672E-01 
    7.6686480414237757E-01 
    7.5023195153835587E-01 
    7.5022126643432485E-01 
    7.6685416038869925E-01 
    7.6684217094591056E-01 
    7.5020922184038441E-01 
    7.5019586847081232E-01 
    7.6682888979722164E-01 
    7.6681437416297749E-01 
    7.5018125984370787E-01 
    7.5016545225424847E-01 
    7.6679868445850963E-01 
    7.6678188423802518E-01 
    7.5014850473152128E-01 
    7.5013047897889218E-01 
    7.6676404012596533E-01 
    7.6674522173595250E-01 
    7.5011143929668900E-01 
    7.5009145248436693E-01 
    7.6672550157595720E-01 
    7.6670495493662172E-01 
    7.5007058771726509E-01 
    7.5004891639029880E-01 
    7.6668365975753872E-01 
    7.6666169646339288E-01 
    7.5002651191713321E-01 
    7.5000344946783160E-01 
    7.6663914775777775E-01 
    7.6661609835640243E-01 
    7.4997980561972821E-01 
    7.4995565788357954E-01 
    7.6659263463211902E-01 
    7.6656884412963677E-01 
    7.4993108404707165E-01 
    7.4990616124545206E-01 
    7.6654481488441595E-01 
    7.6652063444150453E-01 
    7.4988096461503795E-01 
    7.4985556529193287E-01 
    7.6649638840389012E-01 
    7.6647215822282022E-01 
    7.4983002735057036E-01 
    7.4980440296230721E-01 
    7.6644801772761961E-01 
    7.6642402748074800E-01 
    7.4977872443413318E-01 
    7.4975299049734301E-01 
    7.6640022521738083E-01 
    7.6637660887510850E-01 
    7.4972714134653273E-01 
    7.4970101001787726E-01 
    7.6635310474152563E-01 
    7.6632950340680372E-01 
    7.4967421937469325E-01 
    7.4964594010421159E-01 
    7.6630531900979637E-01 
    7.6627944356615374E-01 
    7.4961426744664195E-01 
    7.4957541341628386E-01 
    7.6624927070688298E-01 
    7.6621301666480612E-01 
    7.4953394848389177E-01 
    7.4950481110388711E-01 
    7.6618098013157732E-01 
    7.6616258434670048E-01 
    7.4948876330600789E-01 
    7.4948105951759414E-01 
    7.6615477211240623E-01 
    7.3289110067794039E-01 
    7.1477903950448485E-01 
    7.1477731249671450E-01 
    7.3288944281608015E-01 
    7.3288614603386815E-01 
    7.1477387634428735E-01 
    7.1476876069426853E-01 
    7.3288124134894339E-01 
    7.3287476406050733E-01 
    7.1476199947606356E-01 
    7.1475362922691965E-01 
    7.3286675225745090E-01 
    7.3285724651136253E-01 
    7.1474368870175398E-01 
    7.1473221878559812E-01 
    7.3284628982438504E-01 
    7.3283392763266419E-01 
    7.1471926248136020E-01 
    7.1470486490750029E-01 
    7.3282020781210855E-01 
    7.3280518067077294E-01 
    7.1468907328393028E-01 
    7.1467193689777764E-01 
    7.3278889892306232E-01 
    7.3277141764378362E-01 
    7.1465350704447828E-01 
    7.1463383694001781E-01 
    7.3275279420010175E-01 
    7.3273308815829674E-01 
    7.1461298159884035E-01 
    7.1459099766954859E-01 
    7.3271236116031324E-01 
    7.3269067676243971E-01 
    7.1456794321696882E-01 
    7.1454387743404613E-01 
    7.3266810022475781E-01 
    7.3264469823475509E-01 
    7.1451886025959688E-01 
    7.1449295186689354E-01 
    7.3262053854078402E-01 
    7.3259568945945241E-01 
    7.1446621197122584E-01 
    7.1443869887836398E-01 
    7.3257021920311416E-01 
    7.3254419494520207E-01 
    7.1441046815376319E-01 
    7.1438157072240760E-01 
    7.3251768149467500E-01 
    7.3249073937212106E-01 
    7.1435205008832370E-01 
    7.1432193814591316E-01 
    7.3246342194178660E-01 
    7.3243577100117963E-01 
    7.1429124864976878E-01 
    7.1425996660759061E-01 
    7.3240780974435460E-01 
    7.3237953102351228E-01 
    7.1422803015860437E-01 
    7.1419529762602507E-01 
    7.3235087668164245E-01 
    7.3232169869051511E-01 
    7.1416148286534520E-01 
    7.1412601605320658E-01 
    7.3229167991254540E-01 
    7.3226015587964033E-01 
    7.1408771162963991E-01 
    7.1404395011591426E-01 
    7.3222567052395204E-01 
    7.3218494666323863E-01 
    7.1399086986094584E-01 
    7.1393642189095485E-01 
    7.3213679013993571E-01 
    7.3209436520388294E-01 
    7.1389742196096906E-01 
    7.1387291702479394E-01 
    7.3206775466447960E-01 
    7.3205237616581453E-01 
    7.1385707696156475E-01 
    7.1384915709990648E-01 
    7.3204470749467854E-01 
    6.9592612082795891E-01 
    6.7632232396367697E-01 
    6.7632030197929804E-01 
    6.9592427953450975E-01 
    6.9592061327263721E-01 
    6.7631627193364330E-01 
    6.7631025830413471E-01 
    6.9591514969923296E-01 
    6.9590792070333030E-01 
    6.7630228963909877E-01 
    6.7629239661969121E-01 
    6.9589896057992384E-01 
    6.9588830555731795E-01 
    6.7628061150942520E-01 
    6.7626696796637453E-01 
    6.9587599366379704E-01 
    6.9586206468350476E-01 
    6.7625150095102748E-01 
    6.7623424664415843E-01 
    6.9584656012530166E-01 
    6.9582952317695501E-01 
    6.7621524234113495E-01 
    6.7619452630527699E-01 
    6.9581099863215168E-01 
    6.9579103278213494E-01 
    6.7617213756688588E-01 
    6.7614811565384569E-01 
    6.9576967326396955E-01 
    6.9574696885550436E-01 
    6.7612250023623233E-01 
    6.7609533066132466E-01 
    6.9572296920351773E-01 
    6.9569772446610001E-01 
    6.7606664534626604E-01 
    6.7603648098203317E-01 
    6.9567128484237162E-01 
    6.9564369995090669E-01 
    6.7600487148201904E-01 
    6.7597184657751608E-01 
    6.9561501800058145E-01 
    6.9558528467055303E-01 
    6.7593742991427086E-01 
    6.7590163642775003E-01 
    6.9555454157365215E-01 
    6.9552282410871336E-01 
    6.7586446864884586E-01 
    6.7582591137505277E-01 
    6.9549015839127237E-01 
    6.9545655674718598E-01 
    6.7578592375025448E-01 
    6.7574442705337401E-01 
    6.9542201087683675E-01 
    6.9538648107346246E-01 
    6.7570128501963767E-01 
    6.7565627039621534E-01 
    6.9534987840137286E-01 
    6.9531203347745563E-01 
    6.7560900427210835E-01 
    6.7555883695475805E-01 
    6.9527263770776360E-01 
    6.9523112264470366E-01 
    6.7550459311903377E-01 
    6.7544400336590527E-01 
    6.9518638686291401E-01 
    6.9513614166211768E-01 
    6.7537300902332220E-01 
    6.7529216997176877E-01 
    6.9507618358826229E-01 
    6.9500950946885920E-01 
    6.7521939108683027E-01 
    6.7516837793364959E-01 
    6.9495477296253283E-01 
    6.9491865994939084E-01 
    6.7513264708118159E-01 
    6.7510614535997937E-01 
    6.9489409067732277E-01 
    6.9487772513540591E-01 
    6.7508847298696606E-01 
    6.7507963541651472E-01 
    6.9486954040511861E-01 
    6.5594757339220211E-01 
    6.3476675289619411E-01 
    6.3476398221698604E-01 
    6.5594526453396174E-01 
    6.5594065657586420E-01 
    6.3475844278887672E-01 
    6.3475014238499350E-01 
    6.5593376830649186E-01 
    6.5592462210324964E-01 
    6.3473909108455973E-01 
    6.3472529931323618E-01 
    6.5591324193974687E-01 
    6.5589965275857254E-01 
    6.3470877711888651E-01 
    6.3468953375855097E-01 
    6.5588388020647137E-01 
    6.5586595045620344E-01 
    6.3466757732557055E-01 
    6.3464291431657571E-01 
    6.5584589002149041E-01 
    6.5582372552449075E-01 
    6.3461554908612683E-01 
    6.3458548314937013E-01 
    6.5579948339120508E-01 
    6.5577318945232732E-01 
    6.3455271428939752E-01 
    6.3451723541386729E-01 
    6.5574486842344026E-01 
    6.5571454323105582E-01 
    6.3447903308693065E-01 
    6.3443808563448234E-01 
    6.5568223413917270E-01 
    6.5564795761318495E-01 
    6.3439436067874522E-01 
    6.3434781189430012E-01 
    6.5561172483121533E-01 
    6.5557353971217613E-01 
    6.3429837467845784E-01 
    6.3424596027144042E-01 
    6.5553339626664420E-01 
    6.5549127497660864E-01 
    6.3419044760616217E-01 
    6.3413167174120644E-01 
    6.5544713774778052E-01 
    6.5540092070511735E-01 
    6.3406940699512604E-01 
    6.3400334157395721E-01 
    6.5535252362106777E-01 
    6.5530179387153598E-01 
    6.3393303797315281E-01 
    6.3385786849891479E-01 
    6.5524850106230803E-01 
    6.5519229486195751E-01 
    6.3377690560847744E-01 
    6.3368873091895361E-01 
    6.5513263073681116E-01 
    6.5506863027393769E-01 
    6.3359112960191122E-01 
    6.3348092337959316E-01 
    6.5499880259880905E-01 
    6.5492051606565305E-01 
    6.3335610516545404E-01 
    6.3322340979909519E-01 
    6.5482986765506657E-01 
    6.5472822794558472E-01 
    6.3310300469113856E-01 
    6.3301112256267322E-01 
    6.5463352088569460E-01 
    6.5456307971665328E-01 
    6.3294346597704298E-01 
    6.3289000101880821E-01 