# vtk DataFile Version 2.0
Pressure Field Data 
ASCII 
DATASET UNSTRUCTURED_GRID 

POINTS 1681 double 

    0.0000000000000000E+00     0.0000000000000000E+00     0.0000000000000000E+00 
    1.0000000000000000E+00     0.0000000000000000E+00     0.0000000000000000E+00 
    1.0000000000000000E+00     1.0000000000000000E+00     0.0000000000000000E+00 
    0.0000000000000000E+00     1.0000000000000000E+00     0.0000000000000000E+00 
    5.2499999999875258E-01     0.0000000000000000E+00     0.0000000000000000E+00 
    7.4999999999856765E-02     0.0000000000000000E+00     0.0000000000000000E+00 
    1.2499999999975850E-01     0.0000000000000000E+00     0.0000000000000000E+00 
    1.7499999999962990E-01     0.0000000000000000E+00     0.0000000000000000E+00 
    2.2499999999948389E-01     0.0000000000000000E+00     0.0000000000000000E+00 
    2.7499999999933789E-01     0.0000000000000000E+00     0.0000000000000000E+00 
    3.2499999999919210E-01     0.0000000000000000E+00     0.0000000000000000E+00 
    3.7499999999904610E-01     0.0000000000000000E+00     0.0000000000000000E+00 
    4.2499999999890020E-01     0.0000000000000000E+00     0.0000000000000000E+00 
    4.7499999999875958E-01     0.0000000000000000E+00     0.0000000000000000E+00 
    2.4999999999949701E-02     0.0000000000000000E+00     0.0000000000000000E+00 
    5.7499999999887907E-01     0.0000000000000000E+00     0.0000000000000000E+00 
    6.2499999999901101E-01     0.0000000000000000E+00     0.0000000000000000E+00 
    6.7499999999914273E-01     0.0000000000000000E+00     0.0000000000000000E+00 
    7.2499999999927467E-01     0.0000000000000000E+00     0.0000000000000000E+00 
    7.7499999999940661E-01     0.0000000000000000E+00     0.0000000000000000E+00 
    8.2499999999953844E-01     0.0000000000000000E+00     0.0000000000000000E+00 
    8.7499999999967026E-01     0.0000000000000000E+00     0.0000000000000000E+00 
    9.2499999999980220E-01     0.0000000000000000E+00     0.0000000000000000E+00 
    9.7499999999993414E-01     0.0000000000000000E+00     0.0000000000000000E+00 
    5.4999999999881310E-01     0.0000000000000000E+00     0.0000000000000000E+00 
    9.9999999999814140E-02     0.0000000000000000E+00     0.0000000000000000E+00 
    1.4999999999970290E-01     0.0000000000000000E+00     0.0000000000000000E+00 
    1.9999999999955689E-01     0.0000000000000000E+00     0.0000000000000000E+00 
    2.4999999999941089E-01     0.0000000000000000E+00     0.0000000000000000E+00 
    2.9999999999926502E-01     0.0000000000000000E+00     0.0000000000000000E+00 
    3.4999999999911913E-01     0.0000000000000000E+00     0.0000000000000000E+00 
    3.9999999999897312E-01     0.0000000000000000E+00     0.0000000000000000E+00 
    4.4999999999882723E-01     0.0000000000000000E+00     0.0000000000000000E+00 
    4.9999999999869210E-01     0.0000000000000000E+00     0.0000000000000000E+00 
    4.9999999999899403E-02     0.0000000000000000E+00     0.0000000000000000E+00 
    5.9999999999894504E-01     0.0000000000000000E+00     0.0000000000000000E+00 
    6.4999999999907687E-01     0.0000000000000000E+00     0.0000000000000000E+00 
    6.9999999999920870E-01     0.0000000000000000E+00     0.0000000000000000E+00 
    7.4999999999934064E-01     0.0000000000000000E+00     0.0000000000000000E+00 
    7.9999999999947247E-01     0.0000000000000000E+00     0.0000000000000000E+00 
    8.4999999999960441E-01     0.0000000000000000E+00     0.0000000000000000E+00 
    8.9999999999973623E-01     0.0000000000000000E+00     0.0000000000000000E+00 
    9.4999999999986817E-01     0.0000000000000000E+00     0.0000000000000000E+00 
    1.0000000000000000E+00     5.2499999999875258E-01     0.0000000000000000E+00 
    1.0000000000000000E+00     7.4999999999856765E-02     0.0000000000000000E+00 
    1.0000000000000000E+00     1.2499999999975850E-01     0.0000000000000000E+00 
    1.0000000000000000E+00     1.7499999999962990E-01     0.0000000000000000E+00 
    1.0000000000000000E+00     2.2499999999948389E-01     0.0000000000000000E+00 
    1.0000000000000000E+00     2.7499999999933789E-01     0.0000000000000000E+00 
    1.0000000000000000E+00     3.2499999999919210E-01     0.0000000000000000E+00 
    1.0000000000000000E+00     3.7499999999904610E-01     0.0000000000000000E+00 
    1.0000000000000000E+00     4.2499999999890020E-01     0.0000000000000000E+00 
    1.0000000000000000E+00     4.7499999999875958E-01     0.0000000000000000E+00 
    1.0000000000000000E+00     2.4999999999949701E-02     0.0000000000000000E+00 
    1.0000000000000000E+00     5.7499999999887907E-01     0.0000000000000000E+00 
    1.0000000000000000E+00     6.2499999999901101E-01     0.0000000000000000E+00 
    1.0000000000000000E+00     6.7499999999914273E-01     0.0000000000000000E+00 
    1.0000000000000000E+00     7.2499999999927467E-01     0.0000000000000000E+00 
    1.0000000000000000E+00     7.7499999999940661E-01     0.0000000000000000E+00 
    1.0000000000000000E+00     8.2499999999953844E-01     0.0000000000000000E+00 
    1.0000000000000000E+00     8.7499999999967026E-01     0.0000000000000000E+00 
    1.0000000000000000E+00     9.2499999999980220E-01     0.0000000000000000E+00 
    1.0000000000000000E+00     9.7499999999993414E-01     0.0000000000000000E+00 
    1.0000000000000000E+00     5.4999999999881310E-01     0.0000000000000000E+00 
    1.0000000000000000E+00     9.9999999999814140E-02     0.0000000000000000E+00 
    1.0000000000000000E+00     1.4999999999970290E-01     0.0000000000000000E+00 
    1.0000000000000000E+00     1.9999999999955689E-01     0.0000000000000000E+00 
    1.0000000000000000E+00     2.4999999999941089E-01     0.0000000000000000E+00 
    1.0000000000000000E+00     2.9999999999926502E-01     0.0000000000000000E+00 
    1.0000000000000000E+00     3.4999999999911913E-01     0.0000000000000000E+00 
    1.0000000000000000E+00     3.9999999999897312E-01     0.0000000000000000E+00 
    1.0000000000000000E+00     4.4999999999882723E-01     0.0000000000000000E+00 
    1.0000000000000000E+00     4.9999999999869210E-01     0.0000000000000000E+00 
    1.0000000000000000E+00     4.9999999999899403E-02     0.0000000000000000E+00 
    1.0000000000000000E+00     5.9999999999894504E-01     0.0000000000000000E+00 
    1.0000000000000000E+00     6.4999999999907687E-01     0.0000000000000000E+00 
    1.0000000000000000E+00     6.9999999999920870E-01     0.0000000000000000E+00 
    1.0000000000000000E+00     7.4999999999934064E-01     0.0000000000000000E+00 
    1.0000000000000000E+00     7.9999999999947247E-01     0.0000000000000000E+00 
    1.0000000000000000E+00     8.4999999999960441E-01     0.0000000000000000E+00 
    1.0000000000000000E+00     8.9999999999973623E-01     0.0000000000000000E+00 
    1.0000000000000000E+00     9.4999999999986817E-01     0.0000000000000000E+00 
    4.7500000000196618E-01     1.0000000000000000E+00     0.0000000000000000E+00 
    9.2499999999968763E-01     1.0000000000000000E+00     0.0000000000000000E+00 
    8.7499999999961831E-01     1.0000000000000000E+00     0.0000000000000000E+00 
    8.2499999999982654E-01     1.0000000000000000E+00     0.0000000000000000E+00 
    7.7500000000017355E-01     1.0000000000000000E+00     0.0000000000000000E+00 
    7.2500000000052045E-01     1.0000000000000000E+00     0.0000000000000000E+00 
    6.7500000000086724E-01     1.0000000000000000E+00     0.0000000000000000E+00 
    6.2500000000121403E-01     1.0000000000000000E+00     0.0000000000000000E+00 
    5.7500000000156093E-01     1.0000000000000000E+00     0.0000000000000000E+00 
    5.2500000000189684E-01     1.0000000000000000E+00     0.0000000000000000E+00 
    9.7499999999989595E-01     1.0000000000000000E+00     0.0000000000000000E+00 
    4.2500000000176902E-01     1.0000000000000000E+00     0.0000000000000000E+00 
    3.7500000000156092E-01     1.0000000000000000E+00     0.0000000000000000E+00 
    3.2500000000135282E-01     1.0000000000000000E+00     0.0000000000000000E+00 
    2.7500000000114472E-01     1.0000000000000000E+00     0.0000000000000000E+00 
    2.2500000000093659E-01     1.0000000000000000E+00     0.0000000000000000E+00 
    1.7500000000072849E-01     1.0000000000000000E+00     0.0000000000000000E+00 
    1.2500000000052039E-01     1.0000000000000000E+00     0.0000000000000000E+00 
    7.5000000000312261E-02     1.0000000000000000E+00     0.0000000000000000E+00 
    2.5000000000104109E-02     1.0000000000000000E+00     0.0000000000000000E+00 
    4.5000000000187301E-01     1.0000000000000000E+00     0.0000000000000000E+00 
    8.9999999999958358E-01     1.0000000000000000E+00     0.0000000000000000E+00 
    8.4999999999965303E-01     1.0000000000000000E+00     0.0000000000000000E+00 
    8.0000000000000004E-01     1.0000000000000000E+00     0.0000000000000000E+00 
    7.5000000000034706E-01     1.0000000000000000E+00     0.0000000000000000E+00 
    7.0000000000069384E-01     1.0000000000000000E+00     0.0000000000000000E+00 
    6.5000000000104063E-01     1.0000000000000000E+00     0.0000000000000000E+00 
    6.0000000000138742E-01     1.0000000000000000E+00     0.0000000000000000E+00 
    5.5000000000173432E-01     1.0000000000000000E+00     0.0000000000000000E+00 
    5.0000000000205946E-01     1.0000000000000000E+00     0.0000000000000000E+00 
    9.4999999999979179E-01     1.0000000000000000E+00     0.0000000000000000E+00 
    4.0000000000166491E-01     1.0000000000000000E+00     0.0000000000000000E+00 
    3.5000000000145681E-01     1.0000000000000000E+00     0.0000000000000000E+00 
    3.0000000000124871E-01     1.0000000000000000E+00     0.0000000000000000E+00 
    2.5000000000104061E-01     1.0000000000000000E+00     0.0000000000000000E+00 
    2.0000000000083251E-01     1.0000000000000000E+00     0.0000000000000000E+00 
    1.5000000000062441E-01     1.0000000000000000E+00     0.0000000000000000E+00 
    1.0000000000041630E-01     1.0000000000000000E+00     0.0000000000000000E+00 
[...]
CELL_DATA 1600 
SCALARS Pressure double 1 
LOOKUP_TABLE default 

    7.3369655885432472E-01 
    7.1536991873459987E-01 
    7.1527579787340889E-01 
    7.3179783653016717E-01 
    7.3004447543066631E-01 
    7.1510554584717900E-01 
    7.1487449352092591E-01 
    7.2842481675649107E-01 
    7.2692585815941713E-01 
    7.1459534692899784E-01 
    7.1427873448769752E-01 
    7.2553597734296527E-01 
    7.2424489396481140E-01 
    7.1393355106366441E-01 
    7.1356724037126018E-01 
    7.2304353580644909E-01 
    7.2192389883589125E-01 
    7.1318603000954472E-01 
    7.1279512794044764E-01 
    7.2087891798938752E-01 
    7.1990235206452302E-01 
    7.1239888708320176E-01 
    7.1200094338055386E-01 
    7.1898868259067150E-01 
    7.1813302551329916E-01 
    7.1160433172162085E-01 
    7.1121158334458401E-01 
    7.1733105427725308E-01 
    7.1657893291248542E-01 
    7.1082480772800571E-01 
    7.1044576147711980E-01 
    7.1587325783810940E-01 
    7.1521100724049502E-01 
    7.1007590629750050E-01 
    7.0971645780582682E-01 
    7.1458949702167140E-01 
    7.1400634244511829E-01 
    7.0936842664287225E-01 
    7.0903265311693719E-01 
    7.1345942472350643E-01 
    7.1294686189651824E-01 
    7.0870983640838880E-01 
    7.0840055920100009E-01 
    7.1246698343724157E-01 
    7.1201830810406197E-01 
    7.0810530846788788E-01 
    7.0782449302450146E-01 
    7.1159952462279996E-01 
    7.1120947484245101E-01 
    7.0755845836454900E-01 
    7.0730749921392722E-01 
    7.1084713905855890E-01 
    7.1051162324200168E-01 
    7.0707187016998219E-01 
    7.0685179473660609E-01 
    7.1020214794881453E-01 
    7.0991803871917991E-01 
    7.0664747301775266E-01 
    7.0645908829094406E-01 
    7.0965871780120504E-01 
    7.0942369705697639E-01 
    7.0628681264571447E-01 
    7.0613081183543702E-01 
    7.0921257192214748E-01 
    7.0902501628846859E-01 
    7.0599124944517599E-01 
    7.0586829039779964E-01 
    7.0886077813884651E-01 
    7.0871967561536942E-01 
    7.0576210362656777E-01 
    7.0567286314898048E-01 
    7.0860159268144551E-01 
    7.0850647153024238E-01 
    7.0560074458315081E-01 
    7.0554590465368849E-01 
    7.0843428979540701E-01 
    7.0838496451624033E-01 
    7.0550838701841800E-01 
    7.0548780677310496E-01 
    7.0835792577433698E-01 
    7.0493414660474218E-01 
    6.9569258903614095E-01 
    6.9568428717432185E-01 
    7.0491253949928745E-01 
    7.0486990007821360E-01 
    6.9566776041514045E-01 
    6.9564318295350835E-01 
    7.0480727659475406E-01 
    7.0472601224303100E-01 
    6.9561080964140776E-01 
    6.9557096852753642E-01 
    7.0462764306468273E-01 
    7.0451381876005026E-01 
    6.9552405124444294E-01 
    6.9547050290643952E-01 
    7.0438624226098301E-01 
    7.0424662439909280E-01 
    6.9541081220095879E-01 
    6.9534550203129786E-01 
    7.0409665055664683E-01 
    7.0393795675385273E-01 
    6.9527512090772514E-01 
    6.9520023518661778E-01 
    7.0377211311518251E-01 
    7.0360061306226740E-01 
    6.9512142219351569E-01 
    6.9503926422328677E-01 
    7.0342486691153372E-01 
    7.0324619882317618E-01 
    6.9495434338238782E-01 
    6.9486723722031896E-01 
    7.0306584626522883E-01 
    7.0288496133176182E-01 
    6.9477851508694088E-01 
    6.9468873514725704E-01 
    7.0270461339539825E-01 
    7.0252579268779014E-01 
    6.9459844198400900E-01 
    6.9450816471984456E-01 
    7.0234941449264454E-01 
    7.0217632370863414E-01 
    6.9441841559400730E-01 
    6.9432968893285207E-01 
    7.0200729959753827E-01 
    7.0184306057908752E-01 
    6.9424246045850457E-01 
    6.9415718688534223E-01 
    7.0168426897052005E-01 
    7.0153153559769166E-01 
    6.9407430575938789E-01 
    6.9399423550101758E-01 
    7.0138542422722205E-01 
    7.0124645578678746E-01 
    6.9391737561638300E-01 
    6.9384410704744304E-01 
    7.0111511235419244E-01 
    7.0099184090581579E-01 
    6.9377479263409791E-01 
    6.9370977766385988E-01 
    7.0087705682147661E-01 
    7.0077114714476274E-01 
    6.9364939048298024E-01 
    6.9359394313356915E-01 
    7.0067447359216439E-01 
    7.0058737528161030E-01 
    6.9354373195244479E-01 
    6.9349903798659651E-01 
    7.0051017108362901E-01 
    7.0044316129838879E-01 
    6.9346012684629199E-01 
    6.9342724688639301E-01 
    7.0038662771537619E-01 
    7.0034082876391057E-01 
    6.9340062210170372E-01 
    6.9338042690042767E-01 
    7.0030597697095553E-01 
    7.0028214776666298E-01 
    6.9336669895900804E-01 
    6.9335922136623429E-01 
    7.0026908710963642E-01 
    6.8648260226591595E-01 
    6.7695229564598502E-01 
    6.7695021645666342E-01 
    6.8647871640373526E-01 
    6.8647096685507081E-01 
    6.7694606884077901E-01 
    6.7693987655839460E-01 
    6.8645940654677118E-01 
    6.8644411524833815E-01 
    6.7693167447740243E-01 
    6.7692150976054488E-01 
    6.8642519996866269E-01 
    6.8640279370022106E-01 
    6.7690944181445589E-01 
    6.7689554185089051E-01 
    6.8637705357927647E-01 
    6.8634815876879751E-01 
    6.7687989227961431E-01 
    6.7686258601046101E-01 
    6.8631630820193701E-01 
    6.8628171826892503E-01 
    6.7684372570064011E-01 
    6.7682342296850118E-01 
    6.8624462050550095E-01 
    6.8620525932639076E-01 
    6.7680179758863523E-01 
    6.7677897668002485E-01 
    6.8616388983689003E-01 
    6.8612077574735719E-01 
    6.7675509389703647E-01 
    6.7673028863167028E-01 
    6.8607618740859999E-01 
    6.8603039998046567E-01 
    6.7670470523436976E-01 
    6.7667849225972232E-01 
    6.8598369174122387E-01 
    6.8593634254148050E-01 
    6.7665180174251049E-01 
    6.7662478850881447E-01 
    6.8588863240326969E-01 
    6.8584084026256353E-01 
    6.7659760952618531E-01 
    6.7657042329633355E-01 
    6.8579324285162668E-01 
    6.8574611371636018E-01 
    6.7654338929329572E-01 
    6.7651666744966144E-01 
    6.8569972236293297E-01 
    6.8565433352751182E-01 
    6.7649041769311002E-01 
    6.7646479953520777E-01 
    6.8561020656268468E-01 
    6.8556759493406827E-01 
    6.7643997171399972E-01 
    6.7641609189116914E-01 
    6.8552674582035866E-01 
    6.8548789980927238E-01 
    6.7639331640286660E-01 
    6.7637180005956155E-01 
    6.8545129067940214E-01 
    6.8541714525172193E-01 
    6.7635169598166622E-01 
    6.7633315543770323E-01 
    6.8538568327885929E-01 
    6.8535711730126836E-01 
    6.7631632760394644E-01 
    6.7630135904482069E-01 
    6.8533165229859894E-01 
    6.8530948468728814E-01 
    6.7628839239661820E-01 
    6.7627756284334883E-01 
    6.8529079939301030E-01 
    6.8527576109443411E-01 
    6.7626898830094695E-01 
    6.7626274111108886E-01 
    6.8526448695133035E-01 
    6.8525696346183962E-01 
    6.7625876933601980E-01 
    6.7625678585776461E-01 
    6.8525295195871150E-01 
    6.6697863637159216E-01 
    6.5652136628636115E-01 
    6.5652048197920732E-01 
    6.6697736866242507E-01 
    6.6697484107342275E-01 
    6.5651872050195503E-01 
    6.5651609377541065E-01 
    6.6697106842739462E-01 
    6.6696607091306548E-01 
    6.5651261672918315E-01 
    6.5650830823800033E-01 
    6.6695987522001143E-01 
    6.6695251472248729E-01 
    6.5650319134890900E-01 
    6.5649729327172235E-01 
    6.6694402936815789E-01 
    6.6693446545185331E-01 
    6.5649064528054879E-01 
    6.5648328257658961E-01 
    6.6692387533450392E-01 
    6.6691231713199395E-01 
    6.5647524413252267E-01 
    6.5646657252786034E-01 
    6.6689985438602817E-01 
    6.6688655572400568E-01 
    6.5645731378015626E-01 
    6.5644751717494354E-01 
    6.6687249451266506E-01 
    6.6685774850922896E-01 
    6.5643723509637697E-01 
    6.5642652286016145E-01 
    6.6684239951327084E-01 
    6.6682653302226658E-01 
    6.5641543855018913E-01 
    6.5640404286030241E-01 
    6.6681023789365057E-01 
    6.6679360601611826E-01 
    6.5639239894265611E-01 
    6.5638057226425861E-01 
    6.6677673199287801E-01 
    6.6675971283953916E-01 
    6.5636863047342442E-01 
    6.5635664327804899E-01 
    6.6674264769934311E-01 
    6.6672563757848813E-01 
    6.5634468233781940E-01 
    6.5633282117271441E-01 
    6.6670878510434717E-01 
    6.6669219430944027E-01 
    6.5632113509036405E-01 
    6.5630970113499776E-01 
    6.6667597044400029E-01 
    6.6666021981976864E-01 
    6.5629859806067403E-01 
    6.5628790633091150E-01 
    6.6664504968696336E-01 
    6.6663056814455945E-01 
    6.5627770814509145E-01 
    6.5626808748752230E-01 
    6.6661688407972552E-01 
    6.6660410712228080E-01 
    6.5625913018442783E-01 
    6.5625092392941264E-01 
    6.6659234757693631E-01 
    6.6658171624149420E-01 
    6.5624355818021574E-01 
    6.5623712369200327E-01 
    6.6657232388581011E-01 
    6.6656427982549404E-01 
    6.5623171111489120E-01 
    6.5622740722907591E-01 
    6.6655768810953975E-01 
    6.6655263728760150E-01 
    6.5622428519711740E-01 
    6.5622237987901000E-01 
    6.6654917267741542E-01 
    6.6654722452229054E-01 
    6.5622161853193184E-01 
    6.5622159995675311E-01 
    6.6654644942320251E-01 
    6.4557306115238233E-01 
    6.3413948011336874E-01 
    6.3413887402408642E-01 
    6.4557236345857716E-01 
    6.4557097517079365E-01 
    6.3413766906903679E-01 
    6.3413587622011258E-01 
    6.4556890737921258E-01 
    6.4556617316664611E-01 
    6.3413350799617929E-01 
    6.3413057898212388E-01 
    6.4556278832869829E-01 
    6.4555877159348385E-01 
    6.3412710602461830E-01 
    6.3412310827657137E-01 
    6.4555414465045668E-01 
    6.4554893210644360E-01 
    6.3411860718093482E-01 
    6.3411362642838365E-01 
    6.4554316141086221E-01 
    6.4553686276752109E-01 
    6.3410819190378698E-01 
    6.3410233162863772E-01 
    6.4553006904111143E-01 
    6.4552281566253078E-01 
    6.3409607570319559E-01 
    6.3408945625045798E-01 
    6.4551514053536718E-01 
    6.4550708394501932E-01 
    6.3408250736328120E-01 
    6.3407526505557898E-01 
    6.4549868847154102E-01 
    6.4548999890715020E-01 
    6.3406776721837588E-01 
    6.3406005358144957E-01 
    6.4548106217933243E-01 
    6.4547192728053637E-01 
    6.3405216568135148E-01 
    6.3404414683669685E-01 
    6.4546264520559193E-01 
    6.4545326889815136E-01 
    6.3403604213177245E-01 
    6.3402789840970741E-01 
    6.4544385320767783E-01 
    6.4543445485876283E-01 
    6.3401976427668016E-01 
    6.3401169011890302E-01 
    6.4542513243484390E-01 
    6.4541594637869615E-01 
    6.3400372813437766E-01 
    6.3399593238159968E-01 
    6.4540695901232625E-01 
    6.4539823457894474E-01 
    6.3398835884733951E-01 
    6.3398106553496547E-01 
    6.4538983930924365E-01 
    6.4538184151251343E-01 
    6.3397411257273761E-01 
    6.3396756233637996E-01 
    6.4537431168863013E-01 
    6.4536732264611640E-01 
    6.3396147956840088E-01 
    6.3395593145037410E-01 
    6.4536094958643464E-01 
    6.4535527005740567E-01 
    6.3395098752740109E-01 
    6.3394671926248336E-01 
    6.4535036354750730E-01 
    6.4534631018982358E-01 
    6.3394319874535843E-01 
    6.3394049558140231E-01 
    6.4534318734250173E-01 
    6.4534106124491475E-01 
    6.3393867018905214E-01 
    6.3393776184903750E-01 
    6.4533996809828242E-01 
    6.4533986399096765E-01 
    6.3393778872930762E-01 
    6.3393838340890363E-01 
    6.4534032217172232E-01 
    6.2223136202845419E-01 
    6.0986089990284398E-01 
    6.0986035833907770E-01 
    6.2223079986617624E-01 
    6.2222968287930225E-01 
    6.0985928261001199E-01 
    6.0985768383138195E-01 
    6.2222802211062789E-01 
    6.2222582994487829E-01 
    6.0985557435178173E-01 
    6.0985296793788935E-01 
    6.2222312044959704E-01 
    6.2221990954062389E-01 
    6.0984987990625816E-01 
    6.0984632717011267E-01 
    6.2221621503140734E-01 
    6.2221205663186241E-01 
    6.0984232824437112E-01 
    6.0983790323000109E-01 
    6.2220745592436622E-01 
    6.2220243632948369E-01 
    6.0983307378800100E-01 
    6.0982786310841208E-01 
    6.2219702306774161E-01 
    6.2219124312087415E-01 
    6.0982229587733983E-01 
    6.0981639824368450E-01 
    6.2218512519450753E-01 
    6.2217869968351591E-01 
    6.0981019778656664E-01 
    6.0980372348401846E-01 
    6.2217199864089257E-01 
    6.2216505575079351E-01 
    6.0979700568325923E-01 
    6.0979007607270874E-01 
    6.2215790630634915E-01 
    6.2215058719283212E-01 
    6.0978296765576134E-01 
    6.0977571472622494E-01 
    6.2214313687682465E-01 
    6.2213559540210717E-01 
    6.0976835284517306E-01 
    6.0976091881875327E-01 
    6.2212800439308391E-01 
    6.2212040706666272E-01 
    6.0975345067613895E-01 
    6.0974598764627896E-01 
    6.2211284825357216E-01 
    6.2210537443007974E-01 
    6.0973857013114496E-01 
    6.0973123967159193E-01 
    6.2209803376083350E-01 
    6.2209087615283420E-01 
    6.0972403889911142E-01 
    6.0971701146172252E-01 
    6.2208395331883537E-01 
    6.2207731884469242E-01 
    6.0971020190300340E-01 
    6.0970365545606786E-01 
    6.2207102824715277E-01 
    6.2206513899191274E-01 
    6.0969741768175179E-01 
    6.0969153381814278E-01 
    6.2205971040766772E-01 
    6.2205480336354568E-01 
    6.0968604758980971E-01 
    6.0968099899972084E-01 
    6.2205047944430147E-01 
    6.2204679911214056E-01 
    6.0967642020468971E-01 
    6.0967232779913649E-01 
    6.2204381794690766E-01 
    6.2204157971747054E-01 
    6.0966870847535326E-01 
    6.0966549337330955E-01 
    6.2204010698441470E-01 
    6.2203942610279273E-01 
    6.0966253698763140E-01 
    6.0966013576418809E-01 
    6.2203935967008894E-01 
    5.9704008635075301E-01 
    5.8377971779663607E-01 
    5.8377920205838996E-01 
    5.9703955719230162E-01 
    5.9703850632301647E-01 
    5.8377817814604449E-01 
    5.8377665750769847E-01 
    5.9703694495372006E-01 
    5.9703488548404748E-01 
    5.8377465283268215E-01 
    5.8377217798653347E-01 
    5.9703234155254259E-01 
    5.9702932813429388E-01 
    5.8376924807967590E-01 
    5.8376587950521597E-01 
    5.9702586158143445E-01 
    5.9702195962959248E-01 
    5.8376208995102319E-01 
    5.8375789839555892E-01 
    5.9701764138529567E-01 
    5.9701292730235411E-01 
    5.8375332509344957E-01 
    5.8374839155435376E-01 
    5.9700783915160294E-01 
    5.9700239998640525E-01 
    5.8374312051714206E-01 
    5.8373753592043598E-01 
    5.9699663410516546E-01 
    5.9699056701138176E-01 
    5.8373166286987610E-01 
    5.8372552760199303E-01 
    5.9698422537127882E-01 
    5.9697763696867612E-01 
    5.8371915744412062E-01 
    5.8371258076935906E-01 
    5.9697083065640144E-01 
    5.9696383630319294E-01 
    5.8370582694510997E-01 
    5.8369892627308717E-01 
    5.9695668473458918E-01 
    5.9694940766572446E-01 
    5.8369190991788467E-01 
    5.8368480982002913E-01 
    5.9694203762314912E-01 
    5.9693460785162922E-01 
    5.8367765858775922E-01 
    5.8367048935928911E-01 
    5.9692715220016623E-01 
    5.9691970497884239E-01 
    5.8366333562348727E-01 
    5.8365623098090491E-01 
    5.9691230077395729E-01 
    5.9690497420220001E-01 
    5.8364920881736693E-01 
    5.8364230184614729E-01 
    5.9689775957336844E-01 
    5.9689069041178544E-01 
    5.8363554144691931E-01 
    5.8362895668037051E-01 
    5.9688379875217989E-01 
    5.9687711406307664E-01 
    5.8362257276748419E-01 
    5.8361640865420072E-01 
    5.9687066153357415E-01 
    5.9686445923626297E-01 
    5.8361047295892421E-01 
    5.8360475695910086E-01 
    5.9685851324526262E-01 
    5.9685280891395254E-01 
    5.8359922192412206E-01 
    5.8359377492460562E-01 
    5.9684729461497610E-01 
    5.9684184949287056E-01 
    5.8358821826876495E-01 
    5.8358212552142674E-01 
    5.9683621236008033E-01 
    5.9682982229322934E-01 
    5.8357447388316774E-01 
    5.8356693022585926E-01 
    5.9682379710764355E-01 
    5.7008881205820583E-01 
    5.5597474648607792E-01 
    5.5597425657733457E-01 
    5.7008831152570616E-01 
    5.7008731820699454E-01 
    5.5597328465300955E-01 
    5.5597184284603929E-01 
    5.7008584391915151E-01 
    5.7008390185369651E-01 
    5.5596994479175377E-01 
    5.5596760537709311E-01 
    5.7008150641318045E-01 
    5.7007867325692752E-01 
    5.5596484076417829E-01 
    5.5596166843135641E-01 
    5.7007541934112538E-01 
    5.7007176294245199E-01 
    5.5595810720656880E-01 
    5.5595417729291219E-01 
    5.7006772366973268E-01 
    5.7006332246789182E-01 
    5.5594990028899705E-01 
    5.5594529920650104E-01 
    5.7005858161717526E-01 
    5.7005352472958104E-01 
    5.5594039848674603E-01 
    5.5593522401761919E-01 
    5.7004817674369490E-01 
    5.7004256391859576E-01 
    5.5592980315176910E-01 
    5.5592416472671202E-01 
    5.7003671382708787E-01 
    5.7003065534817798E-01 
    5.5591833908723776E-01 
    5.5591235811027628E-01 
    5.7002441865836873E-01 
    5.7001803522095362E-01 
    5.5590625523214154E-01 
    5.5590006547773974E-01 
    5.7001153777200397E-01 
    5.7000496030104786E-01 
    5.5589382549087274E-01 
    5.5588757356407248E-01 
    5.6999833802344269E-01 
    5.6999170733995008E-01 
    5.5588134966531177E-01 
    5.5587519545718755E-01 
    5.6998510577672001E-01 
    5.6997857189525958E-01 
    5.5586915430130335E-01 
    5.5586327123575829E-01 
    5.6997214515609218E-01 
    5.6996586571006091E-01 
    5.5585759290538306E-01 
    5.5585216740986421E-01 
    5.6995977407460674E-01 
    5.6995391062322098E-01 
    5.5584704400884732E-01 
    5.5584227257531504E-01 
    5.6994831476383701E-01 
    5.6994302358513060E-01 
    5.5583790259913446E-01 
    5.5583398137259210E-01 
    5.6993806956680959E-01 
    5.6993347659616811E-01 
    5.5583055066050657E-01 
    5.5582764049820643E-01 
    5.6992925282450169E-01 
    5.6992537737075588E-01 
    5.5582525731935195E-01 
    5.5582335983391917E-01 
    5.6992177408763645E-01 
    5.6991825388999240E-01 
    5.5582180321901786E-01 
    5.5582017533280348E-01 
    5.6991436001264051E-01 
    5.6990876450990724E-01 
    5.5581695619878257E-01 
    5.5581276451099082E-01 
    5.6990277692355706E-01 
    5.4144404312906236E-01 
    5.2650311922505477E-01 
    5.2650261786782537E-01 
    5.4144355303072034E-01 
    5.4144258074985885E-01 
    5.2650162295306591E-01 
    5.2650014657260202E-01 
    5.4144113852133835E-01 
    5.4143924013577949E-01 
    5.2649820233664923E-01 
    5.2649580497264059E-01 
    5.4143690060991667E-01 
    5.4143413618558922E-01 
    5.2649297029573316E-01 
    5.2648971523460553E-01 
    5.4143096436664340E-01 
    5.4142740395582678E-01 
    5.2648605786337477E-01 
    5.2648201743106138E-01 
    5.4142347508721078E-01 
    5.4141919925509940E-01 
    5.2647761438785889E-01 
    5.2647287040916391E-01 
    5.4141459934117642E-01 
    5.4140969964150720E-01 
    5.2646780841857055E-01 
    5.2646245261092506E-01 
    5.4140452589472676E-01 
    5.4139910531247870E-01 
    5.2645682847635744E-01 
    5.2645096282603820E-01 
    5.4139346661297105E-01 
    5.4138764005834661E-01 
    5.2644488382026033E-01 
    5.2643862099930572E-01 
    5.4138165749643596E-01 
    5.4137555240731428E-01 
    5.2643220531740365E-01 
    5.2642566917986744E-01 
    5.4136935995490099E-01 
    5.4136311704356788E-01 
    5.2641904648319027E-01 
    5.2641237265735041E-01 
    5.4135686237927239E-01 
    5.4135063653398741E-01 
    5.2640568470872595E-01 
    5.2639902126054761E-01 
    5.4134448201092145E-01 
    5.4133844330581549E-01 
    5.2639242258529217E-01 
    5.2638593061898553E-01 
    5.4133256695573972E-01 
    5.4132690155990493E-01 
    5.2637958893946335E-01 
    5.2637344267626829E-01 
    5.4132149774452265E-01 
    5.4131640802070746E-01 
    5.2636753829319294E-01 
    5.2636192313416597E-01 
    5.4131168644130057E-01 
    5.4130738788075072E-01 
    5.2635664452682851E-01 
    5.2635174805117813E-01 
    5.4130356660582779E-01 
    5.4130027350259324E-01 
    5.2634727421183702E-01 
    5.2634325199253373E-01 
    5.4129755072097285E-01 
    5.4129542115380880E-01 
    5.2633968599618985E-01 
    5.2633652856790214E-01 