# vtk DataFile Version 2.0
Pressure Field Data 
ASCII 
DATASET UNSTRUCTURED_GRID 

POINTS 1681 double 

    0.0000000000000000E+00     0.0000000000000000E+00     0.0000000000000000E+00 
    1.0000000000000000E+00     0.0000000000000000E+00     0.0000000000000000E+00 
    1.0000000000000000E+00     1.0000000000000000E+00     0.0000000000000000E+00 
    0.0000000000000000E+00     1.0000000000000000E+00     0.0000000000000000E+00 
    5.2499999999875258E-01     0.0000000000000000E+00     0.0000000000000000E+00 
    7.4999999999856765E-02     0.0000000000000000E+00     0.0000000000000000E+00 
    1.2499999999975850E-01     0.0000000000000000E+00     0.0000000000000000E+00 
    1.7499999999962990E-01     0.0000000000000000E+00     0.0000000000000000E+00 
    2.2499999999948389E-01     0.0000000000000000E+00     0.0000000000000000E+00 
    2.7499999999933789E-01     0.0000000000000000E+00     0.0000000000000000E+00 
    3.2499999999919210E-01     0.0000000000000000E+00     0.0000000000000000E+00 
    3.7499999999904610E-01     0.0000000000000000E+00     0.0000000000000000E+00 
    4.2499999999890020E-01     0.0000000000000000E+00     0.0000000000000000E+00 
    4.7499999999875958E-01     0.0000000000000000E+00     0.0000000000000000E+00 
    2.4999999999949701E-02     0.0000000000000000E+00     0.0000000000000000E+00 
    5.7499999999887907E-01     0.0000000000000000E+00     0.0000000000000000E+00 
    6.2499999999901101E-01     0.0000000000000000E+00     0.0000000000000000E+00 
    6.7499999999914273E-01     0.0000000000000000E+00     0.0000000000000000E+00 
    7.2499999999927467E-01     0.0000000000000000E+00     0.0000000000000000E+00 
    7.7499999999940661E-01     0.0000000000000000E+00     0.0000000000000000E+00 
    8.2499999999953844E-01     0.0000000000000000E+00     0.0000000000000000E+00 
    8.7499999999967026E-01     0.0000000000000000E+00     0.0000000000000000E+00 
    9.2499999999980220E-01     0.0000000000000000E+00     0.0000000000000000E+00 
    9.7499999999993414E-01     0.0000000000000000E+00     0.0000000000000000E+00 
    5.4999999999881310E-01     0.0000000000000000E+00     0.0000000000000000E+00 
    9.9999999999814140E-02     0.0000000000000000E+00     0.0000000000000000E+00 
    1.4999999999970290E-01     0.0000000000000000E+00     0.0000000000000000E+00 
    1.9999999999955689E-01     0.0000000000000000E+00     0.0000000000000000E+00 
    2.4999999999941089E-01     0.0000000000000000E+00     0.0000000000000000E+00 
    2.9999999999926502E-01     0.0000000000000000E+00     0.0000000000000000E+00 
    3.4999999999911913E-01     0.0000000000000000E+00     0.0000000000000000E+00 
    3.9999999999897312E-01     0.0000000000000000E+00     0.0000000000000000E+00 
    4.4999999999882723E-01     0.0000000000000000E+00     0.0000000000000000E+00 
    4.9999999999869210E-01     0.0000000000000000E+00     0.0000000000000000E+00 
    4.9999999999899403E-02     0.0000000000000000E+00     0.0000000000000000E+00 
    5.9999999999894504E-01     0.0000000000000000E+00     0.0000000000000000E+00 
    6.4999999999907687E-01     0.0000000000000000E+00     0.0000000000000000E+00 
    6.9999999999920870E-01     0.0000000000000000E+00     0.0000000000000000E+00 
    7.4999999999934064E-01     0.0000000000000000E+00     0.0000000000000000E+00 
    7.9999999999947247E-01     0.0000000000000000E+00     0.0000000000000000E+00 
    8.4999999999960441E-01     0.0000000000000000E+00     0.0000000000000000E+00 
    8.9999999999973623E-01     0.0000000000000000E+00     0.0000000000000000E+00 
    9.4999999999986817E-01     0.0000000000000000E+00     0.0000000000000000E+00 
    1.0000000000000000E+00     5.2499999999875258E-01     0.0000000000000000E+00 
    1.0000000000000000E+00     7.4999999999856765E-02     0.0000000000000000E+00 
    1.0000000000000000E+00     1.2499999999975850E-01     0.0000000000000000E+00 
    1.0000000000000000E+00     1.7499999999962990E-01     0.0000000000000000E+00 
    1.0000000000000000E+00     2.2499999999948389E-01     0.0000000000000000E+00 
    1.0000000000000000E+00     2.7499999999933789E-01     0.0000000000000000E+00 
    1.0000000000000000E+00     3.2499999999919210E-01     0.0000000000000000E+00 
    1.0000000000000000E+00     3.7499999999904610E-01     0.0000000000000000E+00 
    1.0000000000000000E+00     4.2499999999890020E-01     0.0000000000000000E+00 
    1.0000000000000000E+00     4.7499999999875958E-01     0.0000000000000000E+00 
    1.0000000000000000E+00     2.4999999999949701E-02     0.0000000000000000E+00 
    1.0000000000000000E+00     5.7499999999887907E-01     0.0000000000000000E+00 
    1.0000000000000000E+00     6.2499999999901101E-01     0.0000000000000000E+00 
    1.0000000000000000E+00     6.7499999999914273E-01     0.0000000000000000E+00 
    1.0000000000000000E+00     7.2499999999927467E-01     0.0000000000000000E+00 
    1.0000000000000000E+00     7.7499999999940661E-01     0.0000000000000000E+00 
    1.0000000000000000E+00     8.2499999999953844E-01     0.0000000000000000E+00 
    1.0000000000000000E+00     8.7499999999967026E-01     0.0000000000000000E+00 
    1.0000000000000000E+00     9.2499999999980220E-01     0.0000000000000000E+00 
    1.0000000000000000E+00     9.7499999999993414E-01     0.0000000000000000E+00 
    1.0000000000000000E+00     5.4999999999881310E-01     0.0000000000000000E+00 
    1.0000000000000000E+00     9.9999999999814140E-02     0.0000000000000000E+00 
    1.0000000000000000E+00     1.4999999999970290E-01     0.0000000000000000E+00 
    1.0000000000000000E+00     1.9999999999955689E-01     0.0000000000000000E+00 
    1.0000000000000000E+00     2.4999999999941089E-01     0.0000000000000000E+00 
    1.0000000000000000E+00     2.9999999999926502E-01     0.0000000000000000E+00 
    1.0000000000000000E+00     3.4999999999911913E-01     0.0000000000000000E+00 
    1.0000000000000000E+00     3.9999999999897312E-01     0.0000000000000000E+00 
    1.0000000000000000E+00     4.4999999999882723E-01     0.0000000000000000E+00 
    1.0000000000000000E+00     4.9999999999869210E-01     0.0000000000000000E+00 
    1.0000000000000000E+00     4.9999999999899403E-02     0.0000000000000000E+00 
    1.0000000000000000E+00     5.9999999999894504E-01     0.0000000000000000E+00 
    1.0000000000000000E+00     6.4999999999907687E-01     0.0000000000000000E+00 
    1.0000000000000000E+00     6.9999999999920870E-01     0.0000000000000000E+00 
    1.0000000000000000E+00     7.4999999999934064E-01     0.0000000000000000E+00 
    1.0000000000000000E+00     7.9999999999947247E-01     0.0000000000000000E+00 
    1.0000000000000000E+00     8.4999999999960441E-01     0.0000000000000000E+00 
    1.0000000000000000E+00     8.9999999999973623E-01     0.0000000000000000E+00 
    1.0000000000000000E+00     9.4999999999986817E-01     0.0000000000000000E+00 
    4.7500000000196618E-01     1.0000000000000000E+00     0.0000000000000000E+00 
    9.2499999999968763E-01     1.0000000000000000E+00     0.0000000000000000E+00 
    8.7499999999961831E-01     1.0000000000000000E+00     0.0000000000000000E+00 
    8.2499999999982654E-01     1.0000000000000000E+00     0.0000000000000000E+00 
    7.7500000000017355E-01     1.0000000000000000E+00     0.0000000000000000E+00 
    7.2500000000052045E-01     1.0000000000000000E+00     0.0000000000000000E+00 
    6.7500000000086724E-01     1.0000000000000000E+00     0.0000000000000000E+00 
    6.2500000000121403E-01     1.0000000000000000E+00     0.0000000000000000E+00 
    5.7500000000156093E-01     1.0000000000000000E+00     0.0000000000000000E+00 
    5.2500000000189684E-01     1.0000000000000000E+00     0.0000000000000000E+00 
    9.7499999999989595E-01     1.0000000000000000E+00     0.0000000000000000E+00 
    4.2500000000176902E-01     1.0000000000000000E+00     0.0000000000000000E+00 
    3.7500000000156092E-01     1.0000000000000000E+00     0.0000000000000000E+00 
    3.2500000000135282E-01     1.0000000000000000E+00     0.0000000000000000E+00 
    2.7500000000114472E-01     1.0000000000000000E+00     0.0000000000000000E+00 
    2.2500000000093659E-01     1.0000000000000000E+00     0.0000000000000000E+00 
    1.7500000000072849E-01     1.0000000000000000E+00     0.0000000000000000E+00 
    1.2500000000052039E-01     1.0000000000000000E+00     0.0000000000000000E+00 
    7.5000000000312261E-02     1.0000000000000000E+00     0.0000000000000000E+00 
    2.5000000000104109E-02     1.0000000000000000E+00     0.0000000000000000E+00 
    4.5000000000187301E-01     1.0000000000000000E+00     0.0000000000000000E+00 
    8.9999999999958358E-01     1.0000000000000000E+00     0.0000000000000000E+00 
    8.4999999999965303E-01     1.0000000000000000E+00     0.0000000000000000E+00 
    8.0000000000000004E-01     1.0000000000000000E+00     0.0000000000000000E+00 
    7.5000000000034706E-01     1.0000000000000000E+00     0.0000000000000000E+00 
    7.0000000000069384E-01     1.0000000000000000E+00     0.0000000000000000E+00 
    6.5000000000104063E-01     1.0000000000000000E+00     0.0000000000000000E+00 
    6.0000000000138742E-01     1.0000000000000000E+00     0.0000000000000000E+00 
    5.5000000000173432E-01     1.0000000000000000E+00     0.0000000000000000E+00 
    5.0000000000205946E-01     1.0000000000000000E+00     0.0000000000000000E+00 
    9.4999999999979179E-01     1.0000000000000000E+00     0.0000000000000000E+00 
    4.0000000000166491E-01     1.0000000000000000E+00     0.0000000000000000E+00 
    3.5000000000145681E-01     1.0000000000000000E+00     0.0000000000000000E+00 
    3.0000000000124871E-01     1.0000000000000000E+00     0.0000000000000000E+00 
    2.5000000000104061E-01     1.0000000000000000E+00     0.0000000000000000E+00 
    2.0000000000083251E-01     1.0000000000000000E+00     0.0000000000000000E+00 
    1.5000000000062441E-01     1.0000000000000000E+00     0.0000000000000000E+00 
    1.0000000000041630E-01     1.0000000000000000E+00     0.0000000000000000E+00 
[...]
CELL_DATA 1600 
SCALARS Pressure double 1 
LOOKUP_TABLE default 

    8.5470982536251916E-01 
    8.3576136483801611E-01 
    8.3566424180999566E-01 
    8.5279360442050711E-01 
    8.5101878835714884E-01 
    8.3548826782965790E-01 
    8.3524915666473654E-01 
    8.4937582204056783E-01 
    8.4785210908405428E-01 
    8.3495986243112552E-01 
    8.3463122494118047E-01 
    8.4643627759232243E-01 
    8.4511823736896730E-01 
    8.3427232732589518E-01 
    8.3389078555961893E-01 
    8.4388907576222583E-01 
    8.4274093042349740E-01 
    8.3349298792152715E-01 
    8.3308429438400455E-01 
    8.4166686650866163E-01 
    8.4066076517544386E-01 
    8.3266920316913429E-01 
    8.3225149015294431E-01 
    8.3971722462632492E-01 
    8.3883147316988749E-01 
    8.3183432570585014E-01 
    8.3142037272705072E-01 
    8.3799929321009370E-01 
    8.3721695494603210E-01 
    8.3101186897334300E-01 
    8.3061069625243100E-01 
    8.3648115860346484E-01 
    8.3578898411926783E-01 
    8.3021843861793954E-01 
    8.2983643134759266E-01 
    8.3513784731732510E-01 
    8.3452546173117570E-01 
    8.2946580219218280E-01 
    8.2910750613947859E-01 
    8.3394980533726293E-01 
    8.3340909156032172E-01 
    8.2876235473493109E-01 
    8.2843104083264396E-01 
    8.3290174399873596E-01 
    8.3242637439333911E-01 
    8.2811415950975653E-01 
    8.2781222576026969E-01 
    8.3198176342890595E-01 
    8.3156684401464054E-01 
    8.2752568948650607E-01 
    8.2725494822456769E-01 
    8.3118068673934575E-01 
    8.3082248723938212E-01 
    8.2700035797139282E-01 
    8.2676224242273755E-01 
    8.3049155525358520E-01 
    8.3018730516884476E-01 
    8.2654090088069554E-01 
    8.2633661504226696E-01 
    8.2990924788162912E-01 
    8.2965698380978381E-01 
    8.2614965482967240E-01 
    8.2598028335182938E-01 
    8.2943019687257125E-01 
    8.2922864917843675E-01 
    8.2582876095030644E-01 
    8.2569534795176924E-01 
    8.2905217590731228E-01 
    8.2890067907453069E-01 
    8.2558030480463862E-01 
    8.2548388529293948E-01 
    8.2877411616723151E-01 
    8.2867246996447907E-01 
    8.2540630856583452E-01 
    8.2534766361097134E-01 
    8.2859565126477519E-01 
    8.2854318369655289E-01 
    8.2530762224365739E-01 
    8.2528503861233138E-01 
    8.2851359063932140E-01 
    8.2445534547819044E-01 
    8.1412717920552946E-01 
    8.1411789670207957E-01 
    8.2443232616147755E-01 
    8.2438686629300395E-01 
    8.1409941254831875E-01 
    8.1407191671869528E-01 
    8.2432005009568565E-01 
    8.2423326586485657E-01 
    8.1403568496038115E-01 
    8.1399107177022179E-01 
    8.2412810315395468E-01 
    8.2400627256881842E-01 
    8.1393850062333439E-01 
    8.1387845350334331E-01 
    8.2386954423209435E-01 
    8.2371970144800000E-01 
    8.1381146056907017E-01 
    8.1373809036995792E-01 
    8.2355850648363060E-01 
    8.2338767590986861E-01 
    8.1365894082739132E-01 
    8.1357463108899530E-01 
    8.2320886342634225E-01 
    8.2302364850082388E-01 
    8.1348579429410861E-01 
    8.1339307124385718E-01 
    8.2283352948718491E-01 
    8.2263992015756748E-01 
    8.1329710494023655E-01 
    8.1319853594049463E-01 
    8.2244414880427574E-01 
    8.2224745924422915E-01 
    8.1309799846269537E-01 
    8.1299611717341069E-01 
    8.2205101320158813E-01 
    8.2185589365875378E-01 
    8.1289350458742071E-01 
    8.1279075901090470E-01 
    8.2166310885776694E-01 
    8.2147359670750264E-01 
    8.1268846296300357E-01 
    8.1258718201518343E-01 
    8.2128822941053659E-01 
    8.2110781817006051E-01 
    8.1248746399303295E-01 
    8.1238983849063429E-01 
    8.2093311787404255E-01 
    8.2076483168284309E-01 
    8.1229481665311409E-01 
    8.1220289118811662E-01 
    8.2060361546917915E-01 
    8.2045008207661874E-01 
    8.1211453657122934E-01 
    8.1203020941300208E-01 
    8.2030480537518224E-01 
    8.2016832409960683E-01 
    8.1195034895423701E-01 
    8.1187537764752804E-01 
    8.2004114545496243E-01 
    8.1992374845855920E-01 
    8.1180570175668454E-01 
    8.1174171183718491E-01 
    8.1981658693748527E-01 
    8.1972009196566120E-01 
    8.1168378278731046E-01 
    8.1163227271295502E-01 
    8.1963467315353933E-01 
    8.1956071714684098E-01 
    8.1158751866791423E-01 
    8.1154982415976706E-01 
    8.1949857855215713E-01 
    8.1944854912077758E-01 
    8.1151942504184671E-01 
    8.1149640208976803E-01 
    8.1941076536288704E-01 
    8.1938497572587377E-01 
    8.1148050298920127E-01 
    8.1147132163053237E-01 
    8.1937040641314507E-01 
    8.0363003573608427E-01 
    7.9262434204911059E-01 
    7.9262157751257500E-01 
    8.0362536217842973E-01 
    8.0361604384759688E-01 
    7.9261606701589959E-01 
    7.9260784819973917E-01 
    8.0360214776220162E-01 
    8.0358377085989652E-01 
    7.9259697202006674E-01 
    7.9258350405141664E-01 
    8.0356104075324464E-01 
    8.0353411448847556E-01 
    7.9256752446308176E-01 
    7.9254912751961015E-01 
    8.0350317657163828E-01 
    8.0346843666268830E-01 
    7.9252842087200837E-01 
    7.9250552474012514E-01 
    8.0343012711234618E-01 
    8.0338850044005394E-01 
    7.9248057103317771E-01 
    7.9245370243488200E-01 
    8.0334382681800887E-01 
    8.0329639160791844E-01 
    7.9242507147062757E-01 
    7.9239483956959245E-01 
    8.0324649298502027E-01 
    8.0319443967487802E-01 
    7.9236317613205542E-01 
    7.9233025761035314E-01 
    8.0314054882130570E-01 
    8.0308514399794517E-01 
    7.9229626661053931E-01 
    7.9226139102060211E-01 
    8.0302855337126322E-01 
    8.0297110801888427E-01 
    7.9222582316999857E-01 
    7.9218975902421285E-01 
    8.0291314040409933E-01 
    8.0285498300498981E-01 
    7.9215339741698265E-01 
    7.9211693932169502E-01 
    8.0279696709477899E-01 
    8.0273942166862888E-01 
    7.9208058716211605E-01 
    7.9204454416089343E-01 
    8.0268267251101033E-01 
    8.0262704139674468E-01 
    7.9200901372179711E-01 
    7.9197419883779163E-01 
    8.0257284541747875E-01 
    8.0252039642300332E-01 
    7.9194030151052197E-01 
    7.9190752215524374E-01 
    8.0247000056206197E-01 
    8.0242195789723891E-01 
    7.9187605894380497E-01 
    7.9184610699696190E-01 
    8.0237656204687302E-01 
    8.0233409975964443E-01 
    7.9181785725461873E-01 
    7.9179149468108634E-01 
    8.0229485022163227E-01 
    8.0225908365234777E-01 
    7.9176719509455595E-01 
    7.9174511909636536E-01 
    8.0222705817086060E-01 
    8.0219901252186632E-01 
    7.9172539972972267E-01 
    7.9170811623334358E-01 
    8.0217514887644104E-01 
    8.0215559206920706E-01 
    7.9169323627962440E-01 
    7.9168048543834968E-01 
    8.0214029627443106E-01 
    8.0212887392911647E-01 
    7.9166906116758440E-01 
    7.9166011164054784E-01 
    8.0212147203028372E-01 
    7.8099660700134432E-01 
    7.6871368287709085E-01 
    7.6871221748524998E-01 
    7.8099471610664195E-01 
    7.8099095036554644E-01 
    7.6870930212299182E-01 
    7.6870496226355622E-01 
    7.8098533832756400E-01 
    7.8097791574933761E-01 
    7.6869922811795433E-01 
    7.6869213528062408E-01 
    7.8096872662017014E-01 
    7.8095782335402841E-01 
    7.6868372494015169E-01 
    7.6867404386419624E-01 
    7.8094526665114150E-01 
    7.8093112521725638E-01 
    7.6866314428234883E-01 
    7.6865108371872792E-01 
    7.8091547541211581E-01 
    7.8089840085902706E-01 
    7.6863792479856308E-01 
    7.6862373504123549E-01 
    7.8087999203162928E-01 
    7.8086034582700503E-01 
    7.6860858664670273E-01 
    7.6859255627943224E-01 
    7.8083956513091912E-01 
    7.8081775837922340E-01 
    7.6857572485248604E-01 
    7.6855817731354970E-01 
    7.8079503911845360E-01 
    7.8077152556797280E-01 
    7.6854000243416509E-01 
    7.6852129260303348E-01 
    7.8074734018547232E-01 
    7.8072260923709758E-01 
    7.6850214362385816E-01 
    7.6848265451772380E-01 
    7.8069746237284665E-01 
    7.8067203220708214E-01 
    7.6846292732933741E-01 
    7.6844306693542397E-01 
    7.8064645390287513E-01 
    7.8062086475728121E-01 
    7.6842318085195949E-01 
    7.6840337903429257E-01 
    7.8059540378217562E-01 
    7.8057021127137471E-01 
    7.6838377365987465E-01 
    7.6836447887596937E-01 
    7.8054542833841156E-01 
    7.8052119639856288E-01 
    7.6834561048197914E-01 
    7.6832728549339069E-01 
    7.8049765654989534E-01 
    7.8047494877401502E-01 
    7.6830962149295723E-01 
    7.6829273559700795E-01 
    7.8045321081331087E-01 
    7.8043257645758923E-01 
    7.6827674271477930E-01 
    7.6826175248181749E-01 
    7.8041317272461108E-01 
    7.8039511490532265E-01 
    7.6824786364732733E-01 
    7.6823515344720739E-01 
    7.8037849734993636E-01 
    7.8036337546029799E-01 
    7.6822365679960658E-01 
    7.6821332384824359E-01 
    7.8034972878541198E-01 
    7.8033738103748351E-01 
    7.6820392696840312E-01 
    7.6819482895281166E-01 
    7.8032581109879318E-01 
    7.8031363461849523E-01 
    7.6818429256348852E-01 
    7.6817490267097965E-01 
    7.8030310369203759E-01 
    7.5577317778225239E-01 
    7.4218446717146647E-01 
    7.4218332209989724E-01 
    7.5577192623013234E-01 
    7.5576943836292942E-01 
    7.4218104701162302E-01 
    7.4217766562038778E-01 
    7.5576573851102613E-01 
    7.5576085468208065E-01 
    7.4217320480115223E-01 
    7.4216769456027332E-01 
    7.5575481884762086E-01 
    7.5574766711644858E-01 
    7.4216116814739719E-01 
    7.4215366209672928E-01 
    7.5573943976707025E-01 
    7.5573018120725244E-01 
    7.4214521621764062E-01 
    7.4213587355460975E-01 
    7.5571993989579800E-01 
    7.5570876824487143E-01 
    7.4212568032919257E-01 
    7.4211468587177776E-01 
    7.5569672251306241E-01 
    7.5568386269517007E-01 
    7.4210294254785170E-01 
    7.4209050568161972E-01 
    7.5567025241240160E-01 
    7.5565595880540881E-01 
    7.4207743347863686E-01 
    7.4206378694827047E-01 
    7.5564105243184476E-01 
    7.5562560716964067E-01 
    7.4204962982618494E-01 
    7.4203502849645964E-01 
    7.5560970012687867E-01 
    7.5559341155879944E-01 
    7.4202005191229403E-01 
    7.4200477151343369E-01 
    7.5557682479209087E-01 
    7.5556002615600537E-01 
    7.4198926113726738E-01 
    7.4197359691877118E-01 
    7.5554310491888754E-01 
    7.5552615322710437E-01 
    7.4195785717173224E-01 
    7.4194212223928513E-01 
    7.5550926604067004E-01 
    7.5549254105522767E-01 
    7.4192647429458647E-01 
    7.4191099706035279E-01 
    7.5547607859200661E-01 
    7.5545998142310100E-01 
    7.4189577539508611E-01 
    7.4188089465683948E-01 
    7.5544435447360803E-01 
    7.5542930429452915E-01 
    7.4186643968812893E-01 
    7.4185249314004453E-01 
    7.5541493811036509E-01 
    7.5540136207205077E-01 
    7.4183913261333323E-01 
    7.4182642562348122E-01 
    7.5538867800586729E-01 
    7.5537697727054809E-01 
    7.4181442045004964E-01 
    7.4180312894423506E-01 
    7.5536632894823674E-01 
    7.5535675659905277E-01 
    7.4179249280564696E-01 
    7.4178231235119951E-01 
    7.5534819042879664E-01 
    7.5534035881140149E-01 
    7.4177207347166874E-01 
    7.4176043837307637E-01 
    7.5533249787206480E-01 
    7.5532311978214484E-01 
    7.4174747080942782E-01 
    7.4173934455919976E-01 
    7.5531531033872812E-01 
    7.2796088203403597E-01 
    7.1311590867605146E-01 
    7.1311484187426699E-01 
    7.2795978964228147E-01 
    7.2795761972849171E-01 
    7.1311272300082784E-01 
    7.1310957523817853E-01 
    7.2795439563597863E-01 
    7.2795014364533828E-01 
    7.1310542468602933E-01 
    7.1310029984669010E-01 
    7.2794489267800422E-01 
    7.2793867434331083E-01 
    7.1309423161577401E-01 
    7.1308725331866984E-01 
    7.2793152297593966E-01 
    7.2792347564256488E-01 
    7.1307940073689824E-01 
    7.1307071211928397E-01 
    7.2791457212425348E-01 
    7.2790485488208734E-01 
    7.1306122818104956E-01 
    7.1305099209462497E-01 
    7.2789436901145088E-01 
    7.2788316218849103E-01 
    7.1304004947520983E-01 
    7.1302844836318957E-01 
    7.2787128461077621E-01 
    7.2785878893306344E-01 
    7.1301623920470136E-01 
    7.1300347483091808E-01 
    7.2784573019817200E-01 
    7.2783216576214160E-01 
    7.1299021043594224E-01 
    7.1297650355244169E-01 
    7.2781815521197712E-01 
    7.2780376027323956E-01 
    7.1296241402323135E-01 
    7.1294800396570879E-01 
    7.2778904470335548E-01 
    7.2777407416458406E-01 
    7.1293333772415857E-01 
    7.1291848180207529E-01 
    7.2775891606772269E-01 
    7.2774363937331032E-01 
    7.1290350476212616E-01 
    7.1288847707416192E-01 
    7.2772831433036855E-01 
    7.2771301212193118E-01 
    7.1287347087980280E-01 
    7.1285855962207445E-01 
    7.2769780436884302E-01 
    7.2768276241309682E-01 
    7.1284381745382364E-01 
    7.1282931827667340E-01 
    7.2766795624911063E-01 
    7.2765345287584626E-01 
    7.1281513414836273E-01 
    7.1280133258019296E-01 
    7.2763931366467727E-01 
    7.2762558999573590E-01 
    7.1278797182235898E-01 
    7.1277509237128478E-01 
    7.2761231573603002E-01 
    7.2759949372857369E-01 
    7.1276270108174700E-01 
    7.1275073995829241E-01 
    7.2758707036823789E-01 
    7.2757488465941478E-01 
    7.1273902016053092E-01 
    7.1272706421926957E-01 
    7.2756255506748591E-01 
    7.2754918253438350E-01 
    7.1271365944229481E-01 
    7.1269614929447855E-01 
    7.2753245160852920E-01 
    7.2751485740678812E-01 
    7.1267865556003662E-01 
    7.1267005948697593E-01 
    7.2750587577502968E-01 
    6.9766143663640512E-01 
    6.8160746362586988E-01 
    6.8160639584912996E-01 
    6.9766037640463996E-01 
    6.9765827046081663E-01 
    6.8160427452700978E-01 
    6.8160112226450464E-01 
    6.9765514175474608E-01 
    6.9765101615943359E-01 
    6.8159696458189323E-01 
    6.8159182905146765E-01 
    6.9764592176968654E-01 
    6.9763988883366501E-01 
    6.8158574516763304E-01 
    6.8157874435028021E-01 
    6.9763294977749279E-01 
    6.9762513923737934E-01 
    6.8157085997047062E-01 
    6.8156212737303701E-01 
    6.9761649408359561E-01 
    6.9760705343504870E-01 
    6.8155258389047679E-01 
    6.8154226884763836E-01 
    6.9759685866627941E-01 
    6.9758595340894702E-01 
    6.8153122355779683E-01 
    6.8151949131053569E-01 
    6.9757438354939294E-01 
    6.9756219722323842E-01 
    6.8150711735126901E-01 
    6.8149414885145332E-01 
    6.9754944480730852E-01 
    6.9753617890846442E-01 
    6.8148063486755994E-01 
    6.8146662628565069E-01 
    6.9752245434807636E-01 
    6.9750832813977259E-01 
    6.8145217574674732E-01 
    6.8143733754586044E-01 
    6.9749385945655551E-01 
    6.9747910958108539E-01 
    6.8142216749417461E-01 
    6.8140672272881664E-01 
    6.9746414182944960E-01 
    6.9744902143324128E-01 
    6.8139106144682315E-01 
    6.8137524252756698E-01 
    6.9743381535596416E-01 
    6.9741859200523659E-01 
    6.8135932498773055E-01 
    6.8134336717892241E-01 
    6.9740342077758810E-01 
    6.9738837132956233E-01 
    6.8132742557890380E-01 
    6.8131155292052770E-01 
    6.9737351239124368E-01 
    6.9735890979362625E-01 
    6.8129579520093775E-01 
    6.8128018671652146E-01 
    6.9734462310164391E-01 
    6.9733069968211159E-01 
    6.8126474144653948E-01 
    6.8124943729613230E-01 
    6.9731716384793918E-01 
    6.9730399604384186E-01 
    6.8123418539140290E-01 
    6.8121876513680224E-01 
    6.9729109038582748E-01 
    6.9727815963984363E-01 
    6.8120267027197157E-01 
    6.8118468561459866E-01 
    6.9726449037590077E-01 
    6.9724821662683079E-01 
    6.8116177293702618E-01 
    6.8113685467358076E-01 
    6.9722855619942670E-01 
    6.9721272993322969E-01 
    6.8112124867339507E-01 
    6.8111522020257642E-01 
    6.9720555397406536E-01 
    6.6496184132683966E-01 
    6.4772974103855041E-01 
    6.4772863047765705E-01 
    6.6496075710845592E-01 
    6.6495860263101381E-01 
    6.4772642298057526E-01 
    6.4772314047956514E-01 
    6.6495540021190069E-01 
    6.6495117513598523E-01 
    6.4771880790398806E-01 
    6.4771345206166253E-01 
    6.6494595465776118E-01 
    6.6493976781958486E-01 
    6.4770710140288945E-01 
    6.4769978598737243E-01 
    6.6493264544074826E-01 
    6.6492462014499720E-01 
    6.4769153750292696E-01 
    6.4768238929440125E-01 
    6.6491572639275598E-01 
    6.6490600050887416E-01 
    6.4767237638990705E-01 
    6.4766153552022332E-01 
    6.6489548070380644E-01 
    6.6488420708813223E-01 
    6.4764990512995058E-01 
    6.4763752537960984E-01 
    6.6487222168064619E-01 
    6.6485956840992244E-01 
    6.4762443813762005E-01 
    6.4761068696038315E-01 
    6.6484629310863508E-01 
    6.6483244349903114E-01 
    6.4759631705759224E-01 
    6.4758137523832304E-01 
    6.6481806916676645E-01 
    6.6480322151862570E-01 
    6.4756590983122930E-01 
    6.4754997056889518E-01 
    6.6478795371721766E-01 
    6.6477232058206315E-01 
    6.4753360842151408E-01 
    6.4751687535758962E-01 
    6.6475637844086988E-01 
    6.6474018490591213E-01 
    6.4749982399760486E-01 
    6.4748250710758604E-01 
    6.6472379853604480E-01 
    6.6470727832091214E-01 
    6.4746497684757476E-01 
    6.4744728363471771E-01 
    6.6469068288262778E-01 
    6.6467406921696326E-01 
    6.4742947438155551E-01 
    6.4741158968438151E-01 
    6.6465749066080559E-01 
    6.6464099351041239E-01 
    6.4739365916831415E-01 
    6.4737569342197210E-01 
    6.6462461118119553E-01 
    6.6460835364909954E-01 
    6.4735766921803151E-01 
    6.4733950047978661E-01 
    6.6459218724742841E-01 
    6.6457599314291593E-01 
    6.4732097605984684E-01 
    6.4730161086274762E-01 
    6.6455947361306889E-01 
    6.6454191243421479E-01 
    6.4728024008160401E-01 
    6.4725390879881162E-01 
    6.6452148216412643E-01 
    6.6449525557004430E-01 
    6.4722344875689974E-01 
    6.4720010598624056E-01 
    6.6446966430677268E-01 
    6.6445463757143852E-01 
    6.4718717581112173E-01 
    6.4718115096285600E-01 
    6.6444854798944464E-01 
    6.2991346913360891E-01 
    6.1151191524374637E-01 
    6.1151071820299741E-01 
    6.2991232179773748E-01 
    6.2991004035703935E-01 
    6.1150833687637263E-01 
    6.1150479217001319E-01 
    6.2990664627995985E-01 
    6.2990216405894772E-01 
    6.1150010805184374E-01 
    6.1149431022905798E-01 
    6.2989661998409341E-01 
    6.2989004185463526E-01 
    6.1148742581018922E-01 
    6.1147948322433032E-01 
    6.2988245892188677E-01 
    6.2987390189619230E-01 
    6.1147051221585369E-01 
    6.1146054385943904E-01 
    6.2986440296919022E-01 
    6.2985399583500334E-01 
    6.1144961057579261E-01 
    6.1143774614009017E-01 
    6.2984271570424433E-01 
    6.2983059930807717E-01 
    6.1142498567910897E-01 
    6.1141136565408760E-01 
    6.2981768489045808E-01 
    6.2980401218646032E-01 
    6.1139692382616329E-01 
    6.1138169920026519E-01 
    6.2978962238377545E-01 
    6.2977455806311144E-01 
    6.1136573194165422E-01 
    6.1134906325674387E-01 
    6.2975886311122298E-01 
    6.2974258259737814E-01 
    6.1133173522603712E-01 
    6.1131379057134005E-01 
    6.2972576259978019E-01 
    6.2970844996200603E-01 
    6.1129527233080505E-01 
    6.1127622340209287E-01 
    6.2969069194964178E-01 
    6.2967253576169879E-01 
    6.1125668589286986E-01 
    6.1123670018318210E-01 
    6.2965402782599100E-01 
    6.2963521276454948E-01 
    6.1121630354460743E-01 
    6.1119552805436428E-01 
    6.2961613183941378E-01 
    6.2959682055118171E-01 
    6.1117439734413592E-01 
    6.1115292133592636E-01 
    6.2957730479934904E-01 
    6.2955759447767445E-01 
    6.1113108730689836E-01 
    6.1110884379484653E-01 
    6.2953767221160783E-01 
    6.2951747221185528E-01 
    6.1108606936937981E-01 
    6.1106250613646995E-01 
    6.2949683719178584E-01 
    6.2947542123771794E-01 
    6.1103760115420114E-01 
    6.1101007872643520E-01 
    6.2945244234777553E-01 
    6.2942597941855782E-01 
    6.1097681255557712E-01 
    6.1093756075548056E-01 