# vtk DataFile Version 2.0
Pressure Field Data 
ASCII 
DATASET UNSTRUCTURED_GRID 

POINTS 1681 double 

    0.0000000000000000E+00     0.0000000000000000E+00     0.0000000000000000E+00 
    1.0000000000000000E+00     0.0000000000000000E+00     0.0000000000000000E+00 
    1.0000000000000000E+00     1.0000000000000000E+00     0.0000000000000000E+00 
    0.0000000000000000E+00     1.0000000000000000E+00     0.0000000000000000E+00 
    5.2499999999875258E-01     0.0000000000000000E+00     0.0000000000000000E+00 
    7.4999999999856765E-02     0.0000000000000000E+00     0.0000000000000000E+00 
    1.2499999999975850E-01     0.0000000000000000E+00     0.0000000000000000E+00 
    1.7499999999962990E-01     0.0000000000000000E+00     0.0000000000000000E+00 
    2.2499999999948389E-01     0.0000000000000000E+00     0.0000000000000000E+00 
    2.7499999999933789E-01     0.0000000000000000E+00     0.0000000000000000E+00 
    3.2499999999919210E-01     0.0000000000000000E+00     0.0000000000000000E+00 
    3.7499999999904610E-01     0.0000000000000000E+00     0.0000000000000000E+00 
    4.2499999999890020E-01     0.0000000000000000E+00     0.0000000000000000E+00 
    4.7499999999875958E-01     0.0000000000000000E+00     0.0000000000000000E+00 
    2.4999999999949701E-02     0.0000000000000000E+00     0.0000000000000000E+00 
    5.7499999999887907E-01     0.0000000000000000E+00     0.0000000000000000E+00 
    6.2499999999901101E-01     0.0000000000000000E+00     0.0000000000000000E+00 
    6.7499999999914273E-01     0.0000000000000000E+00     0.0000000000000000E+00 
    7.2499999999927467E-01     0.0000000000000000E+00     0.0000000000000000E+00 
    7.7499999999940661E-01     0.0000000000000000E+00     0.0000000000000000E+00 
    8.2499999999953844E-01     0.0000000000000000E+00     0.0000000000000000E+00 
    8.7499999999967026E-01     0.0000000000000000E+00     0.0000000000000000E+00 
    9.2499999999980220E-01     0.0000000000000000E+00     0.0000000000000000E+00 
    9.7499999999993414E-01     0.0000000000000000E+00     0.0000000000000000E+00 
    5.4999999999881310E-01     0.0000000000000000E+00     0.0000000000000000E+00 
    9.9999999999814140E-02     0.0000000000000000E+00     0.0000000000000000E+00 
    1.4999999999970290E-01     0.0000000000000000E+00     0.0000000000000000E+00 
    1.9999999999955689E-01     0.0000000000000000E+00     0.0000000000000000E+00 
    2.4999999999941089E-01     0.0000000000000000E+00     0.0000000000000000E+00 
    2.9999999999926502E-01     0.0000000000000000E+00     0.0000000000000000E+00 
    3.4999999999911913E-01     0.0000000000000000E+00     0.0000000000000000E+00 
    3.9999999999897312E-01     0.0000000000000000E+00     0.0000000000000000E+00 
    4.4999999999882723E-01     0.0000000000000000E+00     0.0000000000000000E+00 
    4.9999999999869210E-01     0.0000000000000000E+00     0.0000000000000000E+00 
    4.9999999999899403E-02     0.0000000000000000E+00     0.0000000000000000E+00 
    5.9999999999894504E-01     0.0000000000000000E+00     0.0000000000000000E+00 
    6.4999999999907687E-01     0.0000000000000000E+00     0.0000000000000000E+00 
    6.9999999999920870E-01     0.0000000000000000E+00     0.0000000000000000E+00 
    7.4999999999934064E-01     0.0000000000000000E+00     0.0000000000000000E+00 
    7.9999999999947247E-01     0.0000000000000000E+00     0.0000000000000000E+00 
    8.4999999999960441E-01     0.0000000000000000E+00     0.0000000000000000E+00 
    8.9999999999973623E-01     0.0000000000000000E+00     0.0000000000000000E+00 
    9.4999999999986817E-01     0.0000000000000000E+00     0.0000000000000000E+00 
    1.0000000000000000E+00     5.2499999999875258E-01     0.0000000000000000E+00 
    1.0000000000000000E+00     7.4999999999856765E-02     0.0000000000000000E+00 
    1.0000000000000000E+00     1.2499999999975850E-01     0.0000000000000000E+00 
    1.0000000000000000E+00     1.7499999999962990E-01     0.0000000000000000E+00 
    1.0000000000000000E+00     2.2499999999948389E-01     0.0000000000000000E+00 
    1.0000000000000000E+00     2.7499999999933789E-01     0.0000000000000000E+00 
    1.0000000000000000E+00     3.2499999999919210E-01     0.0000000000000000E+00 
    1.0000000000000000E+00     3.7499999999904610E-01     0.0000000000000000E+00 
    1.0000000000000000E+00     4.2499999999890020E-01     0.0000000000000000E+00 
    1.0000000000000000E+00     4.7499999999875958E-01     0.0000000000000000E+00 
    1.0000000000000000E+00     2.4999999999949701E-02     0.0000000000000000E+00 
    1.0000000000000000E+00     5.7499999999887907E-01     0.0000000000000000E+00 
    1.0000000000000000E+00     6.2499999999901101E-01     0.0000000000000000E+00 
    1.0000000000000000E+00     6.7499999999914273E-01     0.0000000000000000E+00 
    1.0000000000000000E+00     7.2499999999927467E-01     0.0000000000000000E+00 
    1.0000000000000000E+00     7.7499999999940661E-01     0.0000000000000000E+00 
    1.0000000000000000E+00     8.2499999999953844E-01     0.0000000000000000E+00 
    1.0000000000000000E+00     8.7499999999967026E-01     0.0000000000000000E+00 
    1.0000000000000000E+00     9.2499999999980220E-01     0.0000000000000000E+00 
    1.0000000000000000E+00     9.7499999999993414E-01     0.0000000000000000E+00 
    1.0000000000000000E+00     5.4999999999881310E-01     0.0000000000000000E+00 
    1.0000000000000000E+00     9.9999999999814140E-02     0.0000000000000000E+00 
    1.0000000000000000E+00     1.4999999999970290E-01     0.0000000000000000E+00 
    1.0000000000000000E+00     1.9999999999955689E-01     0.0000000000000000E+00 
    1.0000000000000000E+00     2.4999999999941089E-01     0.0000000000000000E+00 
    1.0000000000000000E+00     2.9999999999926502E-01     0.0000000000000000E+00 
    1.0000000000000000E+00     3.4999999999911913E-01     0.0000000000000000E+00 
    1.0000000000000000E+00     3.9999999999897312E-01     0.0000000000000000E+00 
    1.0000000000000000E+00     4.4999999999882723E-01     0.0000000000000000E+00 
    1.0000000000000000E+00     4.9999999999869210E-01     0.0000000000000000E+00 
    1.0000000000000000E+00     4.9999999999899403E-02     0.0000000000000000E+00 
    1.0000000000000000E+00     5.9999999999894504E-01     0.0000000000000000E+00 
    1.0000000000000000E+00     6.4999999999907687E-01     0.0000000000000000E+00 
    1.0000000000000000E+00     6.9999999999920870E-01     0.0000000000000000E+00 
    1.0000000000000000E+00     7.4999999999934064E-01     0.0000000000000000E+00 
    1.0000000000000000E+00     7.9999999999947247E-01     0.0000000000000000E+00 
    1.0000000000000000E+00     8.4999999999960441E-01     0.0000000000000000E+00 
    1.0000000000000000E+00     8.9999999999973623E-01     0.0000000000000000E+00 
    1.0000000000000000E+00     9.4999999999986817E-01     0.0000000000000000E+00 
    4.7500000000196618E-01     1.0000000000000000E+00     0.0000000000000000E+00 
    9.2499999999968763E-01     1.0000000000000000E+00     0.0000000000000000E+00 
    8.7499999999961831E-01     1.0000000000000000E+00     0.0000000000000000E+00 
    8.2499999999982654E-01     1.0000000000000000E+00     0.0000000000000000E+00 
    7.7500000000017355E-01     1.0000000000000000E+00     0.0000000000000000E+00 
    7.2500000000052045E-01     1.0000000000000000E+00     0.0000000000000000E+00 
    6.7500000000086724E-01     1.0000000000000000E+00     0.0000000000000000E+00 
    6.2500000000121403E-01     1.0000000000000000E+00     0.0000000000000000E+00 
    5.7500000000156093E-01     1.0000000000000000E+00     0.0000000000000000E+00 
    5.2500000000189684E-01     1.0000000000000000E+00     0.0000000000000000E+00 
    9.7499999999989595E-01     1.0000000000000000E+00     0.0000000000000000E+00 
    4.2500000000176902E-01     1.0000000000000000E+00     0.0000000000000000E+00 
    3.7500000000156092E-01     1.0000000000000000E+00     0.0000000000000000E+00 
    3.2500000000135282E-01     1.0000000000000000E+00     0.0000000000000000E+00 
    2.7500000000114472E-01     1.0000000000000000E+00     0.0000000000000000E+00 
    2.2500000000093659E-01     1.0000000000000000E+00     0.0000000000000000E+00 
    1.7500000000072849E-01     1.0000000000000000E+00     0.0000000000000000E+00 
    1.2500000000052039E-01     1.0000000000000000E+00     0.0000000000000000E+00 
    7.5000000000312261E-02     1.0000000000000000E+00     0.0000000000000000E+00 
    2.5000000000104109E-02     1.0000000000000000E+00     0.0000000000000000E+00 
    4.5000000000187301E-01     1.0000000000000000E+00     0.0000000000000000E+00 
    8.9999999999958358E-01     1.0000000000000000E+00     0.0000000000000000E+00 
    8.4999999999965303E-01     1.0000000000000000E+00     0.0000000000000000E+00 
    8.0000000000000004E-01     1.0000000000000000E+00     0.0000000000000000E+00 
    7.5000000000034706E-01     1.0000000000000000E+00     0.0000000000000000E+00 
    7.0000000000069384E-01     1.0000000000000000E+00     0.0000000000000000E+00 
    6.5000000000104063E-01     1.0000000000000000E+00     0.0000000000000000E+00 
    6.0000000000138742E-01     1.0000000000000000E+00     0.0000000000000000E+00 
    5.5000000000173432E-01     1.0000000000000000E+00     0.0000000000000000E+00 
    5.0000000000205946E-01     1.0000000000000000E+00     0.0000000000000000E+00 
    9.4999999999979179E-01     1.0000000000000000E+00     0.0000000000000000E+00 
    4.0000000000166491E-01     1.0000000000000000E+00     0.0000000000000000E+00 
    3.5000000000145681E-01     1.0000000000000000E+00     0.0000000000000000E+00 
    3.0000000000124871E-01     1.0000000000000000E+00     0.0000000000000000E+00 
    2.5000000000104061E-01     1.0000000000000000E+00     0.0000000000000000E+00 
    2.0000000000083251E-01     1.0000000000000000E+00     0.0000000000000000E+00 
    1.5000000000062441E-01     1.0000000000000000E+00     0.0000000000000000E+00 
    1.0000000000041630E-01     1.0000000000000000E+00     0.0000000000000000E+00 
[...]
CELL_DATA 1600 
SCALARS Pressure double 1 
LOOKUP_TABLE default 

    1.0693777318250963E+00 
    1.0418373731722002E+00 
    1.0416685094299538E+00 
    1.0672266244934845E+00 
    1.0650760817697991E+00 
    1.0413506075876191E+00 
    1.0409089579355231E+00 
    1.0629833501678041E+00 
    1.0609525574139367E+00 
    1.0403615301190994E+00 
    1.0397236489256803E+00 
    1.0589833027043747E+00 
    1.0570736957692570E+00 
    1.0390085630224146E+00 
    1.0382277739953834E+00 
    1.0552213034325886E+00 
    1.0534235414169506E+00 
    1.0373912754714982E+00 
    1.0365077396161080E+00 
    1.0516778557230884E+00 
    1.0499818072226308E+00 
    1.0355846641603585E+00 
    1.0346284844828808E+00 
    1.0483331054251550E+00 
    1.0467296120241349E+00 
    1.0336446501246108E+00 
    1.0326376598116296E+00 
    1.0451693232638535E+00 
    1.0436503335161735E+00 
    1.0316110413770891E+00 
    1.0305672509973052E+00 
    1.0421707770693494E+00 
    1.0407287386292470E+00 
    1.0295074515544314E+00 
    1.0284311374639790E+00 
    1.0393221124257102E+00 
    1.0379483692642069E+00 
    1.0273357330775092E+00 
    1.0262171319796372E+00 
    1.0366041469098570E+00 
    1.0352844813659743E+00 
    1.0250741585396561E+00 
    1.0239137433186527E+00 
    1.0339813131520990E+00 
    1.0326811121178157E+00 
    1.0227406815460107E+00 
    1.0215562760386567E+00 
    1.0313677141694060E+00 
    1.0300435279332838E+00 
    1.0204087899462866E+00 
    1.0193415937719863E+00 
    1.0287078813088446E+00 
    1.0274334455940346E+00 
    1.0183617225029122E+00 
    1.0174773169360725E+00 
    1.0263224133193518E+00 
    1.0253418961008698E+00 
    1.0166750054090972E+00 
    1.0159420123328908E+00 
    1.0244498344553907E+00 
    1.0236437104806630E+00 
    1.0152774934583804E+00 
    1.0146809327864330E+00 
    1.0229220937485828E+00 
    1.0222837210666240E+00 
    1.0141518608864761E+00 
    1.0136898567738182E+00 
    1.0217274883864840E+00 
    1.0212524439044488E+00 
    1.0132945494227894E+00 
    1.0129656189603156E+00 
    1.0208577821949534E+00 
    1.0205428393060081E+00 
    1.0127027975956473E+00 
    1.0125058703314351E+00 
    1.0203070887575707E+00 
    1.0201501383952565E+00 
    1.0123746754920142E+00 
    1.0123091050964617E+00 
    1.0200717280622680E+00 
    1.0190945858201141E+00 
    9.9443143271632373E-01 
    9.9437700964672204E-01 
    1.0190255826624948E+00 
    1.0188878116659605E+00 
    9.9426748209033089E-01 
    9.9410259413693658E-01 
    1.0186832069855176E+00 
    1.0184141923865138E+00 
    9.9388218690608898E-01 
    9.9360614285157745E-01 
    1.0180834203886859E+00 
    1.0176936524536031E+00 
    9.9327440665537092E-01 
    9.9288707642470730E-01 
    1.0172476411828510E+00 
    1.0167480138934271E+00 
    9.9244459674394114E-01 
    9.9194807241022087E-01 
    1.0161971530917315E+00 
    1.0155970691972231E+00 
    9.9139966580250583E-01 
    9.9080295530026452E-01 
    1.0149492677916574E+00 
    1.0142546371644428E+00 
    9.9016310051301226E-01 
    9.8948680135598366E-01 
    1.0135134426573709E+00 
    1.0127256372972209E+00 
    9.8878234804832488E-01 
    9.8806023466929183E-01 
    1.0118918118832669E+00 
    1.0110147272312571E+00 
    9.8733403064104164E-01 
    9.8661936143507378E-01 
    1.0101000326157483E+00 
    1.0091547850945861E+00 
    9.8593012961127069E-01 
    9.8527597578677550E-01 
    1.0081866253655076E+00 
    1.0072109156586337E+00 
    9.8466373708497201E-01 
    9.8409821831412037E-01 
    1.0062582503417026E+00 
    1.0053536878294780E+00 
    9.8357742607393528E-01 
    9.8309297794443318E-01 
    1.0045041054114610E+00 
    1.0037212643174827E+00 
    9.8263731617616057E-01 
    9.8220740223431713E-01 
    1.0030079267560457E+00 
    1.0023497671801178E+00 
    9.8180325687547532E-01 
    9.8142549548424807E-01 
    1.0017386273882793E+00 
    1.0011737160984036E+00 
    9.8107469510904510E-01 
    9.8075137901461096E-01 
    1.0006552465446514E+00 
    1.0001834143822297E+00 
    9.8045601875664978E-01 
    9.8018903618668840E-01 
    9.9975838339707435E-01 
    9.9938028976364568E-01 
    9.7995080532995726E-01 
    9.7974165411661718E-01 
    9.9904924575961895E-01 
    9.9876534297406316E-01 
    9.7956186595065387E-01 
    9.7941168110405186E-01 
    9.9852865504279598E-01 
    9.9833923994002494E-01 
    9.7929129792655267E-01 
    9.7920087386351984E-01 
    9.9819714185096931E-01 
    9.9810239264582301E-01 
    9.7914052627624282E-01 
    9.7911033306050432E-01 
    9.9805501297121590E-01 
    9.6639472966881168E-01 
    9.3682706741978927E-01 
    9.3679787317032182E-01 
    9.6633460899211643E-01 
    9.6621571554528507E-01 
    9.3674253560909571E-01 
    9.3666548576416642E-01 
    9.6604091784229418E-01 
    9.6581398406142671E-01 
    9.3657138808013396E-01 
    9.3646486412782881E-01 
    9.6553949878493583E-01 
    9.6522281583405845E-01 
    9.3635033706075788E-01 
    9.3623189266817641E-01 
    9.6487000860617533E-01 
    9.6448781933975070E-01 
    9.3611311901959182E-01 
    9.3599690986340689E-01 
    9.6408360434937435E-01 
    9.6366523399099580E-01 
    9.3588524285942754E-01 
    9.3577898531960657E-01 
    9.6324086690603417E-01 
    9.6281855302950914E-01 
    9.3567782212476114E-01 
    9.3558040058818448E-01 
    9.6240574326623329E-01 
    9.6200885164227079E-01 
    9.3548471987074322E-01 
    9.3538868985863810E-01 
    9.6163289253857631E-01 
    9.6128100180991649E-01 
    9.3529069529859343E-01 
    9.3518995722767029E-01 
    9.6095372477043639E-01 
    9.6064866493157097E-01 
    9.3508654890443210E-01 
    9.3498112528638222E-01 
    9.6036136571236819E-01 
    9.6008712912774707E-01 
    9.3487459155890018E-01 
    9.3476788721928039E-01 
    9.5982273057355838E-01 
    9.5956710556765812E-01 
    9.3466190414450256E-01 
    9.3455747374082065E-01 
    9.5932065767435359E-01 
    9.5908422859061082E-01 
    9.3445536980767663E-01 
    9.3435631114158735E-01 
    9.5885866602096492E-01 
    9.5864475616522216E-01 
    9.3426096349547971E-01 
    9.3416994131627817E-01 
    9.5844322299593865E-01 
    9.5825473032353736E-01 
    9.3408380930387014E-01 
    9.3400308380798935E-01 
    9.5807988367370334E-01 
    9.5791923201906903E-01 
    9.3392823407725256E-01 
    9.3385968337225989E-01 
    9.5777326936649776E-01 
    9.5764243620053302E-01 
    9.3379780995269546E-01 
    9.3374294794667401E-01 
    9.5752712078323932E-01 
    9.5742766031042170E-01 
    9.3369538810915487E-01 
    9.3365537847501978E-01 
    9.5734434192407880E-01 
    9.5727740358085789E-01 
    9.3362312491136767E-01 
    9.3359879157268166E-01 
    9.5722703477626114E-01 
    9.5719337712435471E-01 
    9.3358250126174858E-01 
    9.3357433569851955E-01 
    9.5717652479275850E-01 
    9.0981821837970744E-01 
    8.8467464540642671E-01 
    8.8467667177175691E-01 
    9.0982208907648832E-01 
    9.0982951764866227E-01 
    8.8468015856043347E-01 
    8.8468438751103418E-01 
    9.0983994617955277E-01 
    9.0985258025651494E-01 
    8.8468873642431300E-01 
    8.8469271066285826E-01 
    9.0986639213862730E-01 
    9.0988016741441102E-01 
    8.8469593533675539E-01 
    8.8469813669142616E-01 
    9.0989259393631594E-01 
    9.0990238350995689E-01 
    8.8469912186522481E-01 
    8.8469876107493384E-01 
    9.0990840634416481E-01 
    9.0990980945803057E-01 
    8.8469697404445768E-01 
    8.8469372087988130E-01 
    9.0990608895498593E-01 
    9.0989709731167268E-01 
    8.8468899638421350E-01 
    8.8468282624745553E-01 
    9.0988298889032482E-01 
    9.0986412865513511E-01 
    8.8467526375226591E-01 
    8.8466638631392192E-01 
    9.0984099774560645E-01 
    9.0981412175745946E-01 
    8.8465629181903815E-01 
    8.8464509501562150E-01 
    9.0978403057464619E-01 
    9.0975124307553890E-01 
    8.8463292416790229E-01 
    8.8461991804306817E-01 
    9.0971626383148674E-01 
    9.0967958241045777E-01 
    8.8460622320604010E-01 
    8.8459199158183144E-01 
    9.0964167220213132E-01 
    9.0960298891908942E-01 
    8.8457737825562044E-01 
    8.8456253948871422E-01 
    9.0956396922633109E-01 
    9.0952502958633186E-01 
    8.8454763093153499E-01 
    8.8453280601635953E-01 
    9.0948656528404448E-01 
    9.0944894960206168E-01 
    8.8451821451410217E-01 
    8.8450400124092610E-01 
    9.0941253312406400E-01 
    9.0937764314799507E-01 
    8.8449030490185476E-01 
    8.8447725705985381E-01 
    9.0934458319304001E-01 
    9.0931363258675413E-01 
    8.8446498122004069E-01 
    8.8445359201980389E-01 
    9.0928504612063188E-01 
    9.0925905376409766E-01 
    8.8444319451663655E-01 
    8.8443388356645813E-01 
    9.0923586042836002E-01 
    9.0921564577286107E-01 
    8.8442574328609092E-01 
    8.8441884659440417E-01 
    9.0919856404817501E-01 
    9.0918474397022564E-01 
    8.8441325482742406E-01 
    8.8440901742346378E-01 
    9.0917428862158578E-01 
    9.0916727537645103E-01 
    8.8440617167503333E-01 
    8.8440474254497858E-01 
    9.0916375584663067E-01 
    8.5963929554265228E-01 
    8.3461066991212707E-01 
    8.3461053685301101E-01 
    8.5963923663159536E-01 
    8.5963909539201255E-01 
    8.3461026943975558E-01 
    8.3460986529107650E-01 
    8.5963883338847324E-01 
    8.5963840502691435E-01 
    8.3460932127634224E-01 
    8.3460863390763651E-01 
    8.5963776246950430E-01 
    8.5963685924196875E-01 
    8.3460779974493060E-01 
    8.3460681578567442E-01 
    8.5963565285236954E-01 
    8.5963410660432138E-01 
    8.3460567981976053E-01 
    8.3460439073825032E-01 
    8.5963219077710562E-01 
    8.5962988333130153E-01 
    8.3460294878973706E-01 
    8.3460135578200922E-01 
    8.5962717026762081E-01 
    8.5962404572791384E-01 
    8.3459961522913806E-01 
    8.3459773244569979E-01 
    8.5962051189368682E-01 
    8.5961657871697716E-01 
    8.3459571459090887E-01 
    8.3459357066621920E-01 
    8.5961226351088138E-01 
    8.5960759042641821E-01 
    8.3459131147052756E-01 
    8.3458894951750406E-01 
    8.5960258984259397E-01 
    8.5959729769464910E-01 
    8.3458649891978554E-01 
    8.3458397524481454E-01 
    8.5959175476187166E-01 
    8.5958600593248702E-01 
    8.3458139534702391E-01 
    8.3457877718090345E-01 
    8.5958009945978842E-01 
    8.5957408622099707E-01 
    8.3457613959925614E-01 
    8.3457350214067738E-01 
    8.5956801898813617E-01 
    8.5956195171837535E-01 
    8.3457088481000896E-01 
    8.3456830785520897E-01 
    8.5955593886977821E-01 
    8.5955003474712044E-01 
    8.3456579154378763E-01 
    8.3456335594165387E-01 
    8.5954429288139556E-01 
    8.5953876544577368E-01 
    8.3456102069693827E-01 
    8.3455880483108413E-01 
    8.5953350271007889E-01 
    8.5952855253528548E-01 
    8.3455672653924495E-01 
    8.3455480300178619E-01 
    8.5952395990909114E-01 
    8.5951976652326656E-01 
    8.3455305020847181E-01 
    8.3455148279670444E-01 
    8.5951601039321424E-01 
    8.5951272551996249E-01 
    8.3455011390501366E-01 
    8.3454895504279925E-01 
    8.5950994159467886E-01 
    8.5950768374567932E-01 
    8.3454801597719086E-01 
    8.3454730463772975E-01 
    8.5950597232785941E-01 
    8.5950482275442863E-01 
    8.3454682703944882E-01 
    8.3454658722480080E-01 
    8.5950424537084014E-01 
    8.0959521713310556E-01 
    7.8458758510284643E-01 
    7.8458754490759830E-01 
    8.0959513813560013E-01 
    8.0959498029476729E-01 
    7.8458746469977969E-01 
    7.8458734484571346E-01 
    8.0959474393322772E-01 
    8.0959442956895733E-01 
    7.8458718589741716E-01 
    7.8458698859531995E-01 
    8.0959403795179941E-01 
    8.0959357010636535E-01 
    7.8458675387138843E-01 
    7.8458648285230359E-01 
    8.0959302737806704E-01 
    8.0959241147924488E-01 
    7.8458617686230026E-01 
    7.8458583742528210E-01 
    8.0959172453270978E-01 
    8.0959096911043638E-01 
    7.8458546626583781E-01 
    7.8458506530881744E-01 
    8.0959014826559061E-01 
    8.0958926555650601E-01 
    7.8458463667717215E-01 
    7.8458418268781149E-01 
    8.0958832506163059E-01 
    8.0958733138483352E-01 
    7.8458370584529080E-01 
    7.8458320883320387E-01 
    8.0958628965079871E-01 
    8.0958520549052315E-01 
    7.8458269450321216E-01 
    7.8458216586170271E-01 
    8.0958408501719037E-01 
    8.0958293479289989E-01 
    7.8458162605412785E-01 
    7.8458107834712087E-01 
    8.0958176178691155E-01 
    8.0958057332619482E-01 
    7.8458052610854268E-01 
    7.8457997278564362E-01 
    8.0957937703918348E-01 
    8.0957818079370525E-01 
    7.8457942188156715E-01 
    7.8457887693045014E-01 
    8.0957699263011174E-01 
    8.0957582069065059E-01 
    7.8457834147139727E-01 
    7.8457781902162838E-01 
    8.0957467314613796E-01 
    8.0957355812097354E-01 
    7.8457731304910361E-01 
    7.8457682694494368E-01 
    8.0957248361751644E-01 
    8.0957145744081116E-01 
    7.8457636399596442E-01 
    7.8457592735763704E-01 
    8.0957048712459789E-01 
    8.0956957985950062E-01 
    7.8457552002778475E-01 
    7.8457514482131285E-01 
    8.0956874242422161E-01 
    8.0956798112051176E-01 
    7.8457480434625526E-01 
    7.8457450098140369E-01 
    8.0956730171262303E-01 
    8.0956670937187702E-01 
    7.8457423685576810E-01 
    7.8457401383009195E-01 
    8.0956620862691853E-01 
    8.0956580332015138E-01 
    7.8457383348062226E-01 
    7.8457369708531255E-01 
    8.0956549657078303E-01 
    8.0956529074483430E-01 
    7.8457360561260381E-01 
    7.8457355971290355E-01 
    8.0956518743239636E-01 
    7.5958393239747202E-01 
    7.3458220755514314E-01 
    7.3458219830757621E-01 
    7.5958391292405614E-01 
    7.5958387408329608E-01 
    7.3458217986634433E-01 
    7.3458215233889279E-01 
    7.5958381608698511E-01 
    7.5958373925218270E-01 
    7.3458211588577105E-01 
    7.3458207071988935E-01 
    7.5958364400042244E-01 
    7.5958353085659769E-01 
    7.3458201710552107E-01 
    7.3458195535704984E-01 
    7.5958340044748296E-01 
    7.5958325349983902E-01 
    7.3458188583745820E-01 
    7.3458180895655290E-01 
    7.5958309083805275E-01 
    7.5958291338125905E-01 
    7.3458172516892795E-01 
    7.3458163497166185E-01 
    7.5958272213989697E-01 
    7.5958251821165923E-01 
    7.3458153890174926E-01 
    7.3458143753327210E-01 
    7.5958230277679917E-01 
    7.5958207709277270E-01 
    7.3458133147431437E-01 
    7.3458122136362680E-01 
    7.5958184248820004E-01 
    7.5958160035614830E-01 
    7.3458110786705422E-01 
    7.3458099167373747E-01 
    7.5958135214674338E-01 
    7.5958109935913676E-01 
    7.3458087349210832E-01 
    7.3458075404569523E-01 
    7.5958084353286393E-01 
    7.5958058623864033E-01 
    7.3458063406876450E-01 
    7.3458051430182225E-01 
    7.5958032906865902E-01 
    7.5958007362645408E-01 
    7.3458039548700349E-01 
    7.3458027836338358E-01 
    7.5957982151641423E-01 
    7.5957957433303080E-01 
    7.3458016366223911E-01 
    7.3458005210229904E-01 
    7.5957933364997499E-01 
    7.5957910100910131E-01 
    7.3457994438501595E-01 
    7.3457984118990061E-01 
    7.5957887790948098E-01 
    7.5957866579656896E-01 
    7.3457974316995156E-01 
    7.3457965094722111E-01 
    7.5957846605160895E-01 
    7.5957827998137983E-01 
    7.3457956510855260E-01 
    7.3457948620152669E-01 
    7.5957810880838716E-01 
    7.5957795366159586E-01 
    7.3457941473065058E-01 
    7.3457935115382345E-01 
    7.5957781556779747E-01 
    7.5957769544369946E-01 
    7.3457929587911053E-01 
    7.3457924926185281E-01 
    7.5957759408881897E-01 
    7.5957751217924874E-01 
    7.3457921160214001E-01 
    7.3457918314266746E-01 
    7.5957745026236256E-01 
    7.5957740875251434E-01 
    7.3457916406699819E-01 
    7.3457915449824596E-01 
    7.5957738792777163E-01 
    7.0958139821639155E-01 
    6.8458101976609398E-01 
    6.8458101772465874E-01 
    7.0958139386392238E-01 
    7.0958138518514624E-01 
    6.8458101365426727E-01 
    6.8458100757967577E-01 
    7.0958137223212481E-01 
    7.0958135508259512E-01 
    6.8458099953783857E-01 
    6.8458098957769220E-01 
    7.0958133383954614E-01 
    7.0958130863065350E-01 
    6.8458097775987081E-01 
    6.8458096415635106E-01 
    7.0958127960757822E-01 
    7.0958124694512659E-01 
    6.8458094885003107E-01 
    6.8458093193424374E-01 
    7.0958121084027859E-01 
    7.0958117151108480E-01 
    6.8458091351220696E-01 
    6.8458089369641451E-01 
    7.0958112919543692E-01 
    7.0958108414971632E-01 
    6.8458087260796863E-01 
    6.8458085037586147E-01 
    7.0958103664732608E-01 
    7.0958098697711292E-01 
    6.8458082713620350E-01 
    6.8458080303140922E-01 
    7.0958093544168477E-01 
    7.0958088235563366E-01 
    6.8458077820933927E-01 
    6.8458075282240816E-01 
    7.0958082804367228E-01 
    7.0958077283869270E-01 
    6.8458072702665873E-01 
    6.8458070098081214E-01 
    7.0958071707976000E-01 
    7.0958066111004925E-01 
    6.8458067484529617E-01 
    6.8458064878125935E-01 
    7.0958060527474287E-01 
    7.0958054991889519E-01 
    6.8458062294957767E-01 
    6.8458059750985611E-01 
    7.0958049538528201E-01 
    7.0958044201224779E-01 
    6.8458057261943728E-01 
    6.8458054843241800E-01 
    7.0958039013156538E-01 
    7.0958034006632120E-01 
    6.8458052509868306E-01 
    6.8458050276296278E-01 
    7.0958029212884388E-01 
    7.0958024661868790E-01 
    6.8458048156391849E-01 
    6.8458046163326502E-01 
    7.0958020382068843E-01 
    7.0958016400310175E-01 
    6.8458044309493293E-01 
    6.8458042606427949E-01 
    7.0958012741584608E-01 
    7.0958009428885194E-01 
    6.8458041064735153E-01 
    6.8458039694020534E-01 
    7.0958006483054159E-01 
    7.0958003922644364E-01 
    6.8458038502829133E-01 
    6.8458037498590385E-01 
    7.0958001763795664E-01 
    7.0958000020126921E-01 
    6.8458036687570234E-01 
    6.8458036074830741E-01 
    7.0957998702644753E-01 
    7.0957997819669583E-01 
    6.8458035664197392E-01 
    6.8458035458234323E-01 
    7.0957997376779680E-01 
    6.5958084341145773E-01 
    6.3458076203108649E-01 
    6.3458076157216947E-01 
    6.5958084245205229E-01 
    6.5958084053918498E-01 
    6.3458076065722890E-01 
    6.3458075929188595E-01 
    6.5958083768456899E-01 
    6.5958083390568578E-01 
    6.3458075748453036E-01 
    6.3458075524626867E-01 
    6.5958082922568129E-01 
    6.5958082367322657E-01 
    6.3458075259085667E-01 
    6.3458074953461596E-01 
    6.5958081728234486E-01 
    6.5958081009220793E-01 
    6.3458074609633419E-01 
    6.3458074229715100E-01 
    6.5958080214689963E-01 
    6.5958079349515097E-01 
    6.3458073816042870E-01 
    6.3458073371160995E-01 
    6.5958078419004562E-01 
    6.5958077428869832E-01 
    6.3458072897806284E-01 
    6.3458072398891274E-01 
    6.5958076385191011E-01 
    6.5958075294379914E-01 
    6.3458071877486455E-01 
    6.3458071336801491E-01 
    6.5958074163141089E-01 
    6.5958072998430917E-01 
    6.3458070780165599E-01 
    6.3458070211006967E-01 
    6.5958071807415297E-01 
    6.5958070597425789E-01 
    6.3458069632831859E-01 
    6.3458069049203036E-01 
    6.5958069375914608E-01 
    6.5958068150408911E-01 
    6.3458068463717787E-01 
    6.3458067879985791E-01 
    6.5958066928464554E-01 
    6.5958065717619352E-01 
    6.3458067301606902E-01 
    6.3458066732148877E-01 
    6.5958064525346627E-01 
    6.5958063359008823E-01 
    6.3458066175125349E-01 
    6.3458065633974126E-01 
    6.5958062225811920E-01 
    6.5958061132760537E-01 
    6.3458065112035844E-01 
    6.3458064612533305E-01 
    6.5958060086614412E-01 
    6.5958059093846044E-01 
    6.3458064138551495E-01 
    6.3458063693018363E-01 
    6.5958058160600430E-01 
    6.5958057292656380E-01 
    6.3458063278686738E-01 
    6.3458062898117118E-01 
    6.5958056495390438E-01 
    6.5958055773743041E-01 
    6.3458062553661820E-01 
    6.3458062247450198E-01 
    6.5958055132187443E-01 
    6.5958054574701597E-01 
    6.3458061981375513E-01 
    6.3458061757083040E-01 