# vtk DataFile Version 2.0
Pressure Field Data 
ASCII 
DATASET UNSTRUCTURED_GRID 

POINTS 1681 double 

    0.0000000000000000E+00     0.0000000000000000E+00     0.0000000000000000E+00 
    1.0000000000000000E+00     0.0000000000000000E+00     0.0000000000000000E+00 
    1.0000000000000000E+00     1.0000000000000000E+00     0.0000000000000000E+00 
    0.0000000000000000E+00     1.0000000000000000E+00     0.0000000000000000E+00 
    5.2499999999875258E-01     0.0000000000000000E+00     0.0000000000000000E+00 
    7.4999999999856765E-02     0.0000000000000000E+00     0.0000000000000000E+00 
    1.2499999999975850E-01     0.0000000000000000E+00     0.0000000000000000E+00 
    1.7499999999962990E-01     0.0000000000000000E+00     0.0000000000000000E+00 
    2.2499999999948389E-01     0.0000000000000000E+00     0.0000000000000000E+00 
    2.7499999999933789E-01     0.0000000000000000E+00     0.0000000000000000E+00 
    3.2499999999919210E-01     0.0000000000000000E+00     0.0000000000000000E+00 
    3.7499999999904610E-01     0.0000000000000000E+00     0.0000000000000000E+00 
    4.2499999999890020E-01     0.0000000000000000E+00     0.0000000000000000E+00 
    4.7499999999875958E-01     0.0000000000000000E+00     0.0000000000000000E+00 
    2.4999999999949701E-02     0.0000000000000000E+00     0.0000000000000000E+00 
    5.7499999999887907E-01     0.0000000000000000E+00     0.0000000000000000E+00 
    6.2499999999901101E-01     0.0000000000000000E+00     0.0000000000000000E+00 
    6.7499999999914273E-01     0.0000000000000000E+00     0.0000000000000000E+00 
    7.2499999999927467E-01     0.0000000000000000E+00     0.0000000000000000E+00 
    7.7499999999940661E-01     0.0000000000000000E+00     0.0000000000000000E+00 
    8.2499999999953844E-01     0.0000000000000000E+00     0.0000000000000000E+00 
    8.7499999999967026E-01     0.0000000000000000E+00     0.0000000000000000E+00 
    9.2499999999980220E-01     0.0000000000000000E+00     0.0000000000000000E+00 
    9.7499999999993414E-01     0.0000000000000000E+00     0.0000000000000000E+00 
    5.4999999999881310E-01     0.0000000000000000E+00     0.0000000000000000E+00 
    9.9999999999814140E-02     0.0000000000000000E+00     0.0000000000000000E+00 
    1.4999999999970290E-01     0.0000000000000000E+00     0.0000000000000000E+00 
    1.9999999999955689E-01     0.0000000000000000E+00     0.0000000000000000E+00 
    2.4999999999941089E-01     0.0000000000000000E+00     0.0000000000000000E+00 
    2.9999999999926502E-01     0.0000000000000000E+00     0.0000000000000000E+00 
    3.4999999999911913E-01     0.0000000000000000E+00     0.0000000000000000E+00 
    3.9999999999897312E-01     0.0000000000000000E+00     0.0000000000000000E+00 
    4.4999999999882723E-01     0.0000000000000000E+00     0.0000000000000000E+00 
    4.9999999999869210E-01     0.0000000000000000E+00     0.0000000000000000E+00 
    4.9999999999899403E-02     0.0000000000000000E+00     0.0000000000000000E+00 
    5.9999999999894504E-01     0.0000000000000000E+00     0.0000000000000000E+00 
    6.4999999999907687E-01     0.0000000000000000E+00     0.0000000000000000E+00 
    6.9999999999920870E-01     0.0000000000000000E+00     0.0000000000000000E+00 
    7.4999999999934064E-01     0.0000000000000000E+00     0.0000000000000000E+00 
    7.9999999999947247E-01     0.0000000000000000E+00     0.0000000000000000E+00 
    8.4999999999960441E-01     0.0000000000000000E+00     0.0000000000000000E+00 
    8.9999999999973623E-01     0.0000000000000000E+00     0.0000000000000000E+00 
    9.4999999999986817E-01     0.0000000000000000E+00     0.0000000000000000E+00 
    1.0000000000000000E+00     5.2499999999875258E-01     0.0000000000000000E+00 
    1.0000000000000000E+00     7.4999999999856765E-02     0.0000000000000000E+00 
    1.0000000000000000E+00     1.2499999999975850E-01     0.0000000000000000E+00 
    1.0000000000000000E+00     1.7499999999962990E-01     0.0000000000000000E+00 
    1.0000000000000000E+00     2.2499999999948389E-01     0.0000000000000000E+00 
    1.0000000000000000E+00     2.7499999999933789E-01     0.0000000000000000E+00 
    1.0000000000000000E+00     3.2499999999919210E-01     0.0000000000000000E+00 
    1.0000000000000000E+00     3.7499999999904610E-01     0.0000000000000000E+00 
    1.0000000000000000E+00     4.2499999999890020E-01     0.0000000000000000E+00 
    1.0000000000000000E+00     4.7499999999875958E-01     0.0000000000000000E+00 
    1.0000000000000000E+00     2.4999999999949701E-02     0.0000000000000000E+00 
    1.0000000000000000E+00     5.7499999999887907E-01     0.0000000000000000E+00 
    1.0000000000000000E+00     6.2499999999901101E-01     0.0000000000000000E+00 
    1.0000000000000000E+00     6.7499999999914273E-01     0.0000000000000000E+00 
    1.0000000000000000E+00     7.2499999999927467E-01     0.0000000000000000E+00 
    1.0000000000000000E+00     7.7499999999940661E-01     0.0000000000000000E+00 
    1.0000000000000000E+00     8.2499999999953844E-01     0.0000000000000000E+00 
    1.0000000000000000E+00     8.7499999999967026E-01     0.0000000000000000E+00 
    1.0000000000000000E+00     9.2499999999980220E-01     0.0000000000000000E+00 
    1.0000000000000000E+00     9.7499999999993414E-01     0.0000000000000000E+00 
    1.0000000000000000E+00     5.4999999999881310E-01     0.0000000000000000E+00 
    1.0000000000000000E+00     9.9999999999814140E-02     0.0000000000000000E+00 
    1.0000000000000000E+00     1.4999999999970290E-01     0.0000000000000000E+00 
    1.0000000000000000E+00     1.9999999999955689E-01     0.0000000000000000E+00 
    1.0000000000000000E+00     2.4999999999941089E-01     0.0000000000000000E+00 
    1.0000000000000000E+00     2.9999999999926502E-01     0.0000000000000000E+00 
    1.0000000000000000E+00     3.4999999999911913E-01     0.0000000000000000E+00 
    1.0000000000000000E+00     3.9999999999897312E-01     0.0000000000000000E+00 
    1.0000000000000000E+00     4.4999999999882723E-01     0.0000000000000000E+00 
    1.0000000000000000E+00     4.9999999999869210E-01     0.0000000000000000E+00 
    1.0000000000000000E+00     4.9999999999899403E-02     0.0000000000000000E+00 
    1.0000000000000000E+00     5.9999999999894504E-01     0.0000000000000000E+00 
    1.0000000000000000E+00     6.4999999999907687E-01     0.0000000000000000E+00 
    1.0000000000000000E+00     6.9999999999920870E-01     0.0000000000000000E+00 
    1.0000000000000000E+00     7.4999999999934064E-01     0.0000000000000000E+00 
    1.0000000000000000E+00     7.9999999999947247E-01     0.0000000000000000E+00 
    1.0000000000000000E+00     8.4999999999960441E-01     0.0000000000000000E+00 
    1.0000000000000000E+00     8.9999999999973623E-01     0.0000000000000000E+00 
    1.0000000000000000E+00     9.4999999999986817E-01     0.0000000000000000E+00 
    4.7500000000196618E-01     1.0000000000000000E+00     0.0000000000000000E+00 
    9.2499999999968763E-01     1.0000000000000000E+00     0.0000000000000000E+00 
    8.7499999999961831E-01     1.0000000000000000E+00     0.0000000000000000E+00 
    8.2499999999982654E-01     1.0000000000000000E+00     0.0000000000000000E+00 
    7.7500000000017355E-01     1.0000000000000000E+00     0.0000000000000000E+00 
    7.2500000000052045E-01     1.0000000000000000E+00     0.0000000000000000E+00 
    6.7500000000086724E-01     1.0000000000000000E+00     0.0000000000000000E+00 
    6.2500000000121403E-01     1.0000000000000000E+00     0.0000000000000000E+00 
    5.7500000000156093E-01     1.0000000000000000E+00     0.0000000000000000E+00 
    5.2500000000189684E-01     1.0000000000000000E+00     0.0000000000000000E+00 
    9.7499999999989595E-01     1.0000000000000000E+00     0.0000000000000000E+00 
    4.2500000000176902E-01     1.0000000000000000E+00     0.0000000000000000E+00 
    3.7500000000156092E-01     1.0000000000000000E+00     0.0000000000000000E+00 
    3.2500000000135282E-01     1.0000000000000000E+00     0.0000000000000000E+00 
    2.7500000000114472E-01     1.0000000000000000E+00     0.0000000000000000E+00 
    2.2500000000093659E-01     1.0000000000000000E+00     0.0000000000000000E+00 
    1.7500000000072849E-01     1.0000000000000000E+00     0.0000000000000000E+00 
    1.2500000000052039E-01     1.0000000000000000E+00     0.0000000000000000E+00 
    7.5000000000312261E-02     1.0000000000000000E+00     0.0000000000000000E+00 
    2.5000000000104109E-02     1.0000000000000000E+00     0.0000000000000000E+00 
    4.5000000000187301E-01     1.0000000000000000E+00     0.0000000000000000E+00 
    8.9999999999958358E-01     1.0000000000000000E+00     0.0000000000000000E+00 
    8.4999999999965303E-01     1.0000000000000000E+00     0.0000000000000000E+00 
    8.0000000000000004E-01     1.0000000000000000E+00     0.0000000000000000E+00 
    7.5000000000034706E-01     1.0000000000000000E+00     0.0000000000000000E+00 
    7.0000000000069384E-01     1.0000000000000000E+00     0.0000000000000000E+00 
    6.5000000000104063E-01     1.0000000000000000E+00     0.0000000000000000E+00 
    6.0000000000138742E-01     1.0000000000000000E+00     0.0000000000000000E+00 
    5.5000000000173432E-01     1.0000000000000000E+00     0.0000000000000000E+00 
    5.0000000000205946E-01     1.0000000000000000E+00     0.0000000000000000E+00 
    9.4999999999979179E-01     1.0000000000000000E+00     0.0000000000000000E+00 
    4.0000000000166491E-01     1.0000000000000000E+00     0.0000000000000000E+00 
    3.5000000000145681E-01     1.0000000000000000E+00     0.0000000000000000E+00 
    3.0000000000124871E-01     1.0000000000000000E+00     0.0000000000000000E+00 
    2.5000000000104061E-01     1.0000000000000000E+00     0.0000000000000000E+00 
    2.0000000000083251E-01     1.0000000000000000E+00     0.0000000000000000E+00 
    1.5000000000062441E-01     1.0000000000000000E+00     0.0000000000000000E+00 
    1.0000000000041630E-01     1.0000000000000000E+00     0.0000000000000000E+00 
[...]
CELL_DATA 1600 
SCALARS Pressure double 1 
LOOKUP_TABLE default 

    1.3036794485593797E+00 
    1.2560529182366047E+00 
    1.2535373309120916E+00 
    1.2877707080514647E+00 
    1.2749123809650866E+00 
    1.2497016313063154E+00 
    1.2452441378276464E+00 
    1.2642888646380439E+00 
    1.2553128016498254E+00 
    1.2405578822322914E+00 
    1.2358615953896877E+00 
    1.2475763236468651E+00 
    1.2407923540549330E+00 
    1.2312729562297384E+00 
    1.2268513925559517E+00 
    1.2347556584680910E+00 
    1.2293171648056898E+00 
    1.2226231506088068E+00 
    1.2185959690210768E+00 
    1.2243668964551475E+00 
    1.2198224990112430E+00 
    1.2147676384649524E+00 
    1.2111309591075863E+00 
    1.2156214284731659E+00 
    1.2117155612067927E+00 
    1.2076765754026277E+00 
    1.2043945621141010E+00 
    1.2080674242839629E+00 
    1.2046475232063889E+00 
    1.2012752788278203E+00 
    1.1983097994379528E+00 
    1.2014324220980364E+00 
    1.1984033463523853E+00 
    1.1954900981437164E+00 
    1.1928090992195448E+00 
    1.1955451525758176E+00 
    1.1928455599275685E+00 
    1.1902606535910287E+00 
    1.1878394788804179E+00 
    1.1902945697063807E+00 
    1.1878840220266964E+00 
    1.1855410838612570E+00 
    1.1833616888799277E+00 
    1.1856072533295308E+00 
    1.1834588286321197E+00 
    1.1812981481773950E+00 
    1.1793478765935437E+00 
    1.1814343293298240E+00 
    1.1795301819395030E+00 
    1.1775087808367419E+00 
    1.1757791935836484E+00 
    1.1777435158836482E+00 
    1.1760720392619493E+00 
    1.1741578063296805E+00 
    1.1726435928247605E+00 
    1.1745139198087244E+00 
    1.1730676515170102E+00 
    1.1712357061738194E+00 
    1.1699333113823409E+00 
    1.1717318688197786E+00 
    1.1705050203665996E+00 
    1.1687352597722263E+00 
    1.1676393801574272E+00 
    1.1693846937960655E+00 
    1.1683661519261475E+00 
    1.1666409126819226E+00 
    1.1657291836818857E+00 
    1.1674392611123836E+00 
    1.1665822937695420E+00 
    1.1648807691719705E+00 
    1.1640565620195689E+00 
    1.1657574366653383E+00 
    1.1650212812459038E+00 
    1.1633295137093871E+00 
    1.1628129434378833E+00 
    1.1644928997674791E+00 
    1.1641580263933866E+00 
    1.1624839837377507E+00 
    1.1623197718524600E+00 
    1.1639909123370837E+00 
    1.2305925766275378E+00 
    1.2114212943573976E+00 
    1.2110075109735088E+00 
    1.2297641644164734E+00 
    1.2282339381985203E+00 
    1.2102045013986478E+00 
    1.2090557808371716E+00 
    1.2261638576261540E+00 
    1.2237053678065095E+00 
    1.2076134677232890E+00 
    1.2059313562729996E+00 
    1.2209849275530367E+00 
    1.2181019219293436E+00 
    1.2040605213859832E+00 
    1.2020469593355798E+00 
    1.2151315669774465E+00 
    1.2121293219361353E+00 
    1.1999306399093077E+00 
    1.1977454382150423E+00 
    1.2091352772917445E+00 
    1.2061779386237728E+00 
    1.1955195574452100E+00 
    1.1932761837071493E+00 
    1.2032772673146719E+00 
    1.2004470259553726E+00 
    1.1910342130773675E+00 
    1.1888089598653646E+00 
    1.1976965408370155E+00 
    1.1950320032107353E+00 
    1.1866127998472158E+00 
    1.1844557297136449E+00 
    1.1924574180126395E+00 
    1.1899752890671573E+00 
    1.1823458398124524E+00 
    1.1802897056334070E+00 
    1.1875871102279145E+00 
    1.1852937150631127E+00 
    1.1782927072794582E+00 
    1.1763592872978954E+00 
    1.1830955241444194E+00 
    1.1809927185237610E+00 
    1.1744931569114005E+00 
    1.1726974596140967E+00 
    1.1789853600592344E+00 
    1.1770734733062087E+00 
    1.1709748996820328E+00 
    1.1693278415675032E+00 
    1.1752570991815214E+00 
    1.1735363270293502E+00 
    1.1677583843979036E+00 
    1.1662684136686163E+00 
    1.1719113085218378E+00 
    1.1703822532569568E+00 
    1.1648596291225339E+00 
    1.1635335423017410E+00 
    1.1689494005536196E+00 
    1.1676129514610571E+00 
    1.1622914254973955E+00 
    1.1611341646959294E+00 
    1.1663729201933846E+00 
    1.1652288004893834E+00 
    1.1600618941982228E+00 
    1.1590731226988673E+00 
    1.1641787949046458E+00 
    1.1632180802706014E+00 
    1.1581627488940358E+00 
    1.1573176957520501E+00 
    1.1623350692490491E+00 
    1.1615035041086166E+00 
    1.1565073661494307E+00 
    1.1557015336183725E+00 
    1.1606849128284520E+00 
    1.1599782115934387E+00 
    1.1550267243702244E+00 
    1.1545598713078875E+00 
    1.1594832755615916E+00 
    1.1591653199983969E+00 
    1.1542566811236250E+00 
    1.1541051793784662E+00 
    1.1590065125994164E+00 
    1.1947439145203869E+00 
    1.1791649752983226E+00 
    1.1789913280926123E+00 
    1.1944904933257132E+00 
    1.1939912746129930E+00 
    1.1786472433838682E+00 
    1.1781396752262230E+00 
    1.1932617309648150E+00 
    1.1923226423628581E+00 
    1.1774784493016810E+00 
    1.1766756033421863E+00 
    1.1911980246788370E+00 
    1.1899133074698527E+00 
    1.1757446970471779E+00 
    1.1747001679612410E+00 
    1.1884939108263077E+00 
    1.1869642395462734E+00 
    1.1735567779466614E+00 
    1.1723291692239592E+00 
    1.1853470451386035E+00 
    1.1836630804363322E+00 
    1.1710315310554762E+00 
    1.1696773672818932E+00 
    1.1819309697281828E+00 
    1.1801672268844756E+00 
    1.1682793495040467E+00 
    1.1668492390376370E+00 
    1.1783863675088257E+00 
    1.1766010747082467E+00 
    1.1653978614136751E+00 
    1.1639351190733889E+00 
    1.1748223898336578E+00 
    1.1730599089263911E+00 
    1.1624700302790141E+00 
    1.1610107846755175E+00 
    1.1713219726693451E+00 
    1.1696158427097081E+00 
    1.1595648081376944E+00 
    1.1581388313997125E+00 
    1.1679478606933569E+00 
    1.1663235886047227E+00 
    1.1567389584462575E+00 
    1.1553707317392372E+00 
    1.1647479303476578E+00 
    1.1632252351549754E+00 
    1.1540391920581423E+00 
    1.1527489310085486E+00 
    1.1617593835002102E+00 
    1.1603538557013815E+00 
    1.1515041339758703E+00 
    1.1503086101351854E+00 
    1.1590117821423440E+00 
    1.1577359713524882E+00 
    1.1491658032200973E+00 
    1.1480787698140535E+00 
    1.1565289063639206E+00 
    1.1553926859517336E+00 
    1.1470500943607003E+00 
    1.1460816638136475E+00 
    1.1543288515059658E+00 
    1.1533379493816991E+00 
    1.1451741122006234E+00 
    1.1443255121573517E+00 
    1.1524184831002300E+00 
    1.1515645346010641E+00 
    1.1435283972078152E+00 
    1.1427626500189498E+00 
    1.1507603628581429E+00 
    1.1499684419770906E+00 
    1.1419819128289586E+00 
    1.1412264930458362E+00 
    1.1491833851742719E+00 
    1.1485523223478409E+00 
    1.1406472268809071E+00 
    1.1402446521930309E+00 
    1.1481174130710960E+00 
    1.1478316656344927E+00 
    1.1399776354146531E+00 
    1.1398441087687492E+00 
    1.1476888287076723E+00 
    1.1640288919558275E+00 
    1.1489803624593973E+00 
    1.1488816374454596E+00 
    1.1639011728993769E+00 
    1.1636473957711664E+00 
    1.1486851873331159E+00 
    1.1483932810057693E+00 
    1.1632712818836639E+00 
    1.1627782012982764E+00 
    1.1480092117399672E+00 
    1.1475371938009558E+00 
    1.1621749301476982E+00 
    1.1614693701047498E+00 
    1.1469822357255053E+00 
    1.1463500008538166E+00 
    1.1606702581597006E+00 
    1.1597868884051790E+00 
    1.1456466644474097E+00 
    1.1448787749113474E+00 
    1.1588288606182360E+00 
    1.1578058641804017E+00 
    1.1440531247280514E+00 
    1.1431766348547416E+00 
    1.1567275007849978E+00 
    1.1556031456214741E+00 
    1.1422562546824659E+00 
    1.1412988782900169E+00 
    1.1544418442273692E+00 
    1.1532522407541712E+00 
    1.1403112766801355E+00 
    1.1393000449437876E+00 
    1.1520425327528205E+00 
    1.1508204475056898E+00 
    1.1382715628196685E+00 
    1.1372319668461204E+00 
    1.1495932352077867E+00 
    1.1483676747672826E+00 
    1.1361871321826564E+00 
    1.1351426621496501E+00 
    1.1471500885314028E+00 
    1.1459463627562567E+00 
    1.1341038835379391E+00 
    1.1330758457082069E+00 
    1.1447619710535346E+00 
    1.1436019982858436E+00 
    1.1320633213427682E+00 
    1.1310708062790986E+00 
    1.1424711623330823E+00 
    1.1413738306011536E+00 
    1.1301025148448682E+00 
    1.1291623648366131E+00 
    1.1403140266179772E+00 
    1.1392954183790012E+00 
    1.1282539409500727E+00 
    1.1273804121923252E+00 
    1.1383212710152582E+00 
    1.1373943226943044E+00 
    1.1265443448309462E+00 
    1.1257472698775963E+00 
    1.1365164817011404E+00 
    1.1356881025966030E+00 
    1.1249886840149628E+00 
    1.1242637639013526E+00 
    1.1349063108450130E+00 
    1.1341611187578460E+00 
    1.1235578231204884E+00 
    1.1228311425774273E+00 
    1.1334254474046619E+00 
    1.1326520901470569E+00 
    1.1220652244981268E+00 
    1.1214100276751855E+00 
    1.1319386759682106E+00 
    1.1314118793012720E+00 
    1.1209341644097921E+00 
    1.1205862839382206E+00 
    1.1310378479789922E+00 
    1.1307887102440413E+00 
    1.1203542865693072E+00 
    1.1202382572412368E+00 
    1.1306641223708580E+00 
    1.1338086353621164E+00 
    1.1183810466994961E+00 
    1.1183153826575545E+00 
    1.1337293673003084E+00 
    1.1335715058561444E+00 
    1.1181845501200836E+00 
    1.1179896579680075E+00 
    1.1333365784460054E+00 
    1.1330267961702771E+00 
    1.1177322998941108E+00 
    1.1174145264629958E+00 
    1.1326450033598854E+00 
    1.1321946139024719E+00 
    1.1170388097639594E+00 
    1.1166080022042968E+00 
    1.1316795385092857E+00 
    1.1311041070906591E+00 
    1.1161252914499220E+00 
    1.1155941533109013E+00 
    1.1304729898596826E+00 
    1.1297911201873796E+00 
    1.1150183041575781E+00 
    1.1144016542196724E+00 
    1.1290636215893213E+00 
    1.1282957405730472E+00 
    1.1137482628655286E+00 
    1.1130622966934343E+00 
    1.1274927864618849E+00 
    1.1266600787659302E+00 
    1.1123479910052307E+00 
    1.1116096149845072E+00 
    1.1258029022122680E+00 
    1.1249264691770775E+00 
    1.1108514406726515E+00 
    1.1100777156247466E+00 
    1.1240358889739916E+00 
    1.1231361432285962E+00 
    1.1092926389253206E+00 
    1.1085003400329847E+00 
    1.1222320663821042E+00 
    1.1213283301806398E+00 
    1.1077048596686256E+00 
    1.1069101315992329E+00 
    1.1204294307628058E+00 
    1.1195396765589851E+00 
    1.1061199635675218E+00 
    1.1053380144911518E+00 
    1.1186631744686208E+00 
    1.1178038102590946E+00 
    1.1045677627234789E+00 
    1.1038124549231096E+00 
    1.1169652157764614E+00 
    1.1161507076108659E+00 
    1.1030750126694642E+00 
    1.1023578443005171E+00 
    1.1153631621608480E+00 
    1.1146047437871309E+00 
    1.1016624409471929E+00 
    1.1009884844681082E+00 
    1.1138762925613961E+00 
    1.1131759382641067E+00 
    1.1003318350698545E+00 
    1.0996795979117600E+00 
    1.1124958800313460E+00 
    1.1118138922472764E+00 
    1.0989956021278762E+00 
    1.0982377289180181E+00 
    1.1110753241619986E+00 
    1.1103256205648304E+00 
    1.0975321887598122E+00 
    1.0969988198658913E+00 
    1.1097335823406698E+00 
    1.1092999255722096E+00 
    1.0965934984096983E+00 
    1.0962894179559413E+00 
    1.1089762171116317E+00 
    1.1087601824863815E+00 
    1.0960865687043597E+00 
    1.0959851038676012E+00 
    1.1086520988310409E+00 
    1.1026107802217684E+00 
    1.0864396827272360E+00 
    1.0863908999505245E+00 
    1.1025548833960663E+00 
    1.1024434767076783E+00 
    1.0862936497511915E+00 
    1.0861486160403375E+00 
    1.1022774125386601E+00 
    1.1020579049725638E+00 
    1.0859567643896233E+00 
    1.0857193299269092E+00 
    1.1017865123667672E+00 
    1.1014651158469051E+00 
    1.0854378031086531E+00 
    1.0851139130330782E+00 
    1.1010958940408249E+00 
    1.1006812950967206E+00 
    1.0847496088776318E+00 
    1.0843470399923232E+00 
    1.1002240069313522E+00 
    1.0997269265581329E+00 
    1.0839085351209266E+00 
    1.0834365811703628E+00 
    1.0991931292479091E+00 
    1.0986258381671694E+00 
    1.0829338018939381E+00 
    1.0824029367911479E+00 
    1.0980283950182441E+00 
    1.0974042320766320E+00 
    1.0818468204533431E+00 
    1.0812683624989472E+00 
    1.0967568458845049E+00 
    1.0960897727169852E+00 
    1.0806705281397091E+00 
    1.0800563192914192E+00 
    1.0954065657849150E+00 
    1.0947107739637525E+00 
    1.0794287559699220E+00 
    1.0787908574602705E+00 
    1.0940059216202942E+00 
    1.0932954888009647E+00 
    1.0781456223373223E+00 
    1.0774960056883296E+00 
    1.0925828905524873E+00 
    1.0918714532598628E+00 
    1.0768448904811918E+00 
    1.0761950471463919E+00 
    1.0911643841410485E+00 
    1.0904647263058811E+00 
    1.0755490692497898E+00 
    1.0749092595198100E+00 
    1.0897752833638863E+00 
    1.0890984782475615E+00 
    1.0742774105892505E+00 
    1.0736543591615613E+00 
    1.0884360670305113E+00 
    1.0877885311215876E+00 
    1.0730390439699593E+00 
    1.0724264090923168E+00 
    1.0871537474676012E+00 
    1.0865238995922506E+00 
    1.0718021389276595E+00 
    1.0711263783156171E+00 
    1.0858770966197602E+00 
    1.0851556050248987E+00 
    1.0703519554205836E+00 
    1.0696044530038078E+00 
    1.0843822912594601E+00 
    1.0837409638265496E+00 
    1.0690253797251477E+00 
    1.0685726165922464E+00 
    1.0832583771257913E+00 
    1.0828768366514063E+00 
    1.0682101009172502E+00 
    1.0679378571510014E+00 
    1.0825903067891853E+00 
    1.0823991107741071E+00 
    1.0677561950663212E+00 
    1.0676653148329609E+00 
    1.0823034605367825E+00 
    1.0698284117540540E+00 
    1.0527504464893447E+00 
    1.0527105977466304E+00 
    1.0697848219003898E+00 
    1.0696979066277821E+00 
    1.0526311259361514E+00 
    1.0525125112065941E+00 
    1.0695682323948918E+00 
    1.0693965931780596E+00 
    1.0523554234625330E+00 
    1.0521607148852770E+00 
    1.0691840012743854E+00 
    1.0689316771469513E+00 
    1.0519294121741853E+00 
    1.0516627075979503E+00 
    1.0686410376055202E+00 
    1.0683136826729263E+00 
    1.0513619490881843E+00 
    1.0510286295832698E+00 
    1.0679513814573158E+00 
    1.0675560573010483E+00 
    1.0506643757797611E+00 
    1.0502709364111593E+00 
    1.0671297724391047E+00 
    1.0666747123628963E+00 
    1.0498501701388012E+00 
    1.0494040330976384E+00 
    1.0661931700421634E+00 
    1.0656875301034663E+00 
    1.0489345660825491E+00 
    1.0484438812775176E+00 
    1.0651602529936379E+00 
    1.0646138590622054E+00 
    1.0479341483064646E+00 
    1.0474075791932012E+00 
    1.0640509123619504E+00 
    1.0634740037579478E+00 
    1.0468664114910282E+00 
    1.0463128882702224E+00 
    1.0628857325936207E+00 
    1.0622886855601652E+00 
    1.0457492326122657E+00 
    1.0451776122658716E+00 
    1.0616854102778539E+00 
    1.0610783788253808E+00 
    1.0446000861829774E+00 
    1.0440185167445963E+00 
    1.0604699317911543E+00 
    1.0598621835446462E+00 
    1.0434344152487378E+00 
    1.0428486543744566E+00 
    1.0592568484248872E+00 
    1.0586549023110898E+00 
    1.0422609064756709E+00 
    1.0416684840053987E+00 
    1.0580558927324411E+00 
    1.0574564564279700E+00 
    1.0410637156140485E+00 
    1.0404269062174205E+00 
    1.0568467931529115E+00 
    1.0562004852018994E+00 
    1.0397041102966078E+00 
    1.0388640178884083E+00 
    1.0554526735411349E+00 
    1.0546365758691827E+00 
    1.0380731275785069E+00 
    1.0374560251991394E+00 
    1.0539515014779683E+00 
    1.0534229387612546E+00 
    1.0369557804799239E+00 
    1.0365381167684022E+00 
    1.0529884797521751E+00 
    1.0526406461197075E+00 
    1.0362034092232346E+00 
    1.0359520685354948E+00 
    1.0523795906971323E+00 
    1.0522054608453337E+00 
    1.0357843686014809E+00 
    1.0357004782638948E+00 
    1.0521183667958218E+00 
    1.0351882610917422E+00 
    1.0171307559053340E+00 
    1.0170951529668844E+00 
    1.0351510082084909E+00 
    1.0350766966697966E+00 
    1.0170241140988514E+00 
    1.0169179988007910E+00 
    1.0349657400214158E+00 
    1.0348187146529984E+00 
    1.0167773099973429E+00 
    1.0166026884697992E+00 
    1.0346363534299832E+00 
    1.0344195393902027E+00 
    1.0163949074272955E+00 
    1.0161548662477027E+00 
    1.0341692985114999E+00 
    1.0338867917321077E+00 
    1.0158835835649629E+00 
    1.0155821898205819E+00 
    1.0335733063721126E+00 
    1.0332302470442372E+00 
    1.0152519193179628E+00 
    1.0148941017546889E+00 
    1.0328591260972246E+00 
    1.0324615535926731E+00 
    1.0145101531458145E+00 
    1.0141015659832353E+00 
    1.0320392267657885E+00 
    1.0315939188471208E+00 
    1.0136698983754944E+00 
    1.0132167617158319E+00 
    1.0311274670000310E+00 
    1.0306417589340509E+00 
    1.0127438060927456E+00 
    1.0122527021614347E+00 
    1.0301387174513306E+00 
    1.0296202816406956E+00 
    1.0117451173013718E+00 
    1.0112226822106793E+00 
    1.0290883824477002E+00 
    1.0285449085608460E+00 
    1.0106869411097847E+00 
    1.0101392729582259E+00 
    1.0279916551161283E+00 
    1.0274302410738068E+00 
    1.0095807599973048E+00 
    1.0090119571698362E+00 
    1.0268619678558562E+00 
    1.0262875647642578E+00 
    1.0084324676879015E+00 
    1.0078401127759777E+00 
    1.0257067081700937E+00 
    1.0251170595710926E+00 
    1.0072291562376805E+00 
    1.0065859154990029E+00 
    1.0245121664719496E+00 
    1.0238761210882468E+00 
    1.0058753190549710E+00 
    1.0050272768673723E+00 
    1.0231666830356250E+00 
    1.0223228546067904E+00 
    1.0040803339531403E+00 
    1.0032534886179987E+00 
    1.0214437958171771E+00 
    1.0207259038546772E+00 
    1.0025971227521566E+00 
    1.0020402150965364E+00 
    1.0201531268368236E+00 
    1.0196651023293928E+00 
    1.0015632829340608E+00 
    1.0011660491212213E+00 
    1.0192581921231076E+00 
    1.0189325037524806E+00 
    1.0008483637342511E+00 
    1.0006101444113999E+00 
    1.0186881388366011E+00 
    1.0185251803933522E+00 
    1.0004513481213975E+00 
    1.0003719540808391E+00 
    1.0184436863564852E+00 
    9.9857141346082423E-01 
    9.7950680610537622E-01 
    9.7947210138091179E-01 
    9.9853663820740324E-01 
    9.9846722935979715E-01 
    9.7940280775512523E-01 
    9.7929919467684146E-01 
    9.9836349985555362E-01 
    9.9822589201330236E-01 
    9.7916165091393303E-01 
    9.7899068024124958E-01 
    9.9805497261452525E-01 
    9.9785142793119597E-01 
    9.7878689655172968E-01 
    9.7855101784344356E-01 
    9.9761605786770458E-01 
    9.9734976942422704E-01 
    9.7828385935371676E-01 
    9.7798632593009760E-01 
    9.9705356958272062E-01 
    9.9672855760342005E-01 
    9.7765940355717174E-01 
    9.7730414977042745E-01 
    9.9637591661460312E-01 
    9.9599690426852572E-01 
    9.7692168247576472E-01 
    9.7651316650694520E-01 
    9.9559284212955446E-01 
    9.9516510331063579E-01 
    9.7607979702487269E-01 
    9.7562277825538890E-01 
    9.9471509753023257E-01 
    9.9424425213260292E-01 
    9.7514329484512385E-01 
    9.7464247146333594E-01 
    9.9375398673098192E-01 
    9.9324567758590943E-01 
    9.7412131350755649E-01 
    9.7358061598534162E-01 
    9.9272060480009972E-01 
    9.9217987010238484E-01 
    9.7302081740013180E-01 
    9.7244175418557099E-01 
    9.9162426250694558E-01 
    9.9105402845320678E-01 
    9.7184222508055595E-01 
    9.7121916285335186E-01 
    9.9046845750176393E-01 
    9.8986508759136493E-01 
    9.7056589328052845E-01 
    9.6986787948052022E-01 
    9.8923802932910754E-01 
    9.8857389041915411E-01 
    9.6909009916206534E-01 
    9.6816043635481108E-01 
    9.8783959738652993E-01 
    9.8696314364075177E-01 
    9.6707829095220665E-01 
    9.6606174760853569E-01 
    9.8595022104435326E-01 
    9.8502088471761373E-01 
    9.6525082331159617E-01 
    9.6457229697841218E-01 
    9.8428521254415846E-01 
    9.8366793506089578E-01 
    9.6397079367406024E-01 
    9.6344479594562593E-01 
    9.8312768918520810E-01 
    9.8266448004236018E-01 
    9.6299416753947142E-01 
    9.6261880064075345E-01 