# vtk DataFile Version 2.0
Pressure Field Data 
ASCII 
DATASET UNSTRUCTURED_GRID 

POINTS 1681 double 

    0.0000000000000000E+00     0.0000000000000000E+00     0.0000000000000000E+00 
    1.0000000000000000E+00     0.0000000000000000E+00     0.0000000000000000E+00 
    1.0000000000000000E+00     1.0000000000000000E+00     0.0000000000000000E+00 
    0.0000000000000000E+00     1.0000000000000000E+00     0.0000000000000000E+00 
    5.2499999999875258E-01     0.0000000000000000E+00     0.0000000000000000E+00 
    7.4999999999856765E-02     0.0000000000000000E+00     0.0000000000000000E+00 
    1.2499999999975850E-01     0.0000000000000000E+00     0.0000000000000000E+00 
    1.7499999999962990E-01     0.0000000000000000E+00     0.0000000000000000E+00 
    2.2499999999948389E-01     0.0000000000000000E+00     0.0000000000000000E+00 
    2.7499999999933789E-01     0.0000000000000000E+00     0.0000000000000000E+00 
    3.2499999999919210E-01     0.0000000000000000E+00     0.0000000000000000E+00 
    3.7499999999904610E-01     0.0000000000000000E+00     0.0000000000000000E+00 
    4.2499999999890020E-01     0.0000000000000000E+00     0.0000000000000000E+00 
    4.7499999999875958E-01     0.0000000000000000E+00     0.0000000000000000E+00 
    2.4999999999949701E-02     0.0000000000000000E+00     0.0000000000000000E+00 
    5.7499999999887907E-01     0.0000000000000000E+00     0.0000000000000000E+00 
    6.2499999999901101E-01     0.0000000000000000E+00     0.0000000000000000E+00 
    6.7499999999914273E-01     0.0000000000000000E+00     0.0000000000000000E+00 
    7.2499999999927467E-01     0.0000000000000000E+00     0.0000000000000000E+00 
    7.7499999999940661E-01     0.0000000000000000E+00     0.0000000000000000E+00 
    8.2499999999953844E-01     0.0000000000000000E+00     0.0000000000000000E+00 
    8.7499999999967026E-01     0.0000000000000000E+00     0.0000000000000000E+00 
    9.2499999999980220E-01     0.0000000000000000E+00     0.0000000000000000E+00 
    9.7499999999993414E-01     0.0000000000000000E+00     0.0000000000000000E+00 
    5.4999999999881310E-01     0.0000000000000000E+00     0.0000000000000000E+00 
    9.9999999999814140E-02     0.0000000000000000E+00     0.0000000000000000E+00 
    1.4999999999970290E-01     0.0000000000000000E+00     0.0000000000000000E+00 
    1.9999999999955689E-01     0.0000000000000000E+00     0.0000000000000000E+00 
    2.4999999999941089E-01     0.0000000000000000E+00     0.0000000000000000E+00 
    2.9999999999926502E-01     0.0000000000000000E+00     0.0000000000000000E+00 
    3.4999999999911913E-01     0.0000000000000000E+00     0.0000000000000000E+00 
    3.9999999999897312E-01     0.0000000000000000E+00     0.0000000000000000E+00 
    4.4999999999882723E-01     0.0000000000000000E+00     0.0000000000000000E+00 
    4.9999999999869210E-01     0.0000000000000000E+00     0.0000000000000000E+00 
    4.9999999999899403E-02     0.0000000000000000E+00     0.0000000000000000E+00 
    5.9999999999894504E-01     0.0000000000000000E+00     0.0000000000000000E+00 
    6.4999999999907687E-01     0.0000000000000000E+00     0.0000000000000000E+00 
    6.9999999999920870E-01     0.0000000000000000E+00     0.0000000000000000E+00 
    7.4999999999934064E-01     0.0000000000000000E+00     0.0000000000000000E+00 
    7.9999999999947247E-01     0.0000000000000000E+00     0.0000000000000000E+00 
    8.4999999999960441E-01     0.0000000000000000E+00     0.0000000000000000E+00 
    8.9999999999973623E-01     0.0000000000000000E+00     0.0000000000000000E+00 
    9.4999999999986817E-01     0.0000000000000000E+00     0.0000000000000000E+00 
    1.0000000000000000E+00     5.2499999999875258E-01     0.0000000000000000E+00 
    1.0000000000000000E+00     7.4999999999856765E-02     0.0000000000000000E+00 
    1.0000000000000000E+00     1.2499999999975850E-01     0.0000000000000000E+00 
    1.0000000000000000E+00     1.7499999999962990E-01     0.0000000000000000E+00 
    1.0000000000000000E+00     2.2499999999948389E-01     0.0000000000000000E+00 
    1.0000000000000000E+00     2.7499999999933789E-01     0.0000000000000000E+00 
    1.0000000000000000E+00     3.2499999999919210E-01     0.0000000000000000E+00 
    1.0000000000000000E+00     3.7499999999904610E-01     0.0000000000000000E+00 
    1.0000000000000000E+00     4.2499999999890020E-01     0.0000000000000000E+00 
    1.0000000000000000E+00     4.7499999999875958E-01     0.0000000000000000E+00 
    1.0000000000000000E+00     2.4999999999949701E-02     0.0000000000000000E+00 
    1.0000000000000000E+00     5.7499999999887907E-01     0.0000000000000000E+00 
    1.0000000000000000E+00     6.2499999999901101E-01     0.0000000000000000E+00 
    1.0000000000000000E+00     6.7499999999914273E-01     0.0000000000000000E+00 
    1.0000000000000000E+00     7.2499999999927467E-01     0.0000000000000000E+00 
    1.0000000000000000E+00     7.7499999999940661E-01     0.0000000000000000E+00 
    1.0000000000000000E+00     8.2499999999953844E-01     0.0000000000000000E+00 
    1.0000000000000000E+00     8.7499999999967026E-01     0.0000000000000000E+00 
    1.0000000000000000E+00     9.2499999999980220E-01     0.0000000000000000E+00 
    1.0000000000000000E+00     9.7499999999993414E-01     0.0000000000000000E+00 
    1.0000000000000000E+00     5.4999999999881310E-01     0.0000000000000000E+00 
    1.0000000000000000E+00     9.9999999999814140E-02     0.0000000000000000E+00 
    1.0000000000000000E+00     1.4999999999970290E-01     0.0000000000000000E+00 
    1.0000000000000000E+00     1.9999999999955689E-01     0.0000000000000000E+00 
    1.0000000000000000E+00     2.4999999999941089E-01     0.0000000000000000E+00 
    1.0000000000000000E+00     2.9999999999926502E-01     0.0000000000000000E+00 
    1.0000000000000000E+00     3.4999999999911913E-01     0.0000000000000000E+00 
    1.0000000000000000E+00     3.9999999999897312E-01     0.0000000000000000E+00 
    1.0000000000000000E+00     4.4999999999882723E-01     0.0000000000000000E+00 
    1.0000000000000000E+00     4.9999999999869210E-01     0.0000000000000000E+00 
    1.0000000000000000E+00     4.9999999999899403E-02     0.0000000000000000E+00 
    1.0000000000000000E+00     5.9999999999894504E-01     0.0000000000000000E+00 
    1.0000000000000000E+00     6.4999999999907687E-01     0.0000000000000000E+00 
    1.0000000000000000E+00     6.9999999999920870E-01     0.0000000000000000E+00 
    1.0000000000000000E+00     7.4999999999934064E-01     0.0000000000000000E+00 
    1.0000000000000000E+00     7.9999999999947247E-01     0.0000000000000000E+00 
    1.0000000000000000E+00     8.4999999999960441E-01     0.0000000000000000E+00 
    1.0000000000000000E+00     8.9999999999973623E-01     0.0000000000000000E+00 
    1.0000000000000000E+00     9.4999999999986817E-01     0.0000000000000000E+00 
    4.7500000000196618E-01     1.0000000000000000E+00     0.0000000000000000E+00 
    9.2499999999968763E-01     1.0000000000000000E+00     0.0000000000000000E+00 
    8.7499999999961831E-01     1.0000000000000000E+00     0.0000000000000000E+00 
    8.2499999999982654E-01     1.0000000000000000E+00     0.0000000000000000E+00 
    7.7500000000017355E-01     1.0000000000000000E+00     0.0000000000000000E+00 
    7.2500000000052045E-01     1.0000000000000000E+00     0.0000000000000000E+00 
    6.7500000000086724E-01     1.0000000000000000E+00     0.0000000000000000E+00 
    6.2500000000121403E-01     1.0000000000000000E+00     0.0000000000000000E+00 
    5.7500000000156093E-01     1.0000000000000000E+00     0.0000000000000000E+00 
    5.2500000000189684E-01     1.0000000000000000E+00     0.0000000000000000E+00 
    9.7499999999989595E-01     1.0000000000000000E+00     0.0000000000000000E+00 
    4.2500000000176902E-01     1.0000000000000000E+00     0.0000000000000000E+00 
    3.7500000000156092E-01     1.0000000000000000E+00     0.0000000000000000E+00 
    3.2500000000135282E-01     1.0000000000000000E+00     0.0000000000000000E+00 
    2.7500000000114472E-01     1.0000000000000000E+00     0.0000000000000000E+00 
    2.2500000000093659E-01     1.0000000000000000E+00     0.0000000000000000E+00 
    1.7500000000072849E-01     1.0000000000000000E+00     0.0000000000000000E+00 
    1.2500000000052039E-01     1.0000000000000000E+00     0.0000000000000000E+00 
    7.5000000000312261E-02     1.0000000000000000E+00     0.0000000000000000E+00 
    2.5000000000104109E-02     1.0000000000000000E+00     0.0000000000000000E+00 
    4.5000000000187301E-01     1.0000000000000000E+00     0.0000000000000000E+00 
    8.9999999999958358E-01     1.0000000000000000E+00     0.0000000000000000E+00 
    8.4999999999965303E-01     1.0000000000000000E+00     0.0000000000000000E+00 
    8.0000000000000004E-01     1.0000000000000000E+00     0.0000000000000000E+00 
    7.5000000000034706E-01     1.0000000000000000E+00     0.0000000000000000E+00 
    7.0000000000069384E-01     1.0000000000000000E+00     0.0000000000000000E+00 
    6.5000000000104063E-01     1.0000000000000000E+00     0.0000000000000000E+00 
    6.0000000000138742E-01     1.0000000000000000E+00     0.0000000000000000E+00 
    5.5000000000173432E-01     1.0000000000000000E+00     0.0000000000000000E+00 
    5.0000000000205946E-01     1.0000000000000000E+00     0.0000000000000000E+00 
    9.4999999999979179E-01     1.0000000000000000E+00     0.0000000000000000E+00 
    4.0000000000166491E-01     1.0000000000000000E+00     0.0000000000000000E+00 
    3.5000000000145681E-01     1.0000000000000000E+00     0.0000000000000000E+00 
    3.0000000000124871E-01     1.0000000000000000E+00     0.0000000000000000E+00 
    2.5000000000104061E-01     1.0000000000000000E+00     0.0000000000000000E+00 
    2.0000000000083251E-01     1.0000000000000000E+00     0.0000000000000000E+00 
    1.5000000000062441E-01     1.0000000000000000E+00     0.0000000000000000E+00 
    1.0000000000041630E-01     1.0000000000000000E+00     0.0000000000000000E+00 
[...]
CELL_DATA 1600 
SCALARS Pressure double 1 
LOOKUP_TABLE default 

    1.2957245577228675E+00 
    1.2481789961209215E+00 
    1.2456696128194655E+00 
    1.2798289850824411E+00 
    1.2669890597341484E+00 
    1.2418451985952903E+00 
    1.2374028487834716E+00 
    1.2563866601475540E+00 
    1.2474338816978816E+00 
    1.2327348955833981E+00 
    1.2280595358538746E+00 
    1.2397225016084668E+00 
    1.2329651627706761E+00 
    1.2234940131318652E+00 
    1.2190973874351603E+00 
    1.2269563888228348E+00 
    1.2215468909853198E+00 
    1.2148955882039707E+00 
    1.2108960781148226E+00 
    1.2166264955258685E+00 
    1.2121126677282359E+00 
    1.2070964057228719E+00 
    1.2034891575887647E+00 
    1.2079426984157788E+00 
    1.2040683126216774E+00 
    1.2000647887687781E+00 
    1.1968132052627340E+00 
    1.2004518987514250E+00 
    1.1970638351673626E+00 
    1.1937246155181773E+00 
    1.1907899573824823E+00 
    1.1938805692760850E+00 
    1.1908832191274112E+00 
    1.1880010819696367E+00 
    1.1853508016526164E+00 
    1.1880565423935492E+00 
    1.1853881668549953E+00 
    1.1828328651738329E+00 
    1.1804418965104742E+00 
    1.1828680092684618E+00 
    1.1804878314880725E+00 
    1.1781733184227414E+00 
    1.1760232722520432E+00 
    1.1782408976241112E+00 
    1.1761217062057256E+00 
    1.1739885399431973E+00 
    1.1720664708659467E+00 
    1.1741257782681946E+00 
    1.1722494869463613E+00 
    1.1702549138046163E+00 
    1.1685521527448690E+00 
    1.1704899170316174E+00 
    1.1688447441325565E+00 
    1.1669568431010384E+00 
    1.1654679417134373E+00 
    1.1673121220472507E+00 
    1.1658905618714503E+00 
    1.1640846169725461E+00 
    1.1628061086483594E+00 
    1.1645787718443661E+00 
    1.1633753877515434E+00 
    1.1616314635894986E+00 
    1.1605589688292095E+00 
    1.1622784273994997E+00 
    1.1612841133315399E+00 
    1.1595849008987624E+00 
    1.1587008731187312E+00 
    1.1603844019600331E+00 
    1.1595619853896753E+00 
    1.1578883743469932E+00 
    1.1571118657087955E+00 
    1.1587834686774188E+00 
    1.1580662356150939E+00 
    1.1564017566678026E+00 
    1.1558835203921545E+00 
    1.1575369329506946E+00 
    1.1572065463770651E+00 
    1.1555590831890683E+00 
    1.1553974861509828E+00 
    1.1570420862330626E+00 
    1.2228284923205426E+00 
    1.2037863788876395E+00 
    1.2033755628220144E+00 
    1.2220039426452920E+00 
    1.2204813284241347E+00 
    1.2025784666129509E+00 
    1.2014384786179324E+00 
    1.2184222731186138E+00 
    1.2159778666459720E+00 
    1.2000075468164335E+00 
    1.1983392671757962E+00 
    1.2132742178022859E+00 
    1.2104103769633541E+00 
    1.1964845004842377E+00 
    1.1944890220470963E+00 
    1.2074612456367579E+00 
    1.2044819909432700E+00 
    1.1923925805167184E+00 
    1.1902288345333225E+00 
    1.2015124344371944E+00 
    1.1985808357174774E+00 
    1.1880257788328075E+00 
    1.1858064012322544E+00 
    1.1957069322042639E+00 
    1.1929042831506496E+00 
    1.1835894109120675E+00 
    1.1813899472069751E+00 
    1.1901820304757114E+00 
    1.1875461982556152E+00 
    1.1792202228592941E+00 
    1.1770900831398927E+00 
    1.1850006396854598E+00 
    1.1825477206059589E+00 
    1.1750074780472042E+00 
    1.1729788531367231E+00 
    1.1801888091078798E+00 
    1.1779246238563472E+00 
    1.1710094683086816E+00 
    1.1691036549978291E+00 
    1.1757554802191916E+00 
    1.1736814628079981E+00 
    1.1672650218706211E+00 
    1.1654966180667417E+00 
    1.1717025451269705E+00 
    1.1698186711040706E+00 
    1.1638010616296584E+00 
    1.1621806392428127E+00 
    1.1680298088198684E+00 
    1.1663359832653057E+00 
    1.1606373817441562E+00 
    1.1591731179716442E+00 
    1.1647372919519214E+00 
    1.1632339040153570E+00 
    1.1577895068368544E+00 
    1.1564880430003264E+00 
    1.1618260389400994E+00 
    1.1605139125635000E+00 
    1.1552700221655372E+00 
    1.1541364293582754E+00 
    1.1592976184774646E+00 
    1.1581768632016796E+00 
    1.1530876555854472E+00 
    1.1521228161617065E+00 
    1.1571503566548333E+00 
    1.1562144380827644E+00 
    1.1512381981146722E+00 
    1.1504238814534118E+00 
    1.1553601274073804E+00 
    1.1545668844866730E+00 
    1.1496563043900478E+00 
    1.1488964497515421E+00 
    1.1537964944391392E+00 
    1.1531031553756079E+00 
    1.1482295794047002E+00 
    1.1477614770588767E+00 
    1.1526063118349807E+00 
    1.1522931155365053E+00 
    1.1474632738912360E+00 
    1.1473143653682132E+00 
    1.1521369171938598E+00 
    1.1872551985915329E+00 
    1.1718380138062678E+00 
    1.1716665157274839E+00 
    1.1870042508567058E+00 
    1.1865099657538261E+00 
    1.1713267166058190E+00 
    1.1708255220248054E+00 
    1.1857877460354682E+00 
    1.1848582722215637E+00 
    1.1701726892248192E+00 
    1.1693801701845545E+00 
    1.1837454369928935E+00 
    1.1824745287954053E+00 
    1.1684614243710385E+00 
    1.1674307775597865E+00 
    1.1810708141073427E+00 
    1.1795585364080530E+00 
    1.1663028711846657E+00 
    1.1650922210596848E+00 
    1.1779602822452584E+00 
    1.1762966391622247E+00 
    1.1638128864640604E+00 
    1.1624782397562896E+00 
    1.1745860684272851E+00 
    1.1728449251107047E+00 
    1.1611008212967149E+00 
    1.1596922628167698E+00 
    1.1710875716279259E+00 
    1.1693265444372132E+00 
    1.1582632630350052E+00 
    1.1568236012069419E+00 
    1.1675727453390972E+00 
    1.1658356382038746E+00 
    1.1553821766755177E+00 
    1.1539470649071826E+00 
    1.1641234390099036E+00 
    1.1624432921377645E+00 
    1.1525255827022334E+00 
    1.1511243571366325E+00 
    1.1608014293358899E+00 
    1.1592033100306025E+00 
    1.1497493942856518E+00 
    1.1484061448957708E+00 
    1.1576537430099143E+00 
    1.1561569901962412E+00 
    1.1470995649159701E+00 
    1.1458341691538871E+00 
    1.1547168533771917E+00 
    1.1533367444138738E+00 
    1.1446140761975501E+00 
    1.1434430418887096E+00 
    1.1520197384502113E+00 
    1.1507686075242516E+00 
    1.1423244764049170E+00 
    1.1412614346955881E+00 
    1.1495858274319848E+00 
    1.1484735400758930E+00 
    1.1402565567690102E+00 
    1.1393118997147931E+00 
    1.1474334263412214E+00 
    1.1464663753279223E+00 
    1.1384285182203382E+00 
    1.1376054725272440E+00 
    1.1455716843779458E+00 
    1.1447452414140917E+00 
    1.1368375912047237E+00 
    1.1361103171549909E+00 
    1.1439754859096689E+00 
    1.1432340972323862E+00 
    1.1353875007129242E+00 
    1.1346637551013845E+00 
    1.1424896229754600E+00 
    1.1418593920222537E+00 
    1.1340805412185118E+00 
    1.1336802649644364E+00 
    1.1414242493660358E+00 
    1.1411431853986660E+00 
    1.1334177644464130E+00 
    1.1332865213763152E+00 
    1.1410027283939570E+00 
    1.1568783252063226E+00 
    1.1420202709626468E+00 
    1.1419232961121899E+00 
    1.1567525251602362E+00 
    1.1565025739244101E+00 
    1.1417303351460495E+00 
    1.1414436264854189E+00 
    1.1561321553027128E+00 
    1.1556465874536639E+00 
    1.1410664219496514E+00 
    1.1406028844936249E+00 
    1.1550525817942390E+00 
    1.1543579640630135E+00 
    1.1400579625245935E+00 
    1.1394372515279909E+00 
    1.1535713858055343E+00 
    1.1527020479080856E+00 
    1.1387468523194020E+00 
    1.1379932334059237E+00 
    1.1517594508956821E+00 
    1.1507531804767723E+00 
    1.1371831030320636E+00 
    1.1363232946367665E+00 
    1.1496927317428278E+00 
    1.1485873716878545E+00 
    1.1354206678017749E+00 
    1.1344820254147063E+00 
    1.1474460372282096E+00 
    1.1462772644710766E+00 
    1.1335140467321205E+00 
    1.1325232352939545E+00 
    1.1450891443496931E+00 
    1.1438892996732029E+00 
    1.1315158801701646E+00 
    1.1304980287596642E+00 
    1.1426848789228703E+00 
    1.1414825626022564E+00 
    1.1294754692535083E+00 
    1.1284537208627130E+00 
    1.1402885784958749E+00 
    1.1391087227199581E+00 
    1.1274380299411353E+00 
    1.1264333701470985E+00 
    1.1379483838909346E+00 
    1.1368125680248040E+00 
    1.1254444447100822E+00 
    1.1244756885840543E+00 
    1.1357059218215613E+00 
    1.1346327516142063E+00 
    1.1235312675529472E+00 
    1.1226150697045434E+00 
    1.1335970341054584E+00 
    1.1326024121864646E+00 
    1.1217306808363008E+00 
    1.1208813258547421E+00 
    1.1316521622401008E+00 
    1.1307491016827422E+00 
    1.1200697339575503E+00 
    1.1192978257529396E+00 
    1.1298953601131372E+00 
    1.1290918318560432E+00 
    1.1185659896687825E+00 
    1.1178714423507945E+00 
    1.1283369132726937E+00 
    1.1276236448552892E+00 
    1.1172044156918168E+00 
    1.1165379928732411E+00 
    1.1269327187536085E+00 
    1.1262184142766527E+00 
    1.1158277725604815E+00 
    1.1151725647785895E+00 
    1.1255224810418047E+00 
    1.1249913325740779E+00 
    1.1146915110500748E+00 
    1.1143503580836644E+00 
    1.1246237480247521E+00 
    1.1243798697930418E+00 
    1.1141230591934399E+00 
    1.1140093845869643E+00 
    1.1242578836577999E+00 
    1.1270527643509998E+00 
    1.1118429561313525E+00 
    1.1117788258046497E+00 
    1.1269751214650539E+00 
    1.1268205004177221E+00 
    1.1116510521228467E+00 
    1.1114607229564066E+00 
    1.1265904033834235E+00 
    1.1262870074667668E+00 
    1.1112094038215661E+00 
    1.1108991107022217E+00 
    1.1259131151609398E+00 
    1.1254720914180230E+00 
    1.1105322752780356E+00 
    1.1101117042927207E+00 
    1.1249677916807930E+00 
    1.1244044850480883E+00 
    1.1096405350831786E+00 
    1.1091221890615572E+00 
    1.1237867761781257E+00 
    1.1231195289367573E+00 
    1.1085603247283340E+00 
    1.1079587915625608E+00 
    1.1224077941569315E+00 
    1.1216567432289026E+00 
    1.1073215858826790E+00 
    1.1066528095093522E+00 
    1.1208716086314465E+00 
    1.1200576319745976E+00 
    1.1059566318042082E+00 
    1.1052372554158645E+00 
    1.1192200196714970E+00 
    1.1183639059944073E+00 
    1.1044988858429328E+00 
    1.1037457047229517E+00 
    1.1174943229905197E+00 
    1.1166161765208795E+00 
    1.1029818465701537E+00 
    1.1022113784993479E+00 
    1.1157342275171376E+00 
    1.1148530773930871E+00 
    1.1014382822613749E+00 
    1.1006664376285493E+00 
    1.1139771563530876E+00 
    1.1131107130281315E+00 
    1.0998996057102393E+00 
    1.0991414099459240E+00 
    1.1122578032934416E+00 
    1.1114222749601019E+00 
    1.0983953108426565E+00 
    1.0976645668242497E+00 
    1.1106077425250309E+00 
    1.1098175403473733E+00 
    1.0969521649076905E+00 
    1.0962606842461038E+00 
    1.1090546284028306E+00 
    1.1083213899334494E+00 
    1.0955920075015184E+00 
    1.0949466897104867E+00 
    1.1076191801883442E+00 
    1.1069473150442957E+00 
    1.0943225614490921E+00 
    1.0937114803219954E+00 
    1.1063007891666445E+00 
    1.1056646506743204E+00 
    1.0930904762742670E+00 
    1.0924051994851449E+00 
    1.1049980440229057E+00 
    1.1042904932812971E+00 
    1.0917108629116841E+00 
    1.0911694030352745E+00 
    1.1036918169616716E+00 
    1.1032589161290636E+00 
    1.0907731858586269E+00 
    1.0904769171571418E+00 
    1.1029416502730127E+00 
    1.1027300058120795E+00 
    1.0902791714272357E+00 
    1.0901802307104027E+00 
    1.1026241394515002E+00 
    1.0963039561415868E+00 
    1.0803776336383322E+00 
    1.0803302781775781E+00 
    1.0962495285234364E+00 
    1.0961410531437206E+00 
    1.0802358770394300E+00 
    1.0800951000863315E+00 
    1.0959793650249898E+00 
    1.0957656549234773E+00 
    1.0799088938313601E+00 
    1.0796784698828095E+00 
    1.0955014525485136E+00 
    1.0951886055252658E+00 
    1.0794052911140830E+00 
    1.0790910553681208E+00 
    1.0948292545889899E+00 
    1.0944258060712826E+00 
    1.0787376772932191E+00 
    1.0783472688426594E+00 
    1.0939809026232088E+00 
    1.0934973930224610E+00 
    1.0779221189106318E+00 
    1.0774646725270043E+00 
    1.0929783018159109E+00 
    1.0924267994430457E+00 
    1.0769775099814329E+00 
    1.0764633261879857E+00 
    1.0918461733687086E+00 
    1.0912398006283317E+00 
    1.0759249105331563E+00 
    1.0753651273718534E+00 
    1.0906111220586157E+00 
    1.0899636183527082E+00 
    1.0747868972449237E+00 
    1.0741931787817660E+00 
    1.0893007879390610E+00 
    1.0886261265297692E+00 
    1.0735869511097176E+00 
    1.0729711963933921E+00 
    1.0879431080005921E+00 
    1.0872551660171801E+00 
    1.0723488818203022E+00 
    1.0717229398258727E+00 
    1.0865656754417026E+00 
    1.0858779318943761E+00 
    1.0710962443731060E+00 
    1.0704715791479931E+00 
    1.0851951265806801E+00 
    1.0845203108551431E+00 
    1.0698515893832050E+00 
    1.0692386999265624E+00 
    1.0838563391191658E+00 
    1.0832057652226013E+00 
    1.0686349621476139E+00 
    1.0680417485402711E+00 
    1.0825706369560513E+00 
    1.0819520656854464E+00 
    1.0674591184658959E+00 
    1.0668844514443350E+00 
    1.0813493003305250E+00 
    1.0807576619913697E+00 
    1.0663092480553282E+00 
    1.0657101374611100E+00 
    1.0801633920248164E+00 
    1.0795279386023042E+00 
    1.0650281038623823E+00 
    1.0643005607603631E+00 
    1.0788179337849058E+00 
    1.0781678257461011E+00 
    1.0637086438876699E+00 
    1.0632637816418316E+00 
    1.0776796952494554E+00 
    1.0773067834853156E+00 
    1.0629106509080539E+00 
    1.0626454225111788E+00 
    1.0770269565289148E+00 
    1.0768402869116596E+00 
    1.0624684273283476E+00 
    1.0623798777873801E+00 
    1.0767469148011779E+00 
    1.0640247674739605E+00 
    1.0472190752233483E+00 
    1.0471806274267603E+00 
    1.0639825827894820E+00 
    1.0638984739008635E+00 
    1.0471039552987700E+00 
    1.0469895312310862E+00 
    1.0637729963639633E+00 
    1.0636069290520105E+00 
    1.0468380138978710E+00 
    1.0466502411443359E+00 
    1.0634012654167000E+00 
    1.0631572036832841E+00 
    1.0464272225465088E+00 
    1.0461701307993791E+00 
    1.0628761353840661E+00 
    1.0625596325881439E+00 
    1.0458802921646835E+00 
    1.0455591761869143E+00 
    1.0622094341488124E+00 
    1.0618274312425602E+00 
    1.0452083848406100E+00 
    1.0448296412397624E+00 
    1.0614156524385638E+00 
    1.0609762485043852E+00 
    1.0444247780115299E+00 
    1.0439957254035841E+00 
    1.0605114771155166E+00 
    1.0600236875895888E+00 
    1.0435444991513392E+00 
    1.0430731880708519E+00 
    1.0595153057065498E+00 
    1.0589888185978573E+00 
    1.0425839412559750E+00 
    1.0420789546263813E+00 
    1.0584467595787443E+00 
    1.0578916926342290E+00 
    1.0415604563539482E+00 
    1.0410306903181501E+00 
    1.0573261960094342E+00 
    1.0567528439092824E+00 
    1.0404918960641862E+00 
    1.0399462824503598E+00 
    1.0561741844933721E+00 
    1.0555927107525642E+00 
    1.0393959896344311E+00 
    1.0388430289571295E+00 
    1.0550108176219593E+00 
    1.0544307319167017E+00 
    1.0382891798402298E+00 
    1.0377358012536064E+00 
    1.0538543873636319E+00 
    1.0532831866025214E+00 
    1.0371834693613000E+00 
    1.0366312489202596E+00 
    1.0527175264761277E+00 
    1.0521558120766699E+00 
    1.0360751321482478E+00 
    1.0355042545445166E+00 
    1.0515922646575346E+00 
    1.0510112786936319E+00 
    1.0348895472056256E+00 
    1.0341663797615208E+00 
    1.0503694368533227E+00 
    1.0496296875337068E+00 
    1.0333873316552855E+00 
    1.0327473948714874E+00 
    1.0489319142755471E+00 
    1.0483959364918229E+00 
    1.0322531735826306E+00 
    1.0318448923497257E+00 
    1.0479736898656928E+00 
    1.0476355050225494E+00 
    1.0315179974043904E+00 
    1.0312726537654233E+00 
    1.0473815563530027E+00 
    1.0472121113263961E+00 
    1.0311090046804967E+00 
    1.0310271533191879E+00 
    1.0471273453641838E+00 
    1.0299434228044546E+00 
    1.0121873181107262E+00 
    1.0121531581643062E+00 
    1.0299075835676703E+00 
    1.0298360990790387E+00 
    1.0120850073919168E+00 
    1.0119832247146365E+00 
    1.0297293784737505E+00 
    1.0295879909598935E+00 
    1.0118483104474862E+00 
    1.0116809009063383E+00 
    1.0294126597240918E+00 
    1.0292042559302812E+00 
    1.0114817632905462E+00 
    1.0112517898138917E+00 
    1.0289637918306729E+00 
    1.0286924131569850E+00 
    1.0109919912309460E+00 
    1.0107034898720673E+00 
    1.0283913909383882E+00 
    1.0280621128416727E+00 
    1.0103875122365880E+00 
    1.0100453811440935E+00 
    1.0277060740922088E+00 
    1.0273248680011295E+00 
    1.0096785073969357E+00 
    1.0092883808551982E+00 
    1.0269201760859501E+00 
    1.0264937577183484E+00 
    1.0088765607501584E+00 
    1.0084446649250305E+00 
    1.0260474391480328E+00 
    1.0255831016201877E+00 
    1.0079943574639965E+00 
    1.0075273338278479E+00 
    1.0251026681015010E+00 
    1.0246080877767807E+00 
    1.0070453020124601E+00 
    1.0065499571431733E+00 
    1.0241013168477155E+00 
    1.0235842930306576E+00 
    1.0060429449640311E+00 
    1.0055258059851426E+00 
    1.0230588989940166E+00 
    1.0225269058157711E+00 
    1.0049998850534707E+00 
    1.0044661772836772E+00 
    1.0219898793320270E+00 
    1.0214490157499569E+00 
    1.0039250533042794E+00 
    1.0033757448345497E+00 
    1.0209048386386976E+00 
    1.0203566123518841E+00 
    1.0028153173649805E+00 
    1.0022363983165712E+00 
    1.0198011318048243E+00 
    1.0192299333727646E+00 
    1.0016212134806115E+00 
    1.0009222814558676E+00 
    1.0186215239061074E+00 
    1.0179174867795620E+00 
    1.0000874160134681E+00 
    9.9924267386479049E-01 
    1.0171009182937967E+00 
    1.0163531541988002E+00 
    9.9856625419362732E-01 
    9.9802347565465532E-01 
    1.0157729285935946E+00 
    1.0152983172515413E+00 
    9.9755900801594699E-01 
    9.9717142328252228E-01 
    1.0149022388805913E+00 
    1.0145849767225483E+00 
    9.9686104531135755E-01 
    9.9662809504855776E-01 
    1.0143468056374401E+00 
    1.0141879207984215E+00 
    9.9647271989562192E-01 
    9.9639501063471925E-01 
    1.0141084476614752E+00 
    9.9394517359852996E-01 
    9.7521500047355381E-01 
    9.7518185124865919E-01 
    9.9391188790297658E-01 
    9.9384546330424306E-01 
    9.7511567793376475E-01 
    9.7501676051214914E-01 
    9.9374621690844667E-01 
    9.9361459400819030E-01 
    9.7488549807717007E-01 
    9.7472240447101999E-01 
    9.9345116323547478E-01 
    9.9325661195457260E-01 
    9.7452810388039623E-01 
    9.7430332556451293E-01 
    9.9303174091397672E-01 
    9.9277745831698172E-01 
    9.7404889791664029E-01 
    9.7376574195165133E-01 
    9.9249477340921732E-01 
    9.9218478959597867E-01 
    9.7345486418997051E-01 
    9.7311734878483691E-01 
    9.9184869702773404E-01 
    9.9148776451819542E-01 
    9.7275434860731214E-01 
    9.7236707488722207E-01 
    9.9110333058610467E-01 
    9.9069679331016991E-01 
    9.7195678486592629E-01 
    9.7152476655760345E-01 
    9.9026959846806606E-01 
    9.8982322503845999E-01 
    9.7107231900837465E-01 
    9.7060072547065990E-01 
    9.8935916658487422E-01 
    9.8887890607627660E-01 
    9.7011121531013433E-01 
    9.6960490726530868E-01 
    9.8838387986715248E-01 
    9.8787542336105905E-01 
    9.6908272109612070E-01 
    9.6854523369218315E-01 
    9.8735468477739163E-01 
    9.8682248179193344E-01 
    9.6799243356951903E-01 
    9.6742327857404331E-01 
    9.8627905180095554E-01 
    9.8572359469936099E-01 
    9.6683484029181255E-01 
    9.6622046454461397E-01 
    9.8515337680456072E-01 
    9.8456178794586269E-01 
    9.6556515026274858E-01 
    9.6483118257051625E-01 
    9.8393339457719753E-01 
    9.8322825802064473E-01 
    9.6394876840405386E-01 
    9.6295036113035959E-01 
    9.8238057258411449E-01 
    9.8145813672070126E-01 
    9.6205821101030609E-01 
    9.6134981133251063E-01 
    9.8067312188990674E-01 
    9.8004648134438865E-01 
    9.6074934583495131E-01 
    9.6022417771391333E-01 
    9.7951005162206917E-01 
    9.7905086997695456E-01 
    9.5977421463790813E-01 
    9.5939939014338638E-01 