# vtk DataFile Version 2.0
Pressure Field Data 
ASCII 
DATASET UNSTRUCTURED_GRID 

POINTS 1681 double 

    0.0000000000000000E+00     0.0000000000000000E+00     0.0000000000000000E+00 
    1.0000000000000000E+00     0.0000000000000000E+00     0.0000000000000000E+00 
    1.0000000000000000E+00     1.0000000000000000E+00     0.0000000000000000E+00 
    0.0000000000000000E+00     1.0000000000000000E+00     0.0000000000000000E+00 
    5.2499999999875258E-01     0.0000000000000000E+00     0.0000000000000000E+00 
    7.4999999999856765E-02     0.0000000000000000E+00     0.0000000000000000E+00 
    1.2499999999975850E-01     0.0000000000000000E+00     0.0000000000000000E+00 
    1.7499999999962990E-01     0.0000000000000000E+00     0.0000000000000000E+00 
    2.2499999999948389E-01     0.0000000000000000E+00     0.0000000000000000E+00 
    2.7499999999933789E-01     0.0000000000000000E+00     0.0000000000000000E+00 
    3.2499999999919210E-01     0.0000000000000000E+00     0.0000000000000000E+00 
    3.7499999999904610E-01     0.0000000000000000E+00     0.0000000000000000E+00 
    4.2499999999890020E-01     0.0000000000000000E+00     0.0000000000000000E+00 
    4.7499999999875958E-01     0.0000000000000000E+00     0.0000000000000000E+00 
    2.4999999999949701E-02     0.0000000000000000E+00     0.0000000000000000E+00 
    5.7499999999887907E-01     0.0000000000000000E+00     0.0000000000000000E+00 
    6.2499999999901101E-01     0.0000000000000000E+00     0.0000000000000000E+00 
    6.7499999999914273E-01     0.0000000000000000E+00     0.0000000000000000E+00 
    7.2499999999927467E-01     0.0000000000000000E+00     0.0000000000000000E+00 
    7.7499999999940661E-01     0.0000000000000000E+00     0.0000000000000000E+00 
    8.2499999999953844E-01     0.0000000000000000E+00     0.0000000000000000E+00 
    8.7499999999967026E-01     0.0000000000000000E+00     0.0000000000000000E+00 
    9.2499999999980220E-01     0.0000000000000000E+00     0.0000000000000000E+00 
    9.7499999999993414E-01     0.0000000000000000E+00     0.0000000000000000E+00 
    5.4999999999881310E-01     0.0000000000000000E+00     0.0000000000000000E+00 
    9.9999999999814140E-02     0.0000000000000000E+00     0.0000000000000000E+00 
    1.4999999999970290E-01     0.0000000000000000E+00     0.0000000000000000E+00 
    1.9999999999955689E-01     0.0000000000000000E+00     0.0000000000000000E+00 
    2.4999999999941089E-01     0.0000000000000000E+00     0.0000000000000000E+00 
    2.9999999999926502E-01     0.0000000000000000E+00     0.0000000000000000E+00 
    3.4999999999911913E-01     0.0000000000000000E+00     0.0000000000000000E+00 
    3.9999999999897312E-01     0.0000000000000000E+00     0.0000000000000000E+00 
    4.4999999999882723E-01     0.0000000000000000E+00     0.0000000000000000E+00 
    4.9999999999869210E-01     0.0000000000000000E+00     0.0000000000000000E+00 
    4.9999999999899403E-02     0.0000000000000000E+00     0.0000000000000000E+00 
    5.9999999999894504E-01     0.0000000000000000E+00     0.0000000000000000E+00 
    6.4999999999907687E-01     0.0000000000000000E+00     0.0000000000000000E+00 
    6.9999999999920870E-01     0.0000000000000000E+00     0.0000000000000000E+00 
    7.4999999999934064E-01     0.0000000000000000E+00     0.0000000000000000E+00 
    7.9999999999947247E-01     0.0000000000000000E+00     0.0000000000000000E+00 
    8.4999999999960441E-01     0.0000000000000000E+00     0.0000000000000000E+00 
    8.9999999999973623E-01     0.0000000000000000E+00     0.0000000000000000E+00 
    9.4999999999986817E-01     0.0000000000000000E+00     0.0000000000000000E+00 
    1.0000000000000000E+00     5.2499999999875258E-01     0.0000000000000000E+00 
    1.0000000000000000E+00     7.4999999999856765E-02     0.0000000000000000E+00 
    1.0000000000000000E+00     1.2499999999975850E-01     0.0000000000000000E+00 
    1.0000000000000000E+00     1.7499999999962990E-01     0.0000000000000000E+00 
    1.0000000000000000E+00     2.2499999999948389E-01     0.0000000000000000E+00 
    1.0000000000000000E+00     2.7499999999933789E-01     0.0000000000000000E+00 
    1.0000000000000000E+00     3.2499999999919210E-01     0.0000000000000000E+00 
    1.0000000000000000E+00     3.7499999999904610E-01     0.0000000000000000E+00 
    1.0000000000000000E+00     4.2499999999890020E-01     0.0000000000000000E+00 
    1.0000000000000000E+00     4.7499999999875958E-01     0.0000000000000000E+00 
    1.0000000000000000E+00     2.4999999999949701E-02     0.0000000000000000E+00 
    1.0000000000000000E+00     5.7499999999887907E-01     0.0000000000000000E+00 
    1.0000000000000000E+00     6.2499999999901101E-01     0.0000000000000000E+00 
    1.0000000000000000E+00     6.7499999999914273E-01     0.0000000000000000E+00 
    1.0000000000000000E+00     7.2499999999927467E-01     0.0000000000000000E+00 
    1.0000000000000000E+00     7.7499999999940661E-01     0.0000000000000000E+00 
    1.0000000000000000E+00     8.2499999999953844E-01     0.0000000000000000E+00 
    1.0000000000000000E+00     8.7499999999967026E-01     0.0000000000000000E+00 
    1.0000000000000000E+00     9.2499999999980220E-01     0.0000000000000000E+00 
    1.0000000000000000E+00     9.7499999999993414E-01     0.0000000000000000E+00 
    1.0000000000000000E+00     5.4999999999881310E-01     0.0000000000000000E+00 
    1.0000000000000000E+00     9.9999999999814140E-02     0.0000000000000000E+00 
    1.0000000000000000E+00     1.4999999999970290E-01     0.0000000000000000E+00 
    1.0000000000000000E+00     1.9999999999955689E-01     0.0000000000000000E+00 
    1.0000000000000000E+00     2.4999999999941089E-01     0.0000000000000000E+00 
    1.0000000000000000E+00     2.9999999999926502E-01     0.0000000000000000E+00 
    1.0000000000000000E+00     3.4999999999911913E-01     0.0000000000000000E+00 
    1.0000000000000000E+00     3.9999999999897312E-01     0.0000000000000000E+00 
    1.0000000000000000E+00     4.4999999999882723E-01     0.0000000000000000E+00 
    1.0000000000000000E+00     4.9999999999869210E-01     0.0000000000000000E+00 
    1.0000000000000000E+00     4.9999999999899403E-02     0.0000000000000000E+00 
    1.0000000000000000E+00     5.9999999999894504E-01     0.0000000000000000E+00 
    1.0000000000000000E+00     6.4999999999907687E-01     0.0000000000000000E+00 
    1.0000000000000000E+00     6.9999999999920870E-01     0.0000000000000000E+00 
    1.0000000000000000E+00     7.4999999999934064E-01     0.0000000000000000E+00 
    1.0000000000000000E+00     7.9999999999947247E-01     0.0000000000000000E+00 
    1.0000000000000000E+00     8.4999999999960441E-01     0.0000000000000000E+00 
    1.0000000000000000E+00     8.9999999999973623E-01     0.0000000000000000E+00 
    1.0000000000000000E+00     9.4999999999986817E-01     0.0000000000000000E+00 
    4.7500000000196618E-01     1.0000000000000000E+00     0.0000000000000000E+00 
    9.2499999999968763E-01     1.0000000000000000E+00     0.0000000000000000E+00 
    8.7499999999961831E-01     1.0000000000000000E+00     0.0000000000000000E+00 
    8.2499999999982654E-01     1.0000000000000000E+00     0.0000000000000000E+00 
    7.7500000000017355E-01     1.0000000000000000E+00     0.0000000000000000E+00 
    7.2500000000052045E-01     1.0000000000000000E+00     0.0000000000000000E+00 
    6.7500000000086724E-01     1.0000000000000000E+00     0.0000000000000000E+00 
    6.2500000000121403E-01     1.0000000000000000E+00     0.0000000000000000E+00 
    5.7500000000156093E-01     1.0000000000000000E+00     0.0000000000000000E+00 
    5.2500000000189684E-01     1.0000000000000000E+00     0.0000000000000000E+00 
    9.7499999999989595E-01     1.0000000000000000E+00     0.0000000000000000E+00 
    4.2500000000176902E-01     1.0000000000000000E+00     0.0000000000000000E+00 
    3.7500000000156092E-01     1.0000000000000000E+00     0.0000000000000000E+00 
    3.2500000000135282E-01     1.0000000000000000E+00     0.0000000000000000E+00 
    2.7500000000114472E-01     1.0000000000000000E+00     0.0000000000000000E+00 
    2.2500000000093659E-01     1.0000000000000000E+00     0.0000000000000000E+00 
    1.7500000000072849E-01     1.0000000000000000E+00     0.0000000000000000E+00 
    1.2500000000052039E-01     1.0000000000000000E+00     0.0000000000000000E+00 
    7.5000000000312261E-02     1.0000000000000000E+00     0.0000000000000000E+00 
    2.5000000000104109E-02     1.0000000000000000E+00     0.0000000000000000E+00 
    4.5000000000187301E-01     1.0000000000000000E+00     0.0000000000000000E+00 
    8.9999999999958358E-01     1.0000000000000000E+00     0.0000000000000000E+00 
    8.4999999999965303E-01     1.0000000000000000E+00     0.0000000000000000E+00 
    8.0000000000000004E-01     1.0000000000000000E+00     0.0000000000000000E+00 
    7.5000000000034706E-01     1.0000000000000000E+00     0.0000000000000000E+00 
    7.0000000000069384E-01     1.0000000000000000E+00     0.0000000000000000E+00 
    6.5000000000104063E-01     1.0000000000000000E+00     0.0000000000000000E+00 
    6.0000000000138742E-01     1.0000000000000000E+00     0.0000000000000000E+00 
    5.5000000000173432E-01     1.0000000000000000E+00     0.0000000000000000E+00 
    5.0000000000205946E-01     1.0000000000000000E+00     0.0000000000000000E+00 
    9.4999999999979179E-01     1.0000000000000000E+00     0.0000000000000000E+00 
    4.0000000000166491E-01     1.0000000000000000E+00     0.0000000000000000E+00 
    3.5000000000145681E-01     1.0000000000000000E+00     0.0000000000000000E+00 
    3.0000000000124871E-01     1.0000000000000000E+00     0.0000000000000000E+00 
    2.5000000000104061E-01     1.0000000000000000E+00     0.0000000000000000E+00 
    2.0000000000083251E-01     1.0000000000000000E+00     0.0000000000000000E+00 
    1.5000000000062441E-01     1.0000000000000000E+00     0.0000000000000000E+00 
    1.0000000000041630E-01     1.0000000000000000E+00     0.0000000000000000E+00 
[...]
CELL_DATA 1600 
SCALARS Pressure double 1 
LOOKUP_TABLE default 

    1.2794983158705564E+00 
    1.2321034277731957E+00 
    1.2296054964302290E+00 
    1.2636271521074882E+00 
    1.2508211903851834E+00 
    1.2258018838832851E+00 
    1.2213874282510684E+00 
    1.2402577075925627E+00 
    1.2313478097776500E+00 
    1.2167531732694328E+00 
    1.2121163360153859E+00 
    1.2236826348302079E+00 
    1.2169743184921027E+00 
    1.2075933627059048E+00 
    1.2032426397969505E+00 
    1.2110169449947894E+00 
    1.2056608298482259E+00 
    1.1990895156125227E+00 
    1.1951409453071227E+00 
    1.2007954373237437E+00 
    1.1963378997793583E+00 
    1.1913940307156659E+00 
    1.1878409629030322E+00 
    1.1922252015274770E+00 
    1.1884087855016099E+00 
    1.1844718450058809E+00 
    1.1812762683558005E+00 
    1.1848507805679176E+00 
    1.1815213262654001E+00 
    1.1782441586701256E+00 
    1.1753661985168797E+00 
    1.1783966500522629E+00 
    1.1754576671127825E+00 
    1.1726340073940087E+00 
    1.1700401865396306E+00 
    1.1726889476485280E+00 
    1.1700779458317943E+00 
    1.1675782913950719E+00 
    1.1652427683087674E+00 
    1.1676144173430065E+00 
    1.1652899744107130E+00 
    1.1630288763850796E+00 
    1.1609326060533067E+00 
    1.1630977421976920E+00 
    1.1610320905886078E+00 
    1.1589506003863284E+00 
    1.1570800818760607E+00 
    1.1590884224492854E+00 
    1.1572630042057905E+00 
    1.1553187853009017E+00 
    1.1536648958331994E+00 
    1.1555528276964171E+00 
    1.1539554938968026E+00 
    1.1521169900538919E+00 
    1.1506739752994581E+00 
    1.1524691090758936E+00 
    1.1510921811031904E+00 
    1.1493350182392914E+00 
    1.1480994429041800E+00 
    1.1498234946387789E+00 
    1.1486619191801646E+00 
    1.1469665509757700E+00 
    1.1459352493849000E+00 
    1.1476060412132305E+00 
    1.1466533809694104E+00 
    1.1450032315817398E+00 
    1.1441652308945081E+00 
    1.1457987402300225E+00 
    1.1450308629621353E+00 
    1.1434094458602118E+00 
    1.1427109106990638E+00 
    1.1443263085887017E+00 
    1.1436629324740410E+00 
    1.1420509134897145E+00 
    1.1415364616093315E+00 
    1.1431405563801200E+00 
    1.1428153679765829E+00 
    1.1412174882244486E+00 
    1.1410607505618555E+00 
    1.1426558503883464E+00 
    1.2069580610934330E+00 
    1.1881579321477038E+00 
    1.1877525683087977E+00 
    1.2061406207821084E+00 
    1.2046320142353912E+00 
    1.1869663380133268E+00 
    1.1858423970072398E+00 
    1.2025932445602612E+00 
    1.2001747478200024E+00 
    1.1844323804452810E+00 
    1.1827895202552987E+00 
    1.1975019895441521E+00 
    1.1946734054476893E+00 
    1.1809642837759364E+00 
    1.1790020398446899E+00 
    1.1917633192295334E+00 
    1.1888263607848411E+00 
    1.1769421297839060E+00 
    1.1748178128428970E+00 
    1.1859018562188761E+00 
    1.1830176109726149E+00 
    1.1726566984263418E+00 
    1.1704814070667204E+00 
    1.1801929479407414E+00 
    1.1774410490399068E+00 
    1.1683103010243028E+00 
    1.1661581941269465E+00 
    1.1747707131353746E+00 
    1.1721876524224883E+00 
    1.1640369951439318E+00 
    1.1619562663832130E+00 
    1.1696954362728180E+00 
    1.1672961717796786E+00 
    1.1599236949533855E+00 
    1.1579454824273014E+00 
    1.1649909906108675E+00 
    1.1627803948733775E+00 
    1.1560266623820299E+00 
    1.1541713563795799E+00 
    1.1606645011186798E+00 
    1.1586432111381284E+00 
    1.1523829786010653E+00 
    1.1506643982827078E+00 
    1.1567163302979608E+00 
    1.1548836482794260E+00 
    1.1490180677389881E+00 
    1.1474461223004362E+00 
    1.1531449927047119E+00 
    1.1515002627874831E+00 
    1.1459504569951997E+00 
    1.1445327831785796E+00 
    1.1499494474162237E+00 
    1.1484926294574003E+00 
    1.1431946662743815E+00 
    1.1419375426226221E+00 
    1.1471299747575767E+00 
    1.1458616986407795E+00 
    1.1407627073085824E+00 
    1.1396712507079865E+00 
    1.1446879902527924E+00 
    1.1436088440022696E+00 
    1.1386638857546494E+00 
    1.1377405238944380E+00 
    1.1426236723595262E+00 
    1.1417304252110347E+00 
    1.1368992958524375E+00 
    1.1361344310873467E+00 
    1.1409236926522317E+00 
    1.1401907505522220E+00 
    1.1354317146019022E+00 
    1.1347600843139567E+00 
    1.1395041595394504E+00 
    1.1388543459619047E+00 
    1.1341279511960052E+00 
    1.1336565162412600E+00 
    1.1383570564587464E+00 
    1.1380498546653852E+00 
    1.1333653339654295E+00 
    1.1332210946366488E+00 
    1.1378983616387921E+00 
    1.1719012288092399E+00 
    1.1567881852790243E+00 
    1.1566206244841699E+00 
    1.1716548194588228E+00 
    1.1711695873203307E+00 
    1.1562886769811671E+00 
    1.1557991596945103E+00 
    1.1704608075849445E+00 
    1.1695489785527282E+00 
    1.1551617043041795E+00 
    1.1543881050819365E+00 
    1.1684577667416136E+00 
    1.1672122010945001E+00 
    1.1534916367859753E+00 
    1.1524864188483690E+00 
    1.1658372651418862E+00 
    1.1643569047323949E+00 
    1.1513868699867453E+00 
    1.1502072718418062E+00 
    1.1627934015418955E+00 
    1.1611670370885199E+00 
    1.1489614424779182E+00 
    1.1476625098297846E+00 
    1.1594959702574943E+00 
    1.1577962610014441E+00 
    1.1463227698481500E+00 
    1.1449536124984836E+00 
    1.1560819864890488E+00 
    1.1543654095577489E+00 
    1.1435654994586471E+00 
    1.1421679792686503E+00 
    1.1526571710856470E+00 
    1.1509664872680561E+00 
    1.1407697280780864E+00 
    1.1393786065632494E+00 
    1.1493013398279284E+00 
    1.1476686522390287E+00 
    1.1380017257962554E+00 
    1.1366455167262042E+00 
    1.1460744485023195E+00 
    1.1445239932725411E+00 
    1.1353157994420604E+00 
    1.1340178495346604E+00 
    1.1430219135015349E+00 
    1.1415723024879236E+00 
    1.1327564596802759E+00 
    1.1315359950367911E+00 
    1.1401788074572525E+00 
    1.1388447016100491E+00 
    1.1303604411386801E+00 
    1.1292334425602526E+00 
    1.1375729409106434E+00 
    1.1363662044673075E+00 
    1.1281583293125963E+00 
    1.1271381247586585E+00 
    1.1352269143881129E+00 
    1.1341572243288403E+00 
    1.1261755210248070E+00 
    1.1252727877768569E+00 
    1.1331589494274608E+00 
    1.1322333682690358E+00 
    1.1244315298667364E+00 
    1.1236521004357323E+00 
    1.1313807320694991E+00 
    1.1305991374066631E+00 
    1.1229322734429730E+00 
    1.1222643233188245E+00 
    1.1298820749289988E+00 
    1.1292129580093271E+00 
    1.1216281216536246E+00 
    1.1209856384693535E+00 
    1.1285561313518557E+00 
    1.1279485322981135E+00 
    1.1204093787885476E+00 
    1.1200058762638470E+00 
    1.1275096661895707E+00 
    1.1272370979989363E+00 
    1.1197520616928369E+00 
    1.1196253453714751E+00 
    1.1271014514419662E+00 
    1.1421605248091029E+00 
    1.1276612747251760E+00 
    1.1275674939681952E+00 
    1.1420382342238051E+00 
    1.1417952796080149E+00 
    1.1273809003238029E+00 
    1.1271036757983437E+00 
    1.1414352758164241E+00 
    1.1409634453997834E+00 
    1.1267389953662041E+00 
    1.1262909267243362E+00 
    1.1403863803070453E+00 
    1.1397117658310871E+00 
    1.1257643064731442E+00 
    1.1251646037302083E+00 
    1.1389480952042144E+00 
    1.1381043963281943E+00 
    1.1244977804515655E+00 
    1.1237701558771866E+00 
    1.1371899852173215E+00 
    1.1362142545286353E+00 
    1.1229882806154459E+00 
    1.1221588240449181E+00 
    1.1351865005104909E+00 
    1.1341157879870742E+00 
    1.1212884770790608E+00 
    1.1203838709962739E+00 
    1.1330108505378560E+00 
    1.1318800216210776E+00 
    1.1194515120130268E+00 
    1.1184977305566295E+00 
    1.1307311917784444E+00 
    1.1295717870032937E+00 
    1.1175286437362753E+00 
    1.1165501292634732E+00 
    1.1284087636520013E+00 
    1.1272486157683752E+00 
    1.1155678089804273E+00 
    1.1145870401639941E+00 
    1.1260973912553622E+00 
    1.1249607138839137E+00 
    1.1136129128336063E+00 
    1.1126502513545049E+00 
    1.1238438086145186E+00 
    1.1227515280715772E+00 
    1.1117036186363194E+00 
    1.1107773211005552E+00 
    1.1216883781933902E+00 
    1.1206585409779108E+00 
    1.1098754121856644E+00 
    1.1090016911746026E+00 
    1.1196658916400972E+00 
    1.1187140058804905E+00 
    1.1081596918494199E+00 
    1.1073526500231508E+00 
    1.1178061490121798E+00 
    1.1169452287428820E+00 
    1.1065834253677027E+00 
    1.1058543191816235E+00 
    1.1161336678215186E+00 
    1.1153730914654394E+00 
    1.1051666537314484E+00 
    1.1045198272119461E+00 
    1.1146635985897793E+00 
    1.1140021412063199E+00 
    1.1039092252070219E+00 
    1.1033212374143497E+00 
    1.1133788580737509E+00 
    1.1127677738960702E+00 
    1.1027200880086214E+00 
    1.1021079140631713E+00 
    1.1121400578597094E+00 
    1.1116036825432334E+00 
    1.1016190846904719E+00 
    1.1012865930452638E+00 
    1.1112359951186561E+00 
    1.1110000232593376E+00 
    1.1010684535508461E+00 
    1.1009593370539401E+00 
    1.1108820762513361E+00 
    1.1130786567379640E+00 
    1.0982794039215069E+00 
    1.0982180590771620E+00 
    1.1130039729620582E+00 
    1.1128552512498939E+00 
    1.0980958397581013E+00 
    1.0979137940384196E+00 
    1.1126339465694923E+00 
    1.1123421724805898E+00 
    1.0976734341840921E+00 
    1.0973767108387085E+00 
    1.1119826532116097E+00 
    1.1115586620686557E+00 
    1.0970259792834129E+00 
    1.0966239598399550E+00 
    1.1110739508529470E+00 
    1.1105326744621342E+00 
    1.0961736944607543E+00 
    1.0956785012866674E+00 
    1.1099393142502239E+00 
    1.1092986031219192E+00 
    1.0951419287353721E+00 
    1.0945677104534142E+00 
    1.1086154547011342E+00 
    1.1078948982734562E+00 
    1.0939597222162809E+00 
    1.0933219416041573E+00 
    1.1071420206008049E+00 
    1.1063619151754025E+00 
    1.0926584110299760E+00 
    1.0919732044620198E+00 
    1.1055596390368696E+00 
    1.1047401769250109E+00 
    1.0912703979723808E+00 
    1.0905540440566215E+00 
    1.1039084122755873E+00 
    1.1030691043734149E+00 
    1.0898281495056228E+00 
    1.0890966564583826E+00 
    1.1022268708370571E+00 
    1.1013861744968734E+00 
    1.0883634261072266E+00 
    1.0876322243338976E+00 
    1.1005513136091460E+00 
    1.0997264141720935E+00 
    1.0869067082698300E+00 
    1.0861904122832919E+00 
    1.0989154227852531E+00 
    1.0981220978427602E+00 
    1.0854867309504670E+00 
    1.0847988945705913E+00 
    1.0973499954665293E+00 
    1.0966024434528556E+00 
    1.0841299282507271E+00 
    1.0834825748399444E+00 
    1.0958824889877765E+00 
    1.0951927874011447E+00 
    1.0828591366717508E+00 
    1.0822611349225095E+00 
    1.0945353556854283E+00 
    1.0939110218752284E+00 
    1.0816885691003038E+00 
    1.0811382950471724E+00 
    1.0933182123469016E+00 
    1.0927502161862594E+00 
    1.0806001698832721E+00 
    1.0800458976342511E+00 
    1.0921880798174137E+00 
    1.0915865548486605E+00 
    1.0794399300969153E+00 
    1.0788880609261220E+00 
    1.0909963418407616E+00 
    1.0905536119701371E+00 
    1.0784880478495018E+00 
    1.0782033766665822E+00 
    1.0902491197250970E+00 
    1.0900467099938596E+00 
    1.0780136414960448E+00 
    1.0779187576589846E+00 
    1.0899454328876137E+00 
    1.0831764024360169E+00 
    1.0677114544065687E+00 
    1.0676666767061316E+00 
    1.0831246358832134E+00 
    1.0830214684820145E+00 
    1.0675774194974770E+00 
    1.0674443248926215E+00 
    1.0828677018038213E+00 
    1.0826644818639974E+00 
    1.0672683020828915E+00 
    1.0670505167916911E+00 
    1.0824132835123998E+00 
    1.0821158902318295E+00 
    1.0667923781482365E+00 
    1.0664955230753643E+00 
    1.0817743701507558E+00 
    1.0813910493602648E+00 
    1.0661617988157448E+00 
    1.0657932441297713E+00 
    1.0809684834774151E+00 
    1.0805094282957735E+00 
    1.0653920696363499E+00 
    1.0649606377198562E+00 
    1.0800168102696441E+00 
    1.0794936974759235E+00 
    1.0645014423780790E+00 
    1.0640170893317309E+00 
    1.0789432715850573E+00 
    1.0783688012535002E+00 
    1.0635102766549978E+00 
    1.0629837761185468E+00 
    1.0777736172282448E+00 
    1.0771610893319239E+00 
    1.0624404153607325E+00 
    1.0618830609167436E+00 
    1.0765346053747198E+00 
    1.0758975519130611E+00 
    1.0613146020327984E+00 
    1.0607379350604262E+00 
    1.0752532966352828E+00 
    1.0746051719814933E+00 
    1.0601559480381815E+00 
    1.0595715047711758E+00 
    1.0739564593601436E+00 
    1.0733103729282407E+00 
    1.0589874271979072E+00 
    1.0584064738395891E+00 
    1.0726700411871528E+00 
    1.0720384832247674E+00 
    1.0578313100832952E+00 
    1.0572644616265041E+00 
    1.0714185733853716E+00 
    1.0708129812831522E+00 
    1.0567082326375585E+00 
    1.0561645487024474E+00 
    1.0702240583850153E+00 
    1.0696536074234353E+00 
    1.0556346386760149E+00 
    1.0551183718130843E+00 
    1.0691023967656483E+00 
    1.0685691225370058E+00 
    1.0546128296437420E+00 
    1.0541089049443093E+00 
    1.0680480886353751E+00 
    1.0675231963231964E+00 
    1.0535812890239260E+00 
    1.0529793013881641E+00 
    1.0669500333818986E+00 
    1.0663371312892711E+00 
    1.0523779829066260E+00 
    1.0519199864655637E+00 
    1.0658352264605975E+00 
    1.0654754406127636E+00 
    1.0515838015278383E+00 
    1.0513318367558240E+00 
    1.0652095535635255E+00 
    1.0650320596685432E+00 
    1.0511636949771872E+00 
    1.0510795743751711E+00 
    1.0649432440599464E+00 
    1.0518454206143582E+00 
    1.0355522670906794E+00 
    1.0355163335264856E+00 
    1.0518057659851325E+00 
    1.0517267082876309E+00 
    1.0354446837702815E+00 
    1.0353377730281126E+00 
    1.0516087806702186E+00 
    1.0514527314666027E+00 
    1.0351962359250704E+00 
    1.0350208801110261E+00 
    1.0512595163169169E+00 
    1.0510302889771810E+00 
    1.0348126793764809E+00 
    1.0345727656081896E+00 
    1.0507663904566558E+00 
    1.0504693368607549E+00 
    1.0343024198234807E+00 
    1.0340030624925134E+00 
    1.0501408062623938E+00 
    1.0497826248777882E+00 
    1.0336762433168694E+00 
    1.0333236306060571E+00 
    1.0493967527908481E+00 
    1.0489852694415942E+00 
    1.0329470003712669E+00 
    1.0325482252315774E+00 
    1.0485503590622960E+00 
    1.0480942962073265E+00 
    1.0321292631976766E+00 
    1.0316921463581517E+00 
    1.0476194314768301E+00 
    1.0471281774770782E+00 
    1.0312389694383794E+00 
    1.0307718781228563E+00 
    1.0466229949858268E+00 
    1.0461063791875405E+00 
    1.0302930569090933E+00 
    1.0298047160619159E+00 
    1.0455808456899500E+00 
    1.0450489157873382E+00 
    1.0293090768956994E+00 
    1.0288083539901054E+00 
    1.0445131000083696E+00 
    1.0439758781876098E+00 
    1.0283047317531275E+00 
    1.0278003303912058E+00 
    1.0434396727290129E+00 
    1.0429068084909148E+00 
    1.0272971515573253E+00 
    1.0267969841068587E+00 
    1.0423794458766957E+00 
    1.0418594591777743E+00 
    1.0263012300254621E+00 
    1.0258105679190759E+00 
    1.0413482015154485E+00 
    1.0408460328625895E+00 
    1.0253242766957378E+00 
    1.0248387918532336E+00 
    1.0403513394444286E+00 
    1.0398583460099418E+00 
    1.0243442048253044E+00 
    1.0238136357811674E+00 
    1.0393513715039495E+00 
    1.0387862549783966E+00 
    1.0231895378970683E+00 
    1.0225374162354646E+00 
    1.0381502067514876E+00 
    1.0375922449249828E+00 
    1.0220245072692173E+00 
    1.0216380953664870E+00 
    1.0371779427752743E+00 
    1.0368568837017995E+00 
    1.0213295238848841E+00 
    1.0210977249126048E+00 
    1.0366158901764835E+00 
    1.0364551185196242E+00 
    1.0209430239846840E+00 
    1.0208656244749343E+00 
    1.0363746986705029E+00 
    1.0188153179549011E+00 
    1.0016248252871571E+00 
    1.0015932355180377E+00 
    1.0187820066798019E+00 
    1.0187155750972630E+00 
    1.0015302255831493E+00 
    1.0014361483575855E+00 
    1.0186164205026036E+00 
    1.0184850945758279E+00 
    1.0013114935718050E+00 
    1.0011568828287583E+00 
    1.0183222978579236E+00 
    1.0181288742720334E+00 
    1.0009730649969348E+00 
    1.0007609109462385E+00 
    1.0179058048024563E+00 
    1.0176542004908984E+00 
    1.0005214077431672E+00 
    1.0002556524153867E+00 
    1.0173752948957233E+00 
    1.0170704361200285E+00 
    9.9996484535238728E-01 
    9.9965028337782114E-01 
    1.0167410784874302E+00 
    1.0163887739224262E+00 
    9.9931335250308140E-01 
    9.9895552034415680E-01 
    1.0160151630683614E+00 
    1.0156219661444301E+00 
    9.9857832814599756E-01 
    9.9818338229550374E-01 
    1.0152109734965291E+00 
    1.0147840357270637E+00 
    9.9777234510276058E-01 
    9.9734692447588424E-01 
    1.0143430531828059E+00 
    1.0138899644032313E+00 
    9.9690886185030458E-01 
    9.9645991725932093E-01 
    1.0134267328269908E+00 
    1.0129553305165413E+00 
    9.9600184959183480E-01 
    9.9553638851887571E-01 
    1.0124777166650105E+00 
    1.0119958067499129E+00 
    9.9506519162132712E-01 
    9.9458977457300402E-01 
    1.0115114245047931E+00 
    1.0110262215677199E+00 
    9.9411139115474190E-01 
    9.9363081754997917E-01 
    1.0105415350308957E+00 
    1.0100581229568968E+00 
    9.9314794746652069E-01 
    9.9266099054338375E-01 
    1.0095756525013997E+00 
    1.0090916527223370E+00 
    9.9216473714129338E-01 
    9.9164615936632361E-01 
    1.0085991379300265E+00 
    1.0080800997397439E+00 
    9.9107022141160817E-01 
    9.9037898817204195E-01 
    1.0074840275592010E+00 
    1.0067966408226485E+00 
    9.8966209447233933E-01 
    9.8909378945697901E-01 
    1.0061799133355906E+00 
    1.0057111845793776E+00 
    9.8865166965050211E-01 
    9.8828369599736765E-01 
    1.0053353503706051E+00 
    1.0050344396037516E+00 
    9.8798885164023209E-01 
    9.8776746888261424E-01 
    1.0048085792051398E+00 
    1.0046579152680342E+00 
    9.8761976803838791E-01 
    9.8754588503186858E-01 
    1.0045825551822281E+00 
    9.8397635842382913E-01 
    9.6586971091342144E-01 
    9.6583930512820693E-01 
    9.8394571395972952E-01 
    9.8388457654874084E-01 
    9.6577862896277888E-01 
    9.6568797166911857E-01 
    9.8379326400364719E-01 
    9.8367221899312141E-01 
    9.6556773966462872E-01 
    9.6541845218714306E-01 
    9.8352200442142623E-01 
    9.8334329935033382E-01 
    9.6524073750236927E-01 
    9.6503532852818275E-01 
    9.8313689434650386E-01 
    9.8290368635331449E-01 
    9.6480305797789101E-01 
    9.6454485310210825E-01 
    9.8264467317740078E-01 
    9.8236094762778692E-01 
    9.6426173003977989E-01 
    9.6395478772637877E-01 
    9.8205369130413867E-01 
    9.8172416799390050E-01 
    9.6362520124615880E-01 
    9.6327421445937322E-01 
    9.8137371660193395E-01 
    9.8100374348766495E-01 
    9.6290313166547004E-01 
    9.6251330791110401E-01 
    9.8061571399157954E-01 
    9.8021114277217170E-01 
    9.6210613726750449E-01 
    9.6168303799746258E-01 
    9.7979158233949837E-01 
    9.7935860877574743E-01 
    9.6124543287895226E-01 
    9.6079472173381875E-01 
    9.7891380290801389E-01 
    9.7845872392876831E-01 
    9.6033224110404758E-01 
    9.5985920214141229E-01 
    9.7799487010992825E-01 
    9.7752361687944989E-01 
    9.5937659053808066E-01 
    9.5888499804676586E-01 
    9.7704611406867570E-01 
    9.7656310744597918E-01 
    9.5838432554356079E-01 
    9.5787322857187496E-01 
    9.7607461407171026E-01 
    9.7557929729340087E-01 
    9.5734799432226980E-01 
    9.5679995488680214E-01 
    9.7507315710572851E-01 
    9.7454636863843713E-01 
    9.5620820607183443E-01 
    9.5551574226412639E-01 
    9.7397377935218021E-01 
    9.7329070446310351E-01 
    9.5469050921850307E-01 
    9.5390049670618626E-01 
    9.7251070995202393E-01 
    9.7183086820769371E-01 
    9.5328319066735034E-01 
    9.5278035729379018E-01 
    9.7130417981945638E-01 
    9.7086587323573015E-01 
    9.5234835352544556E-01 
    9.5198757173230975E-01 