# vtk DataFile Version 2.0
Pressure Field Data 
ASCII 
DATASET UNSTRUCTURED_GRID 

POINTS 1681 double 

    0.0000000000000000E+00     0.0000000000000000E+00     0.0000000000000000E+00 
    1.0000000000000000E+00     0.0000000000000000E+00     0.0000000000000000E+00 
    1.0000000000000000E+00     1.0000000000000000E+00     0.0000000000000000E+00 
    0.0000000000000000E+00     1.0000000000000000E+00     0.0000000000000000E+00 
    5.2499999999875258E-01     0.0000000000000000E+00     0.0000000000000000E+00 
    7.4999999999856765E-02     0.0000000000000000E+00     0.0000000000000000E+00 
    1.2499999999975850E-01     0.0000000000000000E+00     0.0000000000000000E+00 
    1.7499999999962990E-01     0.0000000000000000E+00     0.0000000000000000E+00 
    2.2499999999948389E-01     0.0000000000000000E+00     0.0000000000000000E+00 
    2.7499999999933789E-01     0.0000000000000000E+00     0.0000000000000000E+00 
    3.2499999999919210E-01     0.0000000000000000E+00     0.0000000000000000E+00 
    3.7499999999904610E-01     0.0000000000000000E+00     0.0000000000000000E+00 
    4.2499999999890020E-01     0.0000000000000000E+00     0.0000000000000000E+00 
    4.7499999999875958E-01     0.0000000000000000E+00     0.0000000000000000E+00 
    2.4999999999949701E-02     0.0000000000000000E+00     0.0000000000000000E+00 
    5.7499999999887907E-01     0.0000000000000000E+00     0.0000000000000000E+00 
    6.2499999999901101E-01     0.0000000000000000E+00     0.0000000000000000E+00 
    6.7499999999914273E-01     0.0000000000000000E+00     0.0000000000000000E+00 
    7.2499999999927467E-01     0.0000000000000000E+00     0.0000000000000000E+00 
    7.7499999999940661E-01     0.0000000000000000E+00     0.0000000000000000E+00 
    8.2499999999953844E-01     0.0000000000000000E+00     0.0000000000000000E+00 
    8.7499999999967026E-01     0.0000000000000000E+00     0.0000000000000000E+00 
    9.2499999999980220E-01     0.0000000000000000E+00     0.0000000000000000E+00 
    9.7499999999993414E-01     0.0000000000000000E+00     0.0000000000000000E+00 
    5.4999999999881310E-01     0.0000000000000000E+00     0.0000000000000000E+00 
    9.9999999999814140E-02     0.0000000000000000E+00     0.0000000000000000E+00 
    1.4999999999970290E-01     0.0000000000000000E+00     0.0000000000000000E+00 
    1.9999999999955689E-01     0.0000000000000000E+00     0.0000000000000000E+00 
    2.4999999999941089E-01     0.0000000000000000E+00     0.0000000000000000E+00 
    2.9999999999926502E-01     0.0000000000000000E+00     0.0000000000000000E+00 
    3.4999999999911913E-01     0.0000000000000000E+00     0.0000000000000000E+00 
    3.9999999999897312E-01     0.0000000000000000E+00     0.0000000000000000E+00 
    4.4999999999882723E-01     0.0000000000000000E+00     0.0000000000000000E+00 
    4.9999999999869210E-01     0.0000000000000000E+00     0.0000000000000000E+00 
    4.9999999999899403E-02     0.0000000000000000E+00     0.0000000000000000E+00 
    5.9999999999894504E-01     0.0000000000000000E+00     0.0000000000000000E+00 
    6.4999999999907687E-01     0.0000000000000000E+00     0.0000000000000000E+00 
    6.9999999999920870E-01     0.0000000000000000E+00     0.0000000000000000E+00 
    7.4999999999934064E-01     0.0000000000000000E+00     0.0000000000000000E+00 
    7.9999999999947247E-01     0.0000000000000000E+00     0.0000000000000000E+00 
    8.4999999999960441E-01     0.0000000000000000E+00     0.0000000000000000E+00 
    8.9999999999973623E-01     0.0000000000000000E+00     0.0000000000000000E+00 
    9.4999999999986817E-01     0.0000000000000000E+00     0.0000000000000000E+00 
    1.0000000000000000E+00     5.2499999999875258E-01     0.0000000000000000E+00 
    1.0000000000000000E+00     7.4999999999856765E-02     0.0000000000000000E+00 
    1.0000000000000000E+00     1.2499999999975850E-01     0.0000000000000000E+00 
    1.0000000000000000E+00     1.7499999999962990E-01     0.0000000000000000E+00 
    1.0000000000000000E+00     2.2499999999948389E-01     0.0000000000000000E+00 
    1.0000000000000000E+00     2.7499999999933789E-01     0.0000000000000000E+00 
    1.0000000000000000E+00     3.2499999999919210E-01     0.0000000000000000E+00 
    1.0000000000000000E+00     3.7499999999904610E-01     0.0000000000000000E+00 
    1.0000000000000000E+00     4.2499999999890020E-01     0.0000000000000000E+00 
    1.0000000000000000E+00     4.7499999999875958E-01     0.0000000000000000E+00 
    1.0000000000000000E+00     2.4999999999949701E-02     0.0000000000000000E+00 
    1.0000000000000000E+00     5.7499999999887907E-01     0.0000000000000000E+00 
    1.0000000000000000E+00     6.2499999999901101E-01     0.0000000000000000E+00 
    1.0000000000000000E+00     6.7499999999914273E-01     0.0000000000000000E+00 
    1.0000000000000000E+00     7.2499999999927467E-01     0.0000000000000000E+00 
    1.0000000000000000E+00     7.7499999999940661E-01     0.0000000000000000E+00 
    1.0000000000000000E+00     8.2499999999953844E-01     0.0000000000000000E+00 
    1.0000000000000000E+00     8.7499999999967026E-01     0.0000000000000000E+00 
    1.0000000000000000E+00     9.2499999999980220E-01     0.0000000000000000E+00 
    1.0000000000000000E+00     9.7499999999993414E-01     0.0000000000000000E+00 
    1.0000000000000000E+00     5.4999999999881310E-01     0.0000000000000000E+00 
    1.0000000000000000E+00     9.9999999999814140E-02     0.0000000000000000E+00 
    1.0000000000000000E+00     1.4999999999970290E-01     0.0000000000000000E+00 
    1.0000000000000000E+00     1.9999999999955689E-01     0.0000000000000000E+00 
    1.0000000000000000E+00     2.4999999999941089E-01     0.0000000000000000E+00 
    1.0000000000000000E+00     2.9999999999926502E-01     0.0000000000000000E+00 
    1.0000000000000000E+00     3.4999999999911913E-01     0.0000000000000000E+00 
    1.0000000000000000E+00     3.9999999999897312E-01     0.0000000000000000E+00 
    1.0000000000000000E+00     4.4999999999882723E-01     0.0000000000000000E+00 
    1.0000000000000000E+00     4.9999999999869210E-01     0.0000000000000000E+00 
    1.0000000000000000E+00     4.9999999999899403E-02     0.0000000000000000E+00 
    1.0000000000000000E+00     5.9999999999894504E-01     0.0000000000000000E+00 
    1.0000000000000000E+00     6.4999999999907687E-01     0.0000000000000000E+00 
    1.0000000000000000E+00     6.9999999999920870E-01     0.0000000000000000E+00 
    1.0000000000000000E+00     7.4999999999934064E-01     0.0000000000000000E+00 
    1.0000000000000000E+00     7.9999999999947247E-01     0.0000000000000000E+00 
    1.0000000000000000E+00     8.4999999999960441E-01     0.0000000000000000E+00 
    1.0000000000000000E+00     8.9999999999973623E-01     0.0000000000000000E+00 
    1.0000000000000000E+00     9.4999999999986817E-01     0.0000000000000000E+00 
    4.7500000000196618E-01     1.0000000000000000E+00     0.0000000000000000E+00 
    9.2499999999968763E-01     1.0000000000000000E+00     0.0000000000000000E+00 
    8.7499999999961831E-01     1.0000000000000000E+00     0.0000000000000000E+00 
    8.2499999999982654E-01     1.0000000000000000E+00     0.0000000000000000E+00 
    7.7500000000017355E-01     1.0000000000000000E+00     0.0000000000000000E+00 
    7.2500000000052045E-01     1.0000000000000000E+00     0.0000000000000000E+00 
    6.7500000000086724E-01     1.0000000000000000E+00     0.0000000000000000E+00 
    6.2500000000121403E-01     1.0000000000000000E+00     0.0000000000000000E+00 
    5.7500000000156093E-01     1.0000000000000000E+00     0.0000000000000000E+00 
    5.2500000000189684E-01     1.0000000000000000E+00     0.0000000000000000E+00 
    9.7499999999989595E-01     1.0000000000000000E+00     0.0000000000000000E+00 
    4.2500000000176902E-01     1.0000000000000000E+00     0.0000000000000000E+00 
    3.7500000000156092E-01     1.0000000000000000E+00     0.0000000000000000E+00 
    3.2500000000135282E-01     1.0000000000000000E+00     0.0000000000000000E+00 
    2.7500000000114472E-01     1.0000000000000000E+00     0.0000000000000000E+00 
    2.2500000000093659E-01     1.0000000000000000E+00     0.0000000000000000E+00 
    1.7500000000072849E-01     1.0000000000000000E+00     0.0000000000000000E+00 
    1.2500000000052039E-01     1.0000000000000000E+00     0.0000000000000000E+00 
    7.5000000000312261E-02     1.0000000000000000E+00     0.0000000000000000E+00 
    2.5000000000104109E-02     1.0000000000000000E+00     0.0000000000000000E+00 
    4.5000000000187301E-01     1.0000000000000000E+00     0.0000000000000000E+00 
    8.9999999999958358E-01     1.0000000000000000E+00     0.0000000000000000E+00 
    8.4999999999965303E-01     1.0000000000000000E+00     0.0000000000000000E+00 
    8.0000000000000004E-01     1.0000000000000000E+00     0.0000000000000000E+00 
    7.5000000000034706E-01     1.0000000000000000E+00     0.0000000000000000E+00 
    7.0000000000069384E-01     1.0000000000000000E+00     0.0000000000000000E+00 
    6.5000000000104063E-01     1.0000000000000000E+00     0.0000000000000000E+00 
    6.0000000000138742E-01     1.0000000000000000E+00     0.0000000000000000E+00 
    5.5000000000173432E-01     1.0000000000000000E+00     0.0000000000000000E+00 
    5.0000000000205946E-01     1.0000000000000000E+00     0.0000000000000000E+00 
    9.4999999999979179E-01     1.0000000000000000E+00     0.0000000000000000E+00 
    4.0000000000166491E-01     1.0000000000000000E+00     0.0000000000000000E+00 
    3.5000000000145681E-01     1.0000000000000000E+00     0.0000000000000000E+00 
    3.0000000000124871E-01     1.0000000000000000E+00     0.0000000000000000E+00 
    2.5000000000104061E-01     1.0000000000000000E+00     0.0000000000000000E+00 
    2.0000000000083251E-01     1.0000000000000000E+00     0.0000000000000000E+00 
    1.5000000000062441E-01     1.0000000000000000E+00     0.0000000000000000E+00 
    1.0000000000041630E-01     1.0000000000000000E+00     0.0000000000000000E+00 
[...]
CELL_DATA 1600 
SCALARS Pressure double 1 
LOOKUP_TABLE default 

    9.7910991793867719E-01 
    9.3292470871758237E-01 
    9.3051401766146058E-01 
    9.6342955044443246E-01 
    9.5088186183099155E-01 
    9.2686735106195284E-01 
    9.2266228568285025E-01 
    9.4061128114141035E-01 
    9.3202239897076322E-01 
    9.1828018362781216E-01 
    9.1393113191644904E-01 
    9.2470227518596770E-01 
    9.1835981065526007E-01 
    9.0972589742259735E-01 
    9.0571810871306724E-01 
    9.1278622878459659E-01 
    9.0782918852893224E-01 
    9.0192899676821403E-01 
    8.9836187910027021E-01 
    9.0337563879120841E-01 
    8.9934031651048718E-01 
    8.9501059994041554E-01 
    8.9186440587936733E-01 
    8.9565792523206000E-01 
    8.9227774136591254E-01 
    8.8891072040284513E-01 
    8.8613668302768034E-01 
    8.8915984135699722E-01 
    8.8627242486827151E-01 
    8.8352996590512889E-01 
    8.8107917186734486E-01 
    8.8358988871162414E-01 
    8.8109142180929090E-01 
    8.7877399391058753E-01 
    8.7660524237593429E-01 
    8.7875996653710386E-01 
    8.7658144108346669E-01 
    8.7456480218655275E-01 
    8.7264555635840801E-01 
    8.7454415016328813E-01 
    8.7263833337179064E-01 
    8.7084129645740393E-01 
    8.6914663146787996E-01 
    8.7085581535517231E-01 
    8.6918973219577889E-01 
    8.6755690112051387E-01 
    8.6606809657806660E-01 
    8.6763431550339098E-01 
    8.6618472068312080E-01 
    8.6467678958082306E-01 
    8.6338007015972995E-01 
    8.6483688938225722E-01 
    8.6358743864738119E-01 
    8.6217549250125869E-01 
    8.6106102829003006E-01 
    8.6243357114506758E-01 
    8.6137300210636747E-01 
    8.6003502673064713E-01 
    8.5909618035368418E-01 
    8.6040389955470542E-01 
    8.5952483487592268E-01 
    8.5824349550655199E-01 
    8.5747626581622949E-01 
    8.5873474068868560E-01 
    8.5803287149251850E-01 
    8.5679404501713774E-01 
    8.5619660978198098E-01 
    8.5741875723178596E-01 
    8.5689212388011515E-01 
    8.5568388663344919E-01 
    8.5525577403408204E-01 
    8.5645271272100287E-01 
    8.5609983266971146E-01 
    8.5491169353111163E-01 
    8.5464952587285092E-01 
    8.5583129956028858E-01 
    8.5564161620224477E-01 
    8.5446380794149079E-01 
    8.5435671229572674E-01 
    8.5553248562047768E-01 
    9.0946942395403485E-01 
    8.9270582543922583E-01 
    8.9234077068236406E-01 
    9.0870511919982722E-01 
    9.0730106713016601E-01 
    8.9163492518812459E-01 
    8.9062977363904450E-01 
    9.0541354939051244E-01 
    9.0318812119806469E-01 
    8.8937469223700927E-01 
    8.8792028207499785E-01 
    9.0074552552564890E-01 
    8.9817973497526549E-01 
    8.8631416405718610E-01 
    8.8459875706934810E-01 
    8.9556089585185650E-01 
    8.9293974652747665E-01 
    8.8281042929377074E-01 
    8.8097950103095091E-01 
    8.9035199844720070E-01 
    8.8782210648955229E-01 
    8.7913071727985814E-01 
    8.7728393610908517E-01 
    8.8536629222951879E-01 
    8.8299486925977844E-01 
    8.7545487667761834E-01 
    8.7365583882529374E-01 
    8.8071398402061474E-01 
    8.7852689476836288E-01 
    8.7189635038860192E-01 
    8.7018372545471345E-01 
    8.7643489818665599E-01 
    8.7443799328764349E-01 
    8.6852353223909096E-01 
    8.6691997732951509E-01 
    8.7253535252440517E-01 
    8.7072565304099347E-01 
    8.6537621657703523E-01 
    8.6389460384409866E-01 
    8.6900730734157450E-01 
    8.6737862214398442E-01 
    8.6247688835256497E-01 
    8.6112437024548316E-01 
    8.6583790628495128E-01 
    8.6438354271347084E-01 
    8.5983802261401632E-01 
    8.5861858687783976E-01 
    8.6301403535400045E-01 
    8.6172803854099889E-01 
    8.5746664715925236E-01 
    8.5638268820414054E-01 
    8.6052437450778185E-01 
    8.5940204281726162E-01 
    8.5536714048303597E-01 
    8.5442041533613400E-01 
    8.5836022446950455E-01 
    8.5739828256914807E-01 
    8.5354293237287748E-01 
    8.5273514073901313E-01 
    8.5651576075575164E-01 
    8.5571237992625948E-01 
    8.5199753519438692E-01 
    8.5133066687033032E-01 
    8.5498803277011604E-01 
    8.5434277336176756E-01 
    8.5073514612922974E-01 
    8.5021162837478681E-01 
    8.5377679283308328E-01 
    8.5329035498656902E-01 
    8.4976075599645085E-01 
    8.4938298639491105E-01 
    8.5288362241161608E-01 
    8.5255620805932864E-01 
    8.4907814325275233E-01 
    8.4884436680905295E-01 
    8.5230611635256193E-01 
    8.5212799304547715E-01 
    8.4867643334935383E-01 
    8.4857846997528663E-01 
    8.5202483757876801E-01 
    8.7879333373675850E-01 
    8.6630471799812347E-01 
    8.6616580962733758E-01 
    8.7858021481122794E-01 
    8.7816144864711110E-01 
    8.6589104319318844E-01 
    8.6548664100257611E-01 
    8.7755144119055895E-01 
    8.7676941558574384E-01 
    8.6496136582308336E-01 
    8.6432589715056229E-01 
    8.7583743127345670E-01 
    8.7477865297936652E-01 
    8.6359218354865652E-01 
    8.6277284363978346E-01 
    8.7361601200662919E-01 
    8.7237127477236520E-01 
    8.6188065722672558E-01 
    8.6092816345206136E-01 
    8.7106446806064763E-01 
    8.6971358587507475E-01 
    8.5992736578507190E-01 
    8.5888953333350770E-01 
    8.6833450148343960E-01 
    8.6694101812945346E-01 
    8.5782508298774618E-01 
    8.5674352555645161E-01 
    8.6554500560203262E-01 
    8.6415658347207258E-01 
    8.5565345992470210E-01 
    8.5456260129516326E-01 
    8.6278432355138845E-01 
    8.6143545344819783E-01 
    8.5347783204245953E-01 
    8.5240526618050105E-01 
    8.6011605006479031E-01 
    8.5883121685175501E-01 
    8.5135032067361005E-01 
    8.5031778871054053E-01 
    8.5758524201824593E-01 
    8.5638173709503385E-01 
    8.4931191158392227E-01 
    8.4833644699996491E-01 
    8.5522375658998107E-01 
    8.5411390022653211E-01 
    8.4739473252975794E-01 
    8.4648974355590878E-01 
    8.5305439961130858E-01 
    8.5204719127865125E-01 
    8.4562414551652387E-01 
    8.4480034054602238E-01 
    8.5109397800620856E-01 
    8.5019628015074966E-01 
    8.4402050879305912E-01 
    8.4328664478247084E-01 
    8.4935547855477755E-01 
    8.4857285033348817E-01 
    8.4260058918561498E-01 
    8.4196405624232895E-01 
    8.4784959854260689E-01 
    8.4718687624351363E-01 
    8.4137865672154999E-01 
    8.4084591534916020E-01 
    8.4658580448595233E-01 
    8.4604748120618289E-01 
    8.4036727898427632E-01 
    8.3994410456603907E-01 
    8.4557297115442187E-01 
    8.4516324885439154E-01 
    8.3957759727431613E-01 
    8.3926862697579507E-01 
    8.4481902372113915E-01 
    8.4454028716851215E-01 
    8.3901726511863950E-01 
    8.3882173865031839E-01 
    8.4432526957168974E-01 
    8.4416882330775689E-01 
    8.3867684302717938E-01 
    8.3858990084243790E-01 
    8.4407651054680644E-01 
    8.5456288050356921E-01 
    8.4319788389764672E-01 
    8.4312687443027179E-01 
    8.5446589175546661E-01 
    8.5427340524803952E-01 
    8.4298568381669847E-01 
    8.4277609970622036E-01 
    8.5398856756544250E-01 
    8.5361593424889171E-01 
    8.4250074928688024E-01 
    8.4216300888787610E-01 
    8.5316124607800603E-01 
    8.5263117130022514E-01 
    8.4176689157281614E-01 
    8.4131692384531198E-01 
    8.5203304104490207E-01 
    8.5137459801474613E-01 
    8.4081802008056161E-01 
    8.4027536152488747E-01 
    8.5066377196687704E-01 
    8.4990848955258791E-01 
    8.3969428490202136E-01 
    8.3908018391963657E-01 
    8.4911652126091219E-01 
    8.4829536468667455E-01 
    8.3843842542398506E-01 
    8.3777428069087623E-01 
    8.4745216104775623E-01 
    8.4659364060307407E-01 
    8.3709287139482103E-01 
    8.3639912914923864E-01 
    8.4572609212242167E-01 
    8.4485535159320335E-01 
    8.3569776711848132E-01 
    8.3499326201568735E-01 
    8.4398680571650675E-01 
    8.4312540629165345E-01 
    8.3428984476696733E-01 
    8.3359149819504463E-01 
    8.4227569220444831E-01 
    8.4144181634729953E-01 
    8.3290196021487428E-01 
    8.3222473120907980E-01 
    8.4062757536563615E-01 
    8.3983644062204488E-01 
    8.3156308443945914E-01 
    8.3092007853601813E-01 
    8.3907158918862734E-01 
    8.3833593401936657E-01 
    8.3029857127586781E-01 
    8.2970123401290352E-01 
    8.3763215272208547E-01 
    8.3696271454852178E-01 
    8.2913056623794223E-01 
    8.2858890982689570E-01 
    8.3632990535171892E-01 
    8.3573585031030517E-01 
    8.2807846254754769E-01 
    8.2760129028246299E-01 
    8.3518253414377064E-01 
    8.3467181820153358E-01 
    8.2715933701863331E-01 
    8.2675443048068686E-01 
    8.3420545278622393E-01 
    8.3378508019027653E-01 
    8.2638827806474369E-01 
    8.2606243938087331E-01 
    8.3341221617398709E-01 
    8.3308817849952621E-01 
    8.2577824201261940E-01 
    8.2553656556408084E-01 
    8.3281388924359467E-01 
    8.3258939409464339E-01 
    8.2533733619910388E-01 
    8.2517841957689597E-01 
    8.3241279630624865E-01 
    8.3227863607604180E-01 
    8.2505387842212052E-01 
    8.2497542823019010E-01 
    8.3219631703068930E-01 
    8.3198881691449100E-01 
    8.2079578277508702E-01 
    8.2075373675483509E-01 
    8.3193495111437721E-01 
    8.3182772786374337E-01 
    8.2066998339254416E-01 
    8.2054526674716766E-01 
    8.3166825884971074E-01 
    8.3145819012518873E-01 
    8.2038069089679744E-01 
    8.2017770112743926E-01 
    8.3119966212573193E-01 
    8.3089525616355442E-01 
    8.1993805643145667E-01 
    8.1966379665300315E-01 
    8.3054793290553064E-01 
    8.3016096672822937E-01 
    8.1935720625056341E-01 
    8.1902077629885650E-01 
    8.2973787922063180E-01 
    8.2928237454238929E-01 
    8.1865716614258977E-01 
    8.1826916590349530E-01 
    8.2879827874911005E-01 
    8.2828948459692009E-01 
    8.1785966081481709E-01 
    8.1743159812424970E-01 
    8.2775990277903033E-01 
    8.2721342005897314E-01 
    8.1698795708126204E-01 
    8.1653172231940518E-01 
    8.2665386436564325E-01 
    8.2608497660877633E-01 
    8.1606586076637266E-01 
    8.1559330206815228E-01 
    8.2551038875531257E-01 
    8.2493360756674805E-01 
    8.1511692239926004E-01 
    8.1463953144701240E-01 
    8.2435800332180198E-01 
    8.2378680282349792E-01 
    8.1416386230077309E-01 
    8.1369256394275014E-01 
    8.2322308600169980E-01 
    8.2266978545933056E-01 
    8.1322819602047991E-01 
    8.1277322557748122E-01 
    8.2212968836252498E-01 
    8.2160544013280956E-01 
    8.1233002542219301E-01 
    8.1190087381964160E-01 
    8.2109954945456498E-01 
    8.2061439415351756E-01 
    8.1148795518571526E-01 
    8.1109336143350730E-01 
    8.2015222751650396E-01 
    8.1971518457808734E-01 
    8.1071909352872851E-01 
    8.1036706256907221E-01 
    8.1930528772110522E-01 
    8.1892445042830309E-01 
    8.1003908908185640E-01 
    8.0973689763494994E-01 
    8.1857447664472349E-01 
    8.1825704958614609E-01 
    8.0946209981383721E-01 
    8.0921614904386896E-01 
    8.1797369483830507E-01 
    8.1772568235865151E-01 
    8.0900023020498868E-01 
    8.0881500625534886E-01 
    8.1751379075355413E-01 
    8.1733777302564081E-01 
    8.0866005707312227E-01 
    8.0853264930899416E-01 
    8.1719519080051017E-01 
    8.1707945546508620E-01 
    8.0842548961102612E-01 
    8.0835458449881636E-01 
    8.1700459438473794E-01 
    8.0952669307085690E-01 
    7.9811949335181431E-01 
    7.9809194412333573E-01 
    8.0949304912188469E-01 
    8.0942600320021085E-01 
    7.9803702930160314E-01 
    7.9795514699757786E-01 
    8.0932608514410920E-01 
    8.0919407954710731E-01 
    7.9784688360057965E-01 
    7.9771300922619859E-01 
    8.0903101657756715E-01 
    8.0883815686289884E-01 
    7.9755446888683390E-01 
    7.9737237118571636E-01 
    8.0861697278861555E-01 
    8.0836912735061306E-01 
    7.9716797527940542E-01 
    7.9694267661279694E-01 
    8.0809645142620523E-01 
    8.0780092022124284E-01 
    7.9669799185401546E-01 
    7.9643554341399792E-01 
    8.0748462956595624E-01 
    8.0714977264297361E-01 
    7.9615704389726971E-01 
    7.9586428078927363E-01 
    8.0679861763440008E-01 
    8.0643348667465431E-01 
    7.9555910164112342E-01 
    7.9524339996620208E-01 
    8.0605673639694897E-01 
    8.0567074026839081E-01 
    7.9491910201665394E-01 
    7.9458815456334009E-01 
    8.0527787282504015E-01 
    8.0488049584604660E-01 
    7.9425251376180073E-01 
    7.9391413515021114E-01 
    8.0448094644607249E-01 
    8.0408152701757263E-01 
    7.9357496479381695E-01 
    7.9323693156394715E-01 
    8.0368449691818067E-01 
    8.0329206577189027E-01 
    7.9290194051797047E-01 
    7.9257186732832974E-01 
    8.0290638823352833E-01 
    8.0252956005090037E-01 
    7.9224855369177705E-01 
    7.9193380362986954E-01 
    8.0216361524284541E-01 
    8.0181052418520593E-01 
    7.9162938055977150E-01 
    7.9133700495110193E-01 
    8.0147219234233047E-01 
    8.0115045925832662E-01 
    7.9105835224410359E-01 
    7.9079505037191922E-01 
    8.0084709712898483E-01 
    8.0056380755131074E-01 
    7.9054867541232199E-01 
    7.9032074188052692E-01 
    8.0030221323271533E-01 
    8.0006383701828021E-01 
    7.9011267943477492E-01 
    7.8992577756516291E-01 
    7.9985005059832048E-01 
    7.9966195484401592E-01 
    7.8976106001091961E-01 
    7.8961901232807119E-01 
    7.9950011397810550E-01 
    7.9936397512847301E-01 
    7.8949899090979370E-01 
    7.8939789755576717E-01 
    7.9925058285869710E-01 
    7.9915204124059036E-01 
    7.8930751766412066E-01 
    7.8924622606621064E-01 
    7.9908576383872543E-01 
    7.8653196655470781E-01 
    7.7473556878373373E-01 
    7.7471577024310501E-01 
    7.8650888708911093E-01 
    7.8646287499998402E-01 
    7.7467629605410204E-01 
    7.7461740438640958E-01 
    7.8639424402188185E-01 
    7.8630345272749458E-01 
    7.7453946923159822E-01 
    7.7444297924896854E-01 
    7.8619110226058719E-01 
    7.8605793086516607E-01 
    7.7432853416048519E-01 
    7.7419683982031096E-01 
    7.8590480663709628E-01 
    7.8573271903583641E-01 
    7.7404870237317147E-01 
    7.7388502172273943E-01 
    7.8554276947711488E-01 
    7.8533616126297623E-01 
    7.7370678447395058E-01 
    7.7351505649122532E-01 
    7.8511418907784869E-01 
    7.8487822826001619E-01 
    7.7331097520266234E-01 
    7.7309574177078222E-01 
    7.8462972403923914E-01 
    7.8437018091111521E-01 
    7.7287061324080553E-01 
    7.7263689476710928E-01 
    7.8410115229706534E-01 
    7.8382423061615802E-01 
    7.7239593200736922E-01 
    7.7214910376230472E-01 
    7.8354103787224427E-01 
    7.8325321683785876E-01 
    7.7189781492725329E-01 
    7.7164348981042308E-01 
    7.8296242289581064E-01 
    7.8267031658080422E-01 
    7.7138756586186930E-01 
    7.7113148784718166E-01 
    7.8237855684706670E-01 
    7.8208879507368612E-01 
    7.7087670249037799E-01 
    7.7062465360088050E-01 
    7.8180266980645685E-01 
    7.8152180222170509E-01 
    7.7037677768784985E-01 
    7.7013450004727524E-01 
    7.8124779227983343E-01 
    7.8098221550508051E-01 
    7.6989923127291637E-01 
    7.6967236406732220E-01 
    7.8072662026217643E-01 
    7.8048252524850814E-01 
    7.6945527005392211E-01 
    7.6924929586630175E-01 
    7.8025141655186825E-01 
    7.8003474271368245E-01 
    7.6905575675521387E-01 
    7.6887592351719292E-01 
    7.7983390403339214E-01 
    7.7965022734969092E-01 
    7.6871099325212311E-01 
    7.6856202414319974E-01 
    7.7948490730509623E-01 
    7.7933887612174679E-01 
    7.6842979586289428E-01 
    7.6831451826475305E-01 
    7.7921252661386364E-01 
    7.7910511069286292E-01 
    7.6821519177962316E-01 
    7.6812811833639716E-01 
    7.7901337074459864E-01 
    7.7892934889901699E-01 
    7.6804671051617746E-01 
    7.6799341172026003E-01 
    7.7887264419173996E-01 
    7.6271155967978888E-01 
    7.5044851936689372E-01 
    7.5043276139490311E-01 
    7.6269413887223314E-01 
    7.6265940431189239E-01 
    7.5040134211945986E-01 
    7.5035445834095682E-01 
    7.6260757715096106E-01 
    7.6253897486443334E-01 
    7.5029239032080464E-01 
    7.5021550126154901E-01 
    7.6245401058744311E-01 
    7.6235319057296558E-01 
    7.5012423537380268E-01 
    7.5001911513007713E-01 
    7.6223711062654087E-01 
    7.6210645184882053E-01 
    7.4990073797292434E-01 
    7.4976977260266375E-01 
    7.6196197584855052E-01 
    7.6180451953717243E-01 
    7.4962695492420206E-01 
    7.4947308371544952E-01 
    7.6163498959719467E-01 
    7.6145435670757955E-01 
    7.4930901607231992E-01 
    7.4913566268106691E-01 
    7.6126364960358817E-01 
    7.6106394904342678E-01 
    7.4895398296542326E-01 
    7.4876498015273596E-01 
    7.6085638174864512E-01 
    7.6064211437935225E-01 
    7.4856969629957115E-01 
    7.4836920731290879E-01 
    7.6042234759885530E-01 
    7.6019831027540241E-01 
    7.4816461799786638E-01 
    7.4795705715670779E-01 
    7.5997125386138176E-01 
    7.5974244698261073E-01 
    7.4774767275632692E-01 
    7.4753762717181782E-01 
    7.5951317026204479E-01 
    7.5928471139282183E-01 
    7.4732809250097099E-01 
    7.4712024592627235E-01 
    7.5905836046379171E-01 
    7.5883540552386408E-01 
    7.4691526507295602E-01 
    7.4671432326503773E-01 
    7.5861712834379469E-01 
    7.5840480028224555E-01 
    7.4651858449755737E-01 
    7.4632919778125217E-01 
    7.5819967805651933E-01 
    7.5800299898368040E-01 
    7.4614729018091686E-01 
    7.4597395714248504E-01 
    7.5781597471707141E-01 
    7.5763978124616271E-01 
    7.4581024710796517E-01 
    7.4565713401726907E-01 
    7.5747554010742757E-01 
    7.5732427991113005E-01 
    7.4551546454436146E-01 
    7.4538585443338823E-01 
    7.5718685633256699E-01 
    7.5706378868837942E-01 
    7.4526848398354240E-01 
    7.4516267688249693E-01 
    7.5695492386058905E-01 
    7.5685868036313586E-01 
    7.4506591765117947E-01 
    7.4497127817308528E-01 
    7.5677020673492368E-01 
    7.5668611021824284E-01 
    7.4488041910642466E-01 
    7.4482972285879478E-01 
    7.5663469252014903E-01 
    7.3794075373643275E-01 
    7.2518730515624508E-01 
    7.2517316519321151E-01 
    7.3792606518563808E-01 
    7.3789677829393474E-01 
    7.2514497207959594E-01 
    7.2510289961739915E-01 
    7.3785307474268058E-01 
    7.3779521173340001E-01 
    7.2504719309296839E-01 
    7.2497816848804597E-01 
    7.3772352140174835E-01 
    7.3763840922456159E-01 
    7.2489621105759905E-01 
    7.2480177335967355E-01 
    7.3754035176527033E-01 
    7.3742989397187875E-01 
    7.2469537290295949E-01 
    7.2457758949237394E-01 
    7.3730764612703181E-01 
    7.3717428050977940E-01 
    7.2444906231917594E-01 
    7.2431048682891752E-01 
    7.3703052781348033E-01 
    7.3687717335774938E-01 
    7.2416261139496096E-01 
    7.2400623382267337E-01 
    7.3671505312895258E-01 
    7.3654504968141365E-01 
    7.2384219770789404E-01 
    7.2367138867203140E-01 
    7.3636808792929120E-01 
    7.3618513085650183E-01 
    7.2349473049469815E-01 
    7.2331318116284926E-01 
    7.3599717516882368E-01 
    7.3580524690808535E-01 
    7.2312772885258592E-01 
    7.2293938785571321E-01 
    7.3561039704271813E-01 
    7.3541369704136872E-01 
    7.2274919445714014E-01 
    7.2255820276015292E-01 
    7.3521623442563921E-01 
    7.3501910828268313E-01 
    7.2236748044255916E-01 
    7.2217810440415198E-01 
    7.3482342469505502E-01 
    7.3463029200806051E-01 
    7.2199115622810883E-01 
    7.2180771731237670E-01 
    7.3444081579210574E-01 
    7.3425609324502394E-01 
    7.2162886340361532E-01 
    7.2145565802484035E-01 
    7.3407720656456621E-01 
    7.3390521438698597E-01 
    7.2128914379395714E-01 
    7.2113032959296364E-01 
    7.3374113947374209E-01 
    7.3358594888957951E-01 
    7.2098016938073950E-01 
    7.2083952410011720E-01 
    7.3344051893439555E-01 
    7.3330556941125324E-01 
    7.2070908992334415E-01 
    7.2058926057092854E-01 
    7.3318153753145676E-01 
    7.3306833141041627E-01 
    7.2047985520959223E-01 
    7.2037952393930693E-01 