# vtk DataFile Version 2.0
Pressure Field Data 
ASCII 
DATASET UNSTRUCTURED_GRID 

POINTS 1681 double 

    0.0000000000000000E+00     0.0000000000000000E+00     0.0000000000000000E+00 
    1.0000000000000000E+00     0.0000000000000000E+00     0.0000000000000000E+00 
    1.0000000000000000E+00     1.0000000000000000E+00     0.0000000000000000E+00 
    0.0000000000000000E+00     1.0000000000000000E+00     0.0000000000000000E+00 
    5.2499999999875258E-01     0.0000000000000000E+00     0.0000000000000000E+00 
    7.4999999999856765E-02     0.0000000000000000E+00     0.0000000000000000E+00 
    1.2499999999975850E-01     0.0000000000000000E+00     0.0000000000000000E+00 
    1.7499999999962990E-01     0.0000000000000000E+00     0.0000000000000000E+00 
    2.2499999999948389E-01     0.0000000000000000E+00     0.0000000000000000E+00 
    2.7499999999933789E-01     0.0000000000000000E+00     0.0000000000000000E+00 
    3.2499999999919210E-01     0.0000000000000000E+00     0.0000000000000000E+00 
    3.7499999999904610E-01     0.0000000000000000E+00     0.0000000000000000E+00 
    4.2499999999890020E-01     0.0000000000000000E+00     0.0000000000000000E+00 
    4.7499999999875958E-01     0.0000000000000000E+00     0.0000000000000000E+00 
    2.4999999999949701E-02     0.0000000000000000E+00     0.0000000000000000E+00 
    5.7499999999887907E-01     0.0000000000000000E+00     0.0000000000000000E+00 
    6.2499999999901101E-01     0.0000000000000000E+00     0.0000000000000000E+00 
    6.7499999999914273E-01     0.0000000000000000E+00     0.0000000000000000E+00 
    7.2499999999927467E-01     0.0000000000000000E+00     0.0000000000000000E+00 
    7.7499999999940661E-01     0.0000000000000000E+00     0.0000000000000000E+00 
    8.2499999999953844E-01     0.0000000000000000E+00     0.0000000000000000E+00 
    8.7499999999967026E-01     0.0000000000000000E+00     0.0000000000000000E+00 
    9.2499999999980220E-01     0.0000000000000000E+00     0.0000000000000000E+00 
    9.7499999999993414E-01     0.0000000000000000E+00     0.0000000000000000E+00 
    5.4999999999881310E-01     0.0000000000000000E+00     0.0000000000000000E+00 
    9.9999999999814140E-02     0.0000000000000000E+00     0.0000000000000000E+00 
    1.4999999999970290E-01     0.0000000000000000E+00     0.0000000000000000E+00 
    1.9999999999955689E-01     0.0000000000000000E+00     0.0000000000000000E+00 
    2.4999999999941089E-01     0.0000000000000000E+00     0.0000000000000000E+00 
    2.9999999999926502E-01     0.0000000000000000E+00     0.0000000000000000E+00 
    3.4999999999911913E-01     0.0000000000000000E+00     0.0000000000000000E+00 
    3.9999999999897312E-01     0.0000000000000000E+00     0.0000000000000000E+00 
    4.4999999999882723E-01     0.0000000000000000E+00     0.0000000000000000E+00 
    4.9999999999869210E-01     0.0000000000000000E+00     0.0000000000000000E+00 
    4.9999999999899403E-02     0.0000000000000000E+00     0.0000000000000000E+00 
    5.9999999999894504E-01     0.0000000000000000E+00     0.0000000000000000E+00 
    6.4999999999907687E-01     0.0000000000000000E+00     0.0000000000000000E+00 
    6.9999999999920870E-01     0.0000000000000000E+00     0.0000000000000000E+00 
    7.4999999999934064E-01     0.0000000000000000E+00     0.0000000000000000E+00 
    7.9999999999947247E-01     0.0000000000000000E+00     0.0000000000000000E+00 
    8.4999999999960441E-01     0.0000000000000000E+00     0.0000000000000000E+00 
    8.9999999999973623E-01     0.0000000000000000E+00     0.0000000000000000E+00 
    9.4999999999986817E-01     0.0000000000000000E+00     0.0000000000000000E+00 
    1.0000000000000000E+00     5.2499999999875258E-01     0.0000000000000000E+00 
    1.0000000000000000E+00     7.4999999999856765E-02     0.0000000000000000E+00 
    1.0000000000000000E+00     1.2499999999975850E-01     0.0000000000000000E+00 
    1.0000000000000000E+00     1.7499999999962990E-01     0.0000000000000000E+00 
    1.0000000000000000E+00     2.2499999999948389E-01     0.0000000000000000E+00 
    1.0000000000000000E+00     2.7499999999933789E-01     0.0000000000000000E+00 
    1.0000000000000000E+00     3.2499999999919210E-01     0.0000000000000000E+00 
    1.0000000000000000E+00     3.7499999999904610E-01     0.0000000000000000E+00 
    1.0000000000000000E+00     4.2499999999890020E-01     0.0000000000000000E+00 
    1.0000000000000000E+00     4.7499999999875958E-01     0.0000000000000000E+00 
    1.0000000000000000E+00     2.4999999999949701E-02     0.0000000000000000E+00 
    1.0000000000000000E+00     5.7499999999887907E-01     0.0000000000000000E+00 
    1.0000000000000000E+00     6.2499999999901101E-01     0.0000000000000000E+00 
    1.0000000000000000E+00     6.7499999999914273E-01     0.0000000000000000E+00 
    1.0000000000000000E+00     7.2499999999927467E-01     0.0000000000000000E+00 
    1.0000000000000000E+00     7.7499999999940661E-01     0.0000000000000000E+00 
    1.0000000000000000E+00     8.2499999999953844E-01     0.0000000000000000E+00 
    1.0000000000000000E+00     8.7499999999967026E-01     0.0000000000000000E+00 
    1.0000000000000000E+00     9.2499999999980220E-01     0.0000000000000000E+00 
    1.0000000000000000E+00     9.7499999999993414E-01     0.0000000000000000E+00 
    1.0000000000000000E+00     5.4999999999881310E-01     0.0000000000000000E+00 
    1.0000000000000000E+00     9.9999999999814140E-02     0.0000000000000000E+00 
    1.0000000000000000E+00     1.4999999999970290E-01     0.0000000000000000E+00 
    1.0000000000000000E+00     1.9999999999955689E-01     0.0000000000000000E+00 
    1.0000000000000000E+00     2.4999999999941089E-01     0.0000000000000000E+00 
    1.0000000000000000E+00     2.9999999999926502E-01     0.0000000000000000E+00 
    1.0000000000000000E+00     3.4999999999911913E-01     0.0000000000000000E+00 
    1.0000000000000000E+00     3.9999999999897312E-01     0.0000000000000000E+00 
    1.0000000000000000E+00     4.4999999999882723E-01     0.0000000000000000E+00 
    1.0000000000000000E+00     4.9999999999869210E-01     0.0000000000000000E+00 
    1.0000000000000000E+00     4.9999999999899403E-02     0.0000000000000000E+00 
    1.0000000000000000E+00     5.9999999999894504E-01     0.0000000000000000E+00 
    1.0000000000000000E+00     6.4999999999907687E-01     0.0000000000000000E+00 
    1.0000000000000000E+00     6.9999999999920870E-01     0.0000000000000000E+00 
    1.0000000000000000E+00     7.4999999999934064E-01     0.0000000000000000E+00 
    1.0000000000000000E+00     7.9999999999947247E-01     0.0000000000000000E+00 
    1.0000000000000000E+00     8.4999999999960441E-01     0.0000000000000000E+00 
    1.0000000000000000E+00     8.9999999999973623E-01     0.0000000000000000E+00 
    1.0000000000000000E+00     9.4999999999986817E-01     0.0000000000000000E+00 
    4.7500000000196618E-01     1.0000000000000000E+00     0.0000000000000000E+00 
    9.2499999999968763E-01     1.0000000000000000E+00     0.0000000000000000E+00 
    8.7499999999961831E-01     1.0000000000000000E+00     0.0000000000000000E+00 
    8.2499999999982654E-01     1.0000000000000000E+00     0.0000000000000000E+00 
    7.7500000000017355E-01     1.0000000000000000E+00     0.0000000000000000E+00 
    7.2500000000052045E-01     1.0000000000000000E+00     0.0000000000000000E+00 
    6.7500000000086724E-01     1.0000000000000000E+00     0.0000000000000000E+00 
    6.2500000000121403E-01     1.0000000000000000E+00     0.0000000000000000E+00 
    5.7500000000156093E-01     1.0000000000000000E+00     0.0000000000000000E+00 
    5.2500000000189684E-01     1.0000000000000000E+00     0.0000000000000000E+00 
    9.7499999999989595E-01     1.0000000000000000E+00     0.0000000000000000E+00 
    4.2500000000176902E-01     1.0000000000000000E+00     0.0000000000000000E+00 
    3.7500000000156092E-01     1.0000000000000000E+00     0.0000000000000000E+00 
    3.2500000000135282E-01     1.0000000000000000E+00     0.0000000000000000E+00 
    2.7500000000114472E-01     1.0000000000000000E+00     0.0000000000000000E+00 
    2.2500000000093659E-01     1.0000000000000000E+00     0.0000000000000000E+00 
    1.7500000000072849E-01     1.0000000000000000E+00     0.0000000000000000E+00 
    1.2500000000052039E-01     1.0000000000000000E+00     0.0000000000000000E+00 
    7.5000000000312261E-02     1.0000000000000000E+00     0.0000000000000000E+00 
    2.5000000000104109E-02     1.0000000000000000E+00     0.0000000000000000E+00 
    4.5000000000187301E-01     1.0000000000000000E+00     0.0000000000000000E+00 
    8.9999999999958358E-01     1.0000000000000000E+00     0.0000000000000000E+00 
    8.4999999999965303E-01     1.0000000000000000E+00     0.0000000000000000E+00 
    8.0000000000000004E-01     1.0000000000000000E+00     0.0000000000000000E+00 
    7.5000000000034706E-01     1.0000000000000000E+00     0.0000000000000000E+00 
    7.0000000000069384E-01     1.0000000000000000E+00     0.0000000000000000E+00 
    6.5000000000104063E-01     1.0000000000000000E+00     0.0000000000000000E+00 
    6.0000000000138742E-01     1.0000000000000000E+00     0.0000000000000000E+00 
    5.5000000000173432E-01     1.0000000000000000E+00     0.0000000000000000E+00 
    5.0000000000205946E-01     1.0000000000000000E+00     0.0000000000000000E+00 
    9.4999999999979179E-01     1.0000000000000000E+00     0.0000000000000000E+00 
    4.0000000000166491E-01     1.0000000000000000E+00     0.0000000000000000E+00 
    3.5000000000145681E-01     1.0000000000000000E+00     0.0000000000000000E+00 
    3.0000000000124871E-01     1.0000000000000000E+00     0.0000000000000000E+00 
    2.5000000000104061E-01     1.0000000000000000E+00     0.0000000000000000E+00 
    2.0000000000083251E-01     1.0000000000000000E+00     0.0000000000000000E+00 
    1.5000000000062441E-01     1.0000000000000000E+00     0.0000000000000000E+00 
    1.0000000000041630E-01     1.0000000000000000E+00     0.0000000000000000E+00 
[...]
CELL_DATA 1600 
SCALARS Pressure double 1 
LOOKUP_TABLE default 

    1.3315459709775535E+00 
    1.2835937398763608E+00 
    1.2810528575538449E+00 
    1.3155839267314553E+00 
    1.3026505571388376E+00 
    1.2771710341623961E+00 
    1.2726515794356532E+00 
    1.2919407159250711E+00 
    1.2828693549095156E+00 
    1.2678903884441153E+00 
    1.2631083907461838E+00 
    1.2750301052067663E+00 
    1.2681370715445579E+00 
    1.2584250624378435E+00 
    1.2539013482299592E+00 
    1.2619860298580603E+00 
    1.2564288041830560E+00 
    1.2495647967318779E+00 
    1.2454242755325762E+00 
    1.2513562250954835E+00 
    1.2466866697032226E+00 
    1.2414785601244072E+00 
    1.2377213141817518E+00 
    1.2423582583993411E+00 
    1.2383234715668590E+00 
    1.2341439430443724E+00 
    1.2307371953656274E+00 
    1.2345453859180298E+00 
    1.2309950078008929E+00 
    1.2274920307474457E+00 
    1.2244000602204130E+00 
    1.2276493585904815E+00 
    1.2244900820862701E+00 
    1.2214537413859821E+00 
    1.2186464357080649E+00 
    1.2215024186689907E+00 
    1.2186744402259695E+00 
    1.2159723911542697E+00 
    1.2134266869525545E+00 
    1.2159964725933441E+00 
    1.2134606542211417E+00 
    1.2110051614186048E+00 
    1.2087043343038806E+00 
    1.2110605945909199E+00 
    1.2087911059215384E+00 
    1.2065213292958248E+00 
    1.2044537985202934E+00 
    1.2066479883199379E+00 
    1.2046278525617109E+00 
    1.2024998479931526E+00 
    1.2006579598803122E+00 
    1.2027279663199719E+00 
    1.2009461082942114E+00 
    1.1989269026735538E+00 
    1.1973056110156668E+00 
    1.1992804081164030E+00 
    1.1977291318956540E+00 
    1.1957929955750812E+00 
    1.1943875888079056E+00 
    1.1962903255151356E+00 
    1.1949610997466904E+00 
    1.1930867875269255E+00 
    1.1918851254549414E+00 
    1.1937360472902898E+00 
    1.1926037426956893E+00 
    1.1907703964316037E+00 
    1.1897152097168955E+00 
    1.1915392697369327E+00 
    1.1904944818181067E+00 
    1.1886681707981639E+00 
    1.1876952245045815E+00 
    1.1895100409074202E+00 
    1.1887499788418971E+00 
    1.1869537712100982E+00 
    1.1864276215109790E+00 
    1.1882143193059311E+00 
    1.1878584875273479E+00 
    1.1860778295561953E+00 
    1.1859030626912732E+00 
    1.1876807216331595E+00 
    1.2576941921127889E+00 
    1.2380090524184735E+00 
    1.2375830802873988E+00 
    1.2568499575628018E+00 
    1.2552885387138106E+00 
    1.2367557820296036E+00 
    1.2355711951261015E+00 
    1.2531732669214111E+00 
    1.2506570419053364E+00 
    1.2340821389280423E+00 
    1.2323432219070565E+00 
    1.2478677592579874E+00 
    1.2449061788536535E+00 
    1.2304063970754064E+00 
    1.2283185651197486E+00 
    1.2418488075585177E+00 
    1.2387523007083872E+00 
    1.2261205986169197E+00 
    1.2238472537466472E+00 
    1.2356578463335404E+00 
    1.2325949499018669E+00 
    1.2215275793070852E+00 
    1.2191855628541277E+00 
    1.2295844791751482E+00 
    1.2266410158422698E+00 
    1.2168408529860490E+00 
    1.2145094657662332E+00 
    1.2237746253783879E+00 
    1.2209921660859302E+00 
    1.2122044281981039E+00 
    1.2099363392962772E+00 
    1.2182982454872897E+00 
    1.2156959127205686E+00 
    1.2077138452667577E+00 
    1.2055440337893017E+00 
    1.2131871561583829E+00 
    1.2107732586945086E+00 
    1.2034327562732885E+00 
    1.2013848881333526E+00 
    1.2084550496258295E+00 
    1.2062330815631142E+00 
    1.1994045367944290E+00 
    1.1974952059902133E+00 
    1.2041077527989039E+00 
    1.2020793894391983E+00 
    1.1956599233250891E+00 
    1.1939013361216473E+00 
    1.2001482967569599E+00 
    1.1983147849917839E+00 
    1.1922217780950246E+00 
    1.1906233057777087E+00 
    1.1965791703254542E+00 
    1.1949417454776647E+00 
    1.1891076973510883E+00 
    1.1876763937393178E+00 
    1.1934027029338679E+00 
    1.1919619684633294E+00 
    1.1863303313356262E+00 
    1.1850695336794659E+00 
    1.1906188370610813E+00 
    1.1893711308493158E+00 
    1.1838921168478791E+00 
    1.1827919047050257E+00 
    1.1882132174834270E+00 
    1.1871314818025522E+00 
    1.1817528580759094E+00 
    1.1807361327030550E+00 
    1.1860941568694858E+00 
    1.1850483068492850E+00 
    1.1796995171149089E+00 
    1.1787967281386147E+00 
    1.1841020002347376E+00 
    1.1833941719848686E+00 
    1.1781312991516952E+00 
    1.1776456764951024E+00 
    1.1828854875708470E+00 
    1.1825469212595232E+00 
    1.1773222115363229E+00 
    1.1771605459155685E+00 
    1.1823777351001716E+00 
    1.2207521388670772E+00 
    1.2045336202059678E+00 
    1.2043511037719188E+00 
    1.2204885346365464E+00 
    1.2199690062895372E+00 
    1.2039893331695308E+00 
    1.2034554621344802E+00 
    1.2192093152266301E+00 
    1.2182306510068623E+00 
    1.2027595971219742E+00 
    1.2019141263158841E+00 
    1.2170575350750499E+00 
    1.2157159744270891E+00 
    1.2009330176945661E+00 
    1.1998311626859015E+00 
    1.2142320159808524E+00 
    1.2126307209057834E+00 
    1.1986238107409541E+00 
    1.1973261143336544E+00 
    1.2109355098694639E+00 
    1.2091678040696767E+00 
    1.1959527858013732E+00 
    1.1945178564085099E+00 
    1.2073468848043294E+00 
    1.2054899037492788E+00 
    1.1930345224646066E+00 
    1.1915150615638839E+00 
    1.2036119895869268E+00 
    1.2017264101576339E+00 
    1.1899708025876272E+00 
    1.1884121349388594E+00 
    1.1998447610671901E+00 
    1.1979771610879111E+00 
    1.1868485448190838E+00 
    1.1852886687449773E+00 
    1.1961324417802015E+00 
    1.1943183238488106E+00 
    1.1837403566733491E+00 
    1.1822107389194614E+00 
    1.1925415762198515E+00 
    1.1908081560388968E+00 
    1.1807062924529359E+00 
    1.1792329030961650E+00 
    1.1891233290265089E+00 
    1.1874917700559653E+00 
    1.1777959205652273E+00 
    1.1764002030177221E+00 
    1.1859176434593390E+00 
    1.1844046612015555E+00 
    1.1750501464020364E+00 
    1.1737496904472675E+00 
    1.1829561139843245E+00 
    1.1815748636941472E+00 
    1.1725022849903730E+00 
    1.1713107799103695E+00 
    1.1802632702597373E+00 
    1.1790229863167512E+00 
    1.1701771462175565E+00 
    1.1691017855387758E+00 
    1.1778544439497367E+00 
    1.1767555860104639E+00 
    1.1680818291722594E+00 
    1.1671070095670759E+00 
    1.1757188079551009E+00 
    1.1747235760462857E+00 
    1.1661491328188804E+00 
    1.1651462097971415E+00 
    1.1737194706240519E+00 
    1.1727041898356254E+00 
    1.1641692105774868E+00 
    1.1634004820727897E+00 
    1.1718630728274342E+00 
    1.1712438214889793E+00 
    1.1628251864624939E+00 
    1.1623950193896397E+00 
    1.1707851770551800E+00 
    1.1704795084365676E+00 
    1.1621081982818091E+00 
    1.1619647760003005E+00 
    1.1703267005234577E+00 
    1.1887013003966129E+00 
    1.1729018482701623E+00 
    1.1727958568878845E+00 
    1.1885656395599766E+00 
    1.1882960279365049E+00 
    1.1725849180500694E+00 
    1.1722714230790134E+00 
    1.1878963398192131E+00 
    1.1873721564188651E+00 
    1.1718588318325662E+00 
    1.1713515643313663E+00 
    1.1867305163054784E+00 
    1.1859796281597768E+00 
    1.1707548696628471E+00 
    1.1700746819350087E+00 
    1.1851285734337726E+00 
    1.1841870208914911E+00 
    1.1693174726759987E+00 
    1.1684901073337752E+00 
    1.1831649681137870E+00 
    1.1820725187416721E+00 
    1.1675997116086980E+00 
    1.1666535514683103E+00 
    1.1809196990683946E+00 
    1.1797163137612157E+00 
    1.1656589290060395E+00 
    1.1646230949059304E+00 
    1.1784718379323191E+00 
    1.1771953412800460E+00 
    1.1635531771941674E+00 
    1.1624561251796626E+00 
    1.1758954393345700E+00 
    1.1745802667207030E+00 
    1.1613386669665891E+00 
    1.1602072786018058E+00 
    1.1732574675825345E+00 
    1.1719341987281024E+00 
    1.1590681627319226E+00 
    1.1579272345133518E+00 
    1.1706171415103932E+00 
    1.1693125188481501E+00 
    1.1567901123549515E+00 
    1.1556621107533027E+00 
    1.1680261139882024E+00 
    1.1667632874591560E+00 
    1.1545482317993552E+00 
    1.1534531504842529E+00 
    1.1655289878767141E+00 
    1.1643277502228666E+00 
    1.1523811857705177E+00 
    1.1513362420503730E+00 
    1.1631636704480286E+00 
    1.1620403336229290E+00 
    1.1503216870735822E+00 
    1.1493400832930973E+00 
    1.1609606422157004E+00 
    1.1599264075817428E+00 
    1.1483925624045239E+00 
    1.1474773266664975E+00 
    1.1589373553546962E+00 
    1.1579887023622175E+00 
    1.1465859965962597E+00 
    1.1456939340403052E+00 
    1.1570651290584884E+00 
    1.1561243228519242E+00 
    1.1447374992884976E+00 
    1.1437430482103637E+00 
    1.1551201389163330E+00 
    1.1542074490321068E+00 
    1.1429157289806353E+00 
    1.1422833574931990E+00 
    1.1535110060483156E+00 
    1.1529740736544096E+00 
    1.1417822812470699E+00 
    1.1414061577125101E+00 
    1.1525714051033817E+00 
    1.1523028998638352E+00 
    1.1411552610674196E+00 
    1.1410297693070481E+00 
    1.1521686286621327E+00 
    1.1569255660004427E+00 
    1.1406401943912887E+00 
    1.1405681142326076E+00 
    1.1568395260846849E+00 
    1.1566681588430443E+00 
    1.1404244806663939E+00 
    1.1402104831728546E+00 
    1.1564130911749744E+00 
    1.1560766685009807E+00 
    1.1399278242263247E+00 
    1.1395786881232761E+00 
    1.1556619003794106E+00 
    1.1551723936665170E+00 
    1.1391657031712337E+00 
    1.1386918980200913E+00 
    1.1546122765560338E+00 
    1.1539861176356776E+00 
    1.1381606540829998E+00 
    1.1375756558618393E+00 
    1.1532988436357714E+00 
    1.1525556589534633E+00 
    1.1369408407862891E+00 
    1.1362603499338102E+00 
    1.1517619693802781E+00 
    1.1509233117917741E+00 
    1.1355384807285172E+00 
    1.1347796424326635E+00 
    1.1500452909219883E+00 
    1.1491335237742926E+00 
    1.1339883149578007E+00 
    1.1331690112410557E+00 
    1.1481935917296180E+00 
    1.1472310000023185E+00 
    1.1323262431550922E+00 
    1.1314644906377735E+00 
    1.1462511437484253E+00 
    1.1452592798213650E+00 
    1.1305881734142862E+00 
    1.1297016242902029E+00 
    1.1442605028481829E+00 
    1.1432597238853401E+00 
    1.1288090624181062E+00 
    1.1279145639714787E+00 
    1.1422616492641093E+00 
    1.1412707560627358E+00 
    1.1270220258088319E+00 
    1.1261351138091269E+00 
    1.1402912582938405E+00 
    1.1393270527144952E+00 
    1.1252571785489567E+00 
    1.1243910990733748E+00 
    1.1383816206868906E+00 
    1.1374578308750616E+00 
    1.1235389620137670E+00 
    1.1227013545112585E+00 
    1.1365575073474707E+00 
    1.1356804322512430E+00 
    1.1218757364460037E+00 
    1.1210524794676349E+00 
    1.1348219749688919E+00 
    1.1339671018176294E+00 
    1.1202038293680694E+00 
    1.1192600211338837E+00 
    1.1330728714822544E+00 
    1.1320838816602410E+00 
    1.1182505893603214E+00 
    1.1173933520396040E+00 
    1.1311389398843754E+00 
    1.1303969089772024E+00 
    1.1167229212930507E+00 
    1.1161713595029490E+00 
    1.1298103749902759E+00 
    1.1293410058392492E+00 
    1.1157296831069903E+00 
    1.1153981610496433E+00 
    1.1289886414269450E+00 
    1.1287535734238143E+00 
    1.1151770165031647E+00 
    1.1150664046356420E+00 
    1.1286359923483882E+00 
    1.1239587897004366E+00 
    1.1068225488217462E+00 
    1.1067677418102462E+00 
    1.1238967202591721E+00 
    1.1237729924186026E+00 
    1.1066584596461053E+00 
    1.1064954347622857E+00 
    1.1235885225572033E+00 
    1.1233446118401060E+00 
    1.1062797001624973E+00 
    1.1060125751003493E+00 
    1.1230429261046524E+00 
    1.1226854723262485E+00 
    1.1056956490956846E+00 
    1.1053307634667753E+00 
    1.1222745713333173E+00 
    1.1218128277592343E+00 
    1.1049199909286898E+00 
    1.1044656137854023E+00 
    1.1213030981779015E+00 
    1.1207484582742726E+00 
    1.1039701011752829E+00 
    1.1034360857636245E+00 
    1.1201521697942163E+00 
    1.1195176478943685E+00 
    1.1028663402012517E+00 
    1.1022637535764856E+00 
    1.1188484293704042E+00 
    1.1181481420818413E+00 
    1.1016313079723250E+00 
    1.1009720550918993E+00 
    1.1174204757109538E+00 
    1.1166691537836435E+00 
    1.1002890927130615E+00 
    1.0995855404359502E+00 
    1.1158979066205459E+00 
    1.1151104445361284E+00 
    1.0988645137122794E+00 
    1.0981290943357369E+00 
    1.1143104300787401E+00 
    1.1135014472218780E+00 
    1.0973822940589675E+00 
    1.0966270049767992E+00 
    1.1126869637716466E+00 
    1.1118702798752733E+00 
    1.0958659239001896E+00 
    1.0951014241044994E+00 
    1.1110544481745313E+00 
    1.1102421342507272E+00 
    1.0943353167934671E+00 
    1.0935683751015037E+00 
    1.1094353465940023E+00 
    1.1086348739060849E+00 
    1.0927993295360783E+00 
    1.0920226076682473E+00 
    1.1078390478439766E+00 
    1.1070408559750253E+00 
    1.0912226447162836E+00 
    1.0903566031857548E+00 
    1.1062203486127828E+00 
    1.1053216095570759E+00 
    1.0893561113862180E+00 
    1.0883149974722504E+00 
    1.1043040280530261E+00 
    1.1033408414916148E+00 
    1.0874491269715070E+00 
    1.0867514463404067E+00 
    1.1025767898098300E+00 
    1.1019536328438899E+00 
    1.0861574881149365E+00 
    1.0856622073892968E+00 
    1.1014335484185622E+00 
    1.1010168169886076E+00 
    1.0852657508201569E+00 
    1.0849682635352336E+00 
    1.1007039055636594E+00 
    1.1004951327929553E+00 
    1.0847698668263761E+00 
    1.0846706464097278E+00 
    1.1003906982478882E+00 
    1.0891908763063807E+00 
    1.0710352152969409E+00 
    1.0709893920538300E+00 
    1.0891413262638134E+00 
    1.0890424988773466E+00 
    1.0708979701564605E+00 
    1.0707614468015192E+00 
    1.0888949938211034E+00 
    1.0886996535278917E+00 
    1.0705805207148908E+00 
    1.0703560833083217E+00 
    1.0884575522085864E+00 
    1.0881699840915418E+00 
    1.0700892093482952E+00 
    1.0697811462099367E+00 
    1.0878384498980240E+00 
    1.0874646419096197E+00 
    1.0694333020054698E+00 
    1.0690472327921903E+00 
    1.0870504279447180E+00 
    1.0865978344900475E+00 
    1.0686246289703381E+00 
    1.0681673009043340E+00 
    1.0861090291732629E+00 
    1.0855863026975523E+00 
    1.0676771637174558E+00 
    1.0671562210992895E+00 
    1.0850320502748856E+00 
    1.0844487524763657E+00 
    1.0666065477924391E+00 
    1.0660302701286550E+00 
    1.0838389552442282E+00 
    1.0832052485459953E+00 
    1.0654295435061607E+00 
    1.0648065249111962E+00 
    1.0825502427187159E+00 
    1.0818765407629474E+00 
    1.0641633370444221E+00 
    1.0635020177100232E+00 
    1.0811867034056974E+00 
    1.0804832009480037E+00 
    1.0628244425691431E+00 
    1.0621321979560563E+00 
    1.0797683401673657E+00 
    1.0790441424865738E+00 
    1.0614263571013773E+00 
    1.0607070620115642E+00 
    1.0783121240121663E+00 
    1.0775728712908805E+00 
    1.0599726959900326E+00 
    1.0592181204143332E+00 
    1.0768251759006859E+00 
    1.0760641415990915E+00 
    1.0584304339450818E+00 
    1.0575767284875097E+00 
    1.0752765496762464E+00 
    1.0744271858223202E+00 
    1.0565819866529864E+00 
    1.0554423086519822E+00 
    1.0734412778661913E+00 
    1.0723478436685336E+00 
    1.0543829248176864E+00 
    1.0535318750199134E+00 
    1.0713789722441469E+00 
    1.0706013825649654E+00 
    1.0528148429045427E+00 
    1.0521871541839616E+00 
    1.0699408119093545E+00 
    1.0693745734888951E+00 
    1.0516487615970851E+00 
    1.0511998851166580E+00 
    1.0689026247950113E+00 
    1.0685249918095328E+00 
    1.0508406635779082E+00 
    1.0505711854077668E+00 
    1.0682417157461532E+00 
    1.0680528379377041E+00 
    1.0503915062876852E+00 
    1.0503016590782652E+00 
    1.0679583904053902E+00 
    1.0523349023421840E+00 
    1.0330740487263321E+00 
    1.0330322071027189E+00 
    1.0522915837152242E+00 
    1.0522051283328420E+00 
    1.0329486637622030E+00 
    1.0328237537947542E+00 
    1.0520759483628501E+00 
    1.0519046270802650E+00 
    1.0326579601795591E+00 
    1.0324519077599643E+00 
    1.0516919115673298E+00 
    1.0514387047319349E+00 
    1.0322063558186916E+00 
    1.0319221890497992E+00 
    1.0511460559681862E+00 
    1.0508151507618273E+00 
    1.0316004073027840E+00 
    1.0312421141807193E+00 
    1.0504472993777685E+00 
    1.0500439246232884E+00 
    1.0308485043377789E+00 
    1.0304208490684794E+00 
    1.0496065485524657E+00 
    1.0491367778339902E+00 
    1.0299604794839392E+00 
    1.0294687662536721E+00 
    1.0486362873274688E+00 
    1.0481068011208028E+00 
    1.0289470943792740E+00 
    1.0283968302298077E+00 
    1.0475500696865052E+00 
    1.0469678408103775E+00 
    1.0278192758615805E+00 
    1.0272156025106411E+00 
    1.0463618203996419E+00 
    1.0457336161882713E+00 
    1.0265867487875329E+00 
    1.0259332558504091E+00 
    1.0450846513978309E+00 
    1.0444160243064859E+00 
    1.0252549875861399E+00 
    1.0245506264910720E+00 
    1.0437282658581672E+00 
    1.0430208983345259E+00 
    1.0238167028706520E+00 
    1.0230455300442307E+00 
    1.0422915783608095E+00 
    1.0415342933734693E+00 
    1.0222201528104087E+00 
    1.0212995659854527E+00 
    1.0407350362426311E+00 
    1.0398593119043100E+00 
    1.0202121647060549E+00 
    1.0189647600263942E+00 
    1.0388322809674497E+00 
    1.0376437983122377E+00 
    1.0177779883638292E+00 
    1.0168078800333846E+00 
    1.0365125361583281E+00 
    1.0355950135437726E+00 
    1.0159879641574519E+00 
    1.0152555728400638E+00 
    1.0348230251942898E+00 
    1.0341389113857176E+00 
    1.0146056044531677E+00 
    1.0140376182417390E+00 
    1.0335405351222957E+00 
    1.0330277886407611E+00 
    1.0135512770614710E+00 
    1.0131463243472711E+00 
    1.0326005960215217E+00 
    1.0322589016601924E+00 
    1.0128225670432023E+00 
    1.0125798631932257E+00 
    1.0320026645687905E+00 
    1.0318318555310473E+00 
    1.0124181131339784E+00 
    1.0123372534998811E+00 
    1.0317464556573464E+00 
    1.0132387120963198E+00 
    9.9281355437970509E-01 
    9.9277192994300589E-01 
    1.0131974271887676E+00 
    1.0131149505741035E+00 
    9.9268871398796554E-01 
    9.9256406895393345E-01 
    1.0129915386289023E+00 
    1.0128275771021413E+00 
    9.9239827069067743E-01 
    9.9219170476333185E-01 
    1.0126235762753559E+00 
    1.0123801632640561E+00 
    9.9194485716927228E-01 
    9.9165830129722599E-01 
    1.0120980720357344E+00 
    1.0117781316407721E+00 
    9.9133268177954126E-01 
    9.9096869508479046E-01 
    1.0114212526606585E+00 
    1.0110284114681534E+00 
    9.9056706595124333E-01 
    9.9012851754789888E-01 
    1.0106006313532483E+00 
    1.0101389588958618E+00 
    9.8965373160420600E-01 
    9.8914329327074091E-01 
    1.0096444333396661E+00 
    1.0091180457881495E+00 
    9.8859761358595311E-01 
    9.8801681614309900E-01 
    1.0085606823630660E+00 
    1.0079730402087852E+00 
    9.8740056011243071E-01 
    9.8674775062713471E-01 
    1.0073554981693738E+00 
    1.0067079094901126E+00 
    9.8605604485923537E-01 
    9.8532093387381625E-01 
    1.0060292487090872E+00 
    1.0053169751935618E+00 
    9.8453385185909714E-01 
    9.8367785040541400E-01 
    1.0045657878634686E+00 
    1.0037648926686746E+00 
    9.8271474560748695E-01 
    9.8158023463737543E-01 
    1.0028910276901513E+00 
    1.0018884110109387E+00 
    9.8026535283142058E-01 
    9.7890595135513148E-01 
    1.0007024351600344E+00 
    9.9939034927828008E-01 
    9.7769517647923332E-01 
    9.7669717603711470E-01 
    9.9817054864595633E-01 
    9.9717134324558443E-01 
    9.7583500602012563E-01 
    9.7504950737263729E-01 
    9.9632005709575000E-01 
    9.9555291569504145E-01 
    9.7433669589964944E-01 
    9.7369612601174838E-01 
    9.9486389152098209E-01 
    9.9425247576593745E-01 
    9.7312743669204005E-01 
    9.7263033897427631E-01 
    9.9371825104955858E-01 
    9.9326088082148856E-01 
    9.7220460479869220E-01 
    9.7185005716239292E-01 