# vtk DataFile Version 2.0
Pressure Field Data 
ASCII 
DATASET UNSTRUCTURED_GRID 

POINTS 1681 double 

    0.0000000000000000E+00     0.0000000000000000E+00     0.0000000000000000E+00 
    1.0000000000000000E+00     0.0000000000000000E+00     0.0000000000000000E+00 
    1.0000000000000000E+00     1.0000000000000000E+00     0.0000000000000000E+00 
    0.0000000000000000E+00     1.0000000000000000E+00     0.0000000000000000E+00 
    5.2499999999875258E-01     0.0000000000000000E+00     0.0000000000000000E+00 
    7.4999999999856765E-02     0.0000000000000000E+00     0.0000000000000000E+00 
    1.2499999999975850E-01     0.0000000000000000E+00     0.0000000000000000E+00 
    1.7499999999962990E-01     0.0000000000000000E+00     0.0000000000000000E+00 
    2.2499999999948389E-01     0.0000000000000000E+00     0.0000000000000000E+00 
    2.7499999999933789E-01     0.0000000000000000E+00     0.0000000000000000E+00 
    3.2499999999919210E-01     0.0000000000000000E+00     0.0000000000000000E+00 
    3.7499999999904610E-01     0.0000000000000000E+00     0.0000000000000000E+00 
    4.2499999999890020E-01     0.0000000000000000E+00     0.0000000000000000E+00 
    4.7499999999875958E-01     0.0000000000000000E+00     0.0000000000000000E+00 
    2.4999999999949701E-02     0.0000000000000000E+00     0.0000000000000000E+00 
    5.7499999999887907E-01     0.0000000000000000E+00     0.0000000000000000E+00 
    6.2499999999901101E-01     0.0000000000000000E+00     0.0000000000000000E+00 
    6.7499999999914273E-01     0.0000000000000000E+00     0.0000000000000000E+00 
    7.2499999999927467E-01     0.0000000000000000E+00     0.0000000000000000E+00 
    7.7499999999940661E-01     0.0000000000000000E+00     0.0000000000000000E+00 
    8.2499999999953844E-01     0.0000000000000000E+00     0.0000000000000000E+00 
    8.7499999999967026E-01     0.0000000000000000E+00     0.0000000000000000E+00 
    9.2499999999980220E-01     0.0000000000000000E+00     0.0000000000000000E+00 
    9.7499999999993414E-01     0.0000000000000000E+00     0.0000000000000000E+00 
    5.4999999999881310E-01     0.0000000000000000E+00     0.0000000000000000E+00 
    9.9999999999814140E-02     0.0000000000000000E+00     0.0000000000000000E+00 
    1.4999999999970290E-01     0.0000000000000000E+00     0.0000000000000000E+00 
    1.9999999999955689E-01     0.0000000000000000E+00     0.0000000000000000E+00 
    2.4999999999941089E-01     0.0000000000000000E+00     0.0000000000000000E+00 
    2.9999999999926502E-01     0.0000000000000000E+00     0.0000000000000000E+00 
    3.4999999999911913E-01     0.0000000000000000E+00     0.0000000000000000E+00 
    3.9999999999897312E-01     0.0000000000000000E+00     0.0000000000000000E+00 
    4.4999999999882723E-01     0.0000000000000000E+00     0.0000000000000000E+00 
    4.9999999999869210E-01     0.0000000000000000E+00     0.0000000000000000E+00 
    4.9999999999899403E-02     0.0000000000000000E+00     0.0000000000000000E+00 
    5.9999999999894504E-01     0.0000000000000000E+00     0.0000000000000000E+00 
    6.4999999999907687E-01     0.0000000000000000E+00     0.0000000000000000E+00 
    6.9999999999920870E-01     0.0000000000000000E+00     0.0000000000000000E+00 
    7.4999999999934064E-01     0.0000000000000000E+00     0.0000000000000000E+00 
    7.9999999999947247E-01     0.0000000000000000E+00     0.0000000000000000E+00 
    8.4999999999960441E-01     0.0000000000000000E+00     0.0000000000000000E+00 
    8.9999999999973623E-01     0.0000000000000000E+00     0.0000000000000000E+00 
    9.4999999999986817E-01     0.0000000000000000E+00     0.0000000000000000E+00 
    1.0000000000000000E+00     5.2499999999875258E-01     0.0000000000000000E+00 
    1.0000000000000000E+00     7.4999999999856765E-02     0.0000000000000000E+00 
    1.0000000000000000E+00     1.2499999999975850E-01     0.0000000000000000E+00 
    1.0000000000000000E+00     1.7499999999962990E-01     0.0000000000000000E+00 
    1.0000000000000000E+00     2.2499999999948389E-01     0.0000000000000000E+00 
    1.0000000000000000E+00     2.7499999999933789E-01     0.0000000000000000E+00 
    1.0000000000000000E+00     3.2499999999919210E-01     0.0000000000000000E+00 
    1.0000000000000000E+00     3.7499999999904610E-01     0.0000000000000000E+00 
    1.0000000000000000E+00     4.2499999999890020E-01     0.0000000000000000E+00 
    1.0000000000000000E+00     4.7499999999875958E-01     0.0000000000000000E+00 
    1.0000000000000000E+00     2.4999999999949701E-02     0.0000000000000000E+00 
    1.0000000000000000E+00     5.7499999999887907E-01     0.0000000000000000E+00 
    1.0000000000000000E+00     6.2499999999901101E-01     0.0000000000000000E+00 
    1.0000000000000000E+00     6.7499999999914273E-01     0.0000000000000000E+00 
    1.0000000000000000E+00     7.2499999999927467E-01     0.0000000000000000E+00 
    1.0000000000000000E+00     7.7499999999940661E-01     0.0000000000000000E+00 
    1.0000000000000000E+00     8.2499999999953844E-01     0.0000000000000000E+00 
    1.0000000000000000E+00     8.7499999999967026E-01     0.0000000000000000E+00 
    1.0000000000000000E+00     9.2499999999980220E-01     0.0000000000000000E+00 
    1.0000000000000000E+00     9.7499999999993414E-01     0.0000000000000000E+00 
    1.0000000000000000E+00     5.4999999999881310E-01     0.0000000000000000E+00 
    1.0000000000000000E+00     9.9999999999814140E-02     0.0000000000000000E+00 
    1.0000000000000000E+00     1.4999999999970290E-01     0.0000000000000000E+00 
    1.0000000000000000E+00     1.9999999999955689E-01     0.0000000000000000E+00 
    1.0000000000000000E+00     2.4999999999941089E-01     0.0000000000000000E+00 
    1.0000000000000000E+00     2.9999999999926502E-01     0.0000000000000000E+00 
    1.0000000000000000E+00     3.4999999999911913E-01     0.0000000000000000E+00 
    1.0000000000000000E+00     3.9999999999897312E-01     0.0000000000000000E+00 
    1.0000000000000000E+00     4.4999999999882723E-01     0.0000000000000000E+00 
    1.0000000000000000E+00     4.9999999999869210E-01     0.0000000000000000E+00 
    1.0000000000000000E+00     4.9999999999899403E-02     0.0000000000000000E+00 
    1.0000000000000000E+00     5.9999999999894504E-01     0.0000000000000000E+00 
    1.0000000000000000E+00     6.4999999999907687E-01     0.0000000000000000E+00 
    1.0000000000000000E+00     6.9999999999920870E-01     0.0000000000000000E+00 
    1.0000000000000000E+00     7.4999999999934064E-01     0.0000000000000000E+00 
    1.0000000000000000E+00     7.9999999999947247E-01     0.0000000000000000E+00 
    1.0000000000000000E+00     8.4999999999960441E-01     0.0000000000000000E+00 
    1.0000000000000000E+00     8.9999999999973623E-01     0.0000000000000000E+00 
    1.0000000000000000E+00     9.4999999999986817E-01     0.0000000000000000E+00 
    4.7500000000196618E-01     1.0000000000000000E+00     0.0000000000000000E+00 
    9.2499999999968763E-01     1.0000000000000000E+00     0.0000000000000000E+00 
    8.7499999999961831E-01     1.0000000000000000E+00     0.0000000000000000E+00 
    8.2499999999982654E-01     1.0000000000000000E+00     0.0000000000000000E+00 
    7.7500000000017355E-01     1.0000000000000000E+00     0.0000000000000000E+00 
    7.2500000000052045E-01     1.0000000000000000E+00     0.0000000000000000E+00 
    6.7500000000086724E-01     1.0000000000000000E+00     0.0000000000000000E+00 
    6.2500000000121403E-01     1.0000000000000000E+00     0.0000000000000000E+00 
    5.7500000000156093E-01     1.0000000000000000E+00     0.0000000000000000E+00 
    5.2500000000189684E-01     1.0000000000000000E+00     0.0000000000000000E+00 
    9.7499999999989595E-01     1.0000000000000000E+00     0.0000000000000000E+00 
    4.2500000000176902E-01     1.0000000000000000E+00     0.0000000000000000E+00 
    3.7500000000156092E-01     1.0000000000000000E+00     0.0000000000000000E+00 
    3.2500000000135282E-01     1.0000000000000000E+00     0.0000000000000000E+00 
    2.7500000000114472E-01     1.0000000000000000E+00     0.0000000000000000E+00 
    2.2500000000093659E-01     1.0000000000000000E+00     0.0000000000000000E+00 
    1.7500000000072849E-01     1.0000000000000000E+00     0.0000000000000000E+00 
    1.2500000000052039E-01     1.0000000000000000E+00     0.0000000000000000E+00 
    7.5000000000312261E-02     1.0000000000000000E+00     0.0000000000000000E+00 
    2.5000000000104109E-02     1.0000000000000000E+00     0.0000000000000000E+00 
    4.5000000000187301E-01     1.0000000000000000E+00     0.0000000000000000E+00 
    8.9999999999958358E-01     1.0000000000000000E+00     0.0000000000000000E+00 
    8.4999999999965303E-01     1.0000000000000000E+00     0.0000000000000000E+00 
    8.0000000000000004E-01     1.0000000000000000E+00     0.0000000000000000E+00 
    7.5000000000034706E-01     1.0000000000000000E+00     0.0000000000000000E+00 
    7.0000000000069384E-01     1.0000000000000000E+00     0.0000000000000000E+00 
    6.5000000000104063E-01     1.0000000000000000E+00     0.0000000000000000E+00 
    6.0000000000138742E-01     1.0000000000000000E+00     0.0000000000000000E+00 
    5.5000000000173432E-01     1.0000000000000000E+00     0.0000000000000000E+00 
    5.0000000000205946E-01     1.0000000000000000E+00     0.0000000000000000E+00 
    9.4999999999979179E-01     1.0000000000000000E+00     0.0000000000000000E+00 
    4.0000000000166491E-01     1.0000000000000000E+00     0.0000000000000000E+00 
    3.5000000000145681E-01     1.0000000000000000E+00     0.0000000000000000E+00 
    3.0000000000124871E-01     1.0000000000000000E+00     0.0000000000000000E+00 
    2.5000000000104061E-01     1.0000000000000000E+00     0.0000000000000000E+00 
    2.0000000000083251E-01     1.0000000000000000E+00     0.0000000000000000E+00 
    1.5000000000062441E-01     1.0000000000000000E+00     0.0000000000000000E+00 
    1.0000000000041630E-01     1.0000000000000000E+00     0.0000000000000000E+00 
[...]
CELL_DATA 1600 
SCALARS Pressure double 1 
LOOKUP_TABLE default 

    1.2427516144765542E+00 
    1.1956440634912029E+00 
    1.1931676287593711E+00 
    1.2269266404274117E+00 
    1.2141844115094744E+00 
    1.1894029527005157E+00 
    1.1850406362230250E+00 
    1.2036937398623604E+00 
    1.1948639512013994E+00 
    1.1804693151776908E+00 
    1.1759043907320308E+00 
    1.1872850399671346E+00 
    1.1806682320876569E+00 
    1.1714608381729588E+00 
    1.1671958021557600E+00 
    1.1748068169617478E+00 
    1.1695503867659010E+00 
    1.1631335569407601E+00 
    1.1592801152215944E+00 
    1.1647877367513628E+00 
    1.1604353773854792E+00 
    1.1556317442627226E+00 
    1.1521798912829029E+00 
    1.1564297147016733E+00 
    1.1527216545454042E+00 
    1.1489139929315753E+00 
    1.1458230405211389E+00 
    1.1492728275779416E+00 
    1.1460529115256337E+00 
    1.1428964171177900E+00 
    1.1401243123073248E+00 
    1.1430377057431720E+00 
    1.1402077282400684E+00 
    1.1374978957265074E+00 
    1.1350093563020238E+00 
    1.1375471802121273E+00 
    1.1350431723656940E+00 
    1.1326518699915722E+00 
    1.1304195325250976E+00 
    1.1326851400516096E+00 
    1.1304643962138710E+00 
    1.1283072779959211E+00 
    1.1263107948642916E+00 
    1.1283737860880951E+00 
    1.1264074178246450E+00 
    1.1244264454467698E+00 
    1.1226511917309507E+00 
    1.1245604502911524E+00 
    1.1228289242188245E+00 
    1.1209825284348600E+00 
    1.1194184230243618E+00 
    1.1212096262210536E+00 
    1.1196999773817899E+00 
    1.1179572614757620E+00 
    1.1165977974926917E+00 
    1.1182979391665542E+00 
    1.1170019290224136E+00 
    1.1153391009720406E+00 
    1.1141804972040488E+00 
    1.1158107349490922E+00 
    1.1147234087503710E+00 
    1.1131214773906806E+00 
    1.1121615329755408E+00 
    1.1137390916604193E+00 
    1.1128566647238611E+00 
    1.1112998016140851E+00 
    1.1105342932107365E+00 
    1.1120740012694132E+00 
    1.1113864222047511E+00 
    1.1098602783689004E+00 
    1.1092670700227529E+00 
    1.1107836476537740E+00 
    1.1102451318131838E+00 
    1.1087331117695978E+00 
    1.1082630517949918E+00 
    1.1097709019846527E+00 
    1.1094493808810570E+00 
    1.1079467137734409E+00 
    1.1077984946568828E+00 
    1.1092986340480833E+00 
    1.1708927552030033E+00 
    1.1525603059772185E+00 
    1.1521650843333586E+00 
    1.1700885844217537E+00 
    1.1686061125866944E+00 
    1.1513990694836351E+00 
    1.1503049870164908E+00 
    1.1666051792857144E+00 
    1.1642350004301727E+00 
    1.1489338926615076E+00 
    1.1473383434673026E+00 
    1.1616198457332527E+00 
    1.1588570105349751E+00 
    1.1455680765693956E+00 
    1.1436677051468769E+00 
    1.1560197465391968E+00 
    1.1531616852228874E+00 
    1.1416758114472005E+00 
    1.1396249082106344E+00 
    1.1503212290863087E+00 
    1.1475253335250817E+00 
    1.1375418821163619E+00 
    1.1354486622028319E+00 
    1.1447925419558029E+00 
    1.1421353231954994E+00 
    1.1333629549593141E+00 
    1.1312989563878979E+00 
    1.1395618244609389E+00 
    1.1370771624684504E+00 
    1.1292679959123488E+00 
    1.1272790943097060E+00 
    1.1346843619478149E+00 
    1.1323850310292445E+00 
    1.1253394335041640E+00 
    1.1234547442800691E+00 
    1.1301798432669037E+00 
    1.1280688791069122E+00 
    1.1216296216433328E+00 
    1.1198677786008424E+00 
    1.1260518659977383E+00 
    1.1241283458474938E+00 
    1.1181722487450370E+00 
    1.1165455469589867E+00 
    1.1222977906399179E+00 
    1.1205596811720080E+00 
    1.1149897962182611E+00 
    1.1135068270810624E+00 
    1.1189135595689867E+00 
    1.1173590630425849E+00 
    1.1120982551184024E+00 
    1.1107655402343468E+00 
    1.1158959439248763E+00 
    1.1145240789871032E+00 
    1.1095100304512546E+00 
    1.1083329909980666E+00 
    1.1132434690156998E+00 
    1.1120542268231342E+00 
    1.1072356167325195E+00 
    1.1062190201697841E+00 
    1.1109565465877715E+00 
    1.1099506350049058E+00 
    1.1052841735161072E+00 
    1.1044317489437085E+00 
    1.1090365538230171E+00 
    1.1082138543490461E+00 
    1.1036617275700751E+00 
    1.1029725182486223E+00 
    1.1074807603918029E+00 
    1.1068324564690148E+00 
    1.1023591045428929E+00 
    1.1018091751468704E+00 
    1.1062576079529376E+00 
    1.1057331500457073E+00 
    1.1012976911954957E+00 
    1.1008527224393261E+00 
    1.1052729998897843E+00 
    1.1049675700542054E+00 
    1.1005630785394538E+00 
    1.1004272200698828E+00 
    1.1048244599072441E+00 
    1.1368363168399362E+00 
    1.1223153122768876E+00 
    1.1221550342599851E+00 
    1.1365983268587327E+00 
    1.1361298923832956E+00 
    1.1218376116247344E+00 
    1.1213696989928787E+00 
    1.1354460551352428E+00 
    1.1345669777349479E+00 
    1.1207606965866437E+00 
    1.1200221064109890E+00 
    1.1335159082787127E+00 
    1.1323173939965629E+00 
    1.1191668594798603E+00 
    1.1182086898201509E+00 
    1.1309958915653753E+00 
    1.1295747909217559E+00 
    1.1171615987535279E+00 
    1.1160394276119736E+00 
    1.1280758024745536E+00 
    1.1265186323977969E+00 
    1.1148555394390030E+00 
    1.1136225996019178E+00 
    1.1249208691198627E+00 
    1.1232980138829016E+00 
    1.1123524400097333E+00 
    1.1110559901072297E+00 
    1.1216636019082749E+00 
    1.1200293743102061E+00 
    1.1097432585612474E+00 
    1.1084233514983948E+00 
    1.1184054726604831E+00 
    1.1168006374635417E+00 
    1.1071045155679986E+00 
    1.1057941965432043E+00 
    1.1152223988232162E+00 
    1.1136772526084333E+00 
    1.1044991063910310E+00 
    1.1032252936274949E+00 
    1.1121708188669659E+00 
    1.1107079814829337E+00 
    1.1019782132971927E+00 
    1.1007627940929203E+00 
    1.1092930094508673E+00 
    1.1079296608992912E+00 
    1.0995835009934047E+00 
    1.0984443923784259E+00 
    1.1066212713200310E+00 
    1.1053708274571559E+00 
    1.0973491708952579E+00 
    1.0963012273706949E+00 
    1.1041810280179294E+00 
    1.1030543317173938E+00 
    1.0953036766685749E+00 
    1.0943593832430483E+00 
    1.1019929918847651E+00 
    1.1009990741734752E+00 
    1.0934709713043458E+00 
    1.0926408074045051E+00 
    1.1000744476681177E+00 
    1.0992207239968417E+00 
    1.0918709251182663E+00 
    1.0911628187526763E+00 
    1.0984390809610580E+00 
    1.0977298281567311E+00 
    1.0905169484307238E+00 
    1.0899316522498548E+00 
    1.0970914358287474E+00 
    1.0965184844840439E+00 
    1.0894008253493599E+00 
    1.0889086018533265E+00 
    1.0959972129288720E+00 
    1.0955006147243260E+00 
    1.0884281395929578E+00 
    1.0880264056478115E+00 
    1.0950752302568094E+00 
    1.0948047341423106E+00 
    1.0877765948752482E+00 
    1.0876580990344673E+00 
    1.0946774369932630E+00 
    1.1083353377327678E+00 
    1.0945370491096327E+00 
    1.0944491313025491E+00 
    1.1082195158856318E+00 
    1.1079894579978700E+00 
    1.0942742243603687E+00 
    1.0940144049095208E+00 
    1.1076486517236912E+00 
    1.1072021422970220E+00 
    1.0936727039502412E+00 
    1.0932530100383269E+00 
    1.1066562990192408E+00 
    1.1060185443792081E+00 
    1.0927599487927007E+00 
    1.0921987501221215E+00 
    1.1052970743155772E+00 
    1.1045005908158860E+00 
    1.0915751123420567E+00 
    1.0908950704675093E+00 
    1.1036380611695722E+00 
    1.1027185120445364E+00 
    1.0901648740805747E+00 
    1.0893908783573947E+00 
    1.1017508615711193E+00 
    1.1007437889563942E+00 
    1.0885794502305066E+00 
    1.0877368903435263E+00 
    1.0997056387393886E+00 
    1.0986443554270608E+00 
    1.0868693704532568E+00 
    1.0859828852347484E+00 
    1.0975674436709444E+00 
    1.0964819491152591E+00 
    1.0850832170072551E+00 
    1.0841759116717722E+00 
    1.0953944553661683E+00 
    1.0943110930412956E+00 
    1.0832662640803419E+00 
    1.0823593110937586E+00 
    1.0932375574445901E+00 
    1.0921791319961074E+00 
    1.0814598306837728E+00 
    1.0805723455596252E+00 
    1.0911407150777530E+00 
    1.0901268483996727E+00 
    1.0797011299102026E+00 
    1.0788502179107031E+00 
    1.0891417453177044E+00 
    1.0881893176997752E+00 
    1.0780234125858685E+00 
    1.0772242933394025E+00 
    1.0872731998698852E+00 
    1.0863967676736725E+00 
    1.0764562197102054E+00 
    1.0757223271148570E+00 
    1.0855631493684024E+00 
    1.0847752216703961E+00 
    1.0750255059479041E+00 
    1.0743683444706871E+00 
    1.0840355757085174E+00 
    1.0833464161140518E+00 
    1.0737529896884135E+00 
    1.0731808249106338E+00 
    1.0827093081522321E+00 
    1.0821245964195716E+00 
    1.0726517602245682E+00 
    1.0721627188848557E+00 
    1.0815901512136290E+00 
    1.0810986282727642E+00 
    1.0717041750723797E+00 
    1.0712510380995117E+00 
    1.0806307379198321E+00 
    1.0801667219334685E+00 
    1.0708025107858021E+00 
    1.0704611766933430E+00 
    1.0797932090354661E+00 
    1.0795649547677200E+00 
    1.0702550911173057E+00 
    1.0701541152028986E+00 
    1.0794551207239154E+00 
    1.0807071191200779E+00 
    1.0667112575707591E+00 
    1.0666549733936654E+00 
    1.0806378407646671E+00 
    1.0804998933891528E+00 
    1.0665428422442134E+00 
    1.0663758350389727E+00 
    1.0802946423284623E+00 
    1.0800240804272432E+00 
    1.0661553610409942E+00 
    1.0658832444213917E+00 
    1.0796907828899394E+00 
    1.0792978480741136E+00 
    1.0655616923551432E+00 
    1.0651932572899501E+00 
    1.0788488294200229E+00 
    1.0783476626791204E+00 
    1.0647807954635053E+00 
    1.0643274234240891E+00 
    1.0777985919547772E+00 
    1.0772060974691988E+00 
    1.0638364740855992E+00 
    1.0633114536216435E+00 
    1.0765748273430098E+00 
    1.0759095350453907E+00 
    1.0627560002608689E+00 
    1.0621738457968755E+00 
    1.0752150235838089E+00 
    1.0744960969848094E+00 
    1.0615687803843252E+00 
    1.0609446209696642E+00 
    1.0737575191883868E+00 
    1.0730039801428171E+00 
    1.0603051835077013E+00 
    1.0596542589473816E+00 
    1.0722400686394924E+00 
    1.0714702512566410E+00 
    1.0589955928307400E+00 
    1.0583328682338646E+00 
    1.0706988566711590E+00 
    1.0699300645304988E+00 
    1.0576696916794770E+00 
    1.0570095815540395E+00 
    1.0691678980299135E+00 
    1.0684162192870066E+00 
    1.0563559584461606E+00 
    1.0557121366479421E+00 
    1.0676787265052707E+00 
    1.0669589517019844E+00 
    1.0550813157486694E+00 
    1.0544665706296579E+00 
    1.0662602573046216E+00 
    1.0655858288790263E+00 
    1.0538708368317327E+00 
    1.0532968851913014E+00 
    1.0649386588619267E+00 
    1.0643215104272099E+00 
    1.0527472723052815E+00 
    1.0522242362037952E+00 
    1.0637368366909270E+00 
    1.0631865988034379E+00 
    1.0517294696572614E+00 
    1.0512636321840227E+00 
    1.0626718630668537E+00 
    1.0621919380431402E+00 
    1.0508253164911594E+00 
    1.0504087379142959E+00 
    1.0617425148122666E+00 
    1.0613110992433923E+00 
    1.0499974690398679E+00 
    1.0495568159666389E+00 
    1.0608653131224139E+00 
    1.0604332919292427E+00 
    1.0491472868784351E+00 
    1.0488645159196051E+00 
    1.0601232651725694E+00 
    1.0599362953896214E+00 
    1.0486905038135417E+00 
    1.0486036130560805E+00 
    1.0598433899996602E+00 
    1.0524616775306819E+00 
    1.0378997591009760E+00 
    1.0378596080771043E+00 
    1.0524147170761540E+00 
    1.0523211323900310E+00 
    1.0377795786161090E+00 
    1.0376602554548133E+00 
    1.0521816583982402E+00 
    1.0519973524909629E+00 
    1.0375024714342365E+00 
    1.0373072987926317E+00 
    1.0517695809974250E+00 
    1.0515000004658206E+00 
    1.0370760372743344E+00 
    1.0368101997028856E+00 
    1.0511905351328910E+00 
    1.0508433517243874E+00 
    1.0365114956994035E+00 
    1.0361818140806012E+00 
    1.0504608325210241E+00 
    1.0500455475155068E+00 
    1.0358232044018825E+00 
    1.0354378580644632E+00 
    1.0496002263935500E+00 
    1.0491277309735738E+00 
    1.0350280893609944E+00 
    1.0345963167856795E+00 
    1.0486310286333544E+00 
    1.0481131671406225E+00 
    1.0341450448815444E+00 
    1.0336768468400908E+00 
    1.0475772511929358E+00 
    1.0470264208638984E+00 
    1.0331943480079886E+00 
    1.0327002103918408E+00 
    1.0464638320501141E+00 
    1.0458926389161587E+00 
    1.0321971181840015E+00 
    1.0316877642559679E+00 
    1.0453159782405228E+00 
    1.0447369554671604E+00 
    1.0311748374724650E+00 
    1.0306610105519538E+00 
    1.0441586321516059E+00 
    1.0435840143322581E+00 
    1.0301489280038338E+00 
    1.0296411933387037E+00 
    1.0430160411058926E+00 
    1.0424575722350173E+00 
    1.0291403541223656E+00 
    1.0286488821772124E+00 
    1.0419113727211449E+00 
    1.0413800903663881E+00 
    1.0281691435182432E+00 
    1.0277033466020626E+00 
    1.0408662180280754E+00 
    1.0403720223582738E+00 
    1.0272534442461545E+00 
    1.0268209368069550E+00 
    1.0398993988875957E+00 
    1.0394495686237661E+00 
    1.0264064690947605E+00 
    1.0260089980292237E+00 
    1.0390224442667244E+00 
    1.0386152866423539E+00 
    1.0256239764534065E+00 
    1.0252386263842306E+00 
    1.0382195094951447E+00 
    1.0378109726057667E+00 
    1.0248167592084121E+00 
    1.0243726561993285E+00 
    1.0373700598031608E+00 
    1.0369926702536081E+00 
    1.0240288717931274E+00 
    1.0238005560541936E+00 
    1.0367384969541156E+00 
    1.0365761091948940E+00 
    1.0236498887155026E+00 
    1.0235744379280856E+00 
    1.0364949285777285E+00 
    1.0229861433012688E+00 
    1.0076947667183307E+00 
    1.0076632885137058E+00 
    1.0229510008065181E+00 
    1.0228809457901202E+00 
    1.0076005320675079E+00 
    1.0075069117949333E+00 
    1.0227764625232143E+00 
    1.0226382339420796E+00 
    1.0073830071221237E+00 
    1.0072295574972536E+00 
    1.0224671353876307E+00 
    1.0222642264709711E+00 
    1.0070474564300891E+00 
    1.0068377443298957E+00 
    1.0220307412129213E+00 
    1.0217680768873969E+00 
    1.0066016004207994E+00 
    1.0063403339474508E+00 
    1.0214777818957770E+00 
    1.0211615429480729E+00 
    1.0060553748425454E+00 
    1.0057482640052298E+00 
    1.0208211717973357E+00 
    1.0204585917497360E+00 
    1.0054206433232886E+00 
    1.0050742455563597E+00 
    1.0200758241478529E+00 
    1.0196749749965985E+00 
    1.0047108841795056E+00 
    1.0043324432646477E+00 
    1.0192582218690927E+00 
    1.0188278011930885E+00 
    1.0039408674499124E+00 
    1.0035381520111906E+00 
    1.0183859959759531E+00 
    1.0179351239751704E+00 
    1.0031263330012630E+00 
    1.0027074773509985E+00 
    1.0174775262564952E+00 
    1.0170155559928478E+00 
    1.0022836727177877E+00 
    1.0018570166853509E+00 
    1.0165515672226169E+00 
    1.0160879030628349E+00 
    1.0014296045982305E+00 
    1.0010035147132459E+00 
    1.0156268824688868E+00 
    1.0151707838444728E+00 
    1.0005807881655773E+00 
    1.0001633988241274E+00 
    1.0147218221721939E+00 
    1.0142821128253072E+00 
    9.9975320306517290E-01 
    9.9935184900245144E-01 
    1.0138536076058293E+00 
    1.0134379723954434E+00 
    9.9896060334521830E-01 
    9.9858001103138627E-01 
    1.0130363430058442E+00 
    1.0126488295654410E+00 
    9.9820920885063513E-01 
    9.9784444824348006E-01 
    1.0122734806436580E+00 
    1.0119038684304023E+00 
    9.9747533726116300E-01 
    9.9707218158090405E-01 
    1.0115219491371106E+00 
    1.0110857819120798E+00 
    9.9661429777456867E-01 
    9.9620786394297633E-01 
    1.0106505750103669E+00 
    1.0103320523514396E+00 
    9.9591872611011867E-01 
    9.9571121271389096E-01 
    1.0101156062877343E+00 
    1.0099715107527971E+00 
    9.9557289098950419E-01 
    9.9550372739847492E-01 
    1.0098994394045202E+00 
    9.9200913471749042E-01 
    9.7591994699646700E-01 
    9.7589285393524472E-01 
    9.9198027482249307E-01 
    9.9192273300926703E-01 
    9.7583882922488030E-01 
    9.7575820122076584E-01 
    9.9183687378507401E-01 
    9.9172320355343202E-01 
    9.7565142449143549E-01 
    9.7551907580789721E-01 
    9.9158236628290453E-01 
    9.9141513885623089E-01 
    9.7536185030236344E-01 
    9.7518055700199657E-01 
    9.9122242556390983E-01 
    9.9100525192312217E-01 
    9.7497611385030791E-01 
    9.7474954232159461E-01 
    9.9076475796816788E-01 
    9.9050219112395266E-01 
    9.7450196170369097E-01 
    9.7423458310586464E-01 
    9.9021889875454494E-01 
    9.8991632046561329E-01 
    9.7394870323612037E-01 
    9.7364569798067857E-01 
    9.8959598022732054E-01 
    9.8925947837003403E-01 
    9.7332701580465764E-01 
    9.7299417097377827E-01 
    9.8890848348671911E-01 
    9.8854472425068074E-01 
    9.7264873656885409E-01 
    9.7229233722349517E-01 
    9.8816998112163412E-01 
    9.8778607785941863E-01 
    9.7192664144988516E-01 
    9.7155335330870607E-01 
    9.8739487268014836E-01 
    9.8699824875035147E-01 
    9.7117420299405688E-01 
    9.7079093557446094E-01 
    9.8659810347234800E-01 
    9.8619633557056330E-01 
    9.7040529652134999E-01 
    9.7001901149928138E-01 
    9.8579482814524233E-01 
    9.8539542420091164E-01 
    9.6963375564586485E-01 
    9.6925110315404128E-01 
    9.8499988782191072E-01 
    9.8460983740833619E-01 
    9.6887243922172850E-01 
    9.6849879902689262E-01 
    9.8422662374858261E-01 
    9.8385109832355300E-01 
    9.6813056262359953E-01 
    9.6776685224345682E-01 
    9.8348315981179868E-01 
    9.8312082429950420E-01 
    9.6740424011558468E-01 
    9.6703346560739367E-01 
    9.8275809192735042E-01 
    9.8237882887637573E-01 
    9.6662846229414434E-01 
    9.6614754258758528E-01 
    9.8193678953764330E-01 
    9.8145627115505285E-01 
    9.6567327830593008E-01 
    9.6531873416192260E-01 
    9.8107891664090263E-01 
    9.8081330549630918E-01 
    9.6505746948394100E-01 
    9.6486170209357425E-01 
    9.8061513026668445E-01 
    9.8048268989270038E-01 
    9.6473118915836376E-01 
    9.6466592746452595E-01 
    9.8041637948246907E-01 
    9.5942358940085737E-01 
    9.4252121378382581E-01 
    9.4249553495831462E-01 
    9.5939753391515026E-01 
    9.5934557167928680E-01 
    9.4244431631795955E-01 
    9.4236784180996069E-01 
    9.5926800494877029E-01 
    9.5916525206717773E-01 
    9.4226650577747972E-01 
    9.4214080908183429E-01 
    9.5903784358118793E-01 
    9.5888641890177795E-01 
    9.4199135606467965E-01 
    9.4181885113135977E-01 
    9.5871172249219561E-01 
    9.5851459964554186E-01 
    9.4162409498069122E-01 
    9.4140798054391162E-01 
    9.5829599193145121E-01 
    9.5805693236387146E-01 
    9.4117148866885203E-01 
    9.4091568356399979E-01 
    9.5779854032295431E-01 
    9.5752201625034927E-01 
    9.4064170800048930E-01 
    9.4035077825509972E-01 
    9.5722863612459530E-01 
    9.5691974570773175E-01 
    9.4004417875913893E-01 
    9.3972325638666976E-01 
    9.5659675453013771E-01 
    9.5626112954275788E-01 
    9.3938941426242528E-01 
    9.3904410489092494E-01 
    9.5591438830904596E-01 
    9.5555809151667659E-01 
    9.3868882228212980E-01 
    9.3832509252886198E-01 
    9.5519383443036099E-01 
    9.5482323663233826E-01 
    9.3795446191109433E-01 
    9.3757848092500018E-01 
    9.5444792890437946E-01 
    9.5406953519844362E-01 
    9.3719868140492513E-01 
    9.3681654162994821E-01 
    9.5368964594286643E-01 
    9.5330977569795705E-01 
    9.3643343004193069E-01 
    9.3605051002487683E-01 
    9.5293129195286075E-01 
    9.5255528967344161E-01 
    9.3566857193659991E-01 
    9.3528772405238036E-01 
    9.5218236168783466E-01 
    9.5181216131902702E-01 
    9.3490678986241260E-01 
    9.3452200785958450E-01 
    9.5144251438674532E-01 
    9.5106737766327987E-01 
    9.3412367929256990E-01 
    9.3368486156179664E-01 
    9.5067099581095127E-01 
    9.5020683707738818E-01 
    9.3315290937394635E-01 
    9.3260169892654132E-01 
    9.4967775349192252E-01 
    9.4923146651210111E-01 
    9.3217693177053995E-01 
    9.3185722495753165E-01 