# vtk DataFile Version 2.0
Pressure Field Data 
ASCII 
DATASET UNSTRUCTURED_GRID 

POINTS 1681 double 

    0.0000000000000000E+00     0.0000000000000000E+00     0.0000000000000000E+00 
    1.0000000000000000E+00     0.0000000000000000E+00     0.0000000000000000E+00 
    1.0000000000000000E+00     1.0000000000000000E+00     0.0000000000000000E+00 
    0.0000000000000000E+00     1.0000000000000000E+00     0.0000000000000000E+00 
    5.2499999999875258E-01     0.0000000000000000E+00     0.0000000000000000E+00 
    7.4999999999856765E-02     0.0000000000000000E+00     0.0000000000000000E+00 
    1.2499999999975850E-01     0.0000000000000000E+00     0.0000000000000000E+00 
    1.7499999999962990E-01     0.0000000000000000E+00     0.0000000000000000E+00 
    2.2499999999948389E-01     0.0000000000000000E+00     0.0000000000000000E+00 
    2.7499999999933789E-01     0.0000000000000000E+00     0.0000000000000000E+00 
    3.2499999999919210E-01     0.0000000000000000E+00     0.0000000000000000E+00 
    3.7499999999904610E-01     0.0000000000000000E+00     0.0000000000000000E+00 
    4.2499999999890020E-01     0.0000000000000000E+00     0.0000000000000000E+00 
    4.7499999999875958E-01     0.0000000000000000E+00     0.0000000000000000E+00 
    2.4999999999949701E-02     0.0000000000000000E+00     0.0000000000000000E+00 
    5.7499999999887907E-01     0.0000000000000000E+00     0.0000000000000000E+00 
    6.2499999999901101E-01     0.0000000000000000E+00     0.0000000000000000E+00 
    6.7499999999914273E-01     0.0000000000000000E+00     0.0000000000000000E+00 
    7.2499999999927467E-01     0.0000000000000000E+00     0.0000000000000000E+00 
    7.7499999999940661E-01     0.0000000000000000E+00     0.0000000000000000E+00 
    8.2499999999953844E-01     0.0000000000000000E+00     0.0000000000000000E+00 
    8.7499999999967026E-01     0.0000000000000000E+00     0.0000000000000000E+00 
    9.2499999999980220E-01     0.0000000000000000E+00     0.0000000000000000E+00 
    9.7499999999993414E-01     0.0000000000000000E+00     0.0000000000000000E+00 
    5.4999999999881310E-01     0.0000000000000000E+00     0.0000000000000000E+00 
    9.9999999999814140E-02     0.0000000000000000E+00     0.0000000000000000E+00 
    1.4999999999970290E-01     0.0000000000000000E+00     0.0000000000000000E+00 
    1.9999999999955689E-01     0.0000000000000000E+00     0.0000000000000000E+00 
    2.4999999999941089E-01     0.0000000000000000E+00     0.0000000000000000E+00 
    2.9999999999926502E-01     0.0000000000000000E+00     0.0000000000000000E+00 
    3.4999999999911913E-01     0.0000000000000000E+00     0.0000000000000000E+00 
    3.9999999999897312E-01     0.0000000000000000E+00     0.0000000000000000E+00 
    4.4999999999882723E-01     0.0000000000000000E+00     0.0000000000000000E+00 
    4.9999999999869210E-01     0.0000000000000000E+00     0.0000000000000000E+00 
    4.9999999999899403E-02     0.0000000000000000E+00     0.0000000000000000E+00 
    5.9999999999894504E-01     0.0000000000000000E+00     0.0000000000000000E+00 
    6.4999999999907687E-01     0.0000000000000000E+00     0.0000000000000000E+00 
    6.9999999999920870E-01     0.0000000000000000E+00     0.0000000000000000E+00 
    7.4999999999934064E-01     0.0000000000000000E+00     0.0000000000000000E+00 
    7.9999999999947247E-01     0.0000000000000000E+00     0.0000000000000000E+00 
    8.4999999999960441E-01     0.0000000000000000E+00     0.0000000000000000E+00 
    8.9999999999973623E-01     0.0000000000000000E+00     0.0000000000000000E+00 
    9.4999999999986817E-01     0.0000000000000000E+00     0.0000000000000000E+00 
    1.0000000000000000E+00     5.2499999999875258E-01     0.0000000000000000E+00 
    1.0000000000000000E+00     7.4999999999856765E-02     0.0000000000000000E+00 
    1.0000000000000000E+00     1.2499999999975850E-01     0.0000000000000000E+00 
    1.0000000000000000E+00     1.7499999999962990E-01     0.0000000000000000E+00 
    1.0000000000000000E+00     2.2499999999948389E-01     0.0000000000000000E+00 
    1.0000000000000000E+00     2.7499999999933789E-01     0.0000000000000000E+00 
    1.0000000000000000E+00     3.2499999999919210E-01     0.0000000000000000E+00 
    1.0000000000000000E+00     3.7499999999904610E-01     0.0000000000000000E+00 
    1.0000000000000000E+00     4.2499999999890020E-01     0.0000000000000000E+00 
    1.0000000000000000E+00     4.7499999999875958E-01     0.0000000000000000E+00 
    1.0000000000000000E+00     2.4999999999949701E-02     0.0000000000000000E+00 
    1.0000000000000000E+00     5.7499999999887907E-01     0.0000000000000000E+00 
    1.0000000000000000E+00     6.2499999999901101E-01     0.0000000000000000E+00 
    1.0000000000000000E+00     6.7499999999914273E-01     0.0000000000000000E+00 
    1.0000000000000000E+00     7.2499999999927467E-01     0.0000000000000000E+00 
    1.0000000000000000E+00     7.7499999999940661E-01     0.0000000000000000E+00 
    1.0000000000000000E+00     8.2499999999953844E-01     0.0000000000000000E+00 
    1.0000000000000000E+00     8.7499999999967026E-01     0.0000000000000000E+00 
    1.0000000000000000E+00     9.2499999999980220E-01     0.0000000000000000E+00 
    1.0000000000000000E+00     9.7499999999993414E-01     0.0000000000000000E+00 
    1.0000000000000000E+00     5.4999999999881310E-01     0.0000000000000000E+00 
    1.0000000000000000E+00     9.9999999999814140E-02     0.0000000000000000E+00 
    1.0000000000000000E+00     1.4999999999970290E-01     0.0000000000000000E+00 
    1.0000000000000000E+00     1.9999999999955689E-01     0.0000000000000000E+00 
    1.0000000000000000E+00     2.4999999999941089E-01     0.0000000000000000E+00 
    1.0000000000000000E+00     2.9999999999926502E-01     0.0000000000000000E+00 
    1.0000000000000000E+00     3.4999999999911913E-01     0.0000000000000000E+00 
    1.0000000000000000E+00     3.9999999999897312E-01     0.0000000000000000E+00 
    1.0000000000000000E+00     4.4999999999882723E-01     0.0000000000000000E+00 
    1.0000000000000000E+00     4.9999999999869210E-01     0.0000000000000000E+00 
    1.0000000000000000E+00     4.9999999999899403E-02     0.0000000000000000E+00 
    1.0000000000000000E+00     5.9999999999894504E-01     0.0000000000000000E+00 
    1.0000000000000000E+00     6.4999999999907687E-01     0.0000000000000000E+00 
    1.0000000000000000E+00     6.9999999999920870E-01     0.0000000000000000E+00 
    1.0000000000000000E+00     7.4999999999934064E-01     0.0000000000000000E+00 
    1.0000000000000000E+00     7.9999999999947247E-01     0.0000000000000000E+00 
    1.0000000000000000E+00     8.4999999999960441E-01     0.0000000000000000E+00 
    1.0000000000000000E+00     8.9999999999973623E-01     0.0000000000000000E+00 
    1.0000000000000000E+00     9.4999999999986817E-01     0.0000000000000000E+00 
    4.7500000000196618E-01     1.0000000000000000E+00     0.0000000000000000E+00 
    9.2499999999968763E-01     1.0000000000000000E+00     0.0000000000000000E+00 
    8.7499999999961831E-01     1.0000000000000000E+00     0.0000000000000000E+00 
    8.2499999999982654E-01     1.0000000000000000E+00     0.0000000000000000E+00 
    7.7500000000017355E-01     1.0000000000000000E+00     0.0000000000000000E+00 
    7.2500000000052045E-01     1.0000000000000000E+00     0.0000000000000000E+00 
    6.7500000000086724E-01     1.0000000000000000E+00     0.0000000000000000E+00 
    6.2500000000121403E-01     1.0000000000000000E+00     0.0000000000000000E+00 
    5.7500000000156093E-01     1.0000000000000000E+00     0.0000000000000000E+00 
    5.2500000000189684E-01     1.0000000000000000E+00     0.0000000000000000E+00 
    9.7499999999989595E-01     1.0000000000000000E+00     0.0000000000000000E+00 
    4.2500000000176902E-01     1.0000000000000000E+00     0.0000000000000000E+00 
    3.7500000000156092E-01     1.0000000000000000E+00     0.0000000000000000E+00 
    3.2500000000135282E-01     1.0000000000000000E+00     0.0000000000000000E+00 
    2.7500000000114472E-01     1.0000000000000000E+00     0.0000000000000000E+00 
    2.2500000000093659E-01     1.0000000000000000E+00     0.0000000000000000E+00 
    1.7500000000072849E-01     1.0000000000000000E+00     0.0000000000000000E+00 
    1.2500000000052039E-01     1.0000000000000000E+00     0.0000000000000000E+00 
    7.5000000000312261E-02     1.0000000000000000E+00     0.0000000000000000E+00 
    2.5000000000104109E-02     1.0000000000000000E+00     0.0000000000000000E+00 
    4.5000000000187301E-01     1.0000000000000000E+00     0.0000000000000000E+00 
    8.9999999999958358E-01     1.0000000000000000E+00     0.0000000000000000E+00 
    8.4999999999965303E-01     1.0000000000000000E+00     0.0000000000000000E+00 
    8.0000000000000004E-01     1.0000000000000000E+00     0.0000000000000000E+00 
    7.5000000000034706E-01     1.0000000000000000E+00     0.0000000000000000E+00 
    7.0000000000069384E-01     1.0000000000000000E+00     0.0000000000000000E+00 
    6.5000000000104063E-01     1.0000000000000000E+00     0.0000000000000000E+00 
    6.0000000000138742E-01     1.0000000000000000E+00     0.0000000000000000E+00 
    5.5000000000173432E-01     1.0000000000000000E+00     0.0000000000000000E+00 
    5.0000000000205946E-01     1.0000000000000000E+00     0.0000000000000000E+00 
    9.4999999999979179E-01     1.0000000000000000E+00     0.0000000000000000E+00 
    4.0000000000166491E-01     1.0000000000000000E+00     0.0000000000000000E+00 
    3.5000000000145681E-01     1.0000000000000000E+00     0.0000000000000000E+00 
    3.0000000000124871E-01     1.0000000000000000E+00     0.0000000000000000E+00 
    2.5000000000104061E-01     1.0000000000000000E+00     0.0000000000000000E+00 
    2.0000000000083251E-01     1.0000000000000000E+00     0.0000000000000000E+00 
    1.5000000000062441E-01     1.0000000000000000E+00     0.0000000000000000E+00 
    1.0000000000041630E-01     1.0000000000000000E+00     0.0000000000000000E+00 
[...]
CELL_DATA 1600 
SCALARS Pressure double 1 
LOOKUP_TABLE default 

    1.1727199329258782E+00 
    1.1260547621018304E+00 
    1.1236105275671764E+00 
    1.1569650980195725E+00 
    1.1443182307746418E+00 
    1.1199038776252164E+00 
    1.1156190592101130E+00 
    1.1339359156399964E+00 
    1.1252250195823850E+00 
    1.1111411321550015E+00 
    1.1066828471765355E+00 
    1.1177739851406077E+00 
    1.1112928024494351E+00 
    1.1023570569569168E+00 
    1.0982191215378523E+00 
    1.1055736679778474E+00 
    1.1004651615228107E+00 
    1.0942917682449631E+00 
    1.0905796431030155E+00 
    1.0958551235272143E+00 
    1.0916591594800218E+00 
    1.0870777911942482E+00 
    1.0837765577234293E+00 
    1.0878128181776687E+00 
    1.0842661954926240E+00 
    1.0806643796366953E+00 
    1.0777293369259813E+00 
    1.0809801588627781E+00 
    1.0779236684266700E+00 
    1.0749599783845929E+00 
    1.0723457268822574E+00 
    1.0750718497961733E+00 
    1.0724045887374747E+00 
    1.0698770448033599E+00 
    1.0675454663065063E+00 
    1.0699054929853555E+00 
    1.0675611156620934E+00 
    1.0653435590114044E+00 
    1.0632648514840712E+00 
    1.0653603674791581E+00 
    1.0632940668629147E+00 
    1.0613037472883815E+00 
    1.0594554371245128E+00 
    1.0613545920588012E+00 
    1.0595356095073305E+00 
    1.0577158151292534E+00 
    1.0560814022382430E+00 
    1.0578318598896417E+00 
    1.0562389882166867E+00 
    1.0545492776842136E+00 
    1.0531170186667429E+00 
    1.0547534078437328E+00 
    1.0533721907566873E+00 
    1.0517826476245760E+00 
    1.0505445861233618E+00 
    1.0520929781538504E+00 
    1.0509139063301176E+00 
    1.0494016139039639E+00 
    1.0483528307494030E+00 
    1.0498335430164043E+00 
    1.0488508279426045E+00 
    1.0473976166500865E+00 
    1.0465355798864866E+00 
    1.0479650062850672E+00 
    1.0471755289553837E+00 
    1.0457664669709490E+00 
    1.0450899705764916E+00 
    1.0464818572353127E+00 
    1.0458830348129768E+00 
    1.0445052957121512E+00 
    1.0440102179945903E+00 
    1.0453767657850428E+00 
    1.0449575389879970E+00 
    1.0435991572675896E+00 
    1.0432600810601991E+00 
    1.0446136318907444E+00 
    1.0443433382937974E+00 
    1.0429926405281134E+00 
    1.0428539142517421E+00 
    1.0442029513221742E+00 
    1.1019184519644398E+00 
    1.0843240588563283E+00 
    1.0839437958513172E+00 
    1.1011339616664724E+00 
    1.0996902249044520E+00 
    1.0832076075644321E+00 
    1.0821575964414651E+00 
    1.0977453417513929E+00 
    1.0954467228443687E+00 
    1.0808439762373094E+00 
    1.0793183226044103E+00 
    1.0929168841910264E+00 
    1.0902514582189080E+00 
    1.0776293098737435E+00 
    1.0758204491226191E+00 
    1.0875221365359717E+00 
    1.0847810954951700E+00 
    1.0739292117367163E+00 
    1.0719870128621545E+00 
    1.0820653857533740E+00 
    1.0794007105620409E+00 
    1.0700196704498726E+00 
    1.0680480843048041E+00 
    1.0768044560907322E+00 
    1.0742880231295826E+00 
    1.0660889779319158E+00 
    1.0641556143509086E+00 
    1.0718585738298883E+00 
    1.0695203162437885E+00 
    1.0622584414749248E+00 
    1.0604056498260530E+00 
    1.0672754362276284E+00 
    1.0651247663730488E+00 
    1.0586036409187050E+00 
    1.0568574127665815E+00 
    1.0630682618835146E+00 
    1.0611053363127798E+00 
    1.0551708725618378E+00 
    1.0535470875506370E+00 
    1.0592350964369981E+00 
    1.0574565050179017E+00 
    1.0519884846987977E+00 
    1.0504970086407124E+00 
    1.0557684923169046E+00 
    1.0541700313860090E+00 
    1.0490742460608957E+00 
    1.0477215233016568E+00 
    1.0526601878968589E+00 
    1.0512381521682546E+00 
    1.0464399827335245E+00 
    1.0452306423034718E+00 
    1.0499032587922508E+00 
    1.0486549975808779E+00 
    1.0440944416742342E+00 
    1.0430322774198078E+00 
    1.0474930182332127E+00 
    1.0464171299040244E+00 
    1.0420450286932892E+00 
    1.0411335732605729E+00 
    1.0454272953271995E+00 
    1.0445236163498957E+00 
    1.0402987907968890E+00 
    1.0395415431306376E+00 
    1.0437063010953105E+00 
    1.0429755860964853E+00 
    1.0388626030701653E+00 
    1.0382624626180099E+00 
    1.0423315473649390E+00 
    1.0417736576102981E+00 
    1.0377408743636465E+00 
    1.0372958511277837E+00 
    1.0412998195635661E+00 
    1.0409043763174139E+00 
    1.0369215884036405E+00 
    1.0366050643178630E+00 
    1.0405748913779649E+00 
    1.0403137699190914E+00 
    1.0363530134162120E+00 
    1.0362237751671455E+00 
    1.0401788514240224E+00 
    1.0694471764550881E+00 
    1.0558725828591236E+00 
    1.0557229577916409E+00 
    1.0692215540048864E+00 
    1.0687778065389635E+00 
    1.0554267903635306E+00 
    1.0549905084024305E+00 
    1.0681306469808161E+00 
    1.0672997582359425E+00 
    1.0544231831754938E+00 
    1.0537358964651327E+00 
    1.0663077852975549E+00 
    1.0651785767737452E+00 
    1.0529410807966639E+00 
    1.0520519073146737E+00 
    1.0639358210958769E+00 
    1.0626020932163647E+00 
    1.0510817638314229E+00 
    1.0500438405626811E+00 
    1.0611982613634288E+00 
    1.0597431785426339E+00 
    1.0489508236995682E+00 
    1.0478146865124240E+00 
    1.0582535820871639E+00 
    1.0567441344152020E+00 
    1.0466465625828554E+00 
    1.0454566843337252E+00 
    1.0552275518677836E+00 
    1.0537147821294794E+00 
    1.0442543708432572E+00 
    1.0430480509207698E+00 
    1.0522152024945335E+00 
    1.0507368205808283E+00 
    1.0418453098663734E+00 
    1.0406529507923556E+00 
    1.0492864660888701E+00 
    1.0478699671972038E+00 
    1.0394770636088357E+00 
    1.0383230966636243E+00 
    1.0464923085963573E+00 
    1.0451577703844843E+00 
    1.0371959275516334E+00 
    1.0360999307935963E+00 
    1.0438700484106862E+00 
    1.0426323574166450E+00 
    1.0350390409694159E+00 
    1.0340168105252947E+00 
    1.0414475186866337E+00 
    1.0403180340059159E+00 
    1.0330364618984162E+00 
    1.0321009338475990E+00 
    1.0392461476344714E+00 
    1.0382338977663672E+00 
    1.0312129219482102E+00 
    1.0303749130628479E+00 
    1.0372831585465898E+00 
    1.0363956730333934E+00 
    1.0295892130857229E+00 
    1.0288579659419901E+00 
    1.0355730761474768E+00 
    1.0348169035532542E+00 
    1.0281831584692336E+00 
    1.0275665971763519E+00 
    1.0341285746088442E+00 
    1.0335093181786892E+00 
    1.0270098219995796E+00 
    1.0265138785110124E+00 
    1.0329599678537809E+00 
    1.0324804760648718E+00 
    1.0260787926922483E+00 
    1.0257024484270190E+00 
    1.0320688633079440E+00 
    1.0317190035459205E+00 
    1.0253781621904279E+00 
    1.0250907003780974E+00 
    1.0314169567346385E+00 
    1.0311756646699057E+00 
    1.0248610284941364E+00 
    1.0247468880254302E+00 
    1.0310535430895045E+00 
    1.0429317616987761E+00 
    1.0302609304635690E+00 
    1.0301814914722975E+00 
    1.0428253539039158E+00 
    1.0426140699365927E+00 
    1.0300234872957208E+00 
    1.0297888438158176E+00 
    1.0423012183701208E+00 
    1.0418915912182760E+00 
    1.0294803839933988E+00 
    1.0291017350748184E+00 
    1.0413912362219979E+00 
    1.0408071929791658E+00 
    1.0286572125310356E+00 
    1.0281516922969536E+00 
    1.0401472211218816E+00 
    1.0394195412368534E+00 
    1.0275904802580940E+00 
    1.0269791860607018E+00 
    1.0386326024503298E+00 
    1.0377948845446179E+00 
    1.0263236064669801E+00 
    1.0256296216963074E+00 
    1.0369147375687118E+00 
    1.0360002583162284E+00 
    1.0249031066174592E+00 
    1.0241498573697070E+00 
    1.0350592006937582E+00 
    1.0340989156844658E+00 
    1.0233755330188892E+00 
    1.0225856111827172E+00 
    1.0331263160746917E+00 
    1.0321478611160888E+00 
    1.0217853561472008E+00 
    1.0209797977919555E+00 
    1.0311695566409915E+00 
    1.0301969666789159E+00 
    1.0201737195939264E+00 
    1.0193716540391258E+00 
    1.0292352332261121E+00 
    1.0282891014237547E+00 
    1.0185778839000685E+00 
    1.0177964480003379E+00 
    1.0273629479579158E+00 
    1.0264608109803757E+00 
    1.0170311502616389E+00 
    1.0162855709919270E+00 
    1.0255864202501173E+00 
    1.0247432265028202E+00 
    1.0155630795058608E+00 
    1.0148668472454767E+00 
    1.0239344292581227E+00 
    1.0231630023431826E+00 
    1.0141998605445448E+00 
    1.0135649319573286E+00 
    1.0224317162721017E+00 
    1.0217431560804522E+00 
    1.0129647084131057E+00 
    1.0124016727346923E+00 
    1.0210997317486645E+00 
    1.0205036745309353E+00 
    1.0118781306291620E+00 
    1.0113961643190714E+00 
    1.0199570027997427E+00 
    1.0194614184441106E+00 
    1.0109575097598982E+00 
    1.0105632686119768E+00 
    1.0190180499463086E+00 
    1.0186268800260858E+00 
    1.0102132857152908E+00 
    1.0099048242068951E+00 
    1.0182855316344592E+00 
    1.0179865392616858E+00 
    1.0096294101400585E+00 
    1.0093698403163565E+00 
    1.0177132878955775E+00 
    1.0174958917253742E+00 
    1.0091655743977708E+00 
    1.0090679500056945E+00 
    1.0173900292449662E+00 
    1.0176436940981985E+00 
    1.0049435792972565E+00 
    1.0048944922319154E+00 
    1.0175821732554373E+00 
    1.0174596874693760E+00 
    1.0047967045679667E+00 
    1.0046510715362504E+00 
    1.0172774711087911E+00 
    1.0170373396369046E+00 
    1.0044588477823211E+00 
    1.0042216668246797E+00 
    1.0167416477436357E+00 
    1.0163932333011829E+00 
    1.0039415115953159E+00 
    1.0036206792979112E+00 
    1.0159953527748766E+00 
    1.0155516121703485E+00 
    1.0032617426554007E+00 
    1.0028675092486821E+00 
    1.0150658969225272E+00 
    1.0145423035418071E+00 
    1.0024409804229957E+00 
    1.0019853110177057E+00 
    1.0139850752190303E+00 
    1.0133985429775014E+00 
    1.0015037709404180E+00 
    1.0009997093662004E+00 
    1.0127870733874440E+00 
    1.0121550233572156E+00 
    1.0004765221105500E+00 
    9.9993762251208362E-01 
    1.0115067021034134E+00 
    1.0108463400833747E+00 
    9.9938641597554601E-01 
    9.9882627817141767E-01 
    1.0101780644440115E+00 
    1.0095058803899146E+00 
    9.9826053676571669E-01 
    9.9769245646033089E-01 
    1.0088336577876973E+00 
    1.0081651222879433E+00 
    9.9712522705623896E-01 
    9.9656195420331983E-01 
    1.0075038502462454E+00 
    1.0068532667462540E+00 
    9.9600565246337414E-01 
    9.9545924027655097E-01 
    1.0062166460553361E+00 
    1.0055971138590796E+00 
    9.9492553636872061E-01 
    9.9440725703787647E-01 
    1.0049976505965266E+00 
    1.0044210951009247E+00 
    9.9390701354856148E-01 
    9.9342730840040150E-01 
    1.0038701474241556E+00 
    1.0033473688988148E+00 
    9.9297052816309062E-01 
    9.9253892798174881E-01 
    1.0028551754215835E+00 
    1.0023958147508105E+00 
    9.9213459662433967E-01 
    9.9175937691981275E-01 
    1.0019713063009528E+00 
    1.0015832961205449E+00 
    9.9141468866077720E-01 
    9.9110115173988944E-01 
    1.0012327330893247E+00 
    1.0009191857921196E+00 
    9.9081780386781604E-01 
    9.9056033264189713E-01 
    1.0006393598914796E+00 
    1.0003832815533733E+00 
    9.9031610120221558E-01 
    9.9007656548537093E-01 
    1.0001356756936781E+00 
    9.9994551281312671E-01 
    9.8990135117079014E-01 
    9.8982120701709131E-01 
    9.9985627025959189E-01 
    9.9207119446428882E-01 
    9.7896670120273366E-01 
    9.7893298488619196E-01 
    9.9203099773743619E-01 
    9.9195089316837504E-01 
    9.7886578126553381E-01 
    9.7876558276673442E-01 
    9.9183151257669611E-01 
    9.9167377672880430E-01 
    9.7863310048154317E-01 
    9.7846925791144868E-01 
    9.9147888445941257E-01 
    9.9124829594036246E-01 
    9.7827518074868280E-01 
    9.7805218408537087E-01 
    9.9098371217236536E-01 
    9.9068705188230732E-01 
    9.7780175779920242E-01 
    9.7752555064498214E-01 
    9.9036042673814328E-01 
    9.9000611567735730E-01 
    9.7722535350265061E-01 
    9.7690308218639399E-01 
    9.8962653905442621E-01 
    9.8922423321890074E-01 
    9.7656076017808957E-01 
    9.7620050160423555E-01 
    9.8880182603485478E-01 
    9.8836201374779831E-01 
    9.7582449472781174E-01 
    9.7543498617640745E-01 
    9.8790753950141819E-01 
    9.8744117370805717E-01 
    9.7503426607711718E-01 
    9.7462465421869005E-01 
    9.8696569638675746E-01 
    9.8648388150270083E-01 
    9.7420848731313914E-01 
    9.7378810738261012E-01 
    9.8599848327214334E-01 
    9.8551222433607821E-01 
    9.7336585125171016E-01 
    9.7294404107788335E-01 
    9.8502778565058347E-01 
    9.8454779788630031E-01 
    9.7252497579714359E-01 
    9.7211092328843207E-01 
    9.8407483406338947E-01 
    9.8361140305278116E-01 
    9.7170411294517589E-01 
    9.7130672814158303E-01 
    9.8315994341220114E-01 
    9.8272281671594930E-01 
    9.7092089769254608E-01 
    9.7054868459362975E-01 
    9.8230229889448595E-01 
    9.8190056666946191E-01 
    9.7019206852799778E-01 
    9.6985291454581413E-01 
    9.8151967285366326E-01 
    9.8116149667956976E-01 
    9.6953291133728137E-01 
    9.6923344436591963E-01 
    9.8082763915728766E-01 
    9.8051920291868566E-01 
    9.6895533581412807E-01 
    9.6869831822992170E-01 
    9.8023634040790808E-01 
    9.7997731550538214E-01 
    9.6845991303891243E-01 
    9.6823247964882109E-01 
    9.7973624330900799E-01 
    9.7949624826088355E-01 
    9.6799430821319110E-01 
    9.6776345311999856E-01 
    9.7926094582868484E-01 
    9.7910043271139935E-01 
    9.6761506582787027E-01 
    9.6755080062564502E-01 
    9.7902949504364634E-01 
    9.6558978730008882E-01 
    9.5191362581680761E-01 
    9.5188818055769608E-01 
    9.6556083941206106E-01 
    9.6550313397502574E-01 
    9.5183745439347966E-01 
    9.5176178762244423E-01 
    9.6541707249435860E-01 
    9.6530322887925257E-01 
    9.5166166184064660E-01 
    9.5153769706074909E-01 
    9.6516234545844626E-01 
    9.6499532628277918E-01 
    9.5139064700540210E-01 
    9.5122139310065712E-01 
    9.6480322862450618E-01 
    9.6458725318406913E-01 
    9.5103093753367152E-01 
    9.5082039559716514E-01 
    9.6434873333625815E-01 
    9.6408912368565691E-01 
    9.5059098749162485E-01 
    9.5034402973398524E-01 
    9.6380998817186192E-01 
    9.6351298794367968E-01 
    9.5008092630826790E-01 
    9.4980315968247231E-01 
    9.6319986920070477E-01 
    9.6287245117813125E-01 
    9.4951228180438363E-01 
    9.4920990517601134E-01 
    9.6253261442606131E-01 
    9.6218228950831719E-01 
    9.4889769409181779E-01 
    9.4857735610961558E-01 
    9.6182344621833571E-01 
    9.6145808338140681E-01 
    9.4825063380468055E-01 
    9.4791929683652876E-01 
    9.6108821928308286E-01 
    9.6071588273192565E-01 
    9.4758513433226654E-01 
    9.4724994755701553E-01 
    9.6034310472817341E-01 
    9.5997191066272980E-01 
    9.4691554279372447E-01 
    9.4658372427749959E-01 
    9.5960431290151105E-01 
    9.5924230349424577E-01 
    9.4625628689325647E-01 
    9.4593500808322173E-01 
    9.5888784653095682E-01 
    9.5854286923172116E-01 
    9.4562163787059828E-01 
    9.4531788473811751E-01 
    9.5820924991004153E-01 
    9.5788879883131461E-01 
    9.4502539252515794E-01 
    9.4474569793284724E-01 
    9.5758322324686895E-01 
    9.5729405781239696E-01 
    9.4448014688795567E-01 
    9.4422972675411465E-01 
    9.5702252209496574E-01 
    9.5676923127968061E-01 
    9.4399473104760834E-01 
    9.4377406844019063E-01 
    9.5653360791197928E-01 
    9.5631256018307942E-01 
    9.4356358950963337E-01 
    9.4335063992588497E-01 
    9.5609660079580816E-01 
    9.5586110418406389E-01 
    9.4311396241155343E-01 
    9.4290265435571274E-01 
    9.5563809655377019E-01 
    9.5549895821300557E-01 
    9.4277383363420830E-01 
    9.4271487816036126E-01 
    9.5543775067217018E-01 
    9.3792110284690311E-01 
    9.2360241976882340E-01 
    9.2358124687793663E-01 
    9.3789818580237805E-01 
    9.3785249816531957E-01 
    9.2353903515175639E-01 
    9.2347605448968662E-01 
    9.3778433834951724E-01 
    9.3769412505545213E-01 
    9.2339268118874906E-01 
    9.2328939569443547E-01 
    9.3758239487690476E-01 
    9.3744979875630796E-01 
    9.2316677974421701E-01 
    9.2302551278848888E-01 
    9.3729709748025181E-01 
    9.3712515647839179E-01 
    9.2286636787526888E-01 
    9.2269020711360972E-01 
    9.3693494008278577E-01 
    9.3672750536169280E-01 
    9.2249797679535739E-01 
    9.2229070223921295E-01 
    9.3650399562345255E-01 
    9.3626563367625026E-01 
    9.2206948241306441E-01 
    9.2183548438522001E-01 
    9.3601371492235030E-01 
    9.3574960035828381E-01 
    9.2158993765021779E-01 
    9.2133412836916595E-01 
    9.3547470954440448E-01 
    9.3519051359747785E-01 
    9.2106939355721762E-01 
    9.2079711524084251E-01 
    9.3489852824789510E-01 
    9.3460030698770014E-01 
    9.2051871459362555E-01 
    9.2023564603897545E-01 
    9.3429743431525258E-01 
    9.3399151905391509E-01 
    9.1994939127725861E-01 
    9.1966145314572167E-01 
    9.3368418768013572E-01 
    9.3337707752970356E-01 
    9.1937334913736701E-01 
    9.1908660426072930E-01 
    9.3307182963858948E-01 
    9.3277008077265533E-01 
    9.1880274265711304E-01 
    9.1852327688114688E-01 
    9.3247345381471636E-01 
    9.3218354490266608E-01 
    9.1824969273087564E-01 
    9.1798342543188260E-01 
    9.3190190409961338E-01 
    9.3163000298160636E-01 
    9.1772581872939973E-01 
    9.1747804999573135E-01 
    9.3136917554170928E-01 
    9.3112050519670020E-01 
    9.1724098835462575E-01 
    9.1701492175897614E-01 
    9.3088460525914662E-01 
    9.3066118717716417E-01 
    9.1679901519521445E-01 
    9.1659010073833891E-01 
    9.3044814773889473E-01 
    9.3023916455397082E-01 
    9.1637915276164517E-01 
    9.1613943221969285E-01 
    9.3001541759045092E-01 
    9.2976922538352813E-01 
    9.1588262472946147E-01 
    9.1569783063973720E-01 
    9.2957269618029392E-01 
    9.2945782022657131E-01 
    9.1559321983265762E-01 
    9.1554157099480260E-01 
    9.2940288335566623E-01 
    9.0895358146916394E-01 
    8.9397549497170847E-01 
    8.9395588662021719E-01 
    9.0893348883571123E-01 
    9.0889342927029859E-01 
    8.9391679049061923E-01 
    8.9385844719460605E-01 
    9.0883365406622718E-01 
    9.0875451238170279E-01 
    8.9378119100338327E-01 
    8.9368544733923683E-01 
    9.0865644892892095E-01 
    9.0854000151875591E-01 
    8.9357173053599581E-01 
    8.9344064117252164E-01 
    9.0840579805321819E-01 
    9.0825455308813929E-01 
    8.9329286304443212E-01 
    8.9312915983783570E-01 
    9.0808706405189876E-01 
    9.0790420717797027E-01 
    8.9295037154779733E-01 
    8.9275741067280112E-01 
    9.0770693319568707E-01 
    9.0749626281690665E-01 
    8.9255125821051506E-01 
    8.9233295947647662E-01 
    9.0727328205208679E-01 
    9.0703913738566100E-01 
    8.9210361976410280E-01 
    8.9186439986052279E-01 
    9.0679503083645874E-01 
    9.0654221492337272E-01 
    8.9161651142713683E-01 
    8.9136121224558162E-01 
    9.0628198754866629E-01 
    9.0601568679974842E-01 
    8.9109980131703148E-01 
    8.9083361378219905E-01 
    9.0574468565235688E-01 
    9.0547038652956591E-01 
    8.9056401559543852E-01 
    8.9029239782829150E-01 
    9.0519421562337032E-01 
    9.0491761680219585E-01 
    8.9002017037464598E-01 
    8.8974875463981706E-01 
    9.0464204477527010E-01 
    9.0436895689453800E-01 
    8.8947957443481296E-01 
    8.8921404359124334E-01 
    9.0409980240213794E-01 
    9.0383600677344167E-01 
    8.8895354740850219E-01 
    8.8869941224647941E-01 
    9.0357894644416459E-01 
    9.0332990445343797E-01 
    8.8845285207675340E-01 
    8.8821487020263368E-01 
    9.0308998824528131E-01 
    9.0285997311588118E-01 
    8.8798607350895542E-01 
    8.8776630848728055E-01 
    9.0263999805072759E-01 
    9.0242893880884012E-01 
    8.8755387325474100E-01 
    8.8734337405711705E-01 
    9.0222287107946986E-01 
    9.0201006425462427E-01 
    8.8711827928754028E-01 
    8.8685135727786724E-01 