# vtk DataFile Version 2.0
Pressure Field Data 
ASCII 
DATASET UNSTRUCTURED_GRID 

POINTS 1681 double 

    0.0000000000000000E+00     0.0000000000000000E+00     0.0000000000000000E+00 
    1.0000000000000000E+00     0.0000000000000000E+00     0.0000000000000000E+00 
    1.0000000000000000E+00     1.0000000000000000E+00     0.0000000000000000E+00 
    0.0000000000000000E+00     1.0000000000000000E+00     0.0000000000000000E+00 
    5.2499999999875258E-01     0.0000000000000000E+00     0.0000000000000000E+00 
    7.4999999999856765E-02     0.0000000000000000E+00     0.0000000000000000E+00 
    1.2499999999975850E-01     0.0000000000000000E+00     0.0000000000000000E+00 
    1.7499999999962990E-01     0.0000000000000000E+00     0.0000000000000000E+00 
    2.2499999999948389E-01     0.0000000000000000E+00     0.0000000000000000E+00 
    2.7499999999933789E-01     0.0000000000000000E+00     0.0000000000000000E+00 
    3.2499999999919210E-01     0.0000000000000000E+00     0.0000000000000000E+00 
    3.7499999999904610E-01     0.0000000000000000E+00     0.0000000000000000E+00 
    4.2499999999890020E-01     0.0000000000000000E+00     0.0000000000000000E+00 
    4.7499999999875958E-01     0.0000000000000000E+00     0.0000000000000000E+00 
    2.4999999999949701E-02     0.0000000000000000E+00     0.0000000000000000E+00 
    5.7499999999887907E-01     0.0000000000000000E+00     0.0000000000000000E+00 
    6.2499999999901101E-01     0.0000000000000000E+00     0.0000000000000000E+00 
    6.7499999999914273E-01     0.0000000000000000E+00     0.0000000000000000E+00 
    7.2499999999927467E-01     0.0000000000000000E+00     0.0000000000000000E+00 
    7.7499999999940661E-01     0.0000000000000000E+00     0.0000000000000000E+00 
    8.2499999999953844E-01     0.0000000000000000E+00     0.0000000000000000E+00 
    8.7499999999967026E-01     0.0000000000000000E+00     0.0000000000000000E+00 
    9.2499999999980220E-01     0.0000000000000000E+00     0.0000000000000000E+00 
    9.7499999999993414E-01     0.0000000000000000E+00     0.0000000000000000E+00 
    5.4999999999881310E-01     0.0000000000000000E+00     0.0000000000000000E+00 
    9.9999999999814140E-02     0.0000000000000000E+00     0.0000000000000000E+00 
    1.4999999999970290E-01     0.0000000000000000E+00     0.0000000000000000E+00 
    1.9999999999955689E-01     0.0000000000000000E+00     0.0000000000000000E+00 
    2.4999999999941089E-01     0.0000000000000000E+00     0.0000000000000000E+00 
    2.9999999999926502E-01     0.0000000000000000E+00     0.0000000000000000E+00 
    3.4999999999911913E-01     0.0000000000000000E+00     0.0000000000000000E+00 
    3.9999999999897312E-01     0.0000000000000000E+00     0.0000000000000000E+00 
    4.4999999999882723E-01     0.0000000000000000E+00     0.0000000000000000E+00 
    4.9999999999869210E-01     0.0000000000000000E+00     0.0000000000000000E+00 
    4.9999999999899403E-02     0.0000000000000000E+00     0.0000000000000000E+00 
    5.9999999999894504E-01     0.0000000000000000E+00     0.0000000000000000E+00 
    6.4999999999907687E-01     0.0000000000000000E+00     0.0000000000000000E+00 
    6.9999999999920870E-01     0.0000000000000000E+00     0.0000000000000000E+00 
    7.4999999999934064E-01     0.0000000000000000E+00     0.0000000000000000E+00 
    7.9999999999947247E-01     0.0000000000000000E+00     0.0000000000000000E+00 
    8.4999999999960441E-01     0.0000000000000000E+00     0.0000000000000000E+00 
    8.9999999999973623E-01     0.0000000000000000E+00     0.0000000000000000E+00 
    9.4999999999986817E-01     0.0000000000000000E+00     0.0000000000000000E+00 
    1.0000000000000000E+00     5.2499999999875258E-01     0.0000000000000000E+00 
    1.0000000000000000E+00     7.4999999999856765E-02     0.0000000000000000E+00 
    1.0000000000000000E+00     1.2499999999975850E-01     0.0000000000000000E+00 
    1.0000000000000000E+00     1.7499999999962990E-01     0.0000000000000000E+00 
    1.0000000000000000E+00     2.2499999999948389E-01     0.0000000000000000E+00 
    1.0000000000000000E+00     2.7499999999933789E-01     0.0000000000000000E+00 
    1.0000000000000000E+00     3.2499999999919210E-01     0.0000000000000000E+00 
    1.0000000000000000E+00     3.7499999999904610E-01     0.0000000000000000E+00 
    1.0000000000000000E+00     4.2499999999890020E-01     0.0000000000000000E+00 
    1.0000000000000000E+00     4.7499999999875958E-01     0.0000000000000000E+00 
    1.0000000000000000E+00     2.4999999999949701E-02     0.0000000000000000E+00 
    1.0000000000000000E+00     5.7499999999887907E-01     0.0000000000000000E+00 
    1.0000000000000000E+00     6.2499999999901101E-01     0.0000000000000000E+00 
    1.0000000000000000E+00     6.7499999999914273E-01     0.0000000000000000E+00 
    1.0000000000000000E+00     7.2499999999927467E-01     0.0000000000000000E+00 
    1.0000000000000000E+00     7.7499999999940661E-01     0.0000000000000000E+00 
    1.0000000000000000E+00     8.2499999999953844E-01     0.0000000000000000E+00 
    1.0000000000000000E+00     8.7499999999967026E-01     0.0000000000000000E+00 
    1.0000000000000000E+00     9.2499999999980220E-01     0.0000000000000000E+00 
    1.0000000000000000E+00     9.7499999999993414E-01     0.0000000000000000E+00 
    1.0000000000000000E+00     5.4999999999881310E-01     0.0000000000000000E+00 
    1.0000000000000000E+00     9.9999999999814140E-02     0.0000000000000000E+00 
    1.0000000000000000E+00     1.4999999999970290E-01     0.0000000000000000E+00 
    1.0000000000000000E+00     1.9999999999955689E-01     0.0000000000000000E+00 
    1.0000000000000000E+00     2.4999999999941089E-01     0.0000000000000000E+00 
    1.0000000000000000E+00     2.9999999999926502E-01     0.0000000000000000E+00 
    1.0000000000000000E+00     3.4999999999911913E-01     0.0000000000000000E+00 
    1.0000000000000000E+00     3.9999999999897312E-01     0.0000000000000000E+00 
    1.0000000000000000E+00     4.4999999999882723E-01     0.0000000000000000E+00 
    1.0000000000000000E+00     4.9999999999869210E-01     0.0000000000000000E+00 
    1.0000000000000000E+00     4.9999999999899403E-02     0.0000000000000000E+00 
    1.0000000000000000E+00     5.9999999999894504E-01     0.0000000000000000E+00 
    1.0000000000000000E+00     6.4999999999907687E-01     0.0000000000000000E+00 
    1.0000000000000000E+00     6.9999999999920870E-01     0.0000000000000000E+00 
    1.0000000000000000E+00     7.4999999999934064E-01     0.0000000000000000E+00 
    1.0000000000000000E+00     7.9999999999947247E-01     0.0000000000000000E+00 
    1.0000000000000000E+00     8.4999999999960441E-01     0.0000000000000000E+00 
    1.0000000000000000E+00     8.9999999999973623E-01     0.0000000000000000E+00 
    1.0000000000000000E+00     9.4999999999986817E-01     0.0000000000000000E+00 
    4.7500000000196618E-01     1.0000000000000000E+00     0.0000000000000000E+00 
    9.2499999999968763E-01     1.0000000000000000E+00     0.0000000000000000E+00 
    8.7499999999961831E-01     1.0000000000000000E+00     0.0000000000000000E+00 
    8.2499999999982654E-01     1.0000000000000000E+00     0.0000000000000000E+00 
    7.7500000000017355E-01     1.0000000000000000E+00     0.0000000000000000E+00 
    7.2500000000052045E-01     1.0000000000000000E+00     0.0000000000000000E+00 
    6.7500000000086724E-01     1.0000000000000000E+00     0.0000000000000000E+00 
    6.2500000000121403E-01     1.0000000000000000E+00     0.0000000000000000E+00 
    5.7500000000156093E-01     1.0000000000000000E+00     0.0000000000000000E+00 
    5.2500000000189684E-01     1.0000000000000000E+00     0.0000000000000000E+00 
    9.7499999999989595E-01     1.0000000000000000E+00     0.0000000000000000E+00 
    4.2500000000176902E-01     1.0000000000000000E+00     0.0000000000000000E+00 
    3.7500000000156092E-01     1.0000000000000000E+00     0.0000000000000000E+00 
    3.2500000000135282E-01     1.0000000000000000E+00     0.0000000000000000E+00 
    2.7500000000114472E-01     1.0000000000000000E+00     0.0000000000000000E+00 
    2.2500000000093659E-01     1.0000000000000000E+00     0.0000000000000000E+00 
    1.7500000000072849E-01     1.0000000000000000E+00     0.0000000000000000E+00 
    1.2500000000052039E-01     1.0000000000000000E+00     0.0000000000000000E+00 
    7.5000000000312261E-02     1.0000000000000000E+00     0.0000000000000000E+00 
    2.5000000000104109E-02     1.0000000000000000E+00     0.0000000000000000E+00 
    4.5000000000187301E-01     1.0000000000000000E+00     0.0000000000000000E+00 
    8.9999999999958358E-01     1.0000000000000000E+00     0.0000000000000000E+00 
    8.4999999999965303E-01     1.0000000000000000E+00     0.0000000000000000E+00 
    8.0000000000000004E-01     1.0000000000000000E+00     0.0000000000000000E+00 
    7.5000000000034706E-01     1.0000000000000000E+00     0.0000000000000000E+00 
    7.0000000000069384E-01     1.0000000000000000E+00     0.0000000000000000E+00 
    6.5000000000104063E-01     1.0000000000000000E+00     0.0000000000000000E+00 
    6.0000000000138742E-01     1.0000000000000000E+00     0.0000000000000000E+00 
    5.5000000000173432E-01     1.0000000000000000E+00     0.0000000000000000E+00 
    5.0000000000205946E-01     1.0000000000000000E+00     0.0000000000000000E+00 
    9.4999999999979179E-01     1.0000000000000000E+00     0.0000000000000000E+00 
    4.0000000000166491E-01     1.0000000000000000E+00     0.0000000000000000E+00 
    3.5000000000145681E-01     1.0000000000000000E+00     0.0000000000000000E+00 
    3.0000000000124871E-01     1.0000000000000000E+00     0.0000000000000000E+00 
    2.5000000000104061E-01     1.0000000000000000E+00     0.0000000000000000E+00 
    2.0000000000083251E-01     1.0000000000000000E+00     0.0000000000000000E+00 
    1.5000000000062441E-01     1.0000000000000000E+00     0.0000000000000000E+00 
    1.0000000000041630E-01     1.0000000000000000E+00     0.0000000000000000E+00 
[...]
CELL_DATA 1600 
SCALARS Pressure double 1 
LOOKUP_TABLE default 

    1.0493507992984878E+00 
    1.0030273353539596E+00 
    1.0006071457564982E+00 
    1.0336491814780215E+00 
    1.0210734249011169E+00 
    9.9694354922151007E-01 
    9.9271602082847099E-01 
    1.0107713413086565E+00 
    1.0021481354979469E+00 
    9.8830696852037625E-01 
    9.8392722338588534E-01 
    9.9479123288907279E-01 
    9.8840981981384168E-01 
    9.7968812859134125E-01 
    9.7564378755847747E-01 
    9.8279537505335279E-01 
    9.7779580105811592E-01 
    9.7181584026254553E-01 
    9.6820796743570392E-01 
    9.7329828492260595E-01 
    9.6921779825437737E-01 
    9.6481434263924093E-01 
    9.6162451527878701E-01 
    9.6548927554519282E-01 
    9.6206221952503423E-01 
    9.5862618994254767E-01 
    9.5580676882328230E-01 
    9.5889692731351783E-01 
    9.5596181273065117E-01 
    9.5315417068557562E-01 
    9.5065723070184827E-01 
    9.5323147959802634E-01 
    9.5068531632742470E-01 
    9.4830586135969863E-01 
    9.4609108082971527E-01 
    9.4830645712472517E-01 
    9.4608100440488052E-01 
    9.4400497123240001E-01 
    9.4204060307036219E-01 
    9.4399743971623273E-01 
    9.4204617242102284E-01 
    9.4019194652886628E-01 
    9.3845378112744049E-01 
    9.4021919027609235E-01 
    9.3850978628387749E-01 
    9.3682160978022877E-01 
    9.3529158016735348E-01 
    9.3691234328227158E-01 
    9.3542216272352274E-01 
    9.3386041451776736E-01 
    9.3252534790380370E-01 
    9.3403532762377428E-01 
    9.3274859218793182E-01 
    9.3128407461301554E-01 
    9.3013470188404679E-01 
    9.3155929241975932E-01 
    9.3046527329369733E-01 
    9.2907571012412526E-01 
    9.2810591852687074E-01 
    9.2946482886812010E-01 
    9.2855665197711834E-01 
    9.2722445455067348E-01 
    9.2643072442168717E-01 
    9.2773978938580415E-01 
    9.2701359498406166E-01 
    9.2572437802447927E-01 
    9.2510525067783256E-01 
    9.2637766331236482E-01 
    9.2583169805790633E-01 
    9.2457323586936246E-01 
    9.2412797854993622E-01 
    9.2537520638076720E-01 
    9.2500678527716806E-01 
    9.2376815365639819E-01 
    9.2348990938745534E-01 
    9.2472258262414009E-01 
    9.2451465712000547E-01 
    9.2328523478834423E-01 
    9.2316847856750217E-01 
    9.2439646926529373E-01 
    9.7937421949472858E-01 
    9.6236766950752795E-01 
    9.6199835545672652E-01 
    9.7860423820093301E-01 
    9.7718903195668394E-01 
    9.6128400985179574E-01 
    9.6026628895467026E-01 
    9.7528539926864233E-01 
    9.7303941886365863E-01 
    9.5899480180440677E-01 
    9.5752041997489101E-01 
    9.7057233013895750E-01 
    9.6797856735765975E-01 
    9.5589105620654669E-01 
    9.5414943161848853E-01 
    9.6532870462612641E-01 
    9.6267387743415944E-01 
    9.5233221963928250E-01 
    9.5047004379520794E-01 
    9.6005016695654832E-01 
    9.5748237325548591E-01 
    9.4858794683011149E-01 
    9.4670607670809614E-01 
    9.5498704089635422E-01 
    9.5257478623709968E-01 
    9.4484043305507270E-01 
    9.4300358575893384E-01 
    9.5025203995193974E-01 
    9.4802232750106663E-01 
    9.4120532174240734E-01 
    9.3945320301497115E-01 
    9.4588719710360680E-01 
    9.4384688489304613E-01 
    9.3775303460566384E-01 
    9.3610924905251580E-01 
    9.4190078719504933E-01 
    9.4004779286493345E-01 
    9.3452521767475172E-01 
    9.3300349979387998E-01 
    9.3828651497258797E-01 
    9.3661545060379015E-01 
    9.3154604061043034E-01 
    9.3015432732062120E-01 
    9.3503308964698872E-01 
    9.3353798760219575E-01 
    9.2882951169919781E-01 
    9.2757250601397534E-01 
    9.3212881319167384E-01 
    9.3080437846859743E-01 
    9.2638405788920297E-01 
    9.2526480864340910E-01 
    9.2956365689528198E-01 
    9.2840579325572969E-01 
    9.2421533869623462E-01 
    9.2323620284460484E-01 
    9.2733010809162686E-01 
    9.2633609845014275E-01 
    9.2232795750139374E-01 
    9.2149118126901342E-01 
    9.2542343594064158E-01 
    9.2459196214893991E-01 
    9.2072648924822054E-01 
    9.2003453960611159E-01 
    9.2384167971604170E-01 
    9.2317273308404435E-01 
    9.1941602629510444E-01 
    9.1887163963119944E-01 
    9.2258536134960589E-01 
    9.2207977641155370E-01 
    9.1840194650475848E-01 
    9.1800707785244462E-01 
    9.2165585498284086E-01 
    9.2131240964285543E-01 
    9.1768599005251172E-01 
    9.1743488180658417E-01 
    9.2104561980812938E-01 
    9.2084744114861372E-01 
    9.1724564959775168E-01 
    9.1713605016887734E-01 
    9.2073370681125966E-01 
    9.4817184914170305E-01 
    9.3536314026029022E-01 
    9.3522124445222388E-01 
    9.4795523742494481E-01 
    9.4752948997453035E-01 
    9.3494050968922859E-01 
    9.3452721262191196E-01 
    9.4690909543526447E-01 
    9.4611340235367314E-01 
    9.3399019906270719E-01 
    9.3334025786775887E-01 
    9.4516463075191881E-01 
    9.4408613348040871E-01 
    9.3258947000082870E-01 
    9.3175060596459658E-01 
    9.4290105060763418E-01 
    9.4163137200631764E-01 
    9.3083661337600976E-01 
    9.2986021175747002E-01 
    9.4029735760336741E-01 
    9.3891724009628375E-01 
    9.2883359442656133E-01 
    9.2776822703121276E-01 
    9.3750713362995319E-01 
    9.3608108181174188E-01 
    9.2667472725899847E-01 
    9.2556280888157805E-01 
    9.3465119216518278E-01 
    9.3322781774935271E-01 
    9.2444127415377597E-01 
    9.2331804060728229E-01 
    9.3181975842282583E-01 
    9.3043446355747472E-01 
    9.2220019074255211E-01 
    9.2109403558857972E-01 
    9.2907822498526027E-01 
    9.2775635393633837E-01 
    9.2000518532961417E-01 
    9.1893862208574661E-01 
    9.2647333911811325E-01 
    9.2523298528778342E-01 
    9.1789877145806709E-01 
    9.1688957063191945E-01 
    9.2403853301859329E-01 
    9.2289276111449003E-01 
    9.1591453171838177E-01 
    9.1497679965536094E-01 
    9.2179807348505594E-01 
    9.2075657239331266E-01 
    9.1407920443438651E-01 
    9.1322430770858010E-01 
    9.1977011992977120E-01 
    9.1884038940782631E-01 
    9.1241444400138927E-01 
    9.1165175678836585E-01 
    9.1796890814822818E-01 
    9.1715709281753921E-01 
    9.1093822965044891E-01 
    9.1027571241669025E-01 
    9.1640627803691865E-01 
    9.1571773815309998E-01 
    9.0966594147172053E-01 
    9.0911055144349984E-01 
    9.1509270017492872E-01 
    9.1453234097492764E-01 
    9.0861107023595289E-01 
    9.0816887591592876E-01 
    9.1403774906371271E-01 
    9.1360980076422849E-01 
    9.0778506307344597E-01 
    9.0746010443011837E-01 
    9.1324883742812468E-01 
    9.1295391167884943E-01 
    9.0719307602420440E-01 
    9.0698000873042106E-01 
    9.1272117947790676E-01 
    9.1254239023742612E-01 
    9.0681240918031292E-01 
    9.0671277652311622E-01 
    9.1243757611994414E-01 
    9.2326708441241967E-01 
    9.1151567673490042E-01 
    9.1144232720665519E-01 
    9.2316747529182430E-01 
    9.2296975740168896E-01 
    9.1129646765252859E-01 
    9.1107992222520418E-01 
    9.2267711995901081E-01 
    9.2229418184624068E-01 
    9.1079537059244875E-01 
    9.1044625707162752E-01 
    9.2182676698798671E-01 
    9.2128164499502652E-01 
    9.1003667730843185E-01 
    9.0957125381811599E-01 
    9.2066626465493706E-01 
    9.1998850054121661E-01 
    9.0905500910821935E-01 
    9.0849324329270731E-01 
    9.1925642636829985E-01 
    9.1847812274342677E-01 
    9.0789142128782896E-01 
    9.0725507292447682E-01 
    9.1766152211976804E-01 
    9.1681429021337224E-01 
    9.0658970775810743E-01 
    9.0590074509053220E-01 
    9.1594374083643415E-01 
    9.1505677981455968E-01 
    9.0519345876507762E-01 
    9.0447293564197317E-01 
    9.1415987314596958E-01 
    9.1325903458703617E-01 
    9.0374404626373683E-01 
    9.0301142602944784E-01 
    9.1235982821027317E-01 
    9.1146738202339506E-01 
    9.0227946515998259E-01 
    9.0155230580634127E-01 
    9.1058640935115065E-01 
    9.0972123529242521E-01 
    9.0083384479067141E-01 
    9.0012774064341361E-01 
    9.0887582612966589E-01 
    9.0805382006283575E-01 
    8.9943742378695890E-01 
    8.9876610889938913E-01 
    9.0725855805646949E-01 
    9.0649311392478016E-01 
    8.9811680865904076E-01 
    8.9749234821150270E-01 
    9.0576032303821774E-01 
    9.0506280921546212E-01 
    8.9689537980306977E-01 
    8.9632839706709555E-01 
    9.0440300945846652E-01 
    9.0378319616010561E-01 
    8.9579374838291048E-01 
    8.9529364842468651E-01 
    9.0320549616098167E-01 
    9.0267190525669039E-01 
    8.9483018613487386E-01 
    8.9440532495712144E-01 
    9.0218429461757277E-01 
    9.0174439987735111E-01 
    8.9402088493333054E-01 
    8.9367848146015727E-01 
    9.0135376949128621E-01 
    9.0101361788242174E-01 
    8.9337936456841427E-01 
    8.9312404438526183E-01 
    9.0072446873213108E-01 
    9.0048535562556087E-01 
    8.9291146681087630E-01 
    8.9273723985930331E-01 
    9.0029211757717986E-01 
    9.0013600527733473E-01 
    8.9259253867138622E-01 
    8.9250448635130619E-01 
    9.0004194382128344E-01 
    8.9988945247030061E-01 
    8.8824963275872326E-01 
    8.8820564150673120E-01 
    8.9983346651301044E-01 
    8.9972201509304117E-01 
    8.8811801021142578E-01 
    8.8798751273634935E-01 
    8.9955624251825150E-01 
    8.9933784042775478E-01 
    8.8781529389002045E-01 
    8.8760285028886543E-01 
    8.9906900746313745E-01 
    8.9875239514172867E-01 
    8.8735200237884471E-01 
    8.8706486099000825E-01 
    8.9839104554345373E-01 
    8.9798832476951418E-01 
    8.8674379043494156E-01 
    8.8639136979884603E-01 
    8.9754785548441118E-01 
    8.9707345128023031E-01 
    8.8601035385275329E-01 
    8.8560363480710924E-01 
    8.9656905500052286E-01 
    8.9603868255810437E-01 
    8.8517420589366536E-01 
    8.8472512752881705E-01 
    8.9548637321832836E-01 
    8.9491614682825593E-01 
    8.8425949658494896E-01 
    8.8378041908959848E-01 
    8.9433196806978810E-01 
    8.9373771750575060E-01 
    8.8329098649311533E-01 
    8.8279425549793133E-01 
    8.9313716896754491E-01 
    8.9253397269090040E-01 
    8.8229323132733761E-01 
    8.8179085422710224E-01 
    8.9193164352924903E-01 
    8.9133355354831234E-01 
    8.8128998893607757E-01 
    8.8079341682785883E-01 
    8.9074292831719259E-01 
    8.9016284624851527E-01 
    8.8030383040971449E-01 
    8.7982382986199681E-01 
    8.8959624039214436E-01 
    8.8904590214379620E-01 
    8.7935592130479856E-01 
    8.7890251648018503E-01 
    8.8851448638090536E-01 
    8.8800451756882615E-01 
    8.7846593352349467E-01 
    8.7804839843694393E-01 
    8.8751839636445751E-01 
    8.8705840612288123E-01 
    8.7765204670542452E-01 
    8.7727892403549956E-01 
    8.8662671833734330E-01 
    8.8622539501789910E-01 
    8.7693098400169278E-01 
    8.7661007732231966E-01 
    8.8585638330732563E-01 
    8.8552149085424359E-01 
    8.7631792013236798E-01 
    8.7605601282807399E-01 
    8.8522231512169236E-01 
    8.8496006939212235E-01 
    8.7582545121251287E-01 
    8.7562651546874670E-01 
    8.8473519182299631E-01 
    8.8454649402069419E-01 
    8.7545777441480799E-01 
    8.7531406514421217E-01 
    8.8438929656209808E-01 
    8.8425520174061800E-01 
    8.7518841592857333E-01 
    8.7511262616454666E-01 
    8.8417341051367493E-01 
    8.7650502594889457E-01 
    8.6459432604894293E-01 
    8.6456508277392252E-01 
    8.7646957659550773E-01 
    8.7639893241680589E-01 
    8.6450679221636595E-01 
    8.6441987824900535E-01 
    8.7629365083643440E-01 
    8.7615455351543015E-01 
    8.6430496145997016E-01 
    8.6416285423737049E-01 
    8.7598271683177054E-01 
    8.7577945636678445E-01 
    8.6399455159154459E-01 
    8.6380121945384281E-01 
    8.7554630773140385E-01 
    8.7528500489464844E-01 
    8.6358418120837555E-01 
    8.6334490297030841E-01 
    8.7499745689583908E-01 
    8.7468572370947340E-01 
    8.6308497804493822E-01 
    8.6280611095751947E-01 
    8.7435199194476709E-01 
    8.7399855097124191E-01 
    8.6251010140427464E-01 
    8.6219882843281048E-01 
    8.7362776996405267E-01 
    8.7324207626147965E-01 
    8.6187423511449901E-01 
    8.6153831392364733E-01 
    8.7284393532711935E-01 
    8.7243583251526236E-01 
    8.6119309299030911E-01 
    8.6084062334720757E-01 
    8.7202025675315986E-01 
    8.7159968618043826E-01 
    8.6048296724780371E-01 
    8.6012218759293635E-01 
    8.7117657572479901E-01 
    8.7075334654418535E-01 
    8.5976033846799305E-01 
    8.5939945676082630E-01 
    8.7033237722781609E-01 
    8.6991599662005592E-01 
    8.5904155480147604E-01 
    8.5868861393567952E-01 
    8.6950647810910753E-01 
    8.6910603520251606E-01 
    8.5834257891057864E-01 
    8.5800535290394797E-01 
    8.6871681818568491E-01 
    8.6834091161270865E-01 
    8.5767879294893234E-01 
    8.5736470535291365E-01 
    8.6798033227744020E-01 
    8.6763702707653811E-01 
    8.5706484038172392E-01 
    8.5678088473043235E-01 
    8.6731286960110587E-01 
    8.6700965285851150E-01 
    8.5651444852223402E-01 
    8.5626703942362148E-01 
    8.6672907200318816E-01 
    8.6647268289689983E-01 
    8.5604000745509579E-01 
    8.5583442654697750E-01 
    8.6624180590461874E-01 
    8.6603731426092367E-01 
    8.5565084671040426E-01 
    8.5548877718314964E-01 
    8.6585918571812048E-01 
    8.6570550959161918E-01 
    8.5534550244620156E-01 
    8.5521310238769210E-01 
    8.6557014069375227E-01 
    8.6544918931214632E-01 
    8.5509280700867796E-01 
    8.5502630208947805E-01 
    8.6537856886790898E-01 
    8.5247596677388982E-01 
    8.4012199478491167E-01 
    8.4010065566271352E-01 
    8.5245128059894604E-01 
    8.5240206713673827E-01 
    8.4005811198987590E-01 
    8.3999464490494058E-01 
    8.5232866436218324E-01 
    8.5223156276820589E-01 
    8.3991065851005020E-01 
    8.3980667831191758E-01 
    8.5211140271269481E-01 
    8.5196896863562255E-01 
    8.3968334733468331E-01 
    8.3954142089952655E-01 
    8.5180518147319639E-01 
    8.5162108980842055E-01 
    8.3938176047938429E-01 
    8.3920532685239702E-01 
    8.5141786008410036E-01 
    8.5119676613866968E-01 
    8.3901317272049802E-01 
    8.3880643493698959E-01 
    8.5095917829622103E-01 
    8.5070655222182789E-01 
    8.3858632647437203E-01 
    8.3835412825349431E-01 
    8.5044041773354007E-01 
    8.5016236774110432E-01 
    8.3811118094465109E-01 
    8.3785887683981064E-01 
    8.4987404745825346E-01 
    8.4957714401084483E-01 
    8.3759865188254801E-01 
    8.3733197792863012E-01 
    8.4927337653784962E-01 
    8.4896448685684012E-01 
    8.3706035529566081E-01 
    8.3678530564472198E-01 
    8.4865223074049922E-01 
    8.4833836982579236E-01 
    8.3650836522027372E-01 
    8.3623107845576461E-01 
    8.4802466415215638E-01 
    8.4771286529794732E-01 
    8.3595499192980660E-01 
    8.3568164862780059E-01 
    8.4740471005243301E-01 
    8.4710191451807548E-01 
    8.3541258241986482E-01 
    8.3514931259407199E-01 
    8.4680616847327783E-01 
    8.4651912971517163E-01 
    8.3489333815528421E-01 
    8.3464613134926968E-01 
    8.4624241789204102E-01 
    8.4597760690012880E-01 
    8.3440912934787836E-01 
    8.3418372187939382E-01 
    8.4572621395746472E-01 
    8.4548968127542168E-01 
    8.3397123002438645E-01 
    8.3377286589800093E-01 
    8.4526934136908372E-01 
    8.4506634696838911E-01 
    8.3358965204464852E-01 
    8.3342225925749736E-01 
    8.4488152750562329E-01 
    8.4471509793954380E-01 
    8.3327068054681530E-01 
    8.3313353282895808E-01 
    8.4456604954423675E-01 
    8.4443068529530618E-01 
    8.3300627978246711E-01 
    8.3287612069082961E-01 
    8.4429866314951885E-01 
    8.4417754433972048E-01 
    8.3275625415371590E-01 
    8.3269582422697352E-01 
    8.4411431974909101E-01 
    8.2751423074793040E-01 
    8.1464181438737227E-01 
    8.1462458932931270E-01 
    8.2749531576865265E-01 
    8.2745760415991876E-01 
    8.1459024679659309E-01 
    8.1453900462468576E-01 
    8.2740133898339185E-01 
    8.2732686639778619E-01 
    8.1447117065349928E-01 
    8.1438714177166371E-01 
    8.2723463457555735E-01 
    8.2712519090362457E-01 
    8.1428740174504421E-01 
    8.1417251824994363E-01 
    8.2699917816773849E-01 
    8.2685733003939033E-01 
    8.1404313936132011E-01 
    8.1389998962059917E-01 
    8.2670046602855196E-01 
    8.2652948601544529E-01 
    8.1374386576430946E-01 
    8.1357563217832496E-01 
    8.2634536445553219E-01 
    8.2614914434287812E-01 
    8.1339621613534441E-01 
    8.1320660286943680E-01 
    8.2594193101115954E-01 
    8.2572488584634962E-01 
    8.1300783053879433E-01 
    8.1280098512534915E-01 
    8.2549921997961961E-01 
    8.2526618802285978E-01 
    8.1258719531723334E-01 
    8.1236762741705304E-01 
    8.2502708190239582E-01 
    8.2478322483886535E-01 
    8.1214348031550254E-01 
    8.1191598056579672E-01 
    8.2453596551271924E-01 
    8.2428667244502374E-01 
    8.1168637758944429E-01 
    8.1145593903719393E-01 
    8.2403672861131194E-01 
    8.2378752629042162E-01 
    8.1122594631893952E-01 
    8.1099769029938018E-01 
    8.2354046212695209E-01 
    8.2329693234797763E-01 
    8.1077246712471129E-01 
    8.1055157408293022E-01 
    8.2305832800671697E-01 
    8.2282602999473586E-01 
    8.1033630526900502E-01 
    8.1012794654012743E-01 
    8.2260140329446518E-01 
    8.2238578936032636E-01 
    8.0992776860801219E-01 
    8.0973701568921208E-01 
    8.2218049422113371E-01 
    8.2198676705068985E-01 
    8.0955688405438175E-01 
    8.0938847862739305E-01 
    8.2180575804122313E-01 
    8.2163843313777074E-01 
    8.0923272437144189E-01 
    8.0909018801288879E-01 
    8.2148540255019153E-01 
    8.2134657376940745E-01 
    8.0896071177687645E-01 
    8.0884255051460763E-01 
    8.2122037718851637E-01 
    8.2110167971350978E-01 
    8.0872993784203151E-01 
    8.0860734852052596E-01 
    8.2097573445427585E-01 
    8.2085980031950945E-01 
    8.0849606064892399E-01 
    8.0844074809852573E-01 
    8.2080191649657552E-01 
    8.0149963780527478E-01 
    7.8808738573828796E-01 
    7.8807177177328080E-01 
    8.0148348937653580E-01 
    8.0145129328634812E-01 
    7.8804064090221815E-01 
    7.8799418676282706E-01 
    8.0140325155350456E-01 
    8.0133964814846581E-01 
    7.8793268091758495E-01 
    7.8785647159212702E-01 
    8.0126084795443087E-01 
    8.0116729494620964E-01 
    7.8776598202727144E-01 
    7.8766170831279236E-01 
    8.0105950973278306E-01 
    8.0093808665575672E-01 
    7.8754421684178155E-01 
    7.8741414146177235E-01 
    8.0080369054099365E-01 
    8.0065705316394264E-01 
    7.8727218036861690E-01 
    7.8711909277660275E-01 
    8.0049896947482224E-01 
    8.0033029362373775E-01 
    7.8695569539287091E-01 
    7.8678285872159892E-01 
    8.0015193482292146E-01 
    7.9996485308161491E-01 
    7.8660150322186406E-01 
    7.8641259534176078E-01 
    7.9977005484777175E-01 
    7.9956858858936353E-01 
    7.8621714344974380E-01 
    7.8601619368189202E-01 
    7.9936154034638507E-01 
    7.9915002928248402E-01 
    7.8581082572047645E-01 
    7.8560214851416788E-01 
    7.9893520326221157E-01 
    7.9871823447573043E-01 
    7.8539129594251922E-01 
    7.8517942241516447E-01 
    7.9850031512642083E-01 
    7.9828265318618552E-01 
    7.8496769837623392E-01 
    7.8475730565039181E-01 
    7.9806646820413651E-01 
    7.9785298711775310E-01 
    7.8454943250591935E-01 
    7.8434526819560846E-01 
    7.9764343994180764E-01 
    7.9743905505501422E-01 
    7.8414599651040118E-01 
    7.8395278741845709E-01 
    7.9724105346702345E-01 
    7.9705064070417020E-01 
    7.8376678489544960E-01 
    7.8358908703951347E-01 
    7.9686899332574512E-01 
    7.9669723367985701E-01 
    7.8342071053483842E-01 
    7.8326252394759754E-01 
    7.9653637991281612E-01 
    7.9638724631480973E-01 
    7.8311512043220766E-01 
    7.8297856997100679E-01 
    7.9625024559765978E-01 
    7.9612497531741322E-01 
    7.8285188994492227E-01 
    7.8273166973489006E-01 