# vtk DataFile Version 2.0
Pressure Field Data 
ASCII 
DATASET UNSTRUCTURED_GRID 

POINTS 1681 double 

    0.0000000000000000E+00     0.0000000000000000E+00     0.0000000000000000E+00 
    1.0000000000000000E+00     0.0000000000000000E+00     0.0000000000000000E+00 
    1.0000000000000000E+00     1.0000000000000000E+00     0.0000000000000000E+00 
    0.0000000000000000E+00     1.0000000000000000E+00     0.0000000000000000E+00 
    5.2499999999875258E-01     0.0000000000000000E+00     0.0000000000000000E+00 
    7.4999999999856765E-02     0.0000000000000000E+00     0.0000000000000000E+00 
    1.2499999999975850E-01     0.0000000000000000E+00     0.0000000000000000E+00 
    1.7499999999962990E-01     0.0000000000000000E+00     0.0000000000000000E+00 
    2.2499999999948389E-01     0.0000000000000000E+00     0.0000000000000000E+00 
    2.7499999999933789E-01     0.0000000000000000E+00     0.0000000000000000E+00 
    3.2499999999919210E-01     0.0000000000000000E+00     0.0000000000000000E+00 
    3.7499999999904610E-01     0.0000000000000000E+00     0.0000000000000000E+00 
    4.2499999999890020E-01     0.0000000000000000E+00     0.0000000000000000E+00 
    4.7499999999875958E-01     0.0000000000000000E+00     0.0000000000000000E+00 
    2.4999999999949701E-02     0.0000000000000000E+00     0.0000000000000000E+00 
    5.7499999999887907E-01     0.0000000000000000E+00     0.0000000000000000E+00 
    6.2499999999901101E-01     0.0000000000000000E+00     0.0000000000000000E+00 
    6.7499999999914273E-01     0.0000000000000000E+00     0.0000000000000000E+00 
    7.2499999999927467E-01     0.0000000000000000E+00     0.0000000000000000E+00 
    7.7499999999940661E-01     0.0000000000000000E+00     0.0000000000000000E+00 
    8.2499999999953844E-01     0.0000000000000000E+00     0.0000000000000000E+00 
    8.7499999999967026E-01     0.0000000000000000E+00     0.0000000000000000E+00 
    9.2499999999980220E-01     0.0000000000000000E+00     0.0000000000000000E+00 
    9.7499999999993414E-01     0.0000000000000000E+00     0.0000000000000000E+00 
    5.4999999999881310E-01     0.0000000000000000E+00     0.0000000000000000E+00 
    9.9999999999814140E-02     0.0000000000000000E+00     0.0000000000000000E+00 
    1.4999999999970290E-01     0.0000000000000000E+00     0.0000000000000000E+00 
    1.9999999999955689E-01     0.0000000000000000E+00     0.0000000000000000E+00 
    2.4999999999941089E-01     0.0000000000000000E+00     0.0000000000000000E+00 
    2.9999999999926502E-01     0.0000000000000000E+00     0.0000000000000000E+00 
    3.4999999999911913E-01     0.0000000000000000E+00     0.0000000000000000E+00 
    3.9999999999897312E-01     0.0000000000000000E+00     0.0000000000000000E+00 
    4.4999999999882723E-01     0.0000000000000000E+00     0.0000000000000000E+00 
    4.9999999999869210E-01     0.0000000000000000E+00     0.0000000000000000E+00 
    4.9999999999899403E-02     0.0000000000000000E+00     0.0000000000000000E+00 
    5.9999999999894504E-01     0.0000000000000000E+00     0.0000000000000000E+00 
    6.4999999999907687E-01     0.0000000000000000E+00     0.0000000000000000E+00 
    6.9999999999920870E-01     0.0000000000000000E+00     0.0000000000000000E+00 
    7.4999999999934064E-01     0.0000000000000000E+00     0.0000000000000000E+00 
    7.9999999999947247E-01     0.0000000000000000E+00     0.0000000000000000E+00 
    8.4999999999960441E-01     0.0000000000000000E+00     0.0000000000000000E+00 
    8.9999999999973623E-01     0.0000000000000000E+00     0.0000000000000000E+00 
    9.4999999999986817E-01     0.0000000000000000E+00     0.0000000000000000E+00 
    1.0000000000000000E+00     5.2499999999875258E-01     0.0000000000000000E+00 
    1.0000000000000000E+00     7.4999999999856765E-02     0.0000000000000000E+00 
    1.0000000000000000E+00     1.2499999999975850E-01     0.0000000000000000E+00 
    1.0000000000000000E+00     1.7499999999962990E-01     0.0000000000000000E+00 
    1.0000000000000000E+00     2.2499999999948389E-01     0.0000000000000000E+00 
    1.0000000000000000E+00     2.7499999999933789E-01     0.0000000000000000E+00 
    1.0000000000000000E+00     3.2499999999919210E-01     0.0000000000000000E+00 
    1.0000000000000000E+00     3.7499999999904610E-01     0.0000000000000000E+00 
    1.0000000000000000E+00     4.2499999999890020E-01     0.0000000000000000E+00 
    1.0000000000000000E+00     4.7499999999875958E-01     0.0000000000000000E+00 
    1.0000000000000000E+00     2.4999999999949701E-02     0.0000000000000000E+00 
    1.0000000000000000E+00     5.7499999999887907E-01     0.0000000000000000E+00 
    1.0000000000000000E+00     6.2499999999901101E-01     0.0000000000000000E+00 
    1.0000000000000000E+00     6.7499999999914273E-01     0.0000000000000000E+00 
    1.0000000000000000E+00     7.2499999999927467E-01     0.0000000000000000E+00 
    1.0000000000000000E+00     7.7499999999940661E-01     0.0000000000000000E+00 
    1.0000000000000000E+00     8.2499999999953844E-01     0.0000000000000000E+00 
    1.0000000000000000E+00     8.7499999999967026E-01     0.0000000000000000E+00 
    1.0000000000000000E+00     9.2499999999980220E-01     0.0000000000000000E+00 
    1.0000000000000000E+00     9.7499999999993414E-01     0.0000000000000000E+00 
    1.0000000000000000E+00     5.4999999999881310E-01     0.0000000000000000E+00 
    1.0000000000000000E+00     9.9999999999814140E-02     0.0000000000000000E+00 
    1.0000000000000000E+00     1.4999999999970290E-01     0.0000000000000000E+00 
    1.0000000000000000E+00     1.9999999999955689E-01     0.0000000000000000E+00 
    1.0000000000000000E+00     2.4999999999941089E-01     0.0000000000000000E+00 
    1.0000000000000000E+00     2.9999999999926502E-01     0.0000000000000000E+00 
    1.0000000000000000E+00     3.4999999999911913E-01     0.0000000000000000E+00 
    1.0000000000000000E+00     3.9999999999897312E-01     0.0000000000000000E+00 
    1.0000000000000000E+00     4.4999999999882723E-01     0.0000000000000000E+00 
    1.0000000000000000E+00     4.9999999999869210E-01     0.0000000000000000E+00 
    1.0000000000000000E+00     4.9999999999899403E-02     0.0000000000000000E+00 
    1.0000000000000000E+00     5.9999999999894504E-01     0.0000000000000000E+00 
    1.0000000000000000E+00     6.4999999999907687E-01     0.0000000000000000E+00 
    1.0000000000000000E+00     6.9999999999920870E-01     0.0000000000000000E+00 
    1.0000000000000000E+00     7.4999999999934064E-01     0.0000000000000000E+00 
    1.0000000000000000E+00     7.9999999999947247E-01     0.0000000000000000E+00 
    1.0000000000000000E+00     8.4999999999960441E-01     0.0000000000000000E+00 
    1.0000000000000000E+00     8.9999999999973623E-01     0.0000000000000000E+00 
    1.0000000000000000E+00     9.4999999999986817E-01     0.0000000000000000E+00 
    4.7500000000196618E-01     1.0000000000000000E+00     0.0000000000000000E+00 
    9.2499999999968763E-01     1.0000000000000000E+00     0.0000000000000000E+00 
    8.7499999999961831E-01     1.0000000000000000E+00     0.0000000000000000E+00 
    8.2499999999982654E-01     1.0000000000000000E+00     0.0000000000000000E+00 
    7.7500000000017355E-01     1.0000000000000000E+00     0.0000000000000000E+00 
    7.2500000000052045E-01     1.0000000000000000E+00     0.0000000000000000E+00 
    6.7500000000086724E-01     1.0000000000000000E+00     0.0000000000000000E+00 
    6.2500000000121403E-01     1.0000000000000000E+00     0.0000000000000000E+00 
    5.7500000000156093E-01     1.0000000000000000E+00     0.0000000000000000E+00 
    5.2500000000189684E-01     1.0000000000000000E+00     0.0000000000000000E+00 
    9.7499999999989595E-01     1.0000000000000000E+00     0.0000000000000000E+00 
    4.2500000000176902E-01     1.0000000000000000E+00     0.0000000000000000E+00 
    3.7500000000156092E-01     1.0000000000000000E+00     0.0000000000000000E+00 
    3.2500000000135282E-01     1.0000000000000000E+00     0.0000000000000000E+00 
    2.7500000000114472E-01     1.0000000000000000E+00     0.0000000000000000E+00 
    2.2500000000093659E-01     1.0000000000000000E+00     0.0000000000000000E+00 
    1.7500000000072849E-01     1.0000000000000000E+00     0.0000000000000000E+00 
    1.2500000000052039E-01     1.0000000000000000E+00     0.0000000000000000E+00 
    7.5000000000312261E-02     1.0000000000000000E+00     0.0000000000000000E+00 
    2.5000000000104109E-02     1.0000000000000000E+00     0.0000000000000000E+00 
    4.5000000000187301E-01     1.0000000000000000E+00     0.0000000000000000E+00 
    8.9999999999958358E-01     1.0000000000000000E+00     0.0000000000000000E+00 
    8.4999999999965303E-01     1.0000000000000000E+00     0.0000000000000000E+00 
    8.0000000000000004E-01     1.0000000000000000E+00     0.0000000000000000E+00 
    7.5000000000034706E-01     1.0000000000000000E+00     0.0000000000000000E+00 
    7.0000000000069384E-01     1.0000000000000000E+00     0.0000000000000000E+00 
    6.5000000000104063E-01     1.0000000000000000E+00     0.0000000000000000E+00 
    6.0000000000138742E-01     1.0000000000000000E+00     0.0000000000000000E+00 
    5.5000000000173432E-01     1.0000000000000000E+00     0.0000000000000000E+00 
    5.0000000000205946E-01     1.0000000000000000E+00     0.0000000000000000E+00 
    9.4999999999979179E-01     1.0000000000000000E+00     0.0000000000000000E+00 
    4.0000000000166491E-01     1.0000000000000000E+00     0.0000000000000000E+00 
    3.5000000000145681E-01     1.0000000000000000E+00     0.0000000000000000E+00 
    3.0000000000124871E-01     1.0000000000000000E+00     0.0000000000000000E+00 
    2.5000000000104061E-01     1.0000000000000000E+00     0.0000000000000000E+00 
    2.0000000000083251E-01     1.0000000000000000E+00     0.0000000000000000E+00 
    1.5000000000062441E-01     1.0000000000000000E+00     0.0000000000000000E+00 
    1.0000000000041630E-01     1.0000000000000000E+00     0.0000000000000000E+00 
[...]
CELL_DATA 1600 
SCALARS Pressure double 1 
LOOKUP_TABLE default 

    1.4467271238902295E+00 
    1.3961293295509138E+00 
    1.3933684967073534E+00 
    1.4303216695254111E+00 
    1.4167341106274394E+00 
    1.3890798909746858E+00 
    1.3840114315658540E+00 
    1.4052624158785036E+00 
    1.3953459513765198E+00 
    1.3785846963272050E+00 
    1.3730407492353083E+00 
    1.3865939848211779E+00 
    1.3787323455665605E+00 
    1.3675155093292790E+00 
    1.3620835406720104E+00 
    1.3715662105595836E+00 
    1.3649551925218792E+00 
    1.3567837273315380E+00 
    1.3516343909114019E+00 
    1.3587966865245971E+00 
    1.3530146557283194E+00 
    1.3466422062592596E+00 
    1.3418074528348678E+00 
    1.3475520010495918E+00 
    1.3423653073292108E+00 
    1.3371270911178272E+00 
    1.3325965435508633E+00 
    1.3374211788486867E+00 
    1.3326936474688991E+00 
    1.3282107016604168E+00 
    1.3239644691499473E+00 
    1.3281623106509002E+00 
    1.3238109686424580E+00 
    1.3198530238715982E+00 
    1.3158719039531384E+00 
    1.3196266018395666E+00 
    1.3155985739246221E+00 
    1.3120169734408826E+00 
    1.3082842864441360E+00 
    1.3117179710360272E+00 
    1.3079769940276753E+00 
    1.3046698342517349E+00 
    1.3011691124873259E+00 
    1.3043683054512059E+00 
    1.3008841779439726E+00 
    1.2977763558196245E+00 
    1.2944830794056834E+00 
    1.2975151451011497E+00 
    1.2942474613412565E+00 
    1.2912749944842017E+00 
    1.2881244586378415E+00 
    1.2910574634911194E+00 
    1.2878964359746596E+00 
    1.2849676570458302E+00 
    1.2816433660452637E+00 
    1.2846417587353958E+00 
    1.2811893954800913E+00 
    1.2782356703434317E+00 
    1.2752429753210730E+00 
    1.2780542197719045E+00 
    1.2754363615833573E+00 
    1.2726881750637120E+00 
    1.2704068506699917E+00 
    1.2731073574422758E+00 
    1.2710484044857480E+00 
    1.2683890517392955E+00 
    1.2666311528766960E+00 
    1.2692553868038601E+00 
    1.2677247925146793E+00 
    1.2651300327707016E+00 
    1.2638830529651024E+00 
    1.2664536741998893E+00 
    1.2654396180085732E+00 
    1.2628880404055796E+00 
    1.2621432732425255E+00 
    1.2646807195775540E+00 
    1.2641755657800380E+00 
    1.2616474696788371E+00 
    1.2613997797186816E+00 
    1.2639232215926424E+00 
    1.3667602038426285E+00 
    1.3431201546743947E+00 
    1.3425846089944995E+00 
    1.3657753037437068E+00 
    1.3639359513227807E+00 
    1.3415389240809397E+00 
    1.3400318453001898E+00 
    1.3614175610613495E+00 
    1.3583860333409117E+00 
    1.3381224662258644E+00 
    1.3358725985929030E+00 
    1.3549821431212823E+00 
    1.3513188900550239E+00 
    1.3333418490889328E+00 
    1.3305848586356492E+00 
    1.3474840956385361E+00 
    1.3435446672836973E+00 
    1.3276500612106996E+00 
    1.3245794126063952E+00 
    1.3395509449140495E+00 
    1.3355405132516160E+00 
    1.3214086823480204E+00 
    1.3181680324064424E+00 
    1.3315413127374351E+00 
    1.3275740755014864E+00 
    1.3148827067742770E+00 
    1.3115737265343594E+00 
    1.3236541829775652E+00 
    1.3197930553559269E+00 
    1.3082585313480510E+00 
    1.3049515364925766E+00 
    1.3159991727498013E+00 
    1.3122788089827953E+00 
    1.3016645895819638E+00 
    1.2984073159271985E+00 
    1.3086365375772191E+00 
    1.3050755472037403E+00 
    1.2951873367470106E+00 
    1.2920103270549277E+00 
    1.3015977783555055E+00 
    1.2982038575381523E+00 
    1.2888798391855361E+00 
    1.2857967222696742E+00 
    1.2948927429252244E+00 
    1.2916608608937215E+00 
    1.2827577202681082E+00 
    1.2797520793721149E+00 
    1.2885001671725327E+00 
    1.2853934903584512E+00 
    1.2767521171958560E+00 
    1.2736790986119759E+00 
    1.2823012632377113E+00 
    1.2791141921547153E+00 
    1.2704052375693957E+00 
    1.2670945736415018E+00 
    1.2757200637629194E+00 
    1.2724829504301429E+00 
    1.2641585362738583E+00 
    1.2615980887199987E+00 
    1.2697106627997861E+00 
    1.2672631934649430E+00 
    1.2592887360129863E+00 
    1.2572182378543066E+00 
    1.2650710911950707E+00 
    1.2631306983118247E+00 
    1.2553840853362335E+00 
    1.2537840542124317E+00 
    1.2614391313833864E+00 
    1.2599938700227042E+00 
    1.2524162011998188E+00 
    1.2512788623581701E+00 
    1.2587927592695052E+00 
    1.2578340088378750E+00 
    1.2503706521941829E+00 
    1.2496904630601566E+00 
    1.2571161909138413E+00 
    1.2566382375423075E+00 
    1.2492374646817372E+00 
    1.2490111037763980E+00 
    1.2563994382431776E+00 
    1.3214773997373197E+00 
    1.3004654898491441E+00 
    1.3002017943214061E+00 
    1.3211214638766366E+00 
    1.3204177416611900E+00 
    1.2996780240762476E+00 
    1.2989029821316869E+00 
    1.3193845577202765E+00 
    1.3180466855769200E+00 
    1.2978890870555531E+00 
    1.2966515713397087E+00 
    1.3164329915155839E+00 
    1.3145743525121536E+00 
    1.2952076576683691E+00 
    1.2935757815102022E+00 
    1.3125019958643935E+00 
    1.3102462873825391E+00 
    1.2917749095889957E+00 
    1.2898239772477100E+00 
    1.3078359224544551E+00 
    1.3052974440261436E+00 
    1.2877414475299875E+00 
    1.2855449815918292E+00 
    1.3026550064313107E+00 
    1.2999303114197438E+00 
    1.2832512023437797E+00 
    1.2808755290670197E+00 
    1.2971426547577147E+00 
    1.2943090338556242E+00 
    1.2784320581486088E+00 
    1.2759334618995708E+00 
    1.2914442764638903E+00 
    1.2885611558425649E+00 
    1.2733908708458654E+00 
    1.2708136898101265E+00 
    1.2856704568937691E+00 
    1.2827809464667459E+00 
    1.2682092635542932E+00 
    1.2655822239976895E+00 
    1.2798991693373010E+00 
    1.2770289123865930E+00 
    1.2629331259774976E+00 
    1.2602552804502332E+00 
    1.2741699680527556E+00 
    1.2713151819138990E+00 
    1.2575257363731145E+00 
    1.2546714383296782E+00 
    1.2684422730915583E+00 
    1.2654840617279897E+00 
    1.2516135953661414E+00 
    1.2484359256164477E+00 
    1.2623311407168347E+00 
    1.2590619407263144E+00 
    1.2454609618897525E+00 
    1.2428430575141227E+00 
    1.2560588199628671E+00 
    1.2534348131531972E+00 
    1.2404825858435533E+00 
    1.2383233618243301E+00 
    1.2510693960106840E+00 
    1.2489257371983162E+00 
    1.2363642411687541E+00 
    1.2346042243471511E+00 
    1.2470019281074340E+00 
    1.2452962584178897E+00 
    1.2330423594878623E+00 
    1.2316777653854447E+00 
    1.2438071959295105E+00 
    1.2425333906672391E+00 
    1.2305096474825390E+00 
    1.2295373092046360E+00 
    1.2414736786701752E+00 
    1.2406270852508614E+00 
    1.2287601601189084E+00 
    1.2281777218366419E+00 
    1.2399928276504091E+00 
    1.2395703170903591E+00 
    1.2277896322393409E+00 
    1.2275956483953672E+00 
    1.2393591602562735E+00 
    1.2794332370170050E+00 
    1.2580092648595640E+00 
    1.2578348734726736E+00 
    1.2792240219001323E+00 
    1.2788075393459759E+00 
    1.2574872209910111E+00 
    1.2569693790248937E+00 
    1.2781887662763758E+00 
    1.2773748410228432E+00 
    1.2562858089961795E+00 
    1.2554421924262291E+00 
    1.2763747311986331E+00 
    1.2751988708207527E+00 
    1.2544452410630842E+00 
    1.2533024896878295E+00 
    1.2738587849472063E+00 
    1.2723667245041244E+00 
    1.2520220799926516E+00 
    1.2506125417556360E+00 
    1.2707353273481150E+00 
    1.2689773141524869E+00 
    1.2490825740346720E+00 
    1.2474408245927251E+00 
    1.2671052208215374E+00 
    1.2651311629011210E+00 
    1.2456956596397066E+00 
    1.2438549068230216E+00 
    1.2630666213103670E+00 
    1.2609222313313526E+00 
    1.2419255385101542E+00 
    1.2399132305582010E+00 
    1.2587075454045407E+00 
    1.2564307194486484E+00 
    1.2378216653689589E+00 
    1.2356512704155629E+00 
    1.2540980273700122E+00 
    1.2517129995683789E+00 
    1.2333965046054809E+00 
    1.2310390914863978E+00 
    1.2492746916777939E+00 
    1.2467735136340583E+00 
    1.2285213991639929E+00 
    1.2257828783427669E+00 
    1.2441789496522833E+00 
    1.2414016515116331E+00 
    1.2228369581857657E+00 
    1.2199173984123544E+00 
    1.2384006097705746E+00 
    1.2353387654218488E+00 
    1.2172601222528272E+00 
    1.2148699243013357E+00 
    1.2324821405468345E+00 
    1.2299422058168499E+00 
    1.2126797145830768E+00 
    1.2106456371723779E+00 
    1.2276409570682016E+00 
    1.2255192163589590E+00 
    1.2087676633566995E+00 
    1.2070458746242445E+00 
    1.2235762940014800E+00 
    1.2218117067994376E+00 
    1.2054803587670990E+00 
    1.2040711989688020E+00 
    1.2202250009636955E+00 
    1.2188157529890944E+00 
    1.2028184681732430E+00 
    1.2017222268622245E+00 
    1.2175835728461986E+00 
    1.2165281080477710E+00 
    1.2007825229332336E+00 
    1.1999993927752812E+00 
    1.2156490478173163E+00 
    1.2149461269523307E+00 
    1.1993728629269989E+00 
    1.1989029519003875E+00 
    1.2144191291732194E+00 
    1.2140678898550490E+00 
    1.1985896718912208E+00 
    1.1984330301922872E+00 
    1.2138922980948328E+00 
    1.2359448690117834E+00 
    1.2130393279292033E+00 
    1.2129027649417239E+00 
    1.2357934986161527E+00 
    1.2354913565394201E+00 
    1.2126297550979015E+00 
    1.2122212665399370E+00 
    1.2350403425211678E+00 
    1.2344432968108101E+00 
    1.2116789103844638E+00 
    1.2110048481450533E+00 
    1.2337038923943842E+00 
    1.2328265081838097E+00 
    1.2102016673770326E+00 
    1.2092722283972199E+00 
    1.2318160837478220E+00 
    1.2306779572597093E+00 
    1.2082194786332361E+00 
    1.2070462224506064E+00 
    1.2294176852397027E+00 
    1.2280408378294347E+00 
    1.2057548132912068E+00 
    1.2043466933622071E+00 
    1.2265527556821474E+00 
    1.2249582419098031E+00 
    1.2028216652649173E+00 
    1.2011767580903490E+00 
    1.2232611380680278E+00 
    1.2214636698427219E+00 
    1.1994039662077163E+00 
    1.1974825693837705E+00 
    1.2195652895349158E+00 
    1.2175604585699049E+00 
    1.1953651740443334E+00 
    1.1930152190970125E+00 
    1.2154331645941785E+00 
    1.2131368195702832E+00 
    1.1904639074499948E+00 
    1.1878120827478478E+00 
    1.2106132987326406E+00 
    1.2078750714486164E+00 
    1.1852550592228754E+00 
    1.1829268143270888E+00 
    1.2050520387585584E+00 
    1.2023681182706998E+00 
    1.1808297412405517E+00 
    1.1788941505810626E+00 
    1.1999632047182927E+00 
    1.1977860340526569E+00 
    1.1770634615315574E+00 
    1.1753372783057008E+00 
    1.1957562074482118E+00 
    1.1938569239969083E+00 
    1.1737177256034539E+00 
    1.1722067168159520E+00 
    1.1920892813263333E+00 
    1.1904542595221905E+00 
    1.1708059679292284E+00 
    1.1695170115568827E+00 
    1.1889527264938919E+00 
    1.1875854501462579E+00 
    1.1683412100465846E+00 
    1.1672797672721031E+00 
    1.1863531069465059E+00 
    1.1852562885119624E+00 
    1.1663337390455666E+00 
    1.1655040422097624E+00 
    1.1842955070579289E+00 
    1.1834712001082788E+00 
    1.1647914625043474E+00 
    1.1641966612959511E+00 
    1.1827837346365238E+00 
    1.1822334106849486E+00 
    1.1637201812455202E+00 
    1.1633624509679366E+00 
    1.1818204644531103E+00 
    1.1815450708250617E+00 
    1.1631237887230210E+00 
    1.1630044051645467E+00 
    1.1814073453006009E+00 
    1.1890870895063217E+00 
    1.1638094122469023E+00 
    1.1636792427525895E+00 
    1.1889582198394928E+00 
    1.1886999643292671E+00 
    1.1634172246780796E+00 
    1.1630215497485912E+00 
    1.1883122532243660E+00 
    1.1877954149831258E+00 
    1.1624904428436054E+00 
    1.1618219083507442E+00 
    1.1871500450245251E+00 
    1.1863767930109625E+00 
    1.1610132031725258E+00 
    1.1600595393108220E+00 
    1.1854760579252626E+00 
    1.1844475810360495E+00 
    1.1589513556014102E+00 
    1.1576708762193011E+00 
    1.1832899517749764E+00 
    1.1819999180520386E+00 
    1.1561938181573534E+00 
    1.1545053163807724E+00 
    1.1805705965813977E+00 
    1.1789861652993436E+00 
    1.1526217056859025E+00 
    1.1505903628695138E+00 
    1.1772142726743404E+00 
    1.1752202735453989E+00 
    1.1484829118037609E+00 
    1.1464014744013655E+00 
    1.1730120287402479E+00 
    1.1706440201018833E+00 
    1.1444407797532583E+00 
    1.1426522692490837E+00 
    1.1682228251188724E+00 
    1.1659039594018650E+00 
    1.1410323082428266E+00 
    1.1395176428973319E+00 
    1.1637814745871975E+00 
    1.1618696157388757E+00 
    1.1380557964033333E+00 
    1.1366391351230736E+00 
    1.1601060403651435E+00 
    1.1584261925374029E+00 
    1.1352727359451624E+00 
    1.1339611410076786E+00 
    1.1568216205726107E+00 
    1.1552958435734515E+00 
    1.1327084520873651E+00 
    1.1315183717303781E+00 
    1.1538520439270903E+00 
    1.1524930880625395E+00 
    1.1303942395236761E+00 
    1.1293390631850695E+00 
    1.1512215532977832E+00 
    1.1500397511924814E+00 
    1.1283555453336376E+00 
    1.1274461066175727E+00 
    1.1489497479993886E+00 
    1.1479533825887274E+00 
    1.1266129057290937E+00 
    1.1258578567236248E+00 
    1.1470522821182429E+00 
    1.1462478756718339E+00 
    1.1251826439756181E+00 
    1.1245887350385999E+00 
    1.1455414060576723E+00 
    1.1449339399302070E+00 
    1.1240773916263576E+00 
    1.1236496788914896E+00 
    1.1444263763757101E+00 
    1.1440194540776099E+00 
    1.1233064731439710E+00 
    1.1230484681241368E+00 
    1.1437137571560827E+00 
    1.1435097197565649E+00 
    1.1228761799201421E+00 
    1.1227899505986767E+00 
    1.1434076294440438E+00 
    1.1366986987087200E+00 
    1.1066598990070651E+00 
    1.1064514180859208E+00 
    1.1365478865383141E+00 
    1.1362422189360648E+00 
    1.1060473914385835E+00 
    1.1054671175557989E+00 
    1.1357753660772263E+00 
    1.1351384296437639E+00 
    1.1047322135437627E+00 
    1.1038663510559992E+00 
    1.1343204536389371E+00 
    1.1333120654533939E+00 
    1.1028952507080658E+00 
    1.1018475902759302E+00 
    1.1321124932895956E+00 
    1.1307364254910475E+00 
    1.1007563705042320E+00 
    1.0996587867413108E+00 
    1.1292148051145292E+00 
    1.1275899767389397E+00 
    1.0985924111340994E+00 
    1.0975853607833586E+00 
    1.1259141817932488E+00 
    1.1242489818359573E+00 
    1.0966413509813406E+00 
    1.0957348444372152E+00 
    1.1226542184251551E+00 
    1.1211746039371830E+00 
    1.0948312865438641E+00 
    1.0939128665448339E+00 
    1.1198235988109773E+00 
    1.1185665607536208E+00 
    1.0929809943194435E+00 
    1.0920432052068498E+00 
    1.1173498875049508E+00 
    1.1161483215531658E+00 
    1.0911062919529693E+00 
    1.0901763138066973E+00 
    1.1149635582743065E+00 
    1.1138021187623421E+00 
    1.0892588995653407E+00 
    1.0883592427127471E+00 
    1.1126696334066386E+00 
    1.1115712369486810E+00 
    1.0874821301490065E+00 
    1.0866319677883058E+00 
    1.1105116012710434E+00 
    1.1094949749680163E+00 
    1.0858128041904076E+00 
    1.0850283522288353E+00 
    1.1085252180308156E+00 
    1.1076058323038569E+00 
    1.0842820088469463E+00 
    1.0835768729785613E+00 
    1.1067399882006077E+00 
    1.1059305481211168E+00 
    1.0829157617258955E+00 
    1.0823012248954316E+00 
    1.1051800869598956E+00 
    1.1044909100393530E+00 
    1.0817355579939487E+00 
    1.0812208137840114E+00 
    1.1038650687543761E+00 
    1.1033043741695103E+00 
    1.0807588124923826E+00 
    1.0803511507571959E+00 
    1.1028104087717463E+00 
    1.1023845365487508E+00 
    1.0799992093911230E+00 
    1.0797041600287500E+00 
    1.1020279115337568E+00 
    1.1017414849334892E+00 
    1.0794669707172326E+00 
    1.0792884105002840E+00 
    1.1015260109337985E+00 
    1.1013820512584254E+00 
    1.0791690530367164E+00 
    1.0791092792861439E+00 
    1.1013099785390519E+00 
    1.0755325230044550E+00 
    1.0473110184293719E+00 
    1.0472825315166854E+00 
    1.0754049158340797E+00 
    1.0751624501149202E+00 
    1.0472211248994083E+00 
    1.0471211981785598E+00 
    1.0748247512603724E+00 
    1.0744148833748655E+00 
    1.0469776155799311E+00 
    1.0467862080655299E+00 
    1.0739575791697935E+00 
    1.0734757420729295E+00 
    1.0465448401941968E+00 
    1.0462541327415116E+00 
    1.0729849962671867E+00 
    1.0724884826009500E+00 
    1.0459170427639957E+00 
    1.0455375450505224E+00 
    1.0719764842931849E+00 
    1.0714337857001304E+00 
    1.0451195341373525E+00 
    1.0446666786861345E+00 
    1.0708503465701935E+00 
    1.0702262126498201E+00 
    1.0441828184563271E+00 
    1.0436721432317608E+00 
    1.0695679008018839E+00 
    1.0688827896602167E+00 
    1.0431390387563424E+00 
    1.0425879134790390E+00 
    1.0681772160450538E+00 
    1.0674570077150924E+00 
    1.0420231273930478E+00 
    1.0414489574471602E+00 
    1.0667277887569264E+00 
    1.0659949112847464E+00 
    1.0408695658424949E+00 
    1.0402889749177979E+00 
    1.0652634302899702E+00 
    1.0645381064807409E+00 
    1.0397110488079531E+00 
    1.0391394801577776E+00 
    1.0638234091303329E+00 
    1.0631235213189398E+00 
    1.0385777807888907E+00 
    1.0380292754328828E+00 
    1.0624423466775457E+00 
    1.0617835170495420E+00 
    1.0374970978238272E+00 
    1.0369841885862952E+00 
    1.0611504006300241E+00 
    1.0605461102549987E+00 
    1.0364932944695122E+00 
    1.0360269685701093E+00 
    1.0599735115993272E+00 
    1.0594352311086541E+00 
    1.0355875712596814E+00 
    1.0351772715925678E+00 
    1.0589336635411541E+00 
    1.0584709790330851E+00 
    1.0347980490167887E+00 
    1.0344516952490888E+00 
    1.0580491296305590E+00 
    1.0576698552508343E+00 
    1.0341398162054323E+00 
    1.0338638339024788E+00 
    1.0573346890514952E+00 
    1.0570449621964868E+00 
    1.0336249882647770E+00 
    1.0334243387876194E+00 
    1.0568018080151853E+00 
    1.0566061655552834E+00 
    1.0332627660174949E+00 
    1.0331409728215291E+00 
    1.0564587825329657E+00 
    1.0563602176850597E+00 
    1.0330594854247628E+00 
    1.0330186542000332E+00 
    1.0563108425280179E+00 
    1.0209994647955891E+00 
    9.9502076882841051E-01 
    9.9499196516647215E-01 
    1.0209682986596813E+00 
    1.0209048673007135E+00 
    9.9493426720249789E-01 
    9.9484757693784420E-01 
    1.0208077045989117E+00 
    1.0206755693563696E+00 
    9.9473189760781799E-01 
    9.9458742785779908E-01 
    1.0205077189994931E+00 
    1.0203040787374922E+00 
    9.9441463056715107E-01 
    9.9421427112668681E-01 
    1.0200653120123926E+00 
    1.0197927677647309E+00 
    9.9398742442366306E-01 
    9.9373545667369134E-01 
    1.0194883303719793E+00 
    1.0191542588815208E+00 
    9.9345999373154914E-01 
    9.9316288651312656E-01 
    1.0187930863804773E+00 
    1.0184075746356034E+00 
    9.9284617801106401E-01 
    9.9251207146339837E-01 
    1.0180006781711113E+00 
    1.0175754958713259E+00 
    9.9216289870264218E-01 
    9.9180108910594755E-01 
    1.0171352189999081E+00 
    1.0166830856699738E+00 
    9.9142914009551053E-01 
    9.9104958980140612E-01 
    1.0162223427251786E+00 
    1.0157562136005638E+00 
    9.9066499214689818E-01 
    9.9027789442839620E-01 
    1.0152878713971230E+00 
    1.0148204165384889E+00 
    9.8989081734414519E-01 
    9.8950623734833087E-01 
    1.0143568583723443E+00 
    1.0139001001300585E+00 
    9.8912657116194780E-01 
    9.8875416224922830E-01 
    1.0134529267187005E+00 
    1.0130179948828719E+00 
    9.8839126906156483E-01 
    9.8804005485445601E-01 
    1.0125978253350787E+00 
    1.0121947965102263E+00 
    9.8770257889321467E-01 
    9.8738078887725533E-01 
    1.0118111396511469E+00 
    1.0114489349775604E+00 
    9.8707651442883426E-01 
    9.8679146150880270E-01 
    1.0111101087306347E+00 
    1.0107964309196988E+00 
    9.8652720763841284E-01 
    9.8628519782192081E-01 
    1.0105095136271822E+00 
    1.0102508097530012E+00 
    9.8606674107934222E-01 
    9.8587300751207896E-01 
    1.0100216121009424E+00 
    1.0098230527276162E+00 
    9.8570502583618291E-01 
    9.8556368132881034E-01 