# vtk DataFile Version 2.0
Pressure Field Data 
ASCII 
DATASET UNSTRUCTURED_GRID 

POINTS 1681 double 

    0.0000000000000000E+00     0.0000000000000000E+00     0.0000000000000000E+00 
    1.0000000000000000E+00     0.0000000000000000E+00     0.0000000000000000E+00 
    1.0000000000000000E+00     1.0000000000000000E+00     0.0000000000000000E+00 
    0.0000000000000000E+00     1.0000000000000000E+00     0.0000000000000000E+00 
    5.2499999999875258E-01     0.0000000000000000E+00     0.0000000000000000E+00 
    7.4999999999856765E-02     0.0000000000000000E+00     0.0000000000000000E+00 
    1.2499999999975850E-01     0.0000000000000000E+00     0.0000000000000000E+00 
    1.7499999999962990E-01     0.0000000000000000E+00     0.0000000000000000E+00 
    2.2499999999948389E-01     0.0000000000000000E+00     0.0000000000000000E+00 
    2.7499999999933789E-01     0.0000000000000000E+00     0.0000000000000000E+00 
    3.2499999999919210E-01     0.0000000000000000E+00     0.0000000000000000E+00 
    3.7499999999904610E-01     0.0000000000000000E+00     0.0000000000000000E+00 
    4.2499999999890020E-01     0.0000000000000000E+00     0.0000000000000000E+00 
    4.7499999999875958E-01     0.0000000000000000E+00     0.0000000000000000E+00 
    2.4999999999949701E-02     0.0000000000000000E+00     0.0000000000000000E+00 
    5.7499999999887907E-01     0.0000000000000000E+00     0.0000000000000000E+00 
    6.2499999999901101E-01     0.0000000000000000E+00     0.0000000000000000E+00 
    6.7499999999914273E-01     0.0000000000000000E+00     0.0000000000000000E+00 
    7.2499999999927467E-01     0.0000000000000000E+00     0.0000000000000000E+00 
    7.7499999999940661E-01     0.0000000000000000E+00     0.0000000000000000E+00 
    8.2499999999953844E-01     0.0000000000000000E+00     0.0000000000000000E+00 
    8.7499999999967026E-01     0.0000000000000000E+00     0.0000000000000000E+00 
    9.2499999999980220E-01     0.0000000000000000E+00     0.0000000000000000E+00 
    9.7499999999993414E-01     0.0000000000000000E+00     0.0000000000000000E+00 
    5.4999999999881310E-01     0.0000000000000000E+00     0.0000000000000000E+00 
    9.9999999999814140E-02     0.0000000000000000E+00     0.0000000000000000E+00 
    1.4999999999970290E-01     0.0000000000000000E+00     0.0000000000000000E+00 
    1.9999999999955689E-01     0.0000000000000000E+00     0.0000000000000000E+00 
    2.4999999999941089E-01     0.0000000000000000E+00     0.0000000000000000E+00 
    2.9999999999926502E-01     0.0000000000000000E+00     0.0000000000000000E+00 
    3.4999999999911913E-01     0.0000000000000000E+00     0.0000000000000000E+00 
    3.9999999999897312E-01     0.0000000000000000E+00     0.0000000000000000E+00 
    4.4999999999882723E-01     0.0000000000000000E+00     0.0000000000000000E+00 
    4.9999999999869210E-01     0.0000000000000000E+00     0.0000000000000000E+00 
    4.9999999999899403E-02     0.0000000000000000E+00     0.0000000000000000E+00 
    5.9999999999894504E-01     0.0000000000000000E+00     0.0000000000000000E+00 
    6.4999999999907687E-01     0.0000000000000000E+00     0.0000000000000000E+00 
    6.9999999999920870E-01     0.0000000000000000E+00     0.0000000000000000E+00 
    7.4999999999934064E-01     0.0000000000000000E+00     0.0000000000000000E+00 
    7.9999999999947247E-01     0.0000000000000000E+00     0.0000000000000000E+00 
    8.4999999999960441E-01     0.0000000000000000E+00     0.0000000000000000E+00 
    8.9999999999973623E-01     0.0000000000000000E+00     0.0000000000000000E+00 
    9.4999999999986817E-01     0.0000000000000000E+00     0.0000000000000000E+00 
    1.0000000000000000E+00     5.2499999999875258E-01     0.0000000000000000E+00 
    1.0000000000000000E+00     7.4999999999856765E-02     0.0000000000000000E+00 
    1.0000000000000000E+00     1.2499999999975850E-01     0.0000000000000000E+00 
    1.0000000000000000E+00     1.7499999999962990E-01     0.0000000000000000E+00 
    1.0000000000000000E+00     2.2499999999948389E-01     0.0000000000000000E+00 
    1.0000000000000000E+00     2.7499999999933789E-01     0.0000000000000000E+00 
    1.0000000000000000E+00     3.2499999999919210E-01     0.0000000000000000E+00 
    1.0000000000000000E+00     3.7499999999904610E-01     0.0000000000000000E+00 
    1.0000000000000000E+00     4.2499999999890020E-01     0.0000000000000000E+00 
    1.0000000000000000E+00     4.7499999999875958E-01     0.0000000000000000E+00 
    1.0000000000000000E+00     2.4999999999949701E-02     0.0000000000000000E+00 
    1.0000000000000000E+00     5.7499999999887907E-01     0.0000000000000000E+00 
    1.0000000000000000E+00     6.2499999999901101E-01     0.0000000000000000E+00 
    1.0000000000000000E+00     6.7499999999914273E-01     0.0000000000000000E+00 
    1.0000000000000000E+00     7.2499999999927467E-01     0.0000000000000000E+00 
    1.0000000000000000E+00     7.7499999999940661E-01     0.0000000000000000E+00 
    1.0000000000000000E+00     8.2499999999953844E-01     0.0000000000000000E+00 
    1.0000000000000000E+00     8.7499999999967026E-01     0.0000000000000000E+00 
    1.0000000000000000E+00     9.2499999999980220E-01     0.0000000000000000E+00 
    1.0000000000000000E+00     9.7499999999993414E-01     0.0000000000000000E+00 
    1.0000000000000000E+00     5.4999999999881310E-01     0.0000000000000000E+00 
    1.0000000000000000E+00     9.9999999999814140E-02     0.0000000000000000E+00 
    1.0000000000000000E+00     1.4999999999970290E-01     0.0000000000000000E+00 
    1.0000000000000000E+00     1.9999999999955689E-01     0.0000000000000000E+00 
    1.0000000000000000E+00     2.4999999999941089E-01     0.0000000000000000E+00 
    1.0000000000000000E+00     2.9999999999926502E-01     0.0000000000000000E+00 
    1.0000000000000000E+00     3.4999999999911913E-01     0.0000000000000000E+00 
    1.0000000000000000E+00     3.9999999999897312E-01     0.0000000000000000E+00 
    1.0000000000000000E+00     4.4999999999882723E-01     0.0000000000000000E+00 
    1.0000000000000000E+00     4.9999999999869210E-01     0.0000000000000000E+00 
    1.0000000000000000E+00     4.9999999999899403E-02     0.0000000000000000E+00 
    1.0000000000000000E+00     5.9999999999894504E-01     0.0000000000000000E+00 
    1.0000000000000000E+00     6.4999999999907687E-01     0.0000000000000000E+00 
    1.0000000000000000E+00     6.9999999999920870E-01     0.0000000000000000E+00 
    1.0000000000000000E+00     7.4999999999934064E-01     0.0000000000000000E+00 
    1.0000000000000000E+00     7.9999999999947247E-01     0.0000000000000000E+00 
    1.0000000000000000E+00     8.4999999999960441E-01     0.0000000000000000E+00 
    1.0000000000000000E+00     8.9999999999973623E-01     0.0000000000000000E+00 
    1.0000000000000000E+00     9.4999999999986817E-01     0.0000000000000000E+00 
    4.7500000000196618E-01     1.0000000000000000E+00     0.0000000000000000E+00 
    9.2499999999968763E-01     1.0000000000000000E+00     0.0000000000000000E+00 
    8.7499999999961831E-01     1.0000000000000000E+00     0.0000000000000000E+00 
    8.2499999999982654E-01     1.0000000000000000E+00     0.0000000000000000E+00 
    7.7500000000017355E-01     1.0000000000000000E+00     0.0000000000000000E+00 
    7.2500000000052045E-01     1.0000000000000000E+00     0.0000000000000000E+00 
    6.7500000000086724E-01     1.0000000000000000E+00     0.0000000000000000E+00 
    6.2500000000121403E-01     1.0000000000000000E+00     0.0000000000000000E+00 
    5.7500000000156093E-01     1.0000000000000000E+00     0.0000000000000000E+00 
    5.2500000000189684E-01     1.0000000000000000E+00     0.0000000000000000E+00 
    9.7499999999989595E-01     1.0000000000000000E+00     0.0000000000000000E+00 
    4.2500000000176902E-01     1.0000000000000000E+00     0.0000000000000000E+00 
    3.7500000000156092E-01     1.0000000000000000E+00     0.0000000000000000E+00 
    3.2500000000135282E-01     1.0000000000000000E+00     0.0000000000000000E+00 
    2.7500000000114472E-01     1.0000000000000000E+00     0.0000000000000000E+00 
    2.2500000000093659E-01     1.0000000000000000E+00     0.0000000000000000E+00 
    1.7500000000072849E-01     1.0000000000000000E+00     0.0000000000000000E+00 
    1.2500000000052039E-01     1.0000000000000000E+00     0.0000000000000000E+00 
    7.5000000000312261E-02     1.0000000000000000E+00     0.0000000000000000E+00 
    2.5000000000104109E-02     1.0000000000000000E+00     0.0000000000000000E+00 
    4.5000000000187301E-01     1.0000000000000000E+00     0.0000000000000000E+00 
    8.9999999999958358E-01     1.0000000000000000E+00     0.0000000000000000E+00 
    8.4999999999965303E-01     1.0000000000000000E+00     0.0000000000000000E+00 
    8.0000000000000004E-01     1.0000000000000000E+00     0.0000000000000000E+00 
    7.5000000000034706E-01     1.0000000000000000E+00     0.0000000000000000E+00 
    7.0000000000069384E-01     1.0000000000000000E+00     0.0000000000000000E+00 
    6.5000000000104063E-01     1.0000000000000000E+00     0.0000000000000000E+00 
    6.0000000000138742E-01     1.0000000000000000E+00     0.0000000000000000E+00 
    5.5000000000173432E-01     1.0000000000000000E+00     0.0000000000000000E+00 
    5.0000000000205946E-01     1.0000000000000000E+00     0.0000000000000000E+00 
    9.4999999999979179E-01     1.0000000000000000E+00     0.0000000000000000E+00 
    4.0000000000166491E-01     1.0000000000000000E+00     0.0000000000000000E+00 
    3.5000000000145681E-01     1.0000000000000000E+00     0.0000000000000000E+00 
    3.0000000000124871E-01     1.0000000000000000E+00     0.0000000000000000E+00 
    2.5000000000104061E-01     1.0000000000000000E+00     0.0000000000000000E+00 
    2.0000000000083251E-01     1.0000000000000000E+00     0.0000000000000000E+00 
    1.5000000000062441E-01     1.0000000000000000E+00     0.0000000000000000E+00 
    1.0000000000041630E-01     1.0000000000000000E+00     0.0000000000000000E+00 
[...]
CELL_DATA 1600 
SCALARS Pressure double 1 
LOOKUP_TABLE default 

    1.2086303365097888E+00 
    1.1617431190254528E+00 
    1.1592828608126462E+00 
    1.1928404511658450E+00 
    1.1801461504334885E+00 
    1.1555473831642622E+00 
    1.1512240968634353E+00 
    1.1697100332602937E+00 
    1.1609401570882527E+00 
    1.1466998363671586E+00 
    1.1421886597589284E+00 
    1.1534257105052084E+00 
    1.1468772772757578E+00 
    1.1378044622178101E+00 
    1.1336034785822890E+00 
    1.1410875807264032E+00 
    1.1359056914475909E+00 
    1.1296091946406206E+00 
    1.1258269277594259E+00 
    1.1312199157409164E+00 
    1.1269463035011200E+00 
    1.1222523251933236E+00 
    1.1188762771116041E+00 
    1.1230208270922957E+00 
    1.1193939849061094E+00 
    1.1156877168161132E+00 
    1.1126751786302560E+00 
    1.1160270256666718E+00 
    1.1128892697105375E+00 
    1.1098276289436759E+00 
    1.1071348758835338E+00 
    1.1099561822864674E+00 
    1.1072079690925409E+00 
    1.1045877384939637E+00 
    1.1021780822296130E+00 
    1.1046285391863366E+00 
    1.1022047296467878E+00 
    1.0998987834645673E+00 
    1.0977436594501373E+00 
    1.0999257190828591E+00 
    1.0977825790599034E+00 
    1.0957073845292216E+00 
    1.0937854041492838E+00 
    1.0957679274380794E+00 
    1.0938756578603637E+00 
    1.0919738527523579E+00 
    1.0902694784230356E+00 
    1.0921007267268965E+00 
    1.0904389839482502E+00 
    1.0886695753150564E+00 
    1.0871719237791724E+00 
    1.0888870372302535E+00 
    1.0874421420077558E+00 
    1.0857747373983220E+00 
    1.0844766154910110E+00 
    1.0861021106109319E+00 
    1.0848652347683567E+00 
    1.0832764986848762E+00 
    1.0821736231285299E+00 
    1.0837302146139138E+00 
    1.0826960832496593E+00 
    1.0811674638350113E+00 
    1.0802576442658831E+00 
    1.0817621037034797E+00 
    1.0809275834731036E+00 
    1.0794437558240777E+00 
    1.0787249601628859E+00 
    1.0801914834840163E+00 
    1.0795515811772245E+00 
    1.0780991272427309E+00 
    1.0775610703143075E+00 
    1.0790027666298345E+00 
    1.0785337959841101E+00 
    1.0770991394409906E+00 
    1.0766954125462758E+00 
    1.0781270300886479E+00 
    1.0778237975940161E+00 
    1.0763954143254779E+00 
    1.0762512384504224E+00 
    1.0776773507354573E+00 
    1.1372967522054331E+00 
    1.1193289362789058E+00 
    1.1189412653866371E+00 
    1.1365024991050787E+00 
    1.1350395513425546E+00 
    1.1181903042036767E+00 
    1.1171184616343646E+00 
    1.1330668741520282E+00 
    1.1307327728184529E+00 
    1.1157763659305826E+00 
    1.1142160759013031E+00 
    1.1281606296382625E+00 
    1.1254468966201399E+00 
    1.1124867891473147E+00 
    1.1106325596067690E+00 
    1.1226640334759954E+00 
    1.1198649330779005E+00 
    1.1086914063480244E+00 
    1.1066952864079225E+00 
    1.1170873125016305E+00 
    1.1143574934474538E+00 
    1.1046705463123021E+00 
    1.1026385959640481E+00 
    1.1116934350704986E+00 
    1.1091070684649078E+00 
    1.1006166471617711E+00 
    1.0986184275097775E+00 
    1.1066060463766605E+00 
    1.1041950308146906E+00 
    1.0966548249809100E+00 
    1.0947344456295709E+00 
    1.1018766280346375E+00 
    1.0996520604806543E+00 
    1.0928640825593230E+00 
    1.0910491024164699E+00 
    1.0975216455411394E+00 
    1.0954851339899931E+00 
    1.0892937593105640E+00 
    1.0876014470687887E+00 
    1.0935419473541985E+00 
    1.0916913429433694E+00 
    1.0859749003243111E+00 
    1.0844163538541658E+00 
    1.0899325273826679E+00 
    1.0882647336524423E+00 
    1.0829276682452338E+00 
    1.0815104286054995E+00 
    1.0866872723591841E+00 
    1.0851995648306674E+00 
    1.0801660217563724E+00 
    1.0788956961622300E+00 
    1.0838011633075175E+00 
    1.0824917617059058E+00 
    1.0777006077282119E+00 
    1.0765818533871641E+00 
    1.0812711988585528E+00 
    1.0801394543893030E+00 
    1.0755404927672045E+00 
    1.0745775553293984E+00 
    1.0790966345983453E+00 
    1.0781429397720090E+00 
    1.0736940238511519E+00 
    1.0728907689457357E+00 
    1.0772785895272283E+00 
    1.0765036470665770E+00 
    1.0721683711981274E+00 
    1.0715266921159874E+00 
    1.0758176099552157E+00 
    1.0752185129200909E+00 
    1.0709639309369228E+00 
    1.0704746706472661E+00 
    1.0747010805484882E+00 
    1.0742530930734910E+00 
    1.0700459229945705E+00 
    1.0696608022127785E+00 
    1.0738566908900955E+00 
    1.0735640904769426E+00 
    1.0693793855626377E+00 
    1.0692464986769885E+00 
    1.0734245869748182E+00 
    1.1040224173811870E+00 
    1.0899670232284204E+00 
    1.0898121342870493E+00 
    1.1037906770811508E+00 
    1.1033347153710376E+00 
    1.0895054623815963E+00 
    1.0890535451738472E+00 
    1.1026694050822179E+00 
    1.1018146636907462E+00 
    1.0884656142875109E+00 
    1.0877529572201659E+00 
    1.1007934319687607E+00 
    1.0996299018455458E+00 
    1.0869282512640468E+00 
    1.0860049446230093E+00 
    1.0983481399468695E+00 
    1.0969711231159684E+00 
    1.0849967277391217E+00 
    1.0839171126575837E+00 
    1.0955201356251811E+00 
    1.0940144527480118E+00 
    1.0827791207742090E+00 
    1.0815950687731857E+00 
    1.0924712338952243E+00 
    1.0909055583340519E+00 
    1.0803764374008096E+00 
    1.0791338062482498E+00 
    1.0893305502033384E+00 
    1.0877575531579269E+00 
    1.0778768384993120E+00 
    1.0766143015674734E+00 
    1.0861963267369434E+00 
    1.0846552458984382E+00 
    1.0753541119767025E+00 
    1.0741033952880583E+00 
    1.0831414921704614E+00 
    1.0816612298780222E+00 
    1.0728685540956171E+00 
    1.0716553390021835E+00 
    1.0802197643315363E+00 
    1.0788216810971749E+00 
    1.0704689190109329E+00 
    1.0693139489523102E+00 
    1.0774709668423474E+00 
    1.0761711130178284E+00 
    1.0681946324451950E+00 
    1.0671147795096001E+00 
    1.0749252039904940E+00 
    1.0737359913050728E+00 
    1.0660778583383597E+00 
    1.0650870409080606E+00 
    1.0726059555999898E+00 
    1.0715373573354345E+00 
    1.0641452420297630E+00 
    1.0632551509720276E+00 
    1.0705322768112013E+00 
    1.0695926426305968E+00 
    1.0624192535435111E+00 
    1.0616398394108177E+00 
    1.0687202448755020E+00 
    1.0679167221908137E+00 
    1.0609189814675157E+00 
    1.0602584542461040E+00 
    1.0671834942140477E+00 
    1.0665215701303383E+00 
    1.0596595147961103E+00 
    1.0591223899756597E+00 
    1.0659310868904068E+00 
    1.0654103026690636E+00 
    1.0586451766301206E+00 
    1.0582215001803446E+00 
    1.0649534920576105E+00 
    1.0645465111193084E+00 
    1.0578353109609402E+00 
    1.0574798878598552E+00 
    1.0641755559075927E+00 
    1.0639087248976837E+00 
    1.0572306195639662E+00 
    1.0571153237823192E+00 
    1.0637839972471810E+00 
    1.0764976838670000E+00 
    1.0632529803946946E+00 
    1.0631693644705178E+00 
    1.0763866305856815E+00 
    1.0761660811917424E+00 
    1.0630030327870938E+00 
    1.0627559846421701E+00 
    1.0758394311014587E+00 
    1.0754115958293538E+00 
    1.0624311447532564E+00 
    1.0620322686500574E+00 
    1.0748887806155007E+00 
    1.0742782131942108E+00 
    1.0615638245050065E+00 
    1.0610308629504956E+00 
    1.0735878681343387E+00 
    1.0728262037049165E+00 
    1.0604388839524401E+00 
    1.0597937079225579E+00 
    1.0720019253845827E+00 
    1.0711237840311700E+00 
    1.0591013563793394E+00 
    1.0583679456702380E+00 
    1.0702004117834658E+00 
    1.0692401951432979E+00 
    1.0575995956759097E+00 
    1.0568023541149139E+00 
    1.0682511823061687E+00 
    1.0672410204651477E+00 
    1.0559821360811357E+00 
    1.0551446777611351E+00 
    1.0662169182550061E+00 
    1.0651856284919363E+00 
    1.0542955028543075E+00 
    1.0534399000037971E+00 
    1.0641534466966385E+00 
    1.0631262214088113E+00 
    1.0525829094877566E+00 
    1.0517293174703737E+00 
    1.0621093728967965E+00 
    1.0611079174615210E+00 
    1.0508836562284323E+00 
    1.0500502089173533E+00 
    1.0601264950809799E+00 
    1.0591693986112374E+00 
    1.0492330175912226E+00 
    1.0484358933161317E+00 
    1.0582406031328411E+00 
    1.0573437942882375E+00 
    1.0476624272815824E+00 
    1.0469160017670394E+00 
    1.0564823945619091E+00 
    1.0556595863329132E+00 
    1.0461997995532826E+00 
    1.0455168096365772E+00 
    1.0548783299901079E+00 
    1.0541413739544185E+00 
    1.0448698252903446E+00 
    1.0442614259981922E+00 
    1.0534512497750705E+00 
    1.0528102360994849E+00 
    1.0436939235697757E+00 
    1.0431692270355104E+00 
    1.0522202527705786E+00 
    1.0516825992547836E+00 
    1.0426885301300206E+00 
    1.0422516356961768E+00 
    1.0511973683056755E+00 
    1.0507622065006221E+00 
    1.0418555314347293E+00 
    1.0414910834532229E+00 
    1.0503695864301277E+00 
    1.0500003904213857E+00 
    1.0411351945859182E+00 
    1.0408109988656240E+00 
    1.0496605102113743E+00 
    1.0494308486016823E+00 
    1.0406009801959060E+00 
    1.0405056583167536E+00 
    1.0493258085267603E+00 
    1.0500181754289215E+00 
    1.0366579943676746E+00 
    1.0366053782491702E+00 
    1.0499528410059933E+00 
    1.0498227541114780E+00 
    1.0365005575377697E+00 
    1.0363444445269141E+00 
    1.0496292132711234E+00 
    1.0493741210879468E+00 
    1.0361383702336893E+00 
    1.0358840625372603E+00 
    1.0490599408945231E+00 
    1.0486896392079594E+00 
    1.0355836155578242E+00 
    1.0352394532632694E+00 
    1.0482666194599204E+00 
    1.0477946511341263E+00 
    1.0348542893865231E+00 
    1.0344310853843386E+00 
    1.0472777977730077E+00 
    1.0467203467187003E+00 
    1.0339730079421934E+00 
    1.0334833873060927E+00 
    1.0461267428327667E+00 
    1.0455015278183108E+00 
    1.0329656774836256E+00 
    1.0324234191125208E+00 
    1.0448492861877954E+00 
    1.0441745984111308E+00 
    1.0318602055585211E+00 
    1.0312796525871910E+00 
    1.0434820013587254E+00 
    1.0427759558279563E+00 
    1.0306853717639315E+00 
    1.0300809475767381E+00 
    1.0420608207042739E+00 
    1.0413408331491147E+00 
    1.0294699181472446E+00 
    1.0288557592945446E+00 
    1.0406200941117594E+00 
    1.0399025584152943E+00 
    1.0282418716377104E+00 
    1.0276315703586560E+00 
    1.0391920286510270E+00 
    1.0384921521125423E+00 
    1.0270280771848892E+00 
    1.0264345140723097E+00 
    1.0378064199871513E+00 
    1.0371381679648415E+00 
    1.0258538979368721E+00 
    1.0252891355305620E+00 
    1.0364905772619861E+00 
    1.0358666746606997E+00 
    1.0247430170248855E+00 
    1.0242182056727467E+00 
    1.0352693292322783E+00 
    1.0347012411751801E+00 
    1.0237172181060579E+00 
    1.0232423830625554E+00 
    1.0341649126929622E+00 
    1.0336625776108745E+00 
    1.0227957507901935E+00 
    1.0223788934666076E+00 
    1.0331960376716680E+00 
    1.0327662994183511E+00 
    1.0219924787979853E+00 
    1.0216353814451511E+00 
    1.0323728069289955E+00 
    1.0320117983504900E+00 
    1.0213027066009339E+00 
    1.0209803103803201E+00 
    1.0316721865803253E+00 
    1.0313279843796848E+00 
    1.0206452493161278E+00 
    1.0203592105856383E+00 
    1.0310211564932863E+00 
    1.0308289982961873E+00 
    1.0201843620335869E+00 
    1.0201027011183728E+00 
    1.0307412899166906E+00 
    1.0230839431795113E+00 
    1.0092368807300314E+00 
    1.0092000299235100E+00 
    1.0230404399865745E+00 
    1.0229537461626543E+00 
    1.0091265794133353E+00 
    1.0090170679398967E+00 
    1.0228245447872812E+00 
    1.0226538245493499E+00 
    1.0088722675918660E+00 
    1.0086931763976179E+00 
    1.0224428676446771E+00 
    1.0221932320962783E+00 
    1.0084810073047450E+00 
    1.0082371745952874E+00 
    1.0219067302667155E+00 
    1.0215854047321105E+00 
    1.0079632784568016E+00 
    1.0076610882427306E+00 
    1.0212315024432641E+00 
    1.0208474479855625E+00 
    1.0073325248809248E+00 
    1.0069796428429059E+00 
    1.0204358166575875E+00 
    1.0199993079924761E+00 
    1.0066046120437484E+00 
    1.0062096999965500E+00 
    1.0195407202427780E+00 
    1.0190629262420940E+00 
    1.0057972544954994E+00 
    1.0053696870485842E+00 
    1.0185688509497679E+00 
    1.0180614508825445E+00 
    1.0049294572264531E+00 
    1.0044790580389329E+00 
    1.0175436955421817E+00 
    1.0170185508616640E+00 
    1.0040210023953517E+00 
    1.0035578106479810E+00 
    1.0164889646141602E+00 
    1.0159578536550080E+00 
    1.0030919991561567E+00 
    1.0026260697348410E+00 
    1.0154280927913879E+00 
    1.0149025049850919E+00 
    1.0021624997516403E+00 
    1.0017037324828488E+00 
    1.0143838524687021E+00 
    1.0138748281507670E+00 
    1.0012521670747285E+00 
    1.0008101469555766E+00 
    1.0133780463080724E+00 
    1.0128960308002057E+00 
    1.0003799445199653E+00 
    9.9996373768510205E-01 
    1.0124311973824902E+00 
    1.0119858229033083E+00 
    9.9956356895656384E-01 
    9.9918126672725971E-01 
    1.0115619854741851E+00 
    1.0111614408605929E+00 
    9.9881828609040912E-01 
    9.9847538391378832E-01 
    1.0107853636144588E+00 
    1.0104338133742015E+00 
    9.9815195816288449E-01 
    9.9784463682654601E-01 
    1.0101046238529543E+00 
    1.0097907766138681E+00 
    9.9754363874964913E-01 
    9.9722075783947584E-01 
    1.0094722651226549E+00 
    1.0091405993610203E+00 
    9.9689070942736469E-01 
    9.9665143125112055E-01 
    1.0088789845624573E+00 
    1.0087232100416956E+00 
    9.9651155915936696E-01 
    9.9644237161775084E-01 
    1.0086480921036167E+00 
    9.9507705693109982E-01 
    9.8057811479035295E-01 
    9.8054975569218539E-01 
    9.9504510367230947E-01 
    9.9498140790022249E-01 
    9.8049322053549659E-01 
    9.8040888772907542E-01 
    9.9488641310264925E-01 
    9.9476074832885553E-01 
    9.8029728893667401E-01 
    9.8015910516687521E-01 
    9.9460522311549293E-01 
    9.9442082009665489E-01 
    9.7999516145915644E-01 
    9.7980642031722687E-01 
    9.9420868584287347E-01 
    9.9397012040225907E-01 
    9.7959397421140038E-01 
    9.7935903736779761E-01 
    9.9370656587421802E-01 
    9.9341959428933424E-01 
    9.7910293701624351E-01 
    9.7882710424674535E-01 
    9.9311089503976424E-01 
    9.9278226208217546E-01 
    9.7853306461025502E-01 
    9.7822242858664821E-01 
    9.9243558111291330E-01 
    9.9207281689045190E-01 
    9.7789688202904590E-01 
    9.7755817667761824E-01 
    9.9169600085286713E-01 
    9.9130721914811859E-01 
    9.7720812081715402E-01 
    9.7684857013006743E-01 
    9.9090860116230595E-01 
    9.9050230859520250E-01 
    9.7648141876859773E-01 
    9.7610859063381916E-01 
    9.9009052509157702E-01 
    9.8967544638733940E-01 
    9.7573203079921345E-01 
    9.7535369694212970E-01 
    9.8925927086371235E-01 
    9.8884419030494619E-01 
    9.7497555052579288E-01 
    9.7459954726326870E-01 
    9.8843238049346571E-01 
    9.8802599098157440E-01 
    9.7422762599759882E-01 
    9.7386169433835401E-01 
    9.8762713279491909E-01 
    9.8723786159118987E-01 
    9.7350360773631461E-01 
    9.7315513513681273E-01 
    9.8686015109676328E-01 
    9.8649584568982362E-01 
    9.7281789685599884E-01 
    9.7249324510335244E-01 
    9.8614656834923442E-01 
    9.8581353517085790E-01 
    9.7218202817533006E-01 
    9.7188412016869230E-01 
    9.8549718007445397E-01 
    9.8519638578295143E-01 
    9.7159743961876854E-01 
    9.7131554756902083E-01 
    9.8490674381519872E-01 
    9.8461549744957755E-01 
    9.7101969537197030E-01 
    9.7068475045072422E-01 
    9.8428917450755815E-01 
    9.8396711548596805E-01 
    9.7038104241141976E-01 
    9.7017617919436561E-01 
    9.8374385242022477E-01 
    9.8361103316690812E-01 
    9.7004843426328180E-01 
    9.6998464926036732E-01 
    9.8354477937207963E-01 
    9.6572334725950293E-01 
    9.5050331968288260E-01 
    9.5047931552982623E-01 
    9.6569757374811782E-01 
    9.6564619013381636E-01 
    9.5043145650440619E-01 
    9.5036004383404216E-01 
    9.6556952941929131E-01 
    9.6546805588917439E-01 
    9.5026549535531357E-01 
    9.5014834236262424E-01 
    9.6534236174968002E-01 
    9.6519316304584113E-01 
    9.5000922627136619E-01 
    9.4984889461646205E-01 
    9.6502129467423825E-01 
    9.6482770471022195E-01 
    9.4966819652916767E-01 
    9.4946807780066445E-01 
    9.6461344820051964E-01 
    9.6437968053446721E-01 
    9.4924957561034384E-01 
    9.4901381298088572E-01 
    9.6412765048892290E-01 
    9.6385869303108973E-01 
    9.4876199301308517E-01 
    9.4849539294630492E-01 
    9.6357422195463693E-01 
    9.6327572241506887E-01 
    9.4821535808302171E-01 
    9.4792329560663680E-01 
    9.6296474341886007E-01 
    9.6264289030620320E-01 
    9.4762066830910729E-01 
    9.4730898822718412E-01 
    9.6231181724766068E-01 
    9.6197321974779781E-01 
    9.4698981015964145E-01 
    9.4666472499693055E-01 
    9.6162882710914521E-01 
    9.6128039474889648E-01 
    9.4633535272860858E-01 
    9.4600333488191157E-01 
    9.6092969616166379E-01 
    9.6057851415103224E-01 
    9.4567032594526923E-01 
    9.4533798295994675E-01 
    9.6022863064358466E-01 
    9.5988181381136972E-01 
    9.4500795174763685E-01 
    9.4468184682020695E-01 
    9.5953980006446193E-01 
    9.5920426610471465E-01 
    9.4436121914795734E-01 
    9.4404750017580674E-01 
    9.5887678136030852E-01 
    9.5855872125014685E-01 
    9.4374189900572714E-01 
    9.4344520720006386E-01 
    9.5825110233463962E-01 
    9.5795426244007242E-01 
    9.4315741906727013E-01 
    9.4287695453592513E-01 
    9.5766722372943514E-01 
    9.5738631049878697E-01 
    9.4259883283028467E-01 
    9.4230907294334809E-01 
    9.5710143779569545E-01 
    9.5678257104956865E-01 
    9.4196744682545774E-01 
    9.4160571455129383E-01 
    9.5643038903452782E-01 
    9.5614964008326497E-01 
    9.4133886531840716E-01 
    9.4116376441594407E-01 
    9.5596638367732945E-01 
    9.5584664546540798E-01 
    9.4104725796238264E-01 
    9.4098892553062563E-01 
    9.5578666912039334E-01 
    9.3491437198666938E-01 
    9.1895772587689584E-01 
    9.1893524252367453E-01 
    9.3489144195767704E-01 
    9.3484572108115649E-01 
    9.1889040808347577E-01 
    9.1882348841866623E-01 
    9.3477748889498780E-01 
    9.3468713236264389E-01 
    9.1873485205616878E-01 
    9.1862496692094575E-01 
    9.3457514272904751E-01 
    9.3444211263433918E-01 
    9.1849439770944874E-01 
    9.1834380288594064E-01 
    9.3428873273129875E-01 
    9.3411578788834493E-01 
    9.1817393133129699E-01 
    9.1798561870344109E-01 
    9.3392415305799981E-01 
    9.3371478886611470E-01 
    9.1777978354926837E-01 
    9.1755742319448241E-01 
    9.3348873696290746E-01 
    9.3324711516835857E-01 
    9.1731960942911617E-01 
    9.1706748399958427E-01 
    9.3299111243792920E-01 
    9.3272198366755732E-01 
    9.1680225391040970E-01 
    9.1652518652738746E-01 
    9.3244104434747799E-01 
    9.3214966506078656E-01 
    9.1623760445614966E-01 
    9.1594088014322761E-01 
    9.3184926580269345E-01 
    9.3154131006536878E-01 
    9.1563643010382956E-01 
    9.1532570860836704E-01 
    9.3122729858276765E-01 
    9.3090876254553223E-01 
    9.1501020053651372E-01 
    9.1469141289101563E-01 
    9.3058725594985625E-01 
    9.3026434648031697E-01 
    9.1437086407218449E-01 
    9.1405006929167865E-01 
    9.2994160383568814E-01 
    9.2962058346745458E-01 
    9.1373051914655357E-01 
    9.1341364578931905E-01 
    9.2930280186860381E-01 
    9.2898969594159087E-01 
    9.1310076616204017E-01 
    9.1279298217708893E-01 
    9.2868255188754689E-01 
    9.2838237521477340E-01 
    9.1249099884132590E-01 
    9.1219478104529528E-01 
    9.2808964564260199E-01 
    9.2780383685336010E-01 
    9.1190286628483663E-01 
    9.1161080109120884E-01 
    9.2752238846194790E-01 
    9.2723803269690108E-01 
    9.1130663722658023E-01 
    9.1095382704510619E-01 
    9.2692935691467893E-01 
    9.2656325617120117E-01 
    9.1055091883003569E-01 
    9.1021752010844581E-01 