# vtk DataFile Version 2.0
Pressure Field Data 
ASCII 
DATASET UNSTRUCTURED_GRID 

POINTS 1681 double 

    0.0000000000000000E+00     0.0000000000000000E+00     0.0000000000000000E+00 
    1.0000000000000000E+00     0.0000000000000000E+00     0.0000000000000000E+00 
    1.0000000000000000E+00     1.0000000000000000E+00     0.0000000000000000E+00 
    0.0000000000000000E+00     1.0000000000000000E+00     0.0000000000000000E+00 
    5.2499999999875258E-01     0.0000000000000000E+00     0.0000000000000000E+00 
    7.4999999999856765E-02     0.0000000000000000E+00     0.0000000000000000E+00 
    1.2499999999975850E-01     0.0000000000000000E+00     0.0000000000000000E+00 
    1.7499999999962990E-01     0.0000000000000000E+00     0.0000000000000000E+00 
    2.2499999999948389E-01     0.0000000000000000E+00     0.0000000000000000E+00 
    2.7499999999933789E-01     0.0000000000000000E+00     0.0000000000000000E+00 
    3.2499999999919210E-01     0.0000000000000000E+00     0.0000000000000000E+00 
    3.7499999999904610E-01     0.0000000000000000E+00     0.0000000000000000E+00 
    4.2499999999890020E-01     0.0000000000000000E+00     0.0000000000000000E+00 
    4.7499999999875958E-01     0.0000000000000000E+00     0.0000000000000000E+00 
    2.4999999999949701E-02     0.0000000000000000E+00     0.0000000000000000E+00 
    5.7499999999887907E-01     0.0000000000000000E+00     0.0000000000000000E+00 
    6.2499999999901101E-01     0.0000000000000000E+00     0.0000000000000000E+00 
    6.7499999999914273E-01     0.0000000000000000E+00     0.0000000000000000E+00 
    7.2499999999927467E-01     0.0000000000000000E+00     0.0000000000000000E+00 
    7.7499999999940661E-01     0.0000000000000000E+00     0.0000000000000000E+00 
    8.2499999999953844E-01     0.0000000000000000E+00     0.0000000000000000E+00 
    8.7499999999967026E-01     0.0000000000000000E+00     0.0000000000000000E+00 
    9.2499999999980220E-01     0.0000000000000000E+00     0.0000000000000000E+00 
    9.7499999999993414E-01     0.0000000000000000E+00     0.0000000000000000E+00 
    5.4999999999881310E-01     0.0000000000000000E+00     0.0000000000000000E+00 
    9.9999999999814140E-02     0.0000000000000000E+00     0.0000000000000000E+00 
    1.4999999999970290E-01     0.0000000000000000E+00     0.0000000000000000E+00 
    1.9999999999955689E-01     0.0000000000000000E+00     0.0000000000000000E+00 
    2.4999999999941089E-01     0.0000000000000000E+00     0.0000000000000000E+00 
    2.9999999999926502E-01     0.0000000000000000E+00     0.0000000000000000E+00 
    3.4999999999911913E-01     0.0000000000000000E+00     0.0000000000000000E+00 
    3.9999999999897312E-01     0.0000000000000000E+00     0.0000000000000000E+00 
    4.4999999999882723E-01     0.0000000000000000E+00     0.0000000000000000E+00 
    4.9999999999869210E-01     0.0000000000000000E+00     0.0000000000000000E+00 
    4.9999999999899403E-02     0.0000000000000000E+00     0.0000000000000000E+00 
    5.9999999999894504E-01     0.0000000000000000E+00     0.0000000000000000E+00 
    6.4999999999907687E-01     0.0000000000000000E+00     0.0000000000000000E+00 
    6.9999999999920870E-01     0.0000000000000000E+00     0.0000000000000000E+00 
    7.4999999999934064E-01     0.0000000000000000E+00     0.0000000000000000E+00 
    7.9999999999947247E-01     0.0000000000000000E+00     0.0000000000000000E+00 
    8.4999999999960441E-01     0.0000000000000000E+00     0.0000000000000000E+00 
    8.9999999999973623E-01     0.0000000000000000E+00     0.0000000000000000E+00 
    9.4999999999986817E-01     0.0000000000000000E+00     0.0000000000000000E+00 
    1.0000000000000000E+00     5.2499999999875258E-01     0.0000000000000000E+00 
    1.0000000000000000E+00     7.4999999999856765E-02     0.0000000000000000E+00 
    1.0000000000000000E+00     1.2499999999975850E-01     0.0000000000000000E+00 
    1.0000000000000000E+00     1.7499999999962990E-01     0.0000000000000000E+00 
    1.0000000000000000E+00     2.2499999999948389E-01     0.0000000000000000E+00 
    1.0000000000000000E+00     2.7499999999933789E-01     0.0000000000000000E+00 
    1.0000000000000000E+00     3.2499999999919210E-01     0.0000000000000000E+00 
    1.0000000000000000E+00     3.7499999999904610E-01     0.0000000000000000E+00 
    1.0000000000000000E+00     4.2499999999890020E-01     0.0000000000000000E+00 
    1.0000000000000000E+00     4.7499999999875958E-01     0.0000000000000000E+00 
    1.0000000000000000E+00     2.4999999999949701E-02     0.0000000000000000E+00 
    1.0000000000000000E+00     5.7499999999887907E-01     0.0000000000000000E+00 
    1.0000000000000000E+00     6.2499999999901101E-01     0.0000000000000000E+00 
    1.0000000000000000E+00     6.7499999999914273E-01     0.0000000000000000E+00 
    1.0000000000000000E+00     7.2499999999927467E-01     0.0000000000000000E+00 
    1.0000000000000000E+00     7.7499999999940661E-01     0.0000000000000000E+00 
    1.0000000000000000E+00     8.2499999999953844E-01     0.0000000000000000E+00 
    1.0000000000000000E+00     8.7499999999967026E-01     0.0000000000000000E+00 
    1.0000000000000000E+00     9.2499999999980220E-01     0.0000000000000000E+00 
    1.0000000000000000E+00     9.7499999999993414E-01     0.0000000000000000E+00 
    1.0000000000000000E+00     5.4999999999881310E-01     0.0000000000000000E+00 
    1.0000000000000000E+00     9.9999999999814140E-02     0.0000000000000000E+00 
    1.0000000000000000E+00     1.4999999999970290E-01     0.0000000000000000E+00 
    1.0000000000000000E+00     1.9999999999955689E-01     0.0000000000000000E+00 
    1.0000000000000000E+00     2.4999999999941089E-01     0.0000000000000000E+00 
    1.0000000000000000E+00     2.9999999999926502E-01     0.0000000000000000E+00 
    1.0000000000000000E+00     3.4999999999911913E-01     0.0000000000000000E+00 
    1.0000000000000000E+00     3.9999999999897312E-01     0.0000000000000000E+00 
    1.0000000000000000E+00     4.4999999999882723E-01     0.0000000000000000E+00 
    1.0000000000000000E+00     4.9999999999869210E-01     0.0000000000000000E+00 
    1.0000000000000000E+00     4.9999999999899403E-02     0.0000000000000000E+00 
    1.0000000000000000E+00     5.9999999999894504E-01     0.0000000000000000E+00 
    1.0000000000000000E+00     6.4999999999907687E-01     0.0000000000000000E+00 
    1.0000000000000000E+00     6.9999999999920870E-01     0.0000000000000000E+00 
    1.0000000000000000E+00     7.4999999999934064E-01     0.0000000000000000E+00 
    1.0000000000000000E+00     7.9999999999947247E-01     0.0000000000000000E+00 
    1.0000000000000000E+00     8.4999999999960441E-01     0.0000000000000000E+00 
    1.0000000000000000E+00     8.9999999999973623E-01     0.0000000000000000E+00 
    1.0000000000000000E+00     9.4999999999986817E-01     0.0000000000000000E+00 
    4.7500000000196618E-01     1.0000000000000000E+00     0.0000000000000000E+00 
    9.2499999999968763E-01     1.0000000000000000E+00     0.0000000000000000E+00 
    8.7499999999961831E-01     1.0000000000000000E+00     0.0000000000000000E+00 
    8.2499999999982654E-01     1.0000000000000000E+00     0.0000000000000000E+00 
    7.7500000000017355E-01     1.0000000000000000E+00     0.0000000000000000E+00 
    7.2500000000052045E-01     1.0000000000000000E+00     0.0000000000000000E+00 
    6.7500000000086724E-01     1.0000000000000000E+00     0.0000000000000000E+00 
    6.2500000000121403E-01     1.0000000000000000E+00     0.0000000000000000E+00 
    5.7500000000156093E-01     1.0000000000000000E+00     0.0000000000000000E+00 
    5.2500000000189684E-01     1.0000000000000000E+00     0.0000000000000000E+00 
    9.7499999999989595E-01     1.0000000000000000E+00     0.0000000000000000E+00 
    4.2500000000176902E-01     1.0000000000000000E+00     0.0000000000000000E+00 
    3.7500000000156092E-01     1.0000000000000000E+00     0.0000000000000000E+00 
    3.2500000000135282E-01     1.0000000000000000E+00     0.0000000000000000E+00 
    2.7500000000114472E-01     1.0000000000000000E+00     0.0000000000000000E+00 
    2.2500000000093659E-01     1.0000000000000000E+00     0.0000000000000000E+00 
    1.7500000000072849E-01     1.0000000000000000E+00     0.0000000000000000E+00 
    1.2500000000052039E-01     1.0000000000000000E+00     0.0000000000000000E+00 
    7.5000000000312261E-02     1.0000000000000000E+00     0.0000000000000000E+00 
    2.5000000000104109E-02     1.0000000000000000E+00     0.0000000000000000E+00 
    4.5000000000187301E-01     1.0000000000000000E+00     0.0000000000000000E+00 
    8.9999999999958358E-01     1.0000000000000000E+00     0.0000000000000000E+00 
    8.4999999999965303E-01     1.0000000000000000E+00     0.0000000000000000E+00 
    8.0000000000000004E-01     1.0000000000000000E+00     0.0000000000000000E+00 
    7.5000000000034706E-01     1.0000000000000000E+00     0.0000000000000000E+00 
    7.0000000000069384E-01     1.0000000000000000E+00     0.0000000000000000E+00 
    6.5000000000104063E-01     1.0000000000000000E+00     0.0000000000000000E+00 
    6.0000000000138742E-01     1.0000000000000000E+00     0.0000000000000000E+00 
    5.5000000000173432E-01     1.0000000000000000E+00     0.0000000000000000E+00 
    5.0000000000205946E-01     1.0000000000000000E+00     0.0000000000000000E+00 
    9.4999999999979179E-01     1.0000000000000000E+00     0.0000000000000000E+00 
    4.0000000000166491E-01     1.0000000000000000E+00     0.0000000000000000E+00 
    3.5000000000145681E-01     1.0000000000000000E+00     0.0000000000000000E+00 
    3.0000000000124871E-01     1.0000000000000000E+00     0.0000000000000000E+00 
    2.5000000000104061E-01     1.0000000000000000E+00     0.0000000000000000E+00 
    2.0000000000083251E-01     1.0000000000000000E+00     0.0000000000000000E+00 
    1.5000000000062441E-01     1.0000000000000000E+00     0.0000000000000000E+00 
    1.0000000000041630E-01     1.0000000000000000E+00     0.0000000000000000E+00 
[...]
CELL_DATA 1600 
SCALARS Pressure double 1 
LOOKUP_TABLE default 

    1.1760401537101104E+00 
    1.1293431974390189E+00 
    1.1268966875157278E+00 
    1.1602803225222060E+00 
    1.1476267219063703E+00 
    1.1231859502021828E+00 
    1.1188956822202587E+00 
    1.1372367820524403E+00 
    1.1285175349569805E+00 
    1.1144111949240760E+00 
    1.1099454232886288E+00 
    1.1210575258428646E+00 
    1.1145668264282378E+00 
    1.1056113663020910E+00 
    1.1014645065069775E+00 
    1.1088377057727217E+00 
    1.1037188116095429E+00 
    1.0975276774130880E+00 
    1.0938056191550170E+00 
    1.0990980492199158E+00 
    1.0948910862938552E+00 
    1.0902934614301887E+00 
    1.0869816262551226E+00 
    1.0910335312359891E+00 
    1.0874755368558831E+00 
    1.0838586207770311E+00 
    1.0809125894750813E+00 
    1.0841780247813468E+00 
    1.0811100065661357E+00 
    1.0781321406259636E+00 
    1.0755067521634347E+00 
    1.0782466564935420E+00 
    1.0755679063405601E+00 
    1.0730269376116683E+00 
    1.0706842787727389E+00 
    1.0730574073157368E+00 
    1.0707017536291603E+00 
    1.0684713877882677E+00 
    1.0663818349552980E+00 
    1.0684898948610968E+00 
    1.0664126862606249E+00 
    1.0644100630701567E+00 
    1.0625512998241660E+00 
    1.0644625410205459E+00 
    1.0626331588147984E+00 
    1.0608014743273206E+00 
    1.0591571406587112E+00 
    1.0609193119890277E+00 
    1.0593166757697416E+00 
    1.0576154095129315E+00 
    1.0561738879671707E+00 
    1.0578216923606587E+00 
    1.0564314612498056E+00 
    1.0548306267779104E+00 
    1.0535840741749984E+00 
    1.0551436497067337E+00 
    1.0539564183855110E+00 
    1.0524330346034261E+00 
    1.0513766298599283E+00 
    1.0528683569845239E+00 
    1.0518784232516276E+00 
    1.0504142576001587E+00 
    1.0495455355603700E+00 
    1.0509858727837320E+00 
    1.0501901505420022E+00 
    1.0487702022528453E+00 
    1.0480879032255588E+00 
    1.0494906748133033E+00 
    1.0488863643926627E+00 
    1.0474977104889389E+00 
    1.0469970895013194E+00 
    1.0483746290533178E+00 
    1.0479493353457379E+00 
    1.0465798042722114E+00 
    1.0462327739360429E+00 
    1.0475977670909138E+00 
    1.0473219236498847E+00 
    1.0459598003042987E+00 
    1.0458198594612302E+00 
    1.0471802075821348E+00 
    1.1051623229985135E+00 
    1.0875140825348384E+00 
    1.0871327725949389E+00 
    1.1043764505655567E+00 
    1.1029299946454354E+00 
    1.0863944962417909E+00 
    1.0853413989960525E+00 
    1.1009811781887537E+00 
    1.0986775384747409E+00 
    1.0840237529185477E+00 
    1.0824932016142277E+00 
    1.0961417137552070E+00 
    1.0934694518407049E+00 
    1.0807984929953589E+00 
    1.0789832144883926E+00 
    1.0907325523376883E+00 
    1.0879832923242934E+00 
    1.0770849145538304E+00 
    1.0751350846779597E+00 
    1.0852588162080972E+00 
    1.0825849143706758E+00 
    1.0731596173827567E+00 
    1.0711794845623461E+00 
    1.0799790538688905E+00 
    1.0774527105326512E+00 
    1.0692114788643825E+00 
    1.0672689292322617E+00 
    1.0750131161137280E+00 
    1.0726645432395432E+00 
    1.0653623461588115E+00 
    1.0634999793876341E+00 
    1.0704092377280647E+00 
    1.0682480879196792E+00 
    1.0616882863630137E+00 
    1.0599323178594380E+00 
    1.0661811009368789E+00 
    1.0642077387829763E+00 
    1.0582360308193777E+00 
    1.0566025394074268E+00 
    1.0623271535477439E+00 
    1.0605383504745669E+00 
    1.0550343148614176E+00 
    1.0535333436226135E+00 
    1.0588402997465229E+00 
    1.0572320120144274E+00 
    1.0521012518841355E+00 
    1.0507394033402608E+00 
    1.0557125884238541E+00 
    1.0542812527938881E+00 
    1.0494489756594834E+00 
    1.0482310200760288E+00 
    1.0529373713339010E+00 
    1.0516804635942094E+00 
    1.0470865074790401E+00 
    1.0460163634021646E+00 
    1.0505102069990577E+00 
    1.0494264360375456E+00 
    1.0450214932061601E+00 
    1.0441027970824657E+00 
    1.0484291355336521E+00 
    1.0475184243002358E+00 
    1.0432611711519373E+00 
    1.0424974827983116E+00 
    1.0466945180091158E+00 
    1.0459576412075551E+00 
    1.0418124881538615E+00 
    1.0412066147296166E+00 
    1.0453078150559076E+00 
    1.0447443649348458E+00 
    1.0406794494162246E+00 
    1.0402286339358651E+00 
    1.0442648570648119E+00 
    1.0438629248857816E+00 
    1.0398475799302684E+00 
    1.0395220267861867E+00 
    1.0435250007518733E+00 
    1.0432583962165753E+00 
    1.0392645812781525E+00 
    1.0391345107800269E+00 
    1.0431224416692748E+00 
    1.0725751070763332E+00 
    1.0589309162442715E+00 
    1.0587805489703472E+00 
    1.0723486210258593E+00 
    1.0719031490842825E+00 
    1.0584829001705001E+00 
    1.0580444128673001E+00 
    1.0712534264046656E+00 
    1.0704191686663933E+00 
    1.0574741806538370E+00 
    1.0567833140673506E+00 
    1.0694230622971581E+00 
    1.0682890040831363E+00 
    1.0559842799416432E+00 
    1.0550902883422273E+00 
    1.0670407356052691E+00 
    1.0657008883773518E+00 
    1.0541147696775646E+00 
    1.0530709595455534E+00 
    1.0642903892703202E+00 
    1.0628281509074113E+00 
    1.0519715914908989E+00 
    1.0508286873848609E+00 
    1.0613309703171276E+00 
    1.0598135689825534E+00 
    1.0496534300305680E+00 
    1.0484561011644864E+00 
    1.0582887211382987E+00 
    1.0567674307944892E+00 
    1.0472460688365466E+00 
    1.0460318101397070E+00 
    1.0552591297278062E+00 
    1.0537718780204315E+00 
    1.0448209577026037E+00 
    1.0436203608133119E+00 
    1.0523125557242463E+00 
    1.0508870392237961E+00 
    1.0424361542667231E+00 
    1.0412738299154809E+00 
    1.0495003592842136E+00 
    1.0481568399930876E+00 
    1.0401383074300681E+00 
    1.0390340019582121E+00 
    1.0468602191693064E+00 
    1.0456137515769286E+00 
    1.0379648872590224E+00 
    1.0369345535197736E+00 
    1.0444202966405622E+00 
    1.0432823924453647E+00 
    1.0359462594844278E+00 
    1.0350029787601325E+00 
    1.0422023177042079E+00 
    1.0411821431224626E+00 
    1.0341074402218331E+00 
    1.0332621622542344E+00 
    1.0402237731601898E+00 
    1.0393289784380522E+00 
    1.0324694799803307E+00 
    1.0317315631259640E+00 
    1.0384994175239199E+00 
    1.0377366433331674E+00 
    1.0310504183517777E+00 
    1.0304278600994121E+00 
    1.0370420805337868E+00 
    1.0364169386653073E+00 
    1.0298654106368827E+00 
    1.0293640421297836E+00 
    1.0358619792442039E+00 
    1.0353769721855555E+00 
    1.0289235901652682E+00 
    1.0285415078882059E+00 
    1.0349595314059230E+00 
    1.0346026598486937E+00 
    1.0282101586002870E+00 
    1.0279130578658389E+00 
    1.0342910916332517E+00 
    1.0340446443842781E+00 
    1.0276787977340784E+00 
    1.0275641781981899E+00 
    1.0339218830619317E+00 
    1.0459135054256454E+00 
    1.0331594467962006E+00 
    1.0330794205984879E+00 
    1.0458064434873613E+00 
    1.0455938546627830E+00 
    1.0329202456116728E+00 
    1.0326838579106539E+00 
    1.0452790595443666E+00 
    1.0448668673366910E+00 
    1.0323730946471790E+00 
    1.0319916010233166E+00 
    1.0443633477940648E+00 
    1.0437755668895130E+00 
    1.0315437139438148E+00 
    1.0310343339212369E+00 
    1.0431113144608364E+00 
    1.0423788445672295E+00 
    1.0304687941997439E+00 
    1.0298527341889361E+00 
    1.0415866425058842E+00 
    1.0407432263766672E+00 
    1.0291919824419924E+00 
    1.0284924526291073E+00 
    1.0398569861728844E+00 
    1.0389360597820636E+00 
    1.0277600543792456E+00 
    1.0270006195739643E+00 
    1.0379882429265859E+00 
    1.0370209287523040E+00 
    1.0262198437033636E+00 
    1.0254232412206106E+00 
    1.0360410722334792E+00 
    1.0350551745650245E+00 
    1.0246161134175469E+00 
    1.0238035271384227E+00 
    1.0340692830566656E+00 
    1.0330890025727595E+00 
    1.0229903025994034E+00 
    1.0221810086405436E+00 
    1.0321195151648683E+00 
    1.0311656051474123E+00 
    1.0213799638640639E+00 
    1.0205912422754488E+00 
    1.0302316874239583E+00 
    1.0293218373570392E+00 
    1.0198186822164523E+00 
    1.0190658975400970E+00 
    1.0284398208739629E+00 
    1.0275891238056536E+00 
    1.0183362901064168E+00 
    1.0176330627463452E+00 
    1.0267729796514837E+00 
    1.0259943950171240E+00 
    1.0169592317998246E+00 
    1.0163176380732919E+00 
    1.0252561717999529E+00 
    1.0245609245763001E+00 
    1.0157109543102205E+00 
    1.0151416853100867E+00 
    1.0239110899780672E+00 
    1.0233089205089481E+00 
    1.0146121517993771E+00 
    1.0141244368196434E+00 
    1.0227564442801593E+00 
    1.0222553469977889E+00 
    1.0136802465086789E+00 
    1.0132805873034509E+00 
    1.0218066835381361E+00 
    1.0214102417964910E+00 
    1.0129250733635939E+00 
    1.0126104452121800E+00 
    1.0210631948152817E+00 
    1.0207570344346990E+00 
    1.0123269726357178E+00 
    1.0120581104723716E+00 
    1.0204744088178013E+00 
    1.0202533782214942E+00 
    1.0118514260006606E+00 
    1.0117538386372524E+00 
    1.0201472072134539E+00 
    1.0204525965516795E+00 
    1.0076566647632375E+00 
    1.0076070837672126E+00 
    1.0203905406566496E+00 
    1.0202669883742268E+00 
    1.0075083117513555E+00 
    1.0073612119476401E+00 
    1.0200831830209562E+00 
    1.0198409522510388E+00 
    1.0071670497297702E+00 
    1.0069274719006167E+00 
    1.0195426659986984E+00 
    1.0191911802302773E+00 
    1.0066444770751457E+00 
    1.0063203803657554E+00 
    1.0187897721231982E+00 
    1.0183420707615061E+00 
    1.0059577744446080E+00 
    1.0055594886891537E+00 
    1.0178519867617577E+00 
    1.0173236436516861E+00 
    1.0051285478913996E+00 
    1.0046681317901993E+00 
    1.0167613132092903E+00 
    1.0161693563555259E+00 
    1.0041815364504680E+00 
    1.0036721382724756E+00 
    1.0155521706198871E+00 
    1.0149141446959578E+00 
    1.0031433611815754E+00 
    1.0025986473353283E+00 
    1.0142596201906777E+00 
    1.0135928603513000E+00 
    1.0020414314987314E+00 
    1.0014751190829245E+00 
    1.0129180253231918E+00 
    1.0122391533393382E+00 
    1.0009030677187745E+00 
    1.0003285721417625E+00 
    1.0115601471548834E+00 
    1.0108847650025601E+00 
    9.9975485209419479E-01 
    9.9918504289849108E-01 
    1.0102166153423806E+00 
    1.0095591546966949E+00 
    9.9862218831262251E-01 
    9.9806923523332658E-01 
    1.0089156878836572E+00 
    1.0082893699683588E+00 
    9.9752902974491653E-01 
    9.9700431388563671E-01 
    1.0076832092102237E+00 
    1.0071000701376809E+00 
    9.9649772224554656E-01 
    9.9601177695040533E-01 
    1.0065426754927842E+00 
    1.0060136048274266E+00 
    9.9554887830616590E-01 
    9.9511128532711712E-01 
    1.0055152851371740E+00 
    1.0050499629539622E+00 
    9.9470107311216338E-01 
    9.9432003795458068E-01 
    1.0046196333417965E+00 
    1.0042258724573732E+00 
    9.9396948972869903E-01 
    9.9364981528301244E-01 
    1.0038694688955114E+00 
    1.0035496502271759E+00 
    9.9335957224343963E-01 
    9.9309339622002002E-01 
    1.0032623829962610E+00 
    1.0029958829714474E+00 
    9.9283597407440050E-01 
    9.9258566033619189E-01 
    1.0027382515889747E+00 
    1.0025470208838867E+00 
    9.9241043706373844E-01 
    9.9233161498866018E-01 
    1.0024585180297290E+00 
    9.9468239828174487E-01 
    9.8147006704579731E-01 
    9.8143591477830827E-01 
    9.9464174011834805E-01 
    9.9456071602659601E-01 
    9.8136784241404729E-01 
    9.8126634895669840E-01 
    9.9443996505727406E-01 
    9.9428041756448504E-01 
    9.8113215415598531E-01 
    9.8096619209841862E-01 
    9.9408328416676173E-01 
    9.9385003888693879E-01 
    9.8076960087894349E-01 
    9.8054370970026994E-01 
    9.9358239850856322E-01 
    9.9328229933077949E-01 
    9.8029002414517963E-01 
    9.8001021015207335E-01 
    9.9295187223595049E-01 
    9.9259341686836922E-01 
    9.7970607714572133E-01 
    9.7937956072918431E-01 
    9.9220937563168132E-01 
    9.9180230811854464E-01 
    9.7903270530139286E-01 
    9.7866764692064590E-01 
    9.9137486648491446E-01 
    9.9092977217635436E-01 
    9.7828659668647655E-01 
    9.7789182486211179E-01 
    9.9046979430970505E-01 
    9.8999772991458634E-01 
    9.7748564590886455E-01 
    9.7707040455376859E-01 
    9.8951638614865500E-01 
    9.8902856451994570E-01 
    9.7664846296356056E-01 
    9.7622218905189684E-01 
    9.8853704707906431E-01 
    9.8804458448189614E-01 
    9.7579394590139668E-01 
    9.7536608223489363E-01 
    9.8755388576618541E-01 
    9.8706760962636231E-01 
    9.7494092381528441E-01 
    9.7452076557889067E-01 
    9.8658835689861069E-01 
    9.8611866386088520E-01 
    9.7410786418964157E-01 
    9.7370443049020294E-01 
    9.8566099576719202E-01 
    9.8521773967851656E-01 
    9.7331262090757831E-01 
    9.7293452597581820E-01 
    9.8479119490676792E-01 
    9.8438355772356378E-01 
    9.7257215212390802E-01 
    9.7222738827724953E-01 
    9.8399689313355732E-01 
    9.8363307774884245E-01 
    9.7190193873465414E-01 
    9.7159718363790371E-01 
    9.8329367943302803E-01 
    9.8297970507571486E-01 
    9.7131389162589910E-01 
    9.7105163499262226E-01 
    9.8269108424209239E-01 
    9.8242558623107301E-01 
    9.7080751739544124E-01 
    9.7057267795390323E-01 
    9.8217612723542402E-01 
    9.8192265256274203E-01 
    9.7032297958998970E-01 
    9.7008605031994588E-01 
    9.8167793819955329E-01 
    9.8151729100688678E-01 
    9.6993682058609565E-01 
    9.6987142982817476E-01 
    9.8144691572590015E-01 
    9.6797944677633929E-01 
    9.5418378458361841E-01 
    9.5415793743499466E-01 
    9.6795008253039727E-01 
    9.6789154732733307E-01 
    9.5410641022685949E-01 
    9.5402954875963020E-01 
    9.6780424868029280E-01 
    9.6768876837465112E-01 
    9.5392784183459822E-01 
    9.5380191823139071E-01 
    9.6754585833651563E-01 
    9.6737643384016703E-01 
    9.5365254191728943E-01 
    9.5348060596247741E-01 
    9.6718156491564367E-01 
    9.6696246646248130E-01 
    9.5328712551974859E-01 
    9.5307323009052780E-01 
    9.6672048740152261E-01 
    9.6645709913531808E-01 
    9.5284015524830723E-01 
    9.5258923396835393E-01 
    9.6617388355825795E-01 
    9.6587252083616337E-01 
    9.5232188769911419E-01 
    9.5203961729925768E-01 
    9.6555477715409366E-01 
    9.6522249260835236E-01 
    9.5174399395225795E-01 
    9.5143665015683443E-01 
    9.6487756939381009E-01 
    9.6452196041105387E-01 
    9.5111927087613490E-01 
    9.5079358491089139E-01 
    9.6415765838999090E-01 
    9.6378668559760172E-01 
    9.5046135654140906E-01 
    9.5012437745894740E-01 
    9.6341108416727705E-01 
    9.6303290705430755E-01 
    9.4978445897651931E-01 
    9.4944342446770402E-01 
    9.6265420958369485E-01 
    9.6227704150631632E-01 
    9.4910310192073577E-01 
    9.4876531639576922E-01 
    9.6190343940480338E-01 
    9.6153541916415619E-01 
    9.4843188199807349E-01 
    9.4810459264664715E-01 
    9.6117496798390056E-01 
    9.6082403491964907E-01 
    9.4778521024158946E-01 
    9.4747544739591794E-01 
    9.6048451787504718E-01 
    9.6015824256063598E-01 
    9.4717693877928544E-01 
    9.4689118848365961E-01 
    9.5984692356508561E-01 
    9.5955208637688694E-01 
    9.4661946752186643E-01 
    9.4636261072903671E-01 
    9.5927490754700551E-01 
    9.5901589042173474E-01 
    9.4612061368006040E-01 
    9.4589179470004037E-01 
    9.5877420108711131E-01 
    9.5854613155813795E-01 
    9.4567069851576702E-01 
    9.4544102381899853E-01 
    9.5832036397505926E-01 
    9.5807305652314012E-01 
    9.4518872361110695E-01 
    9.4497861957542284E-01 
    9.5784759638096983E-01 
    9.5770877217015160E-01 
    9.4485348783201228E-01 
    9.4479450643210616E-01 
    9.5764606393849239E-01 
    9.4006603126848476E-01 
    9.2561644693125700E-01 
    9.2559488753309260E-01 
    9.4004272218523854E-01 
    9.3999625299072120E-01 
    9.2555190509918006E-01 
    9.2548777416397154E-01 
    9.3992692714673509E-01 
    9.3983516997479521E-01 
    9.2540287712958569E-01 
    9.2529770188816540E-01 
    9.3972152612758930E-01 
    9.3958665596942958E-01 
    9.2517283889820523E-01 
    9.2502897754689251E-01 
    9.3943133100444343E-01 
    9.3925642860948488E-01 
    9.2486690197832011E-01 
    9.2468748650158772E-01 
    9.3906292622791909E-01 
    9.3885189513824019E-01 
    9.2449169065830616E-01 
    9.2428055401345455E-01 
    9.3862449389312619E-01 
    9.3838196151460884E-01 
    9.2405519072555842E-01 
    9.2381678394676192E-01 
    9.3812561052361199E-01 
    9.3785681987472191E-01 
    9.2356658009841552E-01 
    9.2330588306207373E-01 
    9.3757702785853880E-01 
    9.3728772502356128E-01 
    9.2303604831847774E-01 
    9.2275847705731207E-01 
    9.3699044715647695E-01 
    9.3668676834272546E-01 
    9.2247461026678124E-01 
    9.2218592279202916E-01 
    9.3637829410622253E-01 
    9.3606665459438099E-01 
    9.2189391732083237E-01 
    9.2160011820581711E-01 
    9.3575349772510719E-01 
    9.3544048213284214E-01 
    9.2130606494881651E-01 
    9.2101330502324652E-01 
    9.3512926961473664E-01 
    9.3482151653176382E-01 
    9.2072338542881826E-01 
    9.2043784181960375E-01 
    9.3451886314849353E-01 
    9.3422291895113452E-01 
    9.2015818292300877E-01 
    9.1988586564862429E-01 
    9.3393524003009887E-01 
    9.3365729053969948E-01 
    9.1962225153410826E-01 
    9.1936852574825945E-01 
    9.3339037195984453E-01 
    9.3313548786813483E-01 
    9.1912554188476958E-01 
    9.1889352026400395E-01 
    9.3289308172460583E-01 
    9.3266251896491204E-01 
    9.1867143754723579E-01 
    9.1845560585026431E-01 
    9.3244096847217139E-01 
    9.3222032961940493E-01 
    9.1823527773071534E-01 
    9.1797946435793498E-01 
    9.3197654018268383E-01 
    9.3171423208490622E-01 
    9.1771245587565520E-01 
    9.1752618781239215E-01 
    9.3151932579035535E-01 
    9.3140783077144995E-01 
    9.1741946718909240E-01 
    9.1736633906524845E-01 
    9.3135326195044099E-01 
    9.1083109186684275E-01 
    8.9571092742286651E-01 
    8.9569093102382535E-01 
    9.1081061406372221E-01 
    9.1076978625467264E-01 
    8.9565106068424227E-01 
    8.9559156091256564E-01 
    9.1070886398706474E-01 
    9.1062820206136241E-01 
    8.9551277120004114E-01 
    8.9541512339847085E-01 
    9.1052825209873378E-01 
    9.1040956002497675E-01 
    8.9529913942558259E-01 
    8.9516542855207526E-01 
    9.1027276301106219E-01 
    9.1011858598629081E-01 
    8.9501468432927755E-01 
    8.9484768122015379E-01 
    9.0994783780884969E-01 
    9.0976140715122744E-01 
    8.9466527097585491E-01 
    8.9446837878842489E-01 
    9.0956025814459329E-01 
    9.0934542581940681E-01 
    8.9425799924397331E-01 
    8.9403519209647331E-01 
    9.0911801137515913E-01 
    9.0887917730827927E-01 
    8.9380107787842877E-01 
    8.9355683335960501E-01 
    9.0863014242272200E-01 
    9.0837217674168802E-01 
    8.9330368685765049E-01 
    8.9304291339339081E-01 
    9.0810659633038837E-01 
    9.0783475802708424E-01 
    8.9277582966632552E-01 
    8.9250378879785142E-01 
    9.0755805406003354E-01 
    9.0727790649657980E-01 
    8.9222817474337268E-01 
    8.9195039619533856E-01 
    9.0699576141801486E-01 
    9.0671308262131001E-01 
    8.9167187965966022E-01 
    8.9139406113390596E-01 
    9.0643134447859819E-01 
    9.0615202325919653E-01 
    8.9111837533953431E-01 
    8.9084624054515815E-01 
    9.0587658557211914E-01 
    9.0560647127544214E-01 
    8.9057903522903636E-01 
    8.9031805932248398E-01 
    9.0534306552589183E-01 
    9.0508764927938312E-01 
    8.9006446597302991E-01 
    8.8981913668707935E-01 
    9.0484130711910915E-01 
    9.0460475117922501E-01 
    8.8958244646589901E-01 
    8.8935380193883051E-01 
    9.0437797650852070E-01 
    9.0415953380983416E-01 
    8.8913062050880520E-01 
    8.8890544361755697E-01 
    9.0394465386331424E-01 
    9.0371880147689321E-01 
    8.8865571510775720E-01 
    8.8836611565035084E-01 