# vtk DataFile Version 2.0
Pressure Field Data 
ASCII 
DATASET UNSTRUCTURED_GRID 

POINTS 1681 double 

    0.0000000000000000E+00     0.0000000000000000E+00     0.0000000000000000E+00 
    1.0000000000000000E+00     0.0000000000000000E+00     0.0000000000000000E+00 
    1.0000000000000000E+00     1.0000000000000000E+00     0.0000000000000000E+00 
    0.0000000000000000E+00     1.0000000000000000E+00     0.0000000000000000E+00 
    5.2499999999875258E-01     0.0000000000000000E+00     0.0000000000000000E+00 
    7.4999999999856765E-02     0.0000000000000000E+00     0.0000000000000000E+00 
    1.2499999999975850E-01     0.0000000000000000E+00     0.0000000000000000E+00 
    1.7499999999962990E-01     0.0000000000000000E+00     0.0000000000000000E+00 
    2.2499999999948389E-01     0.0000000000000000E+00     0.0000000000000000E+00 
    2.7499999999933789E-01     0.0000000000000000E+00     0.0000000000000000E+00 
    3.2499999999919210E-01     0.0000000000000000E+00     0.0000000000000000E+00 
    3.7499999999904610E-01     0.0000000000000000E+00     0.0000000000000000E+00 
    4.2499999999890020E-01     0.0000000000000000E+00     0.0000000000000000E+00 
    4.7499999999875958E-01     0.0000000000000000E+00     0.0000000000000000E+00 
    2.4999999999949701E-02     0.0000000000000000E+00     0.0000000000000000E+00 
    5.7499999999887907E-01     0.0000000000000000E+00     0.0000000000000000E+00 
    6.2499999999901101E-01     0.0000000000000000E+00     0.0000000000000000E+00 
    6.7499999999914273E-01     0.0000000000000000E+00     0.0000000000000000E+00 
    7.2499999999927467E-01     0.0000000000000000E+00     0.0000000000000000E+00 
    7.7499999999940661E-01     0.0000000000000000E+00     0.0000000000000000E+00 
    8.2499999999953844E-01     0.0000000000000000E+00     0.0000000000000000E+00 
    8.7499999999967026E-01     0.0000000000000000E+00     0.0000000000000000E+00 
    9.2499999999980220E-01     0.0000000000000000E+00     0.0000000000000000E+00 
    9.7499999999993414E-01     0.0000000000000000E+00     0.0000000000000000E+00 
    5.4999999999881310E-01     0.0000000000000000E+00     0.0000000000000000E+00 
    9.9999999999814140E-02     0.0000000000000000E+00     0.0000000000000000E+00 
    1.4999999999970290E-01     0.0000000000000000E+00     0.0000000000000000E+00 
    1.9999999999955689E-01     0.0000000000000000E+00     0.0000000000000000E+00 
    2.4999999999941089E-01     0.0000000000000000E+00     0.0000000000000000E+00 
    2.9999999999926502E-01     0.0000000000000000E+00     0.0000000000000000E+00 
    3.4999999999911913E-01     0.0000000000000000E+00     0.0000000000000000E+00 
    3.9999999999897312E-01     0.0000000000000000E+00     0.0000000000000000E+00 
    4.4999999999882723E-01     0.0000000000000000E+00     0.0000000000000000E+00 
    4.9999999999869210E-01     0.0000000000000000E+00     0.0000000000000000E+00 
    4.9999999999899403E-02     0.0000000000000000E+00     0.0000000000000000E+00 
    5.9999999999894504E-01     0.0000000000000000E+00     0.0000000000000000E+00 
    6.4999999999907687E-01     0.0000000000000000E+00     0.0000000000000000E+00 
    6.9999999999920870E-01     0.0000000000000000E+00     0.0000000000000000E+00 
    7.4999999999934064E-01     0.0000000000000000E+00     0.0000000000000000E+00 
    7.9999999999947247E-01     0.0000000000000000E+00     0.0000000000000000E+00 
    8.4999999999960441E-01     0.0000000000000000E+00     0.0000000000000000E+00 
    8.9999999999973623E-01     0.0000000000000000E+00     0.0000000000000000E+00 
    9.4999999999986817E-01     0.0000000000000000E+00     0.0000000000000000E+00 
    1.0000000000000000E+00     5.2499999999875258E-01     0.0000000000000000E+00 
    1.0000000000000000E+00     7.4999999999856765E-02     0.0000000000000000E+00 
    1.0000000000000000E+00     1.2499999999975850E-01     0.0000000000000000E+00 
    1.0000000000000000E+00     1.7499999999962990E-01     0.0000000000000000E+00 
    1.0000000000000000E+00     2.2499999999948389E-01     0.0000000000000000E+00 
    1.0000000000000000E+00     2.7499999999933789E-01     0.0000000000000000E+00 
    1.0000000000000000E+00     3.2499999999919210E-01     0.0000000000000000E+00 
    1.0000000000000000E+00     3.7499999999904610E-01     0.0000000000000000E+00 
    1.0000000000000000E+00     4.2499999999890020E-01     0.0000000000000000E+00 
    1.0000000000000000E+00     4.7499999999875958E-01     0.0000000000000000E+00 
    1.0000000000000000E+00     2.4999999999949701E-02     0.0000000000000000E+00 
    1.0000000000000000E+00     5.7499999999887907E-01     0.0000000000000000E+00 
    1.0000000000000000E+00     6.2499999999901101E-01     0.0000000000000000E+00 
    1.0000000000000000E+00     6.7499999999914273E-01     0.0000000000000000E+00 
    1.0000000000000000E+00     7.2499999999927467E-01     0.0000000000000000E+00 
    1.0000000000000000E+00     7.7499999999940661E-01     0.0000000000000000E+00 
    1.0000000000000000E+00     8.2499999999953844E-01     0.0000000000000000E+00 
    1.0000000000000000E+00     8.7499999999967026E-01     0.0000000000000000E+00 
    1.0000000000000000E+00     9.2499999999980220E-01     0.0000000000000000E+00 
    1.0000000000000000E+00     9.7499999999993414E-01     0.0000000000000000E+00 
    1.0000000000000000E+00     5.4999999999881310E-01     0.0000000000000000E+00 
    1.0000000000000000E+00     9.9999999999814140E-02     0.0000000000000000E+00 
    1.0000000000000000E+00     1.4999999999970290E-01     0.0000000000000000E+00 
    1.0000000000000000E+00     1.9999999999955689E-01     0.0000000000000000E+00 
    1.0000000000000000E+00     2.4999999999941089E-01     0.0000000000000000E+00 
    1.0000000000000000E+00     2.9999999999926502E-01     0.0000000000000000E+00 
    1.0000000000000000E+00     3.4999999999911913E-01     0.0000000000000000E+00 
    1.0000000000000000E+00     3.9999999999897312E-01     0.0000000000000000E+00 
    1.0000000000000000E+00     4.4999999999882723E-01     0.0000000000000000E+00 
    1.0000000000000000E+00     4.9999999999869210E-01     0.0000000000000000E+00 
    1.0000000000000000E+00     4.9999999999899403E-02     0.0000000000000000E+00 
    1.0000000000000000E+00     5.9999999999894504E-01     0.0000000000000000E+00 
    1.0000000000000000E+00     6.4999999999907687E-01     0.0000000000000000E+00 
    1.0000000000000000E+00     6.9999999999920870E-01     0.0000000000000000E+00 
    1.0000000000000000E+00     7.4999999999934064E-01     0.0000000000000000E+00 
    1.0000000000000000E+00     7.9999999999947247E-01     0.0000000000000000E+00 
    1.0000000000000000E+00     8.4999999999960441E-01     0.0000000000000000E+00 
    1.0000000000000000E+00     8.9999999999973623E-01     0.0000000000000000E+00 
    1.0000000000000000E+00     9.4999999999986817E-01     0.0000000000000000E+00 
    4.7500000000196618E-01     1.0000000000000000E+00     0.0000000000000000E+00 
    9.2499999999968763E-01     1.0000000000000000E+00     0.0000000000000000E+00 
    8.7499999999961831E-01     1.0000000000000000E+00     0.0000000000000000E+00 
    8.2499999999982654E-01     1.0000000000000000E+00     0.0000000000000000E+00 
    7.7500000000017355E-01     1.0000000000000000E+00     0.0000000000000000E+00 
    7.2500000000052045E-01     1.0000000000000000E+00     0.0000000000000000E+00 
    6.7500000000086724E-01     1.0000000000000000E+00     0.0000000000000000E+00 
    6.2500000000121403E-01     1.0000000000000000E+00     0.0000000000000000E+00 
    5.7500000000156093E-01     1.0000000000000000E+00     0.0000000000000000E+00 
    5.2500000000189684E-01     1.0000000000000000E+00     0.0000000000000000E+00 
    9.7499999999989595E-01     1.0000000000000000E+00     0.0000000000000000E+00 
    4.2500000000176902E-01     1.0000000000000000E+00     0.0000000000000000E+00 
    3.7500000000156092E-01     1.0000000000000000E+00     0.0000000000000000E+00 
    3.2500000000135282E-01     1.0000000000000000E+00     0.0000000000000000E+00 
    2.7500000000114472E-01     1.0000000000000000E+00     0.0000000000000000E+00 
    2.2500000000093659E-01     1.0000000000000000E+00     0.0000000000000000E+00 
    1.7500000000072849E-01     1.0000000000000000E+00     0.0000000000000000E+00 
    1.2500000000052039E-01     1.0000000000000000E+00     0.0000000000000000E+00 
    7.5000000000312261E-02     1.0000000000000000E+00     0.0000000000000000E+00 
    2.5000000000104109E-02     1.0000000000000000E+00     0.0000000000000000E+00 
    4.5000000000187301E-01     1.0000000000000000E+00     0.0000000000000000E+00 
    8.9999999999958358E-01     1.0000000000000000E+00     0.0000000000000000E+00 
    8.4999999999965303E-01     1.0000000000000000E+00     0.0000000000000000E+00 
    8.0000000000000004E-01     1.0000000000000000E+00     0.0000000000000000E+00 
    7.5000000000034706E-01     1.0000000000000000E+00     0.0000000000000000E+00 
    7.0000000000069384E-01     1.0000000000000000E+00     0.0000000000000000E+00 
    6.5000000000104063E-01     1.0000000000000000E+00     0.0000000000000000E+00 
    6.0000000000138742E-01     1.0000000000000000E+00     0.0000000000000000E+00 
    5.5000000000173432E-01     1.0000000000000000E+00     0.0000000000000000E+00 
    5.0000000000205946E-01     1.0000000000000000E+00     0.0000000000000000E+00 
    9.4999999999979179E-01     1.0000000000000000E+00     0.0000000000000000E+00 
    4.0000000000166491E-01     1.0000000000000000E+00     0.0000000000000000E+00 
    3.5000000000145681E-01     1.0000000000000000E+00     0.0000000000000000E+00 
    3.0000000000124871E-01     1.0000000000000000E+00     0.0000000000000000E+00 
    2.5000000000104061E-01     1.0000000000000000E+00     0.0000000000000000E+00 
    2.0000000000083251E-01     1.0000000000000000E+00     0.0000000000000000E+00 
    1.5000000000062441E-01     1.0000000000000000E+00     0.0000000000000000E+00 
    1.0000000000041630E-01     1.0000000000000000E+00     0.0000000000000000E+00 
[...]
CELL_DATA 1600 
SCALARS Pressure double 1 
LOOKUP_TABLE default 

    1.5915675535617622E+00 
    1.5299637177962329E+00 
    1.5261743321497774E+00 
    1.5734012330785829E+00 
    1.5567716365988458E+00 
    1.5198977187685092E+00 
    1.5121418963520890E+00 
    1.5416736936166890E+00 
    1.5277102693646643E+00 
    1.5034585181949847E+00 
    1.4941856539442411E+00 
    1.5145816328570842E+00 
    1.5020690317006178E+00 
    1.4845303058856658E+00 
    1.4746151707288415E+00 
    1.4900106682698784E+00 
    1.4782818100552406E+00 
    1.4645043667843560E+00 
    1.4542131516893029E+00 
    1.4667779181067768E+00 
    1.4553966454930261E+00 
    1.4436977458240210E+00 
    1.4327886587855330E+00 
    1.4440089619255367E+00 
    1.4323876933628827E+00 
    1.4212755105039792E+00 
    1.4091304124443926E+00 
    1.4200523542002947E+00 
    1.4069777902816500E+00 
    1.3972961523097158E+00 
    1.3867156807851690E+00 
    1.3950424683602307E+00 
    1.3846928279158595E+00 
    1.3771179334631010E+00 
    1.3681892603174262E+00 
    1.3751447236574326E+00 
    1.3662921663184819E+00 
    1.3598700947255167E+00 
    1.3521211198655334E+00 
    1.3580818161388362E+00 
    1.3504675355865650E+00 
    1.3449075361650891E+00 
    1.3381984904444244E+00 
    1.3434092549764733E+00 
    1.3368720508195822E+00 
    1.3319665909833838E+00 
    1.3261874938853913E+00 
    1.3308253926463065E+00 
    1.3252425243491159E+00 
    1.3208395493091529E+00 
    1.3159034983149265E+00 
    1.3200999535559157E+00 
    1.3153770282868076E+00 
    1.3113622127230753E+00 
    1.3072004716796177E+00 
    1.3110555845740663E+00 
    1.3071196521507640E+00 
    1.3034047696685236E+00 
    1.2999631515676662E+00 
    1.3035552079756796E+00 
    1.3003499694413903E+00 
    1.2968650710569376E+00 
    1.2941012692827811E+00 
    1.2974932207455403E+00 
    1.2949756671959605E+00 
    1.2916636711852991E+00 
    1.2895452973191608E+00 
    1.2927893132474400E+00 
    1.2909273608917358E+00 
    1.2877401893614544E+00 
    1.2862433478096251E+00 
    1.2893841256890515E+00 
    1.2881549682743039E+00 
    1.2850506806399749E+00 
    1.2841589619300386E+00 
    1.2872362396229862E+00 
    1.2866252387409636E+00 
    1.2835657996530210E+00 
    1.2832696120354530E+00 
    1.2863201817677359E+00 
    1.4858154741875258E+00 
    1.4451696909241423E+00 
    1.4440535168082007E+00 
    1.4841322273207271E+00 
    1.4808990502052677E+00 
    1.4418385700333276E+00 
    1.4385842028607723E+00 
    1.4763497069061284E+00 
    1.4707109218273859E+00 
    1.4343620356474966E+00 
    1.4292368205429362E+00 
    1.4641773011920181E+00 
    1.4569030332754884E+00 
    1.4232444678915197E+00 
    1.4163804615481930E+00 
    1.4489978045226790E+00 
    1.4405165472962311E+00 
    1.4086740558665936E+00 
    1.4002392987583976E+00 
    1.4314224648564573E+00 
    1.4216308858294806E+00 
    1.3912720279885662E+00 
    1.3823148949862798E+00 
    1.4111919501456760E+00 
    1.4003830569673168E+00 
    1.3737781179625952E+00 
    1.3657532400356958E+00 
    1.3898748578408251E+00 
    1.3802398867073773E+00 
    1.3581778569908916E+00 
    1.3509187413193702E+00 
    1.3713576029529446E+00 
    1.3630028775849929E+00 
    1.3439821122305491E+00 
    1.3373727217289262E+00 
    1.3551387234558909E+00 
    1.3477461158133366E+00 
    1.3310920986368364E+00 
    1.3251394164793771E+00 
    1.3408065119972177E+00 
    1.3343021569460831E+00 
    1.3195121635160263E+00 
    1.3142066578820406E+00 
    1.3282162633160783E+00 
    1.3225331075166378E+00 
    1.3092184421532416E+00 
    1.3045425844090186E+00 
    1.3172380699068575E+00 
    1.3123176384490021E+00 
    1.3001739069990661E+00 
    1.2961071595441802E+00 
    1.3077593890501191E+00 
    1.3035519516753433E+00 
    1.2923371490185422E+00 
    1.2888588368807403E+00 
    1.2996849684614686E+00 
    1.2961490480838469E+00 
    1.2856674109783250E+00 
    1.2827583382094743E+00 
    1.2929357192583038E+00 
    1.2900373853067024E+00 
    1.2801274025752387E+00 
    1.2777707322095384E+00 
    1.2874472810532183E+00 
    1.2851594328611402E+00 
    1.2756848181630571E+00 
    1.2738665270879754E+00 
    1.2831686223064491E+00 
    1.2814703537723242E+00 
    1.2723131094815925E+00 
    1.2710222047660875E+00 
    1.2800608261083528E+00 
    1.2789369084084747E+00 
    1.2699918441838223E+00 
    1.2692204522534034E+00 
    1.2780961199079093E+00 
    1.2775366139705819E+00 
    1.2687068473456531E+00 
    1.2684502417888017E+00 
    1.2772571661275038E+00 
    1.4036216089355549E+00 
    1.3584996873490331E+00 
    1.3575695531274319E+00 
    1.4026839856386331E+00 
    1.4007939823569029E+00 
    1.3557550125785434E+00 
    1.3531428321873922E+00 
    1.3979459375962155E+00 
    1.3941416140647998E+00 
    1.3498472000413322E+00 
    1.3460189101850208E+00 
    1.3894142357065806E+00 
    1.3838540386689573E+00 
    1.3418436091413839E+00 
    1.3374961228219406E+00 
    1.3775994833022673E+00 
    1.3709004606745312E+00 
    1.3331024260968487E+00 
    1.3287178949661129E+00 
    1.3641153204386294E+00 
    1.3574696215452167E+00 
    1.3243067054937085E+00 
    1.3198272445785497E+00 
    1.3510858800924077E+00 
    1.3449321021125993E+00 
    1.3152993175992558E+00 
    1.3107634374135111E+00 
    1.3389014537715185E+00 
    1.3329998755581447E+00 
    1.3062547237550344E+00 
    1.3018032095090399E+00 
    1.3272550143841539E+00 
    1.3216889610041558E+00 
    1.2974344269526596E+00 
    1.2931699570356876E+00 
    1.3163190459066703E+00 
    1.3111586721140611E+00 
    1.2890279385986900E+00 
    1.2850235329106872E+00 
    1.3062180290207146E+00 
    1.3015046967925268E+00 
    1.2811693417515744E+00 
    1.2774757794664451E+00 
    1.2970241533961020E+00 
    1.2927801969440476E+00 
    1.2739514009704604E+00 
    1.2706031886717253E+00 
    1.2887752955684306E+00 
    1.2850108759984227E+00 
    1.2674368018247069E+00 
    1.2644567920440200E+00 
    1.2814875607457192E+00 
    1.2782053624833367E+00 
    1.2616667886966362E+00 
    1.2590696577289313E+00 
    1.2751638429461003E+00 
    1.2723622425371135E+00 
    1.2566676372326357E+00 
    1.2544624527535293E+00 
    1.2697995858144497E+00 
    1.2674747671583719E+00 
    1.2524554150282121E+00 
    1.2506475025169947E+00 
    1.2653866201736195E+00 
    1.2635339737509339E+00 
    1.2490394307970034E+00 
    1.2476317105957515E+00 
    1.2619156971824259E+00 
    1.2605307362820228E+00 
    1.2464246959848715E+00 
    1.2454186240170306E+00 
    1.2593781420913728E+00 
    1.2584570934406814E+00 
    1.2446136468752595E+00 
    1.2440098574111644E+00 
    1.2577669143722159E+00 
    1.2573070872117371E+00 
    1.2436073087740005E+00 
    1.2434060286736019E+00 
    1.2570772618816410E+00 
    1.3132985806454502E+00 
    1.2751740933300952E+00 
    1.2749218960409487E+00 
    1.3127167067129095E+00 
    1.3116136638815028E+00 
    1.2744119074580502E+00 
    1.2736374749767028E+00 
    1.3100808849679528E+00 
    1.3082136988713511E+00 
    1.2725958081406468E+00 
    1.2712922797527539E+00 
    1.3060899993401096E+00 
    1.3037512704451639E+00 
    1.2697429498677217E+00 
    1.2679718141044456E+00 
    1.3012016524218062E+00 
    1.2984352392575080E+00 
    1.2660056675064717E+00 
    1.2638715202019803E+00 
    1.2954680981181002E+00 
    1.2923379929082290E+00 
    1.2615962555040607E+00 
    1.2592062091636902E+00 
    1.2890852342938577E+00 
    1.2857461771869241E+00 
    1.2567266797449883E+00 
    1.2541816396709633E+00 
    1.2823537557829527E+00 
    1.2789375778271268E+00 
    1.2515935532341347E+00 
    1.2489832773805438E+00 
    1.2755240877378111E+00 
    1.2721367665071013E+00 
    1.2463700251755683E+00 
    1.2437713759891729E+00 
    1.2687963533649911E+00 
    1.2655210775933952E+00 
    1.2412033196867538E+00 
    1.2386803247087483E+00 
    1.2623268915119361E+00 
    1.2592276979709347E+00 
    1.2362154220364396E+00 
    1.2338202987777034E+00 
    1.2562355676453305E+00 
    1.2533609430243779E+00 
    1.2315053965342071E+00 
    1.2292800108802833E+00 
    1.2506128272578338E+00 
    1.2479989569876553E+00 
    1.2271523892326319E+00 
    1.2251298251521348E+00 
    1.2455259590092729E+00 
    1.2431994911131286E+00 
    1.2232187477229766E+00 
    1.2214248051255907E+00 
    1.2410243677976478E+00 
    1.2390046717562428E+00 
    1.2197529418812469E+00 
    1.2182074695171123E+00 
    1.2371438521546969E+00 
    1.2354448107570244E+00 
    1.2167921305984821E+00 
    1.2155101562141182E+00 
    1.2339099769480857E+00 
    1.2325413726556507E+00 
    1.2143643170934897E+00 
    1.2133569685912675E+00 
    1.2313406681052945E+00 
    1.2303092292572901E+00 
    1.2124900898029418E+00 
    1.2117653170825429E+00 
    1.2294481576819591E+00 
    1.2287583235330601E+00 
    1.2111839722244016E+00 
    1.2107470855498912E+00 
    1.2282403921808061E+00 
    1.2278948449686080E+00 
    1.2104554141102994E+00 
    1.2103094551809064E+00 
    1.2277219944617017E+00 
    1.2420148055817672E+00 
    1.2108610111941089E+00 
    1.2107136719700440E+00 
    1.2418216052648663E+00 
    1.2414338310906570E+00 
    1.2104199709537911E+00 
    1.2099821030660358E+00 
    1.2408515557440041E+00 
    1.2400781724324024E+00 
    1.2094037239874165E+00 
    1.2086900562567451E+00 
    1.2391205620542396E+00 
    1.2379888380893034E+00 
    1.2078478635124801E+00 
    1.2068853165004927E+00 
    1.2366958006089532E+00 
    1.2352562101907063E+00 
    1.2058117851199612E+00 
    1.2046375967019318E+00 
    1.2336861165479573E+00 
    1.2320023345244089E+00 
    1.2033737903849080E+00 
    1.2020318829998820E+00 
    1.2302220148168457E+00 
    1.2283622888562946E+00 
    1.2006236550548566E+00 
    1.1991609617927237E+00 
    1.2264399871870189E+00 
    1.2244714228087785E+00 
    1.1976555713174684E+00 
    1.1961190297661810E+00 
    1.2224722305371347E+00 
    1.2204572536582468E+00 
    1.1945625521984564E+00 
    1.1929969370877940E+00 
    1.2184404697736069E+00 
    1.2164349485359933E+00 
    1.1914325018821021E+00 
    1.1898790369395893E+00 
    1.2144528348486938E+00 
    1.2125053519663074E+00 
    1.1883457751586779E+00 
    1.1868413747450728E+00 
    1.2106028197576779E+00 
    1.2087546841483070E+00 
    1.1853739127516887E+00 
    1.1839508872562154E+00 
    1.2069695544400085E+00 
    1.2052552458060621E+00 
    1.1825792262845998E+00 
    1.1812653018316286E+00 
    1.2036188247816049E+00 
    1.2020666560150921E+00 
    1.1800149475619603E+00 
    1.1788334789902755E+00 
    1.2006044489231036E+00 
    1.1992373032041488E+00 
    1.1777257151342400E+00 
    1.1766960008071876E+00 
    1.1979697524244741E+00 
    1.1968058050972636E+00 
    1.1757482288687569E+00 
    1.1748858618819540E+00 
    1.1957489828427807E+00 
    1.1948023553472453E+00 
    1.1741119527356969E+00 
    1.1734291638845267E+00 
    1.1939685719382385E+00 
    1.1932498896692973E+00 
    1.1728397849338781E+00 
    1.1723457483619371E+00 
    1.1926481978605319E+00 
    1.1921650390794236E+00 
    1.1719486432196957E+00 
    1.1716497266912032E+00 
    1.1918016265697897E+00 
    1.1915588581500041E+00 
    1.1714499334279125E+00 
    1.1713498825960944E+00 
    1.1914373266063982E+00 
    1.1811806168902337E+00 
    1.1526127901470460E+00 
    1.1525282812285498E+00 
    1.1810693601341138E+00 
    1.1808477800849566E+00 
    1.1523599662598427E+00 
    1.1521092467400216E+00 
    1.1805177623314265E+00 
    1.1800821620635749E+00 
    1.1517782121451479E+00 
    1.1513696200726971E+00 
    1.1795448005951810E+00 
    1.1789104316128785E+00 
    1.1508868652443001E+00 
    1.1503339368332068E+00 
    1.1781846760774737E+00 
    1.1773739304241930E+00 
    1.1497153649789962E+00 
    1.1490361584106521E+00 
    1.1764852558458554E+00 
    1.1755262569254312E+00 
    1.1483017356868415E+00 
    1.1475178527250134E+00 
    1.1745049567829191E+00 
    1.1734296744245014E+00 
    1.1466905291583926E+00 
    1.1458259757499092E+00 
    1.1723089085296596E+00 
    1.1711512305864871E+00 
    1.1449305246925450E+00 
    1.1440105641998091E+00 
    1.1699651891596108E+00 
    1.1687592261680584E+00 
    1.1430724783798925E+00 
    1.1421225930175314E+00 
    1.1675416053522836E+00 
    1.1663203525964336E+00 
    1.1411671275713238E+00 
    1.1402121534352925E+00 
    1.1651032074145289E+00 
    1.1638975846780462E+00 
    1.1392635583104838E+00 
    1.1383270163805628E+00 
    1.1627105455302609E+00 
    1.1615487763759651E+00 
    1.1374079638784518E+00 
    1.1365115795619207E+00 
    1.1604185748338487E+00 
    1.1593258415766892E+00 
    1.1356427695778590E+00 
    1.1348061561812692E+00 
    1.1582760770486220E+00 
    1.1572743821289893E+00 
    1.1340060697800809E+00 
    1.1332465437957679E+00 
    1.1563254619009504E+00 
    1.1554336317744971E+00 
    1.1325313118583535E+00 
    1.1318638068893339E+00 
    1.1546028253036835E+00 
    1.1538366031239540E+00 
    1.1312471616646993E+00 
    1.1306842104905084E+00 
    1.1531381625156694E+00 
    1.1525103471732723E+00 
    1.1301774916638769E+00 
    1.1297292504316820E+00 
    1.1519556568255718E+00 
    1.1514762564113630E+00 
    1.1293414421970180E+00 
    1.1290157357590711E+00 
    1.1510739845663356E+00 
    1.1507503612224741E+00 
    1.1287535164053659E+00 
    1.1285558887063309E+00 
    1.1505065941606012E+00 
    1.1503435843910952E+00 
    1.1284236788908741E+00 
    1.1283574367084765E+00 
    1.1502619302679293E+00 
    1.1248900525882799E+00 
    1.0978152126608771E+00 
    1.0977649955819360E+00 
    1.1248252628250863E+00 
    1.1246961979458607E+00 
    1.0976649413067789E+00 
    1.0975158055576446E+00 
    1.1245038818991446E+00 
    1.1242498370024900E+00 
    1.0973187118214434E+00 
    1.0970751392884128E+00 
    1.1239360671096739E+00 
    1.1235650347026813E+00 
    1.0967869069167842E+00 
    1.0964561538311870E+00 
    1.1231396320201166E+00 
    1.1226631466751362E+00 
    1.0960853163716882E+00 
    1.0956771022162255E+00 
    1.1221392225301150E+00 
    1.1215718168284294E+00 
    1.0952344620870880E+00 
    1.0947605596123300E+00 
    1.1209651547150377E+00 
    1.1203236823109197E+00 
    1.0942587399417463E+00 
    1.0937324977150114E+00 
    1.1196520194589725E+00 
    1.1189549131523284E+00 
    1.0931854449507379E+00 
    1.0926212793752617E+00 
    1.1182371925118222E+00 
    1.1175037260161740E+00 
    1.0920437536451415E+00 
    1.0914566458437900E+00 
    1.1167593815212582E+00 
    1.1160089894444620E+00 
    1.0908637315555696E+00 
    1.0902687577445060E+00 
    1.1152573093438696E+00 
    1.1145089999940736E+00 
    1.0896754185927402E+00 
    1.0890873333882767E+00 
    1.1137685929527725E+00 
    1.1130404695251426E+00 
    1.0885080264939226E+00 
    1.0879409093802339E+00 
    1.1123288409653043E+00 
    1.1116377317043113E+00 
    1.0873892646649219E+00 
    1.0868562320692747E+00 
    1.1109709653599025E+00 
    1.1103321532624200E+00 
    1.0863447961780981E+00 
    1.0858577758727324E+00 
    1.1097246852216034E+00 
    1.1091517222582576E+00 
    1.0853978152960200E+00 
    1.0849673762027952E+00 
    1.1086161910311261E+00 
    1.1081207797010069E+00 
    1.0845687315486707E+00 
    1.0842039601728262E+00 
    1.1076679349897514E+00 
    1.1072598602101125E+00 
    1.0838749424364202E+00 
    1.0835833566865052E+00 
    1.1068985140624661E+00 
    1.1065856100154932E+00 
    1.0833306764253854E+00 
    1.0831181680767543E+00 
    1.1063226161093778E+00 
    1.1061107550415548E+00 
    1.0829468892523082E+00 
    1.0828176874355597E+00 
    1.1059510044162750E+00 
    1.1058440970600609E+00 
    1.0827311990130588E+00 
    1.0826878485969758E+00 
    1.1057905213254657E+00 
    1.0712425435222803E+00 
    1.0450643065964287E+00 
    1.0450327817412961E+00 
    1.0712031003009412E+00 
    1.0711244994074673E+00 
    1.0449699517799709E+00 
    1.0448762541906791E+00 
    1.0710073090868117E+00 
    1.0708523746086858E+00 
    1.0447523401701631E+00 
    1.0445990686880702E+00 
    1.0706608098531363E+00 
    1.0704339862705659E+00 
    1.0444174986914974E+00 
    1.0442088795725217E+00 
    1.0701735193812807E+00 
    1.0698812530278807E+00 
    1.0439746400380496E+00 
    1.0437163755452741E+00 
    1.0695592416390836E+00 
    1.0692097308019533E+00 
    1.0434358344862542E+00 
    1.0431349033205848E+00 
    1.0688351364678796E+00 
    1.0684380231340906E+00 
    1.0428155908651118E+00 
    1.0424800119538298E+00 
    1.0680210813464350E+00 
    1.0675871048611825E+00 
    1.0421303706795195E+00 
    1.0417689434217894E+00 
    1.0671389677851408E+00 
    1.0666796019864226E+00 
    1.0413980618546161E+00 
    1.0410200961111125E+00 
    1.0662119750350134E+00 
    1.0657390688951176E+00 
    1.0406374382650263E+00 
    1.0402524862683653E+00 
    1.0652638595521859E+00 
    1.0647892977184057E+00 
    1.0398676284634372E+00 
    1.0394852287663472E+00 
    1.0643182907226905E+00 
    1.0638536856560512E+00 
    1.0391076125982774E+00 
    1.0387370536212632E+00 
    1.0633982538114026E+00 
    1.0629546764288851E+00 
    1.0383757613171081E+00 
    1.0380258694318540E+00 
    1.0625255317339424E+00 
    1.0621132832356757E+00 
    1.0376894252940241E+00 
    1.0373683800027536E+00 
    1.0617202692373315E+00 
    1.0613486934989054E+00 
    1.0370645794719815E+00 
    1.0367797563089485E+00 
    1.0610006169834603E+00 
    1.0606779506135331E+00 
    1.0365155224993070E+00 
    1.0362733628669969E+00 
    1.0603824489615148E+00 
    1.0601157047978169E+00 
    1.0360546292745463E+00 
    1.0358605355284218E+00 
    1.0598791444225861E+00 
    1.0596740237103792E+00 
    1.0356921529543242E+00 
    1.0355504066086991E+00 
    1.0595014248022769E+00 
    1.0593622533860845E+00 
    1.0354360720950737E+00 
    1.0353497729569536E+00 
    1.0592572365123709E+00 
    1.0591869209018800E+00 
    1.0352919786228054E+00 
    1.0352630028829477E+00 
    1.0591516717081788E+00 
    1.0192013182212230E+00 
    9.9359636962178144E-01 
    9.9357454508374954E-01 
    1.0191755142435748E+00 
    1.0191240804321371E+00 
    9.9353103922342423E-01 
    9.9346613736315981E-01 
    1.0190473636067874E+00 
    1.0189458803474114E+00 
    9.9338026472696050E-01 
    9.9327398316495719E-01 
    1.0188203126678053E+00 
    1.0186715023364574E+00 
    9.9314798684523475E-01 
    9.9300309696241562E-01 
    1.0185004439187277E+00 
    1.0183082766312501E+00 
    9.9284025552308142E-01 
    9.9266051827766510E-01 
    1.0180962751139098E+00 
    1.0178658392370574E+00 
    9.9246504687666270E-01 
    9.9225510033574860E-01 
    1.0176184830713249E+00 
    1.0173558231542241E+00 
    9.9203202589946615E-01 
    9.9179724939658620E-01 
    1.0170795661915106E+00 
    1.0167914963320577E+00 
    9.9155226518194084E-01 
    9.9129862575961059E-01 
    1.0164934621528703E+00 
    1.0161873634861178E+00 
    9.9103793118089423E-01 
    9.9077181830764127E-01 
    1.0158751382130378E+00 
    1.0155587491406910E+00 
    9.9050195002752062E-01 
    9.9023000450278786E-01 
    1.0152401710672281E+00 
    1.0149213781300963E+00 
    9.8995766452837597E-01 
    9.8968660706885792E-01 
    1.0146043315198034E+00 
    1.0142909676299516E+00 
    9.8941849303724672E-01 
    9.8915495737190096E-01 
    1.0139831867025377E+00 
    1.0136828420163153E+00 
    9.8889759946115319E-01 
    9.8864797395884996E-01 
    1.0133917296555295E+00 
    1.0131115788867788E+00 
    9.8840758202787937E-01 
    9.8817786304305644E-01 
    1.0128440431631940E+00 
    1.0125906917676668E+00 
    9.8796018677953645E-01 
    9.8775584610821510E-01 
    1.0123530021005209E+00 
    1.0121323526117632E+00 
    9.8756605021543575E-01 
    9.8739191836070206E-01 
    1.0119300163738838E+00 
    1.0117471552880113E+00 
    9.8723447418300225E-01 
    9.8709464056377816E-01 
    1.0115848149139859E+00 
    1.0114439199135372E+00 
    9.8697323505242596E-01 
    9.8687096585852752E-01 