# vtk DataFile Version 2.0
Pressure Field Data 
ASCII 
DATASET UNSTRUCTURED_GRID 

POINTS 1681 double 

    0.0000000000000000E+00     0.0000000000000000E+00     0.0000000000000000E+00 
    1.0000000000000000E+00     0.0000000000000000E+00     0.0000000000000000E+00 
    1.0000000000000000E+00     1.0000000000000000E+00     0.0000000000000000E+00 
    0.0000000000000000E+00     1.0000000000000000E+00     0.0000000000000000E+00 
    5.2499999999875258E-01     0.0000000000000000E+00     0.0000000000000000E+00 
    7.4999999999856765E-02     0.0000000000000000E+00     0.0000000000000000E+00 
    1.2499999999975850E-01     0.0000000000000000E+00     0.0000000000000000E+00 
    1.7499999999962990E-01     0.0000000000000000E+00     0.0000000000000000E+00 
    2.2499999999948389E-01     0.0000000000000000E+00     0.0000000000000000E+00 
    2.7499999999933789E-01     0.0000000000000000E+00     0.0000000000000000E+00 
    3.2499999999919210E-01     0.0000000000000000E+00     0.0000000000000000E+00 
    3.7499999999904610E-01     0.0000000000000000E+00     0.0000000000000000E+00 
    4.2499999999890020E-01     0.0000000000000000E+00     0.0000000000000000E+00 
    4.7499999999875958E-01     0.0000000000000000E+00     0.0000000000000000E+00 
    2.4999999999949701E-02     0.0000000000000000E+00     0.0000000000000000E+00 
    5.7499999999887907E-01     0.0000000000000000E+00     0.0000000000000000E+00 
    6.2499999999901101E-01     0.0000000000000000E+00     0.0000000000000000E+00 
    6.7499999999914273E-01     0.0000000000000000E+00     0.0000000000000000E+00 
    7.2499999999927467E-01     0.0000000000000000E+00     0.0000000000000000E+00 
    7.7499999999940661E-01     0.0000000000000000E+00     0.0000000000000000E+00 
    8.2499999999953844E-01     0.0000000000000000E+00     0.0000000000000000E+00 
    8.7499999999967026E-01     0.0000000000000000E+00     0.0000000000000000E+00 
    9.2499999999980220E-01     0.0000000000000000E+00     0.0000000000000000E+00 
    9.7499999999993414E-01     0.0000000000000000E+00     0.0000000000000000E+00 
    5.4999999999881310E-01     0.0000000000000000E+00     0.0000000000000000E+00 
    9.9999999999814140E-02     0.0000000000000000E+00     0.0000000000000000E+00 
    1.4999999999970290E-01     0.0000000000000000E+00     0.0000000000000000E+00 
    1.9999999999955689E-01     0.0000000000000000E+00     0.0000000000000000E+00 
    2.4999999999941089E-01     0.0000000000000000E+00     0.0000000000000000E+00 
    2.9999999999926502E-01     0.0000000000000000E+00     0.0000000000000000E+00 
    3.4999999999911913E-01     0.0000000000000000E+00     0.0000000000000000E+00 
    3.9999999999897312E-01     0.0000000000000000E+00     0.0000000000000000E+00 
    4.4999999999882723E-01     0.0000000000000000E+00     0.0000000000000000E+00 
    4.9999999999869210E-01     0.0000000000000000E+00     0.0000000000000000E+00 
    4.9999999999899403E-02     0.0000000000000000E+00     0.0000000000000000E+00 
    5.9999999999894504E-01     0.0000000000000000E+00     0.0000000000000000E+00 
    6.4999999999907687E-01     0.0000000000000000E+00     0.0000000000000000E+00 
    6.9999999999920870E-01     0.0000000000000000E+00     0.0000000000000000E+00 
    7.4999999999934064E-01     0.0000000000000000E+00     0.0000000000000000E+00 
    7.9999999999947247E-01     0.0000000000000000E+00     0.0000000000000000E+00 
    8.4999999999960441E-01     0.0000000000000000E+00     0.0000000000000000E+00 
    8.9999999999973623E-01     0.0000000000000000E+00     0.0000000000000000E+00 
    9.4999999999986817E-01     0.0000000000000000E+00     0.0000000000000000E+00 
    1.0000000000000000E+00     5.2499999999875258E-01     0.0000000000000000E+00 
    1.0000000000000000E+00     7.4999999999856765E-02     0.0000000000000000E+00 
    1.0000000000000000E+00     1.2499999999975850E-01     0.0000000000000000E+00 
    1.0000000000000000E+00     1.7499999999962990E-01     0.0000000000000000E+00 
    1.0000000000000000E+00     2.2499999999948389E-01     0.0000000000000000E+00 
    1.0000000000000000E+00     2.7499999999933789E-01     0.0000000000000000E+00 
    1.0000000000000000E+00     3.2499999999919210E-01     0.0000000000000000E+00 
    1.0000000000000000E+00     3.7499999999904610E-01     0.0000000000000000E+00 
    1.0000000000000000E+00     4.2499999999890020E-01     0.0000000000000000E+00 
    1.0000000000000000E+00     4.7499999999875958E-01     0.0000000000000000E+00 
    1.0000000000000000E+00     2.4999999999949701E-02     0.0000000000000000E+00 
    1.0000000000000000E+00     5.7499999999887907E-01     0.0000000000000000E+00 
    1.0000000000000000E+00     6.2499999999901101E-01     0.0000000000000000E+00 
    1.0000000000000000E+00     6.7499999999914273E-01     0.0000000000000000E+00 
    1.0000000000000000E+00     7.2499999999927467E-01     0.0000000000000000E+00 
    1.0000000000000000E+00     7.7499999999940661E-01     0.0000000000000000E+00 
    1.0000000000000000E+00     8.2499999999953844E-01     0.0000000000000000E+00 
    1.0000000000000000E+00     8.7499999999967026E-01     0.0000000000000000E+00 
    1.0000000000000000E+00     9.2499999999980220E-01     0.0000000000000000E+00 
    1.0000000000000000E+00     9.7499999999993414E-01     0.0000000000000000E+00 
    1.0000000000000000E+00     5.4999999999881310E-01     0.0000000000000000E+00 
    1.0000000000000000E+00     9.9999999999814140E-02     0.0000000000000000E+00 
    1.0000000000000000E+00     1.4999999999970290E-01     0.0000000000000000E+00 
    1.0000000000000000E+00     1.9999999999955689E-01     0.0000000000000000E+00 
    1.0000000000000000E+00     2.4999999999941089E-01     0.0000000000000000E+00 
    1.0000000000000000E+00     2.9999999999926502E-01     0.0000000000000000E+00 
    1.0000000000000000E+00     3.4999999999911913E-01     0.0000000000000000E+00 
    1.0000000000000000E+00     3.9999999999897312E-01     0.0000000000000000E+00 
    1.0000000000000000E+00     4.4999999999882723E-01     0.0000000000000000E+00 
    1.0000000000000000E+00     4.9999999999869210E-01     0.0000000000000000E+00 
    1.0000000000000000E+00     4.9999999999899403E-02     0.0000000000000000E+00 
    1.0000000000000000E+00     5.9999999999894504E-01     0.0000000000000000E+00 
    1.0000000000000000E+00     6.4999999999907687E-01     0.0000000000000000E+00 
    1.0000000000000000E+00     6.9999999999920870E-01     0.0000000000000000E+00 
    1.0000000000000000E+00     7.4999999999934064E-01     0.0000000000000000E+00 
    1.0000000000000000E+00     7.9999999999947247E-01     0.0000000000000000E+00 
    1.0000000000000000E+00     8.4999999999960441E-01     0.0000000000000000E+00 
    1.0000000000000000E+00     8.9999999999973623E-01     0.0000000000000000E+00 
    1.0000000000000000E+00     9.4999999999986817E-01     0.0000000000000000E+00 
    4.7500000000196618E-01     1.0000000000000000E+00     0.0000000000000000E+00 
    9.2499999999968763E-01     1.0000000000000000E+00     0.0000000000000000E+00 
    8.7499999999961831E-01     1.0000000000000000E+00     0.0000000000000000E+00 
    8.2499999999982654E-01     1.0000000000000000E+00     0.0000000000000000E+00 
    7.7500000000017355E-01     1.0000000000000000E+00     0.0000000000000000E+00 
    7.2500000000052045E-01     1.0000000000000000E+00     0.0000000000000000E+00 
    6.7500000000086724E-01     1.0000000000000000E+00     0.0000000000000000E+00 
    6.2500000000121403E-01     1.0000000000000000E+00     0.0000000000000000E+00 
    5.7500000000156093E-01     1.0000000000000000E+00     0.0000000000000000E+00 
    5.2500000000189684E-01     1.0000000000000000E+00     0.0000000000000000E+00 
    9.7499999999989595E-01     1.0000000000000000E+00     0.0000000000000000E+00 
    4.2500000000176902E-01     1.0000000000000000E+00     0.0000000000000000E+00 
    3.7500000000156092E-01     1.0000000000000000E+00     0.0000000000000000E+00 
    3.2500000000135282E-01     1.0000000000000000E+00     0.0000000000000000E+00 
    2.7500000000114472E-01     1.0000000000000000E+00     0.0000000000000000E+00 
    2.2500000000093659E-01     1.0000000000000000E+00     0.0000000000000000E+00 
    1.7500000000072849E-01     1.0000000000000000E+00     0.0000000000000000E+00 
    1.2500000000052039E-01     1.0000000000000000E+00     0.0000000000000000E+00 
    7.5000000000312261E-02     1.0000000000000000E+00     0.0000000000000000E+00 
    2.5000000000104109E-02     1.0000000000000000E+00     0.0000000000000000E+00 
    4.5000000000187301E-01     1.0000000000000000E+00     0.0000000000000000E+00 
    8.9999999999958358E-01     1.0000000000000000E+00     0.0000000000000000E+00 
    8.4999999999965303E-01     1.0000000000000000E+00     0.0000000000000000E+00 
    8.0000000000000004E-01     1.0000000000000000E+00     0.0000000000000000E+00 
    7.5000000000034706E-01     1.0000000000000000E+00     0.0000000000000000E+00 
    7.0000000000069384E-01     1.0000000000000000E+00     0.0000000000000000E+00 
    6.5000000000104063E-01     1.0000000000000000E+00     0.0000000000000000E+00 
    6.0000000000138742E-01     1.0000000000000000E+00     0.0000000000000000E+00 
    5.5000000000173432E-01     1.0000000000000000E+00     0.0000000000000000E+00 
    5.0000000000205946E-01     1.0000000000000000E+00     0.0000000000000000E+00 
    9.4999999999979179E-01     1.0000000000000000E+00     0.0000000000000000E+00 
    4.0000000000166491E-01     1.0000000000000000E+00     0.0000000000000000E+00 
    3.5000000000145681E-01     1.0000000000000000E+00     0.0000000000000000E+00 
    3.0000000000124871E-01     1.0000000000000000E+00     0.0000000000000000E+00 
    2.5000000000104061E-01     1.0000000000000000E+00     0.0000000000000000E+00 
    2.0000000000083251E-01     1.0000000000000000E+00     0.0000000000000000E+00 
    1.5000000000062441E-01     1.0000000000000000E+00     0.0000000000000000E+00 
    1.0000000000041630E-01     1.0000000000000000E+00     0.0000000000000000E+00 
[...]
CELL_DATA 1600 
SCALARS Pressure double 1 
LOOKUP_TABLE default 

    1.0821603784705087E+00 
    1.0357763971684457E+00 
    1.0333520072814422E+00 
    1.0664494061456349E+00 
    1.0538612329771551E+00 
    1.0296809095191701E+00 
    1.0254434156874328E+00 
    1.0435451817420791E+00 
    1.0349067367189391E+00 
    1.0210223964529421E+00 
    1.0166290146223336E+00 
    1.0275334918077053E+00 
    1.0211347657169976E+00 
    1.0123748720591741E+00 
    1.0083142863949437E+00 
    1.0155021556459860E+00 
    1.0104836765168270E+00 
    1.0044690825701583E+00 
    1.0008431056347187E+00 
    1.0059666248165153E+00 
    1.0018660792367293E+00 
    9.9743067792587126E-01 
    9.9422148528290177E-01 
    9.9811707896865620E-01 
    9.9466922869369723E-01 
    9.9120335850435126E-01 
    9.8836381725331213E-01 
    9.9148292433921037E-01 
    9.8852667506940040E-01 
    9.8569089012058075E-01 
    9.8317351531253105E-01 
    9.8577517637844858E-01 
    9.8320790458402252E-01 
    9.8080170225176222E-01 
    9.7856656053169311E-01 
    9.8080807803478942E-01 
    9.7856187960800978E-01 
    9.7646025869575515E-01 
    9.7447594912696889E-01 
    9.7645786777541133E-01 
    9.7448652546591286E-01 
    9.7260767976274354E-01 
    9.7085030412418183E-01 
    9.7263991085344648E-01 
    9.7091138442659919E-01 
    9.6919939572055791E-01 
    9.6765116973127119E-01 
    9.6929539379694785E-01 
    9.6778730268504243E-01 
    9.6620241306274990E-01 
    9.6485042287324196E-01 
    9.6638325405294379E-01 
    9.6508005987024770E-01 
    9.6359295311649673E-01 
    9.6242816836231604E-01 
    9.6387511179368190E-01 
    9.6276630827945542E-01 
    9.6135460395284644E-01 
    9.6037113128643969E-01 
    9.6175199438650882E-01 
    9.6083091062579928E-01 
    9.5947692639386017E-01 
    9.5867143822528922E-01 
    9.6000214602909872E-01 
    9.5926508612069361E-01 
    9.5795434803539314E-01 
    9.5732549726446969E-01 
    9.5861933316805392E-01 
    9.5806454195523760E-01 
    9.5678472629924161E-01 
    9.5633149166663667E-01 
    9.5760004023489853E-01 
    9.5722396681912547E-01 
    9.5596399220645534E-01 
    9.5567735177486313E-01 
    9.5693148223229496E-01 
    9.5671363572958912E-01 
    9.5546251808195204E-01 
    9.5534122032449653E-01 
    9.5659107935934806E-01 
    1.0120371296933208E+00 
    9.9492521027479086E-01 
    9.9455400018475193E-01 
    1.0112646277637978E+00 
    1.0098444669810804E+00 
    9.9383587131817752E-01 
    9.9281255669466917E-01 
    1.0079336738335070E+00 
    1.0056785590069708E+00 
    9.9153376947133798E-01 
    9.9005050231884273E-01 
    1.0032005829208221E+00 
    1.0005943862604174E+00 
    9.8841079881271832E-01 
    9.8665751569893023E-01 
    9.9793073501969631E-01 
    9.9526094314241720E-01 
    9.8482746343457805E-01 
    9.8295140162906514E-01 
    9.9262125804328183E-01 
    9.9003663490038629E-01 
    9.8105450653168713E-01 
    9.7915705591112911E-01 
    9.8752376320826574E-01 
    9.8509339488585934E-01 
    9.7727517475016523E-01 
    9.7542155338448877E-01 
    9.8275208753620558E-01 
    9.8050348559439904E-01 
    9.7360609403321619E-01 
    9.7183646877605045E-01 
    9.7834924893519293E-01 
    9.7628971862636704E-01 
    9.7011858753789215E-01 
    9.6845698272345393E-01 
    9.7432438977064706E-01 
    9.7245224437429789E-01 
    9.6685512070119295E-01 
    9.6531565128107022E-01 
    9.7067198353016948E-01 
    9.6898218768371747E-01 
    9.6384060587548892E-01 
    9.6243155391352753E-01 
    9.6738142585027820E-01 
    9.6586832881882589E-01 
    9.6108972572271567E-01 
    9.5981610873281742E-01 
    9.6444163711927489E-01 
    9.6310023144464640E-01 
    9.5861152260695837E-01 
    9.5747667781071888E-01 
    9.6184315099066753E-01 
    9.6066960356064246E-01 
    9.5641222119093661E-01 
    9.5541877132530595E-01 
    9.5957897009221138E-01 
    9.5857080532903272E-01 
    9.5449694566108245E-01 
    9.5364738065954391E-01 
    9.5764483549512713E-01 
    9.5680095269896837E-01 
    9.5287074499139279E-01 
    9.5216774342570765E-01 
    9.5603920356922145E-01 
    9.5535976401382483E-01 
    9.5153910302453437E-01 
    9.5098551769457962E-01 
    9.5476287718329855E-01 
    9.5424869580585758E-01 
    9.5050749056301853E-01 
    9.5010493965655796E-01 
    9.5381689525433022E-01 
    9.5346578765927781E-01 
    9.4977629785368989E-01 
    9.4951664227909094E-01 
    9.5319047998869477E-01 
    9.5298186158279030E-01 
    9.4931680934656659E-01 
    9.4920241420959461E-01 
    9.5286339826091038E-01 
    9.8060686046584611E-01 
    9.6766000517245088E-01 
    9.6751677571014150E-01 
    9.8038869147197738E-01 
    9.7995983218463656E-01 
    9.6723337725615366E-01 
    9.6681611154092573E-01 
    9.7933480895998315E-01 
    9.7853302709829337E-01 
    9.6627386227683465E-01 
    9.6561746793123460E-01 
    9.7757677906664742E-01 
    9.7648950244246113E-01 
    9.6485906930264220E-01 
    9.6401150533786084E-01 
    9.7529443120070491E-01 
    9.7401365560820541E-01 
    9.6308779909797360E-01 
    9.6210075101995374E-01 
    9.7266754019905877E-01 
    9.7127442460553559E-01 
    9.6106263940027370E-01 
    9.5998501767147082E-01 
    9.6985053069976790E-01 
    9.6841000938383981E-01 
    9.5887859301122380E-01 
    9.5775316944663780E-01 
    9.6696507408948873E-01 
    9.6552618167743709E-01 
    9.5661763946846889E-01 
    9.5548001018613915E-01 
    9.6410223318057309E-01 
    9.6270077616429883E-01 
    9.5434745251520681E-01 
    9.5322636435357055E-01 
    9.6132819745822506E-01 
    9.5998989999172535E-01 
    9.5212244093159237E-01 
    9.5104074740943600E-01 
    9.5869046086033338E-01 
    9.5743376995587415E-01 
    9.4998579031941766E-01 
    9.4896158563494604E-01 
    9.5622314984347867E-01 
    9.5506145832511635E-01 
    9.4797172213511249E-01 
    9.4701941937568801E-01 
    9.5395117548747288E-01 
    9.5289447713225484E-01 
    9.4610758002132822E-01 
    9.4523883658029439E-01 
    9.5189329642472875E-01 
    9.5094937543024227E-01 
    9.4441559273960818E-01 
    9.4364005953387153E-01 
    9.5006430796378083E-01 
    9.4923957483652022E-01 
    9.4291428646732300E-01 
    9.4224018733322001E-01 
    9.4847657204644853E-01 
    9.4777663141629487E-01 
    9.4161955949149267E-01 
    9.4105409277254315E-01 
    9.4714103071629663E-01 
    9.4657098390289751E-01 
    9.4054535731502287E-01 
    9.4009474262265902E-01 
    9.4606758582080930E-01 
    9.4563164870676986E-01 
    9.3970328297382089E-01 
    9.3937123380111309E-01 
    9.4526329532508602E-01 
    9.4496103996254233E-01 
    9.3909712905216269E-01 
    9.3887581075001192E-01 
    9.4471987658538015E-01 
    9.4453058828531600E-01 
    9.3869809574632934E-01 
    9.3859443168104117E-01 
    9.4442118663964814E-01 
    9.5541129813290537E-01 
    9.4349353856211715E-01 
    9.4341914186282372E-01 
    9.5531051780728227E-01 
    9.5511046224018770E-01 
    9.4327119338469390E-01 
    9.4305153414567178E-01 
    9.5481434038486546E-01 
    9.5442680012018388E-01 
    9.4276286782461760E-01 
    9.4240866963223280E-01 
    9.5395370316831685E-01 
    9.5340186499945578E-01 
    9.4199307255117293E-01 
    9.4152074233248817E-01 
    9.5277878743712607E-01 
    9.5209240431313935E-01 
    9.4099675001110106E-01 
    9.4042644887978721E-01 
    9.5135085385076801E-01 
    9.5056228546406385E-01 
    9.3981536103471330E-01 
    9.3916907684557593E-01 
    9.4973470380470826E-01 
    9.4887584933804447E-01 
    9.3849316914594105E-01 
    9.3779312266931314E-01 
    9.4799311241339679E-01 
    9.4709347650359965E-01 
    9.3707427830057854E-01 
    9.3634179105511983E-01 
    9.4618348577463962E-01 
    9.4526923216942416E-01 
    9.3560060029842262E-01 
    9.3485541052615351E-01 
    9.4435635754899494E-01 
    9.4345006697535572E-01 
    9.3411068098630679E-01 
    9.3337062249391967E-01 
    9.4255514983223998E-01 
    9.4167600609057300E-01 
    9.3263919992555100E-01 
    9.3192013905406945E-01 
    9.4081667558996840E-01 
    9.3998086870303044E-01 
    9.3121693657098714E-01 
    9.3053287232644566E-01 
    9.3917199716574484E-01 
    9.3839320419312588E-01 
    9.2987102298325908E-01 
    9.2923427641978229E-01 
    9.3764739325542779E-01 
    9.3693725506427827E-01 
    9.2862534631207361E-01 
    9.2804678635117444E-01 
    9.3626529239528999E-01 
    9.3563384230545876E-01 
    9.2750100344149344E-01 
    9.2699026881267432E-01 
    9.3504509494990828E-01 
    9.3450110716425627E-01 
    9.2651672479914349E-01 
    9.2608238187094749E-01 
    9.3400380614557765E-01 
    9.3355497114690544E-01 
    9.2568909244152309E-01 
    9.2533846956911947E-01 
    9.3315616335337326E-01 
    9.3280853715779377E-01 
    9.2503168221748200E-01 
    9.2476899218260855E-01 
    9.3251239776939954E-01 
    9.3226623084685689E-01 
    9.2454874697323386E-01 
    9.2436520324117633E-01 
    9.3206465053429177E-01 
    9.3189881430944543E-01 
    9.2421055047817258E-01 
    9.2411992338491811E-01 
    9.3180149987265004E-01 
    9.3168785588462633E-01 
    9.1985592422101858E-01 
    9.1981106052084327E-01 
    9.3163092006393888E-01 
    9.3151757466282159E-01 
    9.1972169016760508E-01 
    9.1958860068941795E-01 
    9.3134897900324776E-01 
    9.3112684553900260E-01 
    9.1941295545347645E-01 
    9.1919627433914119E-01 
    9.3085339932214051E-01 
    9.3053132357257229E-01 
    9.1894040552544898E-01 
    9.1864749176583094E-01 
    9.3016369699029344E-01 
    9.2975392679403734E-01 
    9.1831993317566962E-01 
    9.1796034819066674E-01 
    9.2930568081501530E-01 
    9.2882282139793348E-01 
    9.1757153413533110E-01 
    9.1715642862522972E-01 
    9.2830934325757319E-01 
    9.2776931683437158E-01 
    9.1671807279623285E-01 
    9.1625957711815942E-01 
    9.2720683812795235E-01 
    9.2662598549473674E-01 
    9.1578409032254771E-01 
    9.1529477176633234E-01 
    9.2603078349171464E-01 
    9.2542517353776332E-01 
    9.1479476737272036E-01 
    9.1428718914150964E-01 
    9.2481299094192737E-01 
    9.2419794770449726E-01 
    9.1377509810412194E-01 
    9.1326149051201089E-01 
    9.2358362041825459E-01 
    9.2297344256987224E-01 
    9.1274928698737168E-01 
    9.1224132432772120E-01 
    9.2237070055163739E-01 
    9.2177853272915167E-01 
    9.1174034963565076E-01 
    9.1124901643577150E-01 
    9.2119993096028630E-01 
    9.2063774401385934E-01 
    9.1076988243506829E-01 
    9.1030540856956821E-01 
    9.2009468238129133E-01 
    9.1957332399313307E-01 
    9.0985795894023047E-01 
    9.0942980113435046E-01 
    9.1907612031092001E-01 
    9.1860540208540142E-01 
    9.0902310616192838E-01 
    9.0863994657078062E-01 
    9.1816338355541682E-01 
    9.1775216247617175E-01 
    9.0828228962248481E-01 
    9.0795197822854179E-01 
    9.1737370976019772E-01 
    9.1702983372389335E-01 
    9.0765068264934923E-01 
    9.0737978602166713E-01 
    9.1672208486776352E-01 
    9.1645153107806243E-01 
    9.0714013021197248E-01 
    9.0693147514602979E-01 
    9.1621826596847777E-01 
    9.1602033678207495E-01 
    9.0675129723695369E-01 
    9.0659194775623719E-01 
    9.1585134137514401E-01 
    9.1570575922155251E-01 
    9.0645206197944539E-01 
    9.0637387262836600E-01 
    9.1562167075267986E-01 
    9.0790691023943615E-01 
    8.9577980341648689E-01 
    8.9574979863871484E-01 
    9.0787065027990477E-01 
    9.0779839067549351E-01 
    8.9568999072348354E-01 
    8.9560081526865598E-01 
    9.0769070145227759E-01 
    9.0754842113143963E-01 
    8.9548290838505074E-01 
    8.9533710158863411E-01 
    9.0737264701975839E-01 
    9.0716471950347644E-01 
    8.9516441245830580E-01 
    8.9496603275572206E-01 
    9.0692620265428381E-01 
    9.0665886231727655E-01 
    8.9474331476590985E-01 
    8.9449775637603701E-01 
    9.0636464256857929E-01 
    9.0604564131638721E-01 
    8.9423098532981815E-01 
    8.9394474305028537E-01 
    9.0570408573133021E-01 
    9.0534230810075056E-01 
    8.9364086838377010E-01 
    8.9332128157539648E-01 
    9.0496272260310096E-01 
    9.0456780339667242E-01 
    8.9298796874040354E-01 
    8.9264296704746415E-01 
    9.0416006431607132E-01 
    9.0374204037474981E-01 
    8.9228835078170443E-01 
    8.9192621840806197E-01 
    9.0331627118574553E-01 
    9.0288528633761767E-01 
    8.9155868071126576E-01 
    8.9118785004777112E-01 
    9.0245159269913522E-01 
    9.0201766357418700E-01 
    8.9081583070751957E-01 
    8.9044471034861261E-01 
    9.0158592958620576E-01 
    9.0115877113660769E-01 
    8.9007655243402950E-01 
    8.8971338956268298E-01 
    9.0073851225029467E-01 
    9.0032741558668039E-01 
    8.8935721754064490E-01 
    8.8900998996906133E-01 
    8.9992767834550569E-01 
    8.9954142871037646E-01 
    8.8867361300588332E-01 
    8.8834993972864962E-01 
    8.9917072230059325E-01 
    8.9881753772750828E-01 
    8.8804076304206570E-01 
    8.8774780498697092E-01 
    8.9848376948508146E-01 
    8.9817121432459091E-01 
    8.8747269778679727E-01 
    8.8721694626320402E-01 
    8.9788154234265394E-01 
    8.9761623320163875E-01 
    8.8698184933646596E-01 
    8.8676833585221460E-01 
    8.9737643672008094E-01 
    8.9716267826477958E-01 
    8.8657662751443478E-01 
    8.8640552901604874E-01 
    8.9697424104584922E-01 
    8.9680774095667426E-01 
    8.8625070135274076E-01 
    8.8610004811359899E-01 
    8.9665353228022360E-01 
    8.9651632504085477E-01 
    8.8596509068779561E-01 
    8.8589626519483933E-01 
    8.9644319059676791E-01 
    8.8343329261312109E-01 
    8.7083965612727066E-01 
    8.7081762231959947E-01 
    8.8340788317277230E-01 
    8.8335722863754429E-01 
    8.7077369451553444E-01 
    8.7070816418002006E-01 
    8.8328167795904766E-01 
    8.8318173606413175E-01 
    8.7062144894418347E-01 
    8.7051409084426512E-01 
    8.8305806100494799E-01 
    8.8291145803155058E-01 
    8.7038675230364337E-01 
    8.7024021078352476E-01 
    8.8274287185672107E-01 
    8.8255337765083230E-01 
    8.7007535250590207E-01 
    8.6989316547328444E-01 
    8.8234417109497998E-01 
    8.8211655775511544E-01 
    8.6969473195318114E-01 
    8.6948122057285426E-01 
    8.8187194201082120E-01 
    8.8161181575202707E-01 
    8.6925387815740429E-01 
    8.6901402143422668E-01 
    8.8133774703730694E-01 
    8.8105136888617164E-01 
    8.6876302871676636E-01 
    8.6850233166951663E-01 
    8.8075436835476395E-01 
    8.8044847602006626E-01 
    8.6823340724427789E-01 
    8.6795776986503093E-01 
    8.8013545597285137E-01 
    8.7981709639472161E-01 
    8.6767696392557403E-01 
    8.6739255665048232E-01 
    8.7949520077007182E-01 
    8.7917157975957616E-01 
    8.6710613135576931E-01 
    8.6681928113019557E-01 
    8.7884804373711289E-01 
    8.7852639596515414E-01 
    8.6653360293984405E-01 
    8.6625069213374717E-01 
    8.7820842635085716E-01 
    8.7789590567916009E-01 
    8.6597213728951439E-01 
    8.6569951526888156E-01 
    8.7759058014522495E-01 
    8.7729416587473374E-01 
    8.6543438621769642E-01 
    8.6517828795928586E-01 
    8.7700834285461893E-01 
    8.7673474712771016E-01 
    8.6493272859583736E-01 
    8.6469917468749713E-01 
    8.7647495882375037E-01 
    8.7623048068416887E-01 
    8.6447902913615560E-01 
    8.6427358606829452E-01 
    8.7600269537878128E-01 
    8.7579277722197824E-01 
    8.6408393694787777E-01 
    8.6391077852265785E-01 
    8.7560151062296765E-01 
    8.7542892087366087E-01 
    8.6375402088412023E-01 
    8.6361190435758395E-01 
    8.7527347742179729E-01 
    8.7513003122407873E-01 
    8.6347856492553654E-01 
    8.6333826692216176E-01 
    8.7498421660963777E-01 
    8.7485345056726127E-01 
    8.6321335084210227E-01 
    8.6315179495171912E-01 
    8.7478839424736798E-01 
    8.5798093607700232E-01 
    8.4484649480358320E-01 
    8.4482860567975138E-01 
    8.5796134604879626E-01 
    8.5792228935399462E-01 
    8.4479293980594805E-01 
    8.4473972430523780E-01 
    8.5786401881675378E-01 
    8.5778689337406111E-01 
    8.4466927919621948E-01 
    8.4458201622481799E-01 
    8.5769137678488971E-01 
    8.5757803470895033E-01 
    8.4447843657706267E-01 
    8.4435912780573896E-01 
    8.5744753077533442E-01 
    8.5730062195240264E-01 
    8.4422476021131487E-01 
    8.4407608280017399E-01 
    8.5713815338181409E-01 
    8.5696105279045476E-01 
    8.4391391890094614E-01 
    8.4373916150325079E-01 
    8.5677032457513003E-01 
    8.5656704364583969E-01 
    8.4355276837573789E-01 
    8.4335575701606214E-01 
    8.5635234910755265E-01 
    8.5612743785518652E-01 
    8.4314919948213574E-01 
    8.4293421715070449E-01 
    8.5589355815106494E-01 
    8.5565200324813961E-01 
    8.4271197544550125E-01 
    8.4248367857270978E-01 
    8.5540410511568665E-01 
    8.5515122831700319E-01 
    8.4225056429590506E-01 
    8.4201389877568922E-01 
    8.5489476408078524E-01 
    8.5463612459905780E-01 
    8.4177497149012948E-01 
    8.4153509023948914E-01 
    8.5437673757399635E-01 
    8.5411804102193489E-01 
    8.4129557621991946E-01 
    8.4105775912032055E-01 
    8.5386147832149550E-01 
    8.5360849345577283E-01 
    8.4082297214332480E-01 
    8.4059254675128636E-01 
    8.5336052632749049E-01 
    8.5311900787903594E-01 
    8.4036780673778999E-01 
    8.4015006080349119E-01 
    8.5288535442840463E-01 
    8.5266095990840129E-01 
    8.3994059189932024E-01 
    8.3974063960844092E-01 
    8.5244718305667921E-01 
    8.5224532301470024E-01 
    8.3955136766796767E-01 
    8.3937380062653533E-01 
    8.5205656951956843E-01 
    8.5188190046662815E-01 
    8.3920869893158101E-01 
    8.3905631263530533E-01 
    8.5172187493907492E-01 
    8.5157620671806977E-01 
    8.3891586654034256E-01 
    8.3878425727915940E-01 
    8.5144274633591033E-01 
    8.5131452966641186E-01 
    8.3865216727050806E-01 
    8.3850973991601319E-01 
    8.5117663243784458E-01 
    8.5105777355170620E-01 
    8.3839684465279751E-01 
    8.3834454302474937E-01 
    8.5100009959595635E-01 
    8.3143145889576098E-01 
    8.1773577090183758E-01 
    8.1771948783747972E-01 
    8.3141464859046088E-01 
    8.3138113333700392E-01 
    8.1768702318726727E-01 
    8.1763857922856020E-01 
    8.3133112406506249E-01 
    8.3126491648511747E-01 
    8.1757443899434579E-01 
    8.1749496479387374E-01 
    8.3118288983363187E-01 
    8.3108550494209188E-01 
    8.1740059646112284E-01 
    8.1729184909974972E-01 
    8.3097330168158579E-01 
    8.3084689596338568E-01 
    8.1716931045038999E-01 
    8.1703363795420136E-01 
    8.3070697639059143E-01 
    8.3055430062042324E-01 
    8.1688555555801190E-01 
    8.1672585029413969E-01 
    8.3038969148235520E-01 
    8.3021403289078932E-01 
    8.1655536866237755E-01 
    8.1637501283875247E-01 
    8.3002826558743592E-01 
    8.2983338274595342E-01 
    8.1618573673363726E-01 
    8.1598854191972414E-01 
    8.2963042546873256E-01 
    8.2942047820240816E-01 
    8.1578447344765403E-01 
    8.1557461556315347E-01 
    8.2920466409427118E-01 
    8.2898414030563639E-01 
    8.1536008733363974E-01 
    8.1514203818325370E-01 
    8.2876009328956046E-01 
    8.2853373402768793E-01 
    8.1492164332137240E-01 
    8.1470009902762885E-01 
    8.2830629320200078E-01 
    8.2807901624745239E-01 
    8.1447861772060182E-01 
    8.1425842267684012E-01 
    8.2785315818253957E-01 
    8.2762997803046434E-01 
    8.1404074216074307E-01 
    8.1382680253128736E-01 
    8.2741073248997954E-01 
    8.2719666822055549E-01 
    8.1361781951933865E-01 
    8.1341498613076757E-01 
    8.2698901151554405E-01 
    8.2678895291548682E-01 
    8.1321945413550711E-01 
    8.1303230309238761E-01 
    8.2659762178488172E-01 
    8.2641604081597952E-01 
    8.1285448500443569E-01 
    8.1268672178645418E-01 
    8.2624504088222528E-01 
    8.2608509904053273E-01 
    8.1252931164596909E-01 
    8.1238174728804535E-01 
    8.2593602335600891E-01 
    8.2579627511158826E-01 
    8.1224185100586166E-01 
    8.1210334898787906E-01 