# vtk DataFile Version 2.0
Pressure Field Data 
ASCII 
DATASET UNSTRUCTURED_GRID 

POINTS 1681 double 

    0.0000000000000000E+00     0.0000000000000000E+00     0.0000000000000000E+00 
    1.0000000000000000E+00     0.0000000000000000E+00     0.0000000000000000E+00 
    1.0000000000000000E+00     1.0000000000000000E+00     0.0000000000000000E+00 
    0.0000000000000000E+00     1.0000000000000000E+00     0.0000000000000000E+00 
    5.2499999999875258E-01     0.0000000000000000E+00     0.0000000000000000E+00 
    7.4999999999856765E-02     0.0000000000000000E+00     0.0000000000000000E+00 
    1.2499999999975850E-01     0.0000000000000000E+00     0.0000000000000000E+00 
    1.7499999999962990E-01     0.0000000000000000E+00     0.0000000000000000E+00 
    2.2499999999948389E-01     0.0000000000000000E+00     0.0000000000000000E+00 
    2.7499999999933789E-01     0.0000000000000000E+00     0.0000000000000000E+00 
    3.2499999999919210E-01     0.0000000000000000E+00     0.0000000000000000E+00 
    3.7499999999904610E-01     0.0000000000000000E+00     0.0000000000000000E+00 
    4.2499999999890020E-01     0.0000000000000000E+00     0.0000000000000000E+00 
    4.7499999999875958E-01     0.0000000000000000E+00     0.0000000000000000E+00 
    2.4999999999949701E-02     0.0000000000000000E+00     0.0000000000000000E+00 
    5.7499999999887907E-01     0.0000000000000000E+00     0.0000000000000000E+00 
    6.2499999999901101E-01     0.0000000000000000E+00     0.0000000000000000E+00 
    6.7499999999914273E-01     0.0000000000000000E+00     0.0000000000000000E+00 
    7.2499999999927467E-01     0.0000000000000000E+00     0.0000000000000000E+00 
    7.7499999999940661E-01     0.0000000000000000E+00     0.0000000000000000E+00 
    8.2499999999953844E-01     0.0000000000000000E+00     0.0000000000000000E+00 
    8.7499999999967026E-01     0.0000000000000000E+00     0.0000000000000000E+00 
    9.2499999999980220E-01     0.0000000000000000E+00     0.0000000000000000E+00 
    9.7499999999993414E-01     0.0000000000000000E+00     0.0000000000000000E+00 
    5.4999999999881310E-01     0.0000000000000000E+00     0.0000000000000000E+00 
    9.9999999999814140E-02     0.0000000000000000E+00     0.0000000000000000E+00 
    1.4999999999970290E-01     0.0000000000000000E+00     0.0000000000000000E+00 
    1.9999999999955689E-01     0.0000000000000000E+00     0.0000000000000000E+00 
    2.4999999999941089E-01     0.0000000000000000E+00     0.0000000000000000E+00 
    2.9999999999926502E-01     0.0000000000000000E+00     0.0000000000000000E+00 
    3.4999999999911913E-01     0.0000000000000000E+00     0.0000000000000000E+00 
    3.9999999999897312E-01     0.0000000000000000E+00     0.0000000000000000E+00 
    4.4999999999882723E-01     0.0000000000000000E+00     0.0000000000000000E+00 
    4.9999999999869210E-01     0.0000000000000000E+00     0.0000000000000000E+00 
    4.9999999999899403E-02     0.0000000000000000E+00     0.0000000000000000E+00 
    5.9999999999894504E-01     0.0000000000000000E+00     0.0000000000000000E+00 
    6.4999999999907687E-01     0.0000000000000000E+00     0.0000000000000000E+00 
    6.9999999999920870E-01     0.0000000000000000E+00     0.0000000000000000E+00 
    7.4999999999934064E-01     0.0000000000000000E+00     0.0000000000000000E+00 
    7.9999999999947247E-01     0.0000000000000000E+00     0.0000000000000000E+00 
    8.4999999999960441E-01     0.0000000000000000E+00     0.0000000000000000E+00 
    8.9999999999973623E-01     0.0000000000000000E+00     0.0000000000000000E+00 
    9.4999999999986817E-01     0.0000000000000000E+00     0.0000000000000000E+00 
    1.0000000000000000E+00     5.2499999999875258E-01     0.0000000000000000E+00 
    1.0000000000000000E+00     7.4999999999856765E-02     0.0000000000000000E+00 
    1.0000000000000000E+00     1.2499999999975850E-01     0.0000000000000000E+00 
    1.0000000000000000E+00     1.7499999999962990E-01     0.0000000000000000E+00 
    1.0000000000000000E+00     2.2499999999948389E-01     0.0000000000000000E+00 
    1.0000000000000000E+00     2.7499999999933789E-01     0.0000000000000000E+00 
    1.0000000000000000E+00     3.2499999999919210E-01     0.0000000000000000E+00 
    1.0000000000000000E+00     3.7499999999904610E-01     0.0000000000000000E+00 
    1.0000000000000000E+00     4.2499999999890020E-01     0.0000000000000000E+00 
    1.0000000000000000E+00     4.7499999999875958E-01     0.0000000000000000E+00 
    1.0000000000000000E+00     2.4999999999949701E-02     0.0000000000000000E+00 
    1.0000000000000000E+00     5.7499999999887907E-01     0.0000000000000000E+00 
    1.0000000000000000E+00     6.2499999999901101E-01     0.0000000000000000E+00 
    1.0000000000000000E+00     6.7499999999914273E-01     0.0000000000000000E+00 
    1.0000000000000000E+00     7.2499999999927467E-01     0.0000000000000000E+00 
    1.0000000000000000E+00     7.7499999999940661E-01     0.0000000000000000E+00 
    1.0000000000000000E+00     8.2499999999953844E-01     0.0000000000000000E+00 
    1.0000000000000000E+00     8.7499999999967026E-01     0.0000000000000000E+00 
    1.0000000000000000E+00     9.2499999999980220E-01     0.0000000000000000E+00 
    1.0000000000000000E+00     9.7499999999993414E-01     0.0000000000000000E+00 
    1.0000000000000000E+00     5.4999999999881310E-01     0.0000000000000000E+00 
    1.0000000000000000E+00     9.9999999999814140E-02     0.0000000000000000E+00 
    1.0000000000000000E+00     1.4999999999970290E-01     0.0000000000000000E+00 
    1.0000000000000000E+00     1.9999999999955689E-01     0.0000000000000000E+00 
    1.0000000000000000E+00     2.4999999999941089E-01     0.0000000000000000E+00 
    1.0000000000000000E+00     2.9999999999926502E-01     0.0000000000000000E+00 
    1.0000000000000000E+00     3.4999999999911913E-01     0.0000000000000000E+00 
    1.0000000000000000E+00     3.9999999999897312E-01     0.0000000000000000E+00 
    1.0000000000000000E+00     4.4999999999882723E-01     0.0000000000000000E+00 
    1.0000000000000000E+00     4.9999999999869210E-01     0.0000000000000000E+00 
    1.0000000000000000E+00     4.9999999999899403E-02     0.0000000000000000E+00 
    1.0000000000000000E+00     5.9999999999894504E-01     0.0000000000000000E+00 
    1.0000000000000000E+00     6.4999999999907687E-01     0.0000000000000000E+00 
    1.0000000000000000E+00     6.9999999999920870E-01     0.0000000000000000E+00 
    1.0000000000000000E+00     7.4999999999934064E-01     0.0000000000000000E+00 
    1.0000000000000000E+00     7.9999999999947247E-01     0.0000000000000000E+00 
    1.0000000000000000E+00     8.4999999999960441E-01     0.0000000000000000E+00 
    1.0000000000000000E+00     8.9999999999973623E-01     0.0000000000000000E+00 
    1.0000000000000000E+00     9.4999999999986817E-01     0.0000000000000000E+00 
    4.7500000000196618E-01     1.0000000000000000E+00     0.0000000000000000E+00 
    9.2499999999968763E-01     1.0000000000000000E+00     0.0000000000000000E+00 
    8.7499999999961831E-01     1.0000000000000000E+00     0.0000000000000000E+00 
    8.2499999999982654E-01     1.0000000000000000E+00     0.0000000000000000E+00 
    7.7500000000017355E-01     1.0000000000000000E+00     0.0000000000000000E+00 
    7.2500000000052045E-01     1.0000000000000000E+00     0.0000000000000000E+00 
    6.7500000000086724E-01     1.0000000000000000E+00     0.0000000000000000E+00 
    6.2500000000121403E-01     1.0000000000000000E+00     0.0000000000000000E+00 
    5.7500000000156093E-01     1.0000000000000000E+00     0.0000000000000000E+00 
    5.2500000000189684E-01     1.0000000000000000E+00     0.0000000000000000E+00 
    9.7499999999989595E-01     1.0000000000000000E+00     0.0000000000000000E+00 
    4.2500000000176902E-01     1.0000000000000000E+00     0.0000000000000000E+00 
    3.7500000000156092E-01     1.0000000000000000E+00     0.0000000000000000E+00 
    3.2500000000135282E-01     1.0000000000000000E+00     0.0000000000000000E+00 
    2.7500000000114472E-01     1.0000000000000000E+00     0.0000000000000000E+00 
    2.2500000000093659E-01     1.0000000000000000E+00     0.0000000000000000E+00 
    1.7500000000072849E-01     1.0000000000000000E+00     0.0000000000000000E+00 
    1.2500000000052039E-01     1.0000000000000000E+00     0.0000000000000000E+00 
    7.5000000000312261E-02     1.0000000000000000E+00     0.0000000000000000E+00 
    2.5000000000104109E-02     1.0000000000000000E+00     0.0000000000000000E+00 
    4.5000000000187301E-01     1.0000000000000000E+00     0.0000000000000000E+00 
    8.9999999999958358E-01     1.0000000000000000E+00     0.0000000000000000E+00 
    8.4999999999965303E-01     1.0000000000000000E+00     0.0000000000000000E+00 
    8.0000000000000004E-01     1.0000000000000000E+00     0.0000000000000000E+00 
    7.5000000000034706E-01     1.0000000000000000E+00     0.0000000000000000E+00 
    7.0000000000069384E-01     1.0000000000000000E+00     0.0000000000000000E+00 
    6.5000000000104063E-01     1.0000000000000000E+00     0.0000000000000000E+00 
    6.0000000000138742E-01     1.0000000000000000E+00     0.0000000000000000E+00 
    5.5000000000173432E-01     1.0000000000000000E+00     0.0000000000000000E+00 
    5.0000000000205946E-01     1.0000000000000000E+00     0.0000000000000000E+00 
    9.4999999999979179E-01     1.0000000000000000E+00     0.0000000000000000E+00 
    4.0000000000166491E-01     1.0000000000000000E+00     0.0000000000000000E+00 
    3.5000000000145681E-01     1.0000000000000000E+00     0.0000000000000000E+00 
    3.0000000000124871E-01     1.0000000000000000E+00     0.0000000000000000E+00 
    2.5000000000104061E-01     1.0000000000000000E+00     0.0000000000000000E+00 
    2.0000000000083251E-01     1.0000000000000000E+00     0.0000000000000000E+00 
    1.5000000000062441E-01     1.0000000000000000E+00     0.0000000000000000E+00 
    1.0000000000041630E-01     1.0000000000000000E+00     0.0000000000000000E+00 
[...]
CELL_DATA 1600 
SCALARS Pressure double 1 
LOOKUP_TABLE default 

    1.1069659828080392E+00 
    1.0605381782832359E+00 
    1.0581107309461097E+00 
    1.0912482171056952E+00 
    1.0786510040864885E+00 
    1.0544341675118238E+00 
    1.0501894079210528E+00 
    1.0683247722184868E+00 
    1.0596752121858295E+00 
    1.0457596597872549E+00 
    1.0413563283797405E+00 
    1.0522900430679174E+00 
    1.0458786821849111E+00 
    1.0370912052781009E+00 
    1.0330187655567953E+00 
    1.0402328149156239E+00 
    1.0352005397529134E+00 
    1.0291609702437865E+00 
    1.0255217852781076E+00 
    1.0306692342239914E+00 
    1.0265540560918069E+00 
    1.0220956423544758E+00 
    1.0188723274499591E+00 
    1.0227901216053918E+00 
    1.0193271102460579E+00 
    1.0158397638274155E+00 
    1.0129855570368544E+00 
    1.0161254902212873E+00 
    1.0131538402524456E+00 
    1.0102978157995939E+00 
    1.0077655533427758E+00 
    1.0103869225473263E+00 
    1.0078042772547608E+00 
    1.0053788495320766E+00 
    1.0031288802801401E+00 
    1.0053891837032869E+00 
    1.0031278829848285E+00 
    1.0010078767237645E+00 
    9.9900905046939570E-01 
    1.0010089891464589E+00 
    9.9902303820518534E-01 
    9.9712650563003380E-01 
    9.9535514914745160E-01 
    9.9716213910227169E-01 
    9.9541970094374188E-01 
    9.9369060546236987E-01 
    9.9212913843457151E-01 
    9.9379021797489286E-01 
    9.9226909871867475E-01 
    9.9066758160755430E-01 
    9.8930327690403719E-01 
    9.9085252923597877E-01 
    9.8953736297899753E-01 
    9.8803402129018003E-01 
    9.8685802064066019E-01 
    9.8832103149083095E-01 
    9.8720147141882064E-01 
    9.8577384981095395E-01 
    9.8478041759542267E-01 
    9.8617706399055616E-01 
    9.8524658305541879E-01 
    9.8387693447256575E-01 
    9.8306287889252075E-01 
    9.8440914623100417E-01 
    9.8366415816852915E-01 
    9.8233795175212357E-01 
    9.8170199206109920E-01 
    9.8301121907093991E-01 
    9.8244993225201538E-01 
    9.8115478649712529E-01 
    9.8069562302639679E-01 
    9.8197946277247650E-01 
    9.8159755468022802E-01 
    9.8032229285660810E-01 
    9.8002906889776509E-01 
    9.8129854613296674E-01 
    9.8107294036956949E-01 
    9.7980636058091797E-01 
    9.7968181454416869E-01 
    9.8094719817454112E-01 
    1.0367366857639444E+00 
    1.0195488168861631E+00 
    1.0191762220458087E+00 
    1.0359623451853293E+00 
    1.0345385697961853E+00 
    1.0184553303299893E+00 
    1.0174279309568846E+00 
    1.0326225518462433E+00 
    1.0303607710515250E+00 
    1.0161438132925862E+00 
    1.0146540586870996E+00 
    1.0278748492675815E+00 
    1.0252595782533580E+00 
    1.0130068065781082E+00 
    1.0112450131167390E+00 
    1.0225858646367030E+00 
    1.0199051532458752E+00 
    1.0094055891938516E+00 
    1.0075193941281460E+00 
    1.0172538134328870E+00 
    1.0146569141009938E+00 
    1.0056117019286905E+00 
    1.0037028853298220E+00 
    1.0121312509054305E+00 
    1.0096876749416561E+00 
    1.0018091609252173E+00 
    9.9994330696286882E-01 
    1.0073328365392644E+00 
    1.0050704669118757E+00 
    9.9811530969851303E-01 
    9.9633292132339069E-01 
    1.0029023072412382E+00 
    1.0008287748841114E+00 
    9.9460212799573966E-01 
    9.9292753459320826E-01 
    9.9884943664498493E-01 
    9.9696334205218085E-01 
    9.9131267636510956E-01 
    9.8976026861274646E-01 
    9.9516925592438854E-01 
    9.9346581899549447E-01 
    9.8827240507432235E-01 
    9.8685071457432794E-01 
    9.9185165746528248E-01 
    9.9032545651020387E-01 
    9.8549648414328583E-01 
    9.8421075545480807E-01 
    9.8888600852938247E-01 
    9.8753224381343796E-01 
    9.8299440017733175E-01 
    9.8184817874064345E-01 
    9.8626324909146101E-01 
    9.8507827778993273E-01 
    9.8077278607210061E-01 
    9.7976888703293297E-01 
    9.8397675463252532E-01 
    9.8295827624732535E-01 
    9.7883714351170159E-01 
    9.7797823425981845E-01 
    9.8202260851724976E-01 
    9.8116968011707462E-01 
    9.7719286720697751E-01 
    9.7648178112703021E-01 
    9.8039956902646264E-01 
    9.7971247205549805E-01 
    9.7584572627606070E-01 
    9.7528539522501678E-01 
    9.7910862986010072E-01 
    9.7858813869764338E-01 
    9.7480123327116175E-01 
    9.7439297659577229E-01 
    9.7815049783438834E-01 
    9.7779359583078929E-01 
    9.7405862105452545E-01 
    9.7379232461936882E-01 
    9.7751165394614947E-01 
    9.7729506799083055E-01 
    9.7358454592754895E-01 
    9.7346698911629714E-01 
    9.7717333640069681E-01 
    1.0051422750356667E+00 
    9.9209608728048992E-01 
    9.9195188252029021E-01 
    1.0049229678501364E+00 
    1.0044918344491911E+00 
    9.9166653636011748E-01 
    9.9124636916051156E-01 
    1.0038634290498034E+00 
    1.0030571987268109E+00 
    9.9070029263853820E-01 
    9.9003918181203976E-01 
    1.0020954891843445E+00 
    1.0010018002036809E+00 
    9.8927522147718749E-01 
    9.8842130083472213E-01 
    9.9979943465184529E-01 
    9.9851055639286235E-01 
    9.8749049826815316E-01 
    9.8649567347593159E-01 
    9.9715560658356117E-01 
    9.9575300311025794E-01 
    9.8544916691656170E-01 
    9.8436259615570199E-01 
    9.9431904659505488E-01 
    9.9286796628079210E-01 
    9.8324673366302695E-01 
    9.8211144922277205E-01 
    9.9141205282743960E-01 
    9.8996183868256937E-01 
    9.8096570096900770E-01 
    9.7981756106940687E-01 
    9.8852629844424944E-01 
    9.8711305096571156E-01 
    9.7867426453998418E-01 
    9.7754227213673706E-01 
    9.8572855193422904E-01 
    9.8437827063743200E-01 
    9.7642734049869984E-01 
    9.7533459460524841E-01 
    9.8306684802724920E-01 
    9.8179823540001243E-01 
    9.7426859913563379E-01 
    9.7323342650334654E-01 
    9.8057581436371244E-01 
    9.7940249952163616E-01 
    9.7223272022623342E-01 
    9.7126975293556239E-01 
    9.7828082566091834E-01 
    9.7721302133475840E-01 
    9.7034747877108340E-01 
    9.6946858019379034E-01 
    9.7620107066278217E-01 
    9.7524676500213248E-01 
    9.6863550939920140E-01 
    9.6785052453568121E-01 
    9.7435174588334994E-01 
    9.7351754023231074E-01 
    9.6711572078594199E-01 
    9.6643305591363338E-01 
    9.7274558828706092E-01 
    9.7203726338326812E-01 
    9.6580436868429076E-01 
    9.6523138542124642E-01 
    9.7139387980947567E-01 
    9.7081667722536114E-01 
    9.6471570170727206E-01 
    9.6425870626279986E-01 
    9.7030675094128693E-01 
    9.6986485525040800E-01 
    9.6386137201906474E-01 
    9.6352376232357329E-01 
    9.6949092764918876E-01 
    9.6918303555449703E-01 
    9.6324394968259397E-01 
    9.6301578011746880E-01 
    9.6893522228121431E-01 
    9.6873814745621312E-01 
    9.6283044227670367E-01 
    9.6272435017982605E-01 
    9.6862587644477849E-01 
    9.7973769589369253E-01 
    9.6770046596306480E-01 
    9.6762530271630176E-01 
    9.7963605864092096E-01 
    9.7943429287533268E-01 
    9.6747582525667053E-01 
    9.6725388714170824E-01 
    9.7913562223320649E-01 
    9.7874471605346891E-01 
    9.6696220982381564E-01 
    9.6660429130863990E-01 
    9.7826746393871278E-01 
    9.7771071510733354E-01 
    9.6618429206402534E-01 
    9.6570690960988170E-01 
    9.7708201034133391E-01 
    9.7638932693413971E-01 
    9.6517725058240122E-01 
    9.6460070723337354E-01 
    9.7564085035425152E-01 
    9.7484478033971589E-01 
    9.6398284349415897E-01 
    9.6332929397058287E-01 
    9.7400917427453082E-01 
    9.7314182714250486E-01 
    9.6264567767476383E-01 
    9.6193752702726110E-01 
    9.7225018503262262E-01 
    9.7134128787574470E-01 
    9.6121023170465325E-01 
    9.6046899624810911E-01 
    9.7042173657512332E-01 
    9.6949767971374246E-01 
    9.5971880994706982E-01 
    9.5896442731755915E-01 
    9.6857481537881762E-01 
    9.6765840418329374E-01 
    9.5821035745471428E-01 
    9.5746086060665536E-01 
    9.6675329017541456E-01 
    9.6586392693737488E-01 
    9.5671995045222846E-01 
    9.5599140073720679E-01 
    9.6499440673838566E-01 
    9.6414849110276124E-01 
    9.5527875510872329E-01 
    9.5458533916855215E-01 
    9.6332964156982892E-01 
    9.6254104975738608E-01 
    9.5391427392901140E-01 
    9.5326848998818192E-01 
    9.6178566609404248E-01 
    9.6106622675360165E-01 
    9.5265074182649212E-01 
    9.5206362163088332E-01 
    9.6038527838696763E-01 
    9.5974520014296782E-01 
    9.5150957189595819E-01 
    9.5099089552541549E-01 
    9.5914822202577565E-01 
    9.5859643736243705E-01 
    9.5050976069364013E-01 
    9.5006819383764085E-01 
    9.5809180370182456E-01 
    9.5763611755603695E-01 
    9.4966804444848973E-01 
    9.4931088381809581E-01 
    9.5723092765214590E-01 
    9.5687730976347307E-01 
    9.4899775873233561E-01 
    9.4872864593902784E-01 
    9.5657535105784341E-01 
    9.5632303026519994E-01 
    9.4850126705263349E-01 
    9.4830849956162500E-01 
    9.5611385443217556E-01 
    9.5594022892028441E-01 
    9.4814519463211622E-01 
    9.4805284458069461E-01 
    9.5584092437682211E-01 
    9.5576594191476427E-01 
    9.4379611190398405E-01 
    9.4375060887534168E-01 
    9.5570831042735871E-01 
    9.5559357801026046E-01 
    9.4365996422041942E-01 
    9.4352497559040727E-01 
    9.5542291513171063E-01 
    9.5519804964420230E-01 
    9.4334682006590675E-01 
    9.4312703467654202E-01 
    9.5492122608388863E-01 
    9.5459515101010728E-01 
    9.4286748801162834E-01 
    9.4257034628726355E-01 
    9.5422293003812308E-01 
    9.5380800056632054E-01 
    9.4223803590506316E-01 
    9.4187320416780496E-01 
    9.5335406353874741E-01 
    9.5286501700481951E-01 
    9.4147867959708231E-01 
    9.4105743308144274E-01 
    9.5234489363242270E-01 
    9.5179780372443112E-01 
    9.4061254085235291E-01 
    9.4014715004877392E-01 
    9.5122788472282582E-01 
    9.5063925769044011E-01 
    9.3966444740269939E-01 
    9.3916763136921588E-01 
    9.5003599085493340E-01 
    9.4942206998748024E-01 
    9.3865988784322874E-01 
    9.3814436945485702E-01 
    9.4880137516525453E-01 
    9.4817766332166509E-01 
    9.3762417831724343E-01 
    9.3710235201230907E-01 
    9.4755455590815851E-01 
    9.4693553096206984E-01 
    9.3658185253815829E-01 
    9.3606555790159796E-01 
    9.4632391888276213E-01 
    9.4572290125056002E-01 
    9.3555625601483594E-01 
    9.3505664053994686E-01 
    9.4513551206804713E-01 
    9.4456464084961644E-01 
    9.3456930830920171E-01 
    9.3409675792031233E-01 
    9.4401303701894046E-01 
    9.4348331507378425E-01 
    9.3364138903859051E-01 
    9.3320550178197326E-01 
    9.4297795990125932E-01 
    9.4249933137655073E-01 
    9.3279129520004789E-01 
    9.3240086298159408E-01 
    9.4204966670446466E-01 
    9.4163107720503991E-01 
    9.3203618236447683E-01 
    9.3169908697065806E-01 
    9.4124553175901948E-01 
    9.4089480845646556E-01 
    9.3139120244374851E-01 
    9.3111380011196543E-01 
    9.4058037354995605E-01 
    9.4030310540341466E-01 
    9.3086748083145698E-01 
    9.3065150799729346E-01 
    9.4006270102824740E-01 
    9.3985636745039713E-01 
    9.3046228687033672E-01 
    9.3028964826338956E-01 
    9.3967581260900768E-01 
    9.3952015272224210E-01 
    9.3013892129376685E-01 
    9.3005915739633616E-01 
    9.3943442481287609E-01 
    9.3170038938400823E-01 
    9.1941796631323536E-01 
    9.1938740271999209E-01 
    9.3166353502305277E-01 
    9.3159009090570677E-01 
    9.1932648133596517E-01 
    9.1923564638921096E-01 
    9.3148063636798162E-01 
    9.3133602236365032E-01 
    9.1911554540096707E-01 
    9.1896702392608642E-01 
    9.3115736160401930E-01 
    9.3094601270689303E-01 
    9.1879111608675568E-01 
    9.1858903255979130E-01 
    9.3070356063998594E-01 
    9.3043179463306680E-01 
    9.1836214677697559E-01 
    9.1811197985843529E-01 
    9.3013268445098118E-01 
    9.2980835580501175E-01 
    9.1784018471902251E-01 
    9.1754852974272139E-01 
    9.2946106559169317E-01 
    9.2909317755651044E-01 
    9.1723888238009255E-01 
    9.1691319298118423E-01 
    9.2870713888121037E-01 
    9.2830545809112364E-01 
    9.1657347913034859E-01 
    9.1622181070132980E-01 
    9.2789068457775992E-01 
    9.2746538993643224E-01 
    9.1586029580266548E-01 
    9.1549106773661237E-01 
    9.2703215123204263E-01 
    9.2659353623042695E-01 
    9.1511627305079868E-01 
    9.1473806072135055E-01 
    9.2615209056843595E-01 
    9.2571032678274534E-01 
    9.1435857246937646E-01 
    9.1397993417862011E-01 
    9.2527071507351188E-01 
    9.2483567564149327E-01 
    9.1360424834872078E-01 
    9.1323358748182348E-01 
    9.2440757240128446E-01 
    9.2398870783097231E-01 
    9.1286998825243504E-01 
    9.1251544623599823E-01 
    9.2358131865545601E-01 
    9.2318757194852807E-01 
    9.1217191083791560E-01 
    9.1184127979782459E-01 
    9.2280956101552436E-01 
    9.2244929993686464E-01 
    9.1152539206711547E-01 
    9.1122601653953761E-01 
    9.2210871454716181E-01 
    9.2178962500135153E-01 
    9.1094483105116586E-01 
    9.1068337921818732E-01 
    9.2149370898605643E-01 
    9.2122242159212919E-01 
    9.1044297872541602E-01 
    9.1022452897172212E-01 
    9.2097682295945726E-01 
    9.2075721873003535E-01 
    9.1002811613031487E-01 
    9.0985216609716058E-01 
    9.2056240267649325E-01 
    9.2038784012976105E-01 
    9.0969127953290008E-01 
    9.0953070143573711E-01 
    9.2022100139156193E-01 
    9.2007440752654124E-01 
    9.0938957418220268E-01 
    9.0931967009963299E-01 
    9.1999988348326722E-01 
    9.0690770575482926E-01 
    8.9414204356529947E-01 
    8.9411949920120992E-01 
    9.0688176513911978E-01 
    9.0683005225179891E-01 
    8.9407455410280634E-01 
    8.9400750727269951E-01 
    9.0675292408969166E-01 
    9.0665089614840066E-01 
    8.9391878621076470E-01 
    8.9380894499612418E-01 
    9.0652463941815087E-01 
    9.0637497434633008E-01 
    8.9367866016880149E-01 
    8.9352872528209171E-01 
    9.0620286299008490E-01 
    9.0600939989460783E-01 
    8.9336004452472062E-01 
    8.9317362563738856E-01 
    9.0579580202659848E-01 
    9.0556339802716801E-01 
    8.9297057229229904E-01 
    8.9275207608177365E-01 
    9.0531361701930768E-01 
    9.0504797718468477E-01 
    8.9251940824947185E-01 
    8.9227391128757616E-01 
    9.0476807430488138E-01 
    9.0447557044106364E-01 
    8.9201699051301020E-01 
    8.9175010572459867E-01 
    9.0417218290322832E-01 
    9.0385967363616815E-01 
    8.9147476303092632E-01 
    8.9119250692573948E-01 
    9.0353983912486069E-01 
    9.0321450089779032E-01 
    8.9090491267424554E-01 
    8.9061357905974170E-01 
    9.0288549668317652E-01 
    9.0255467225025154E-01 
    8.9032012152543538E-01 
    8.9002616573037951E-01 
    9.0222387394496950E-01 
    9.0189494190515551E-01 
    8.8973334151934946E-01 
    8.8944327728022032E-01 
    9.0156970391036517E-01 
    9.0124996977883653E-01 
    8.8915759462042332E-01 
    8.8887790321740834E-01 
    9.0093752615124589E-01 
    9.0063413136150849E-01 
    8.8860579554345664E-01 
    8.8834284083084791E-01 
    9.0034150980241179E-01 
    9.0006134454115239E-01 
    8.8809057688676163E-01 
    8.8785049663018589E-01 
    8.9979526543261434E-01 
    8.9954482652586742E-01 
    8.8762402234639981E-01 
    8.8741245263808366E-01 
    8.9931145911825605E-01 
    8.9909637233810558E-01 
    8.8721685209769940E-01 
    8.8703782661168806E-01 
    8.9890034707850852E-01 
    8.9872331399780037E-01 
    8.8687506134777438E-01 
    8.8672623310370091E-01 
    8.9856341353694358E-01 
    8.9841442263077564E-01 
    8.8658384680722702E-01 
    8.8643310020519284E-01 
    8.9826034347867278E-01 
    8.9812613123261553E-01 
    8.8630617921754273E-01 
    8.8624521443350235E-01 
    8.9806050446440688E-01 
    8.8110317175829844E-01 
    8.6778060258732193E-01 
    8.6776222494328215E-01 
    8.8108308532254032E-01 
    8.8104303944913265E-01 
    8.6772558549242762E-01 
    8.6767091809742436E-01 
    8.8098329406478049E-01 
    8.8090421740145586E-01 
    8.6759855161898825E-01 
    8.6750890858789709E-01 
    8.8080628454656207E-01 
    8.8069007442883362E-01 
    8.6740250283177966E-01 
    8.6727993632355738E-01 
    8.8055626579925150E-01 
    8.8040563251192794E-01 
    8.6714189548421139E-01 
    8.6698914706168317E-01 
    8.8023903826706884E-01 
    8.8005743092967881E-01 
    8.6682253366636242E-01 
    8.6664296902716187E-01 
    8.7986183651869820E-01 
    8.7965335295196090E-01 
    8.6645143302449235E-01 
    8.6624896655184558E-01 
    8.7943314362606895E-01 
    8.7920243090453498E-01 
    8.6603666625383968E-01 
    8.6581567918448032E-01 
    8.7896248958137846E-01 
    8.7871464038036373E-01 
    8.6558719742443946E-01 
    8.6535245268990546E-01 
    8.7846024354206209E-01 
    8.7820069254172772E-01 
    8.6511271095746822E-01 
    8.6486926711874168E-01 
    8.7793740797028164E-01 
    8.7767183159776574E-01 
    8.6462343966358457E-01 
    8.6437656536939889E-01 
    8.7740542062210136E-01 
    8.7713964208300232E-01 
    8.6412999394149548E-01 
    8.6388508249733975E-01 
    8.7687596738583107E-01 
    8.7661586682140469E-01 
    8.6364318969867893E-01 
    8.6340566917507333E-01 
    8.7636080386024084E-01 
    8.7611222878768968E-01 
    8.6317386157491205E-01 
    8.6294908396009939E-01 
    8.7587157080195366E-01 
    8.7564022672673059E-01 
    8.6273261396614054E-01 
    8.6252566343105730E-01 
    8.7541954235241937E-01 
    8.7521077786534596E-01 
    8.6232933067460016E-01 
    8.6214451009016468E-01 
    8.7501503982987472E-01 
    8.7483314580113669E-01 
    8.6197171839720499E-01 
    8.6181075539588148E-01 
    8.7466535605017992E-01 
    8.7451081606876491E-01 
    8.6165997916984038E-01 
    8.6151437528993235E-01 
    8.7436615967145448E-01 
    8.7422128644158492E-01 
    8.6135960612152951E-01 
    8.6119691672998389E-01 
    8.7406713646871015E-01 
    8.7394758577468212E-01 
    8.6108418440826084E-01 
    8.6103600742880837E-01 
    8.7389274087246938E-01 
    8.5416962011827779E-01 
    8.4027034031763392E-01 
    8.4025356484430891E-01 
    8.5415232278540321E-01 
    8.5411783678242348E-01 
    8.4022011854325296E-01 
    8.4017020991879310E-01 
    8.5406637948708808E-01 
    8.5399825511545957E-01 
    8.4010413028530018E-01 
    8.4002225212809267E-01 
    8.5391385330742697E-01 
    8.5381364711604069E-01 
    8.3992502727670837E-01 
    8.3981298458641374E-01 
    8.5369819038253214E-01 
    8.5356811466886628E-01 
    8.3968672724445304E-01 
    8.3954692977361722E-01 
    8.5342412584161398E-01 
    8.5326700036662739E-01 
    8.3939433477858405E-01 
    8.3922974946860096E-01 
    8.5309758135983360E-01 
    8.5291677443300795E-01 
    8.3905404198478850E-01 
    8.3886813755779466E-01 
    8.5272554336984152E-01 
    8.5252490566494998E-01 
    8.3867301451995313E-01 
    8.3846970019466494E-01 
    8.5231592795569777E-01 
    8.5209972137320977E-01 
    8.3825926668388751E-01 
    8.3804282657190432E-01 
    8.5187743683416794E-01 
    8.5165026028822866E-01 
    8.3782152855934244E-01 
    8.3759655303469005E-01 
    8.5141940792606674E-01 
    8.5118612133835914E-01 
    8.3736910757963268E-01 
    8.3714042238624742E-01 
    8.5095166259332966E-01 
    8.5071730916397359E-01 
    8.3691174553242675E-01 
    8.3668433800503927E-01 
    8.5048434857487754E-01 
    8.5025407253107921E-01 
    8.3645946825424033E-01 
    8.3623840585677711E-01 
    8.5002777009336761E-01 
    8.4980671908204397E-01 
    8.3602241345408679E-01 
    8.3581273528597599E-01 
    8.4959217412316146E-01 
    8.4938534817351630E-01 
    8.3561057889837176E-01 
    8.3541708308224216E-01 
    8.4918738113500014E-01 
    8.4899928281628245E-01 
    8.3523325829227912E-01 
    8.3505987310211693E-01 
    8.4882182562115605E-01 
    8.4865533975725327E-01 
    8.3489723457535236E-01 
    8.3474473789455061E-01 
    8.4849930852837663E-01 
    8.4835145557853786E-01 
    8.3459976737110220E-01 
    8.3445439638698471E-01 