# vtk DataFile Version 2.0
Pressure Field Data 
ASCII 
DATASET UNSTRUCTURED_GRID 

POINTS 1681 double 

    0.0000000000000000E+00     0.0000000000000000E+00     0.0000000000000000E+00 
    1.0000000000000000E+00     0.0000000000000000E+00     0.0000000000000000E+00 
    1.0000000000000000E+00     1.0000000000000000E+00     0.0000000000000000E+00 
    0.0000000000000000E+00     1.0000000000000000E+00     0.0000000000000000E+00 
    5.2499999999875258E-01     0.0000000000000000E+00     0.0000000000000000E+00 
    7.4999999999856765E-02     0.0000000000000000E+00     0.0000000000000000E+00 
    1.2499999999975850E-01     0.0000000000000000E+00     0.0000000000000000E+00 
    1.7499999999962990E-01     0.0000000000000000E+00     0.0000000000000000E+00 
    2.2499999999948389E-01     0.0000000000000000E+00     0.0000000000000000E+00 
    2.7499999999933789E-01     0.0000000000000000E+00     0.0000000000000000E+00 
    3.2499999999919210E-01     0.0000000000000000E+00     0.0000000000000000E+00 
    3.7499999999904610E-01     0.0000000000000000E+00     0.0000000000000000E+00 
    4.2499999999890020E-01     0.0000000000000000E+00     0.0000000000000000E+00 
    4.7499999999875958E-01     0.0000000000000000E+00     0.0000000000000000E+00 
    2.4999999999949701E-02     0.0000000000000000E+00     0.0000000000000000E+00 
    5.7499999999887907E-01     0.0000000000000000E+00     0.0000000000000000E+00 
    6.2499999999901101E-01     0.0000000000000000E+00     0.0000000000000000E+00 
    6.7499999999914273E-01     0.0000000000000000E+00     0.0000000000000000E+00 
    7.2499999999927467E-01     0.0000000000000000E+00     0.0000000000000000E+00 
    7.7499999999940661E-01     0.0000000000000000E+00     0.0000000000000000E+00 
    8.2499999999953844E-01     0.0000000000000000E+00     0.0000000000000000E+00 
    8.7499999999967026E-01     0.0000000000000000E+00     0.0000000000000000E+00 
    9.2499999999980220E-01     0.0000000000000000E+00     0.0000000000000000E+00 
    9.7499999999993414E-01     0.0000000000000000E+00     0.0000000000000000E+00 
    5.4999999999881310E-01     0.0000000000000000E+00     0.0000000000000000E+00 
    9.9999999999814140E-02     0.0000000000000000E+00     0.0000000000000000E+00 
    1.4999999999970290E-01     0.0000000000000000E+00     0.0000000000000000E+00 
    1.9999999999955689E-01     0.0000000000000000E+00     0.0000000000000000E+00 
    2.4999999999941089E-01     0.0000000000000000E+00     0.0000000000000000E+00 
    2.9999999999926502E-01     0.0000000000000000E+00     0.0000000000000000E+00 
    3.4999999999911913E-01     0.0000000000000000E+00     0.0000000000000000E+00 
    3.9999999999897312E-01     0.0000000000000000E+00     0.0000000000000000E+00 
    4.4999999999882723E-01     0.0000000000000000E+00     0.0000000000000000E+00 
    4.9999999999869210E-01     0.0000000000000000E+00     0.0000000000000000E+00 
    4.9999999999899403E-02     0.0000000000000000E+00     0.0000000000000000E+00 
    5.9999999999894504E-01     0.0000000000000000E+00     0.0000000000000000E+00 
    6.4999999999907687E-01     0.0000000000000000E+00     0.0000000000000000E+00 
    6.9999999999920870E-01     0.0000000000000000E+00     0.0000000000000000E+00 
    7.4999999999934064E-01     0.0000000000000000E+00     0.0000000000000000E+00 
    7.9999999999947247E-01     0.0000000000000000E+00     0.0000000000000000E+00 
    8.4999999999960441E-01     0.0000000000000000E+00     0.0000000000000000E+00 
    8.9999999999973623E-01     0.0000000000000000E+00     0.0000000000000000E+00 
    9.4999999999986817E-01     0.0000000000000000E+00     0.0000000000000000E+00 
    1.0000000000000000E+00     5.2499999999875258E-01     0.0000000000000000E+00 
    1.0000000000000000E+00     7.4999999999856765E-02     0.0000000000000000E+00 
    1.0000000000000000E+00     1.2499999999975850E-01     0.0000000000000000E+00 
    1.0000000000000000E+00     1.7499999999962990E-01     0.0000000000000000E+00 
    1.0000000000000000E+00     2.2499999999948389E-01     0.0000000000000000E+00 
    1.0000000000000000E+00     2.7499999999933789E-01     0.0000000000000000E+00 
    1.0000000000000000E+00     3.2499999999919210E-01     0.0000000000000000E+00 
    1.0000000000000000E+00     3.7499999999904610E-01     0.0000000000000000E+00 
    1.0000000000000000E+00     4.2499999999890020E-01     0.0000000000000000E+00 
    1.0000000000000000E+00     4.7499999999875958E-01     0.0000000000000000E+00 
    1.0000000000000000E+00     2.4999999999949701E-02     0.0000000000000000E+00 
    1.0000000000000000E+00     5.7499999999887907E-01     0.0000000000000000E+00 
    1.0000000000000000E+00     6.2499999999901101E-01     0.0000000000000000E+00 
    1.0000000000000000E+00     6.7499999999914273E-01     0.0000000000000000E+00 
    1.0000000000000000E+00     7.2499999999927467E-01     0.0000000000000000E+00 
    1.0000000000000000E+00     7.7499999999940661E-01     0.0000000000000000E+00 
    1.0000000000000000E+00     8.2499999999953844E-01     0.0000000000000000E+00 
    1.0000000000000000E+00     8.7499999999967026E-01     0.0000000000000000E+00 
    1.0000000000000000E+00     9.2499999999980220E-01     0.0000000000000000E+00 
    1.0000000000000000E+00     9.7499999999993414E-01     0.0000000000000000E+00 
    1.0000000000000000E+00     5.4999999999881310E-01     0.0000000000000000E+00 
    1.0000000000000000E+00     9.9999999999814140E-02     0.0000000000000000E+00 
    1.0000000000000000E+00     1.4999999999970290E-01     0.0000000000000000E+00 
    1.0000000000000000E+00     1.9999999999955689E-01     0.0000000000000000E+00 
    1.0000000000000000E+00     2.4999999999941089E-01     0.0000000000000000E+00 
    1.0000000000000000E+00     2.9999999999926502E-01     0.0000000000000000E+00 
    1.0000000000000000E+00     3.4999999999911913E-01     0.0000000000000000E+00 
    1.0000000000000000E+00     3.9999999999897312E-01     0.0000000000000000E+00 
    1.0000000000000000E+00     4.4999999999882723E-01     0.0000000000000000E+00 
    1.0000000000000000E+00     4.9999999999869210E-01     0.0000000000000000E+00 
    1.0000000000000000E+00     4.9999999999899403E-02     0.0000000000000000E+00 
    1.0000000000000000E+00     5.9999999999894504E-01     0.0000000000000000E+00 
    1.0000000000000000E+00     6.4999999999907687E-01     0.0000000000000000E+00 
    1.0000000000000000E+00     6.9999999999920870E-01     0.0000000000000000E+00 
    1.0000000000000000E+00     7.4999999999934064E-01     0.0000000000000000E+00 
    1.0000000000000000E+00     7.9999999999947247E-01     0.0000000000000000E+00 
    1.0000000000000000E+00     8.4999999999960441E-01     0.0000000000000000E+00 
    1.0000000000000000E+00     8.9999999999973623E-01     0.0000000000000000E+00 
    1.0000000000000000E+00     9.4999999999986817E-01     0.0000000000000000E+00 
    4.7500000000196618E-01     1.0000000000000000E+00     0.0000000000000000E+00 
    9.2499999999968763E-01     1.0000000000000000E+00     0.0000000000000000E+00 
    8.7499999999961831E-01     1.0000000000000000E+00     0.0000000000000000E+00 
    8.2499999999982654E-01     1.0000000000000000E+00     0.0000000000000000E+00 
    7.7500000000017355E-01     1.0000000000000000E+00     0.0000000000000000E+00 
    7.2500000000052045E-01     1.0000000000000000E+00     0.0000000000000000E+00 
    6.7500000000086724E-01     1.0000000000000000E+00     0.0000000000000000E+00 
    6.2500000000121403E-01     1.0000000000000000E+00     0.0000000000000000E+00 
    5.7500000000156093E-01     1.0000000000000000E+00     0.0000000000000000E+00 
    5.2500000000189684E-01     1.0000000000000000E+00     0.0000000000000000E+00 
    9.7499999999989595E-01     1.0000000000000000E+00     0.0000000000000000E+00 
    4.2500000000176902E-01     1.0000000000000000E+00     0.0000000000000000E+00 
    3.7500000000156092E-01     1.0000000000000000E+00     0.0000000000000000E+00 
    3.2500000000135282E-01     1.0000000000000000E+00     0.0000000000000000E+00 
    2.7500000000114472E-01     1.0000000000000000E+00     0.0000000000000000E+00 
    2.2500000000093659E-01     1.0000000000000000E+00     0.0000000000000000E+00 
    1.7500000000072849E-01     1.0000000000000000E+00     0.0000000000000000E+00 
    1.2500000000052039E-01     1.0000000000000000E+00     0.0000000000000000E+00 
    7.5000000000312261E-02     1.0000000000000000E+00     0.0000000000000000E+00 
    2.5000000000104109E-02     1.0000000000000000E+00     0.0000000000000000E+00 
    4.5000000000187301E-01     1.0000000000000000E+00     0.0000000000000000E+00 
    8.9999999999958358E-01     1.0000000000000000E+00     0.0000000000000000E+00 
    8.4999999999965303E-01     1.0000000000000000E+00     0.0000000000000000E+00 
    8.0000000000000004E-01     1.0000000000000000E+00     0.0000000000000000E+00 
    7.5000000000034706E-01     1.0000000000000000E+00     0.0000000000000000E+00 
    7.0000000000069384E-01     1.0000000000000000E+00     0.0000000000000000E+00 
    6.5000000000104063E-01     1.0000000000000000E+00     0.0000000000000000E+00 
    6.0000000000138742E-01     1.0000000000000000E+00     0.0000000000000000E+00 
    5.5000000000173432E-01     1.0000000000000000E+00     0.0000000000000000E+00 
    5.0000000000205946E-01     1.0000000000000000E+00     0.0000000000000000E+00 
    9.4999999999979179E-01     1.0000000000000000E+00     0.0000000000000000E+00 
    4.0000000000166491E-01     1.0000000000000000E+00     0.0000000000000000E+00 
    3.5000000000145681E-01     1.0000000000000000E+00     0.0000000000000000E+00 
    3.0000000000124871E-01     1.0000000000000000E+00     0.0000000000000000E+00 
    2.5000000000104061E-01     1.0000000000000000E+00     0.0000000000000000E+00 
    2.0000000000083251E-01     1.0000000000000000E+00     0.0000000000000000E+00 
    1.5000000000062441E-01     1.0000000000000000E+00     0.0000000000000000E+00 
    1.0000000000041630E-01     1.0000000000000000E+00     0.0000000000000000E+00 
[...]
CELL_DATA 1600 
SCALARS Pressure double 1 
LOOKUP_TABLE default 

    1.4281027299065259E+00 
    1.3781437862769363E+00 
    1.3754377564121572E+00 
    1.4118049495989360E+00 
    1.3983807437117519E+00 
    1.3712512976937483E+00 
    1.3663209177685192E+00 
    1.3871003694897430E+00 
    1.3773964692244247E+00 
    1.3610616538428955E+00 
    1.3557094138418015E+00 
    1.3688740722361270E+00 
    1.3612559298365485E+00 
    1.3503959318955259E+00 
    1.3451923579830145E+00 
    1.3543448461609822E+00 
    1.3479985493588229E+00 
    1.3401347947880968E+00 
    1.3352393034680099E+00 
    1.3421129133369836E+00 
    1.3366106626382972E+00 
    1.3305107254131079E+00 
    1.3259478557359852E+00 
    1.3314336860093441E+00 
    1.3265377425603757E+00 
    1.3215464571923228E+00 
    1.3173009931802360E+00 
    1.3218887691357375E+00 
    1.3174602701724780E+00 
    1.3132056005889188E+00 
    1.3092546119093857E+00 
    1.3132314467820523E+00 
    1.3091858352143904E+00 
    1.3054428102614941E+00 
    1.3017655253930220E+00 
    1.3053102984385379E+00 
    1.3015942621459877E+00 
    1.2982186323633180E+00 
    1.2947984848314129E+00 
    1.2980291164876128E+00 
    1.2946077219842207E+00 
    1.2915017932694630E+00 
    1.2883254382549953E+00 
    1.2913239638810385E+00 
    1.2881722915642502E+00 
    1.2852661821266609E+00 
    1.2823201937580839E+00 
    1.2851471494111071E+00 
    1.2822421265411799E+00 
    1.2794821947475665E+00 
    1.2767437638913479E+00 
    1.2794484490609164E+00 
    1.2767518575572423E+00 
    1.2740895279866029E+00 
    1.2714870375618346E+00 
    1.2741249758659996E+00 
    1.2715045831911043E+00 
    1.2688530662340733E+00 
    1.2660563906910549E+00 
    1.2687386680155224E+00 
    1.2660401128435053E+00 
    1.2634257658912909E+00 
    1.2612342611477296E+00 
    1.2637691691766342E+00 
    1.2618310721060000E+00 
    1.2593329749150324E+00 
    1.2576760597072494E+00 
    1.2601429781844087E+00 
    1.2587015761105269E+00 
    1.2562607269850152E+00 
    1.2550846922710068E+00 
    1.2575042589491898E+00 
    1.2565488984556665E+00 
    1.2541460789598606E+00 
    1.2534434029566237E+00 
    1.2558338199117216E+00 
    1.2553577830632869E+00 
    1.2529755609678308E+00 
    1.2527418220355051E+00 
    1.2551199684243983E+00 
    1.3496029223172079E+00 
    1.3268957163451447E+00 
    1.3263878466329928E+00 
    1.3486534105193644E+00 
    1.3468840669327535E+00 
    1.3253973358059998E+00 
    1.3239717383041172E+00 
    1.3444672548936156E+00 
    1.3415655760193337E+00 
    1.3221685661361657E+00 
    1.3200478304900181E+00 
    1.3383165458065471E+00 
    1.3348300903555197E+00 
    1.3176672452031766E+00 
    1.3150795614837112E+00 
    1.3311912245138358E+00 
    1.3274643528006052E+00 
    1.3123313952522164E+00 
    1.3094630020966616E+00 
    1.3236976232645266E+00 
    1.3199267287036576E+00 
    1.3065085980920812E+00 
    1.3034969551232127E+00 
    1.3161779968718001E+00 
    1.3124708025148470E+00 
    1.3004520994626825E+00 
    1.2973940125661469E+00 
    1.3088194024847966E+00 
    1.3052343076484305E+00 
    1.2943392792345803E+00 
    1.2913016569318339E+00 
    1.3017232946397459E+00 
    1.2982921421472531E+00 
    1.2882925564814709E+00 
    1.2853214324337829E+00 
    1.2949451570870925E+00 
    1.2916855380048440E+00 
    1.2823960834339510E+00 
    1.2795228597872503E+00 
    1.2885156063517749E+00 
    1.2854369192349566E+00 
    1.2767067660791338E+00 
    1.2739514268148111E+00 
    1.2824502560758868E+00 
    1.2795554380699514E+00 
    1.2712588404508984E+00 
    1.2686287477295386E+00 
    1.2767508733448878E+00 
    1.2740325662798748E+00 
    1.2660571755511145E+00 
    1.2635328775492294E+00 
    1.2713919030220799E+00 
    1.2688101001600924E+00 
    1.2610269993789647E+00 
    1.2584526485248917E+00 
    1.2662410494433476E+00 
    1.2635558542924421E+00 
    1.2557069948728463E+00 
    1.2530666418805738E+00 
    1.2607731049023732E+00 
    1.2583048745066454E+00 
    1.2508137419997230E+00 
    1.2488493205686761E+00 
    1.2562248107234373E+00 
    1.2543919334960172E+00 
    1.2471083056475092E+00 
    1.2455885878002366E+00 
    1.2527933163745275E+00 
    1.2514268977771863E+00 
    1.2442887447262270E+00 
    1.2432075205190880E+00 
    1.2502909115641532E+00 
    1.2493838863849360E+00 
    1.2423438472963240E+00 
    1.2416968589728798E+00 
    1.2487046458570856E+00 
    1.2482523083077020E+00 
    1.2412658999970752E+00 
    1.2410505307679134E+00 
    1.2480262863233680E+00 
    1.3062807224772444E+00 
    1.2863903483050496E+00 
    1.2861473068108173E+00 
    1.3059481802932635E+00 
    1.3052911440714752E+00 
    1.2856647852483010E+00 
    1.2849512079450101E+00 
    1.3043273063173491E+00 
    1.3030805590921082E+00 
    1.2840184564622457E+00 
    1.2828811055354390E+00 
    1.3015787100571761E+00 
    1.2998514634764009E+00 
    1.2815556333238314E+00 
    1.2800596774416566E+00 
    1.2979288165133853E+00 
    1.2958398961942841E+00 
    1.2784113856743866E+00 
    1.2766288839278503E+00 
    1.2936121908768858E+00 
    1.2912711009798559E+00 
    1.2747298644494958E+00 
    1.2727312849541368E+00 
    1.2888397295275564E+00 
    1.2863388411873735E+00 
    1.2706491625377350E+00 
    1.2684984434261777E+00 
    1.2837869311965240E+00 
    1.2812003586245695E+00 
    1.2662929290896237E+00 
    1.2640452397212816E+00 
    1.2785935096761583E+00 
    1.2759789652577405E+00 
    1.2617667963710162E+00 
    1.2594678019020034E+00 
    1.2733676523333304E+00 
    1.2707689600931886E+00 
    1.2571571966165911E+00 
    1.2548425534137431E+00 
    1.2681907982687217E+00 
    1.2656395625467201E+00 
    1.2525298516763963E+00 
    1.2502230072781937E+00 
    1.2631199418684578E+00 
    1.2606344295654235E+00 
    1.2479228723635933E+00 
    1.2456249147842473E+00 
    1.2581822080426175E+00 
    1.2557564815781084E+00 
    1.2433128063277419E+00 
    1.2409335611897263E+00 
    1.2533370148012517E+00 
    1.2508612936729069E+00 
    1.2383883081812064E+00 
    1.2357286464639194E+00 
    1.2482180024468634E+00 
    1.2455297328095796E+00 
    1.2332829763953292E+00 
    1.2311609748390382E+00 
    1.2431476219408453E+00 
    1.2410872363712826E+00 
    1.2292632068636424E+00 
    1.2275581863867675E+00 
    1.2392453154178047E+00 
    1.2376117070606942E+00 
    1.2260449805772351E+00 
    1.2247227643790373E+00 
    1.2361851114932454E+00 
    1.2349644030065117E+00 
    1.2235908101822752E+00 
    1.2226484891357998E+00 
    1.2339486196302256E+00 
    1.2331369592144921E+00 
    1.2218952729973636E+00 
    1.2213307361523571E+00 
    1.2325287786122863E+00 
    1.2321235942200139E+00 
    1.2209545575115199E+00 
    1.2207665220826425E+00 
    1.2319210829208855E+00 
    1.2665791366533985E+00 
    1.2464886386443557E+00 
    1.2463319963454276E+00 
    1.2663887658664508E+00 
    1.2660099620549847E+00 
    1.2460198979541048E+00 
    1.2455553464471958E+00 
    1.2654474886604874E+00 
    1.2647081659306145E+00 
    1.2449426664924501E+00 
    1.2441873542927908E+00 
    1.2638005633230351E+00 
    1.2627346597328877E+00 
    1.2432959090228497E+00 
    1.2422756497638650E+00 
    1.2615214922948326E+00 
    1.2601728166500163E+00 
    1.2411345271505121E+00 
    1.2398809375262794E+00 
    1.2587007950938605E+00 
    1.2571177221739678E+00 
    1.2385235450878971E+00 
    1.2370711149236100E+00 
    1.2554357913685954E+00 
    1.2536669017307946E+00 
    1.2355323571340233E+00 
    1.2339157792889435E+00 
    1.2518224997035430E+00 
    1.2499134483069863E+00 
    1.2322295409591737E+00 
    1.2304812990325624E+00 
    1.2479499129317029E+00 
    1.2459412490712847E+00 
    1.2286780242328073E+00 
    1.2268257538689511E+00 
    1.2438958707381806E+00 
    1.2418210654135766E+00 
    1.2249292131610956E+00 
    1.2229911581869397E+00 
    1.2397226939300023E+00 
    1.2376046496643116E+00 
    1.2210110866235842E+00 
    1.2189822179190093E+00 
    1.2354677798356961E+00 
    1.2333074475012078E+00 
    1.2168825016715250E+00 
    1.2146340050008746E+00 
    1.2311066305483380E+00 
    1.2288075989823173E+00 
    1.2121866422030758E+00 
    1.2096548468069444E+00 
    1.2263324445300656E+00 
    1.2237307239361732E+00 
    1.2072792218710839E+00 
    1.2051852311799864E+00 
    1.2212875342753029E+00 
    1.2191540243395591E+00 
    1.2033038667201394E+00 
    1.2015800541620607E+00 
    1.2172453962515621E+00 
    1.2155118097254820E+00 
    1.2000135377585186E+00 
    1.1986041715645899E+00 
    1.2139529106822802E+00 
    1.2125683579803961E+00 
    1.1973518156645451E+00 
    1.1962563367746277E+00 
    1.2113577972504106E+00 
    1.2103208858551355E+00 
    1.1953176105170211E+00 
    1.1945355241945608E+00 
    1.2094573095609542E+00 
    1.2087667938459252E+00 
    1.1939099794960659E+00 
    1.1934408948703279E+00 
    1.2082491116507366E+00 
    1.2079040886834274E+00 
    1.1931282074592464E+00 
    1.1929718745519533E+00 
    1.2077316069557269E+00 
    1.2258928184879168E+00 
    1.2046296197064248E+00 
    1.2045110397505785E+00 
    1.2257588223629954E+00 
    1.2254915819125884E+00 
    1.2042743138852579E+00 
    1.2039207551751332E+00 
    1.2250930948371257E+00 
    1.2245662627894662E+00 
    1.2034523208071315E+00 
    1.2028715521388913E+00 
    1.2239148040490311E+00 
    1.2231431546049796E+00 
    1.2021815029138236E+00 
    1.2013856561167193E+00 
    1.2222563574546255E+00 
    1.2212599437160381E+00 
    1.2004878305237014E+00 
    1.1994920765520978E+00 
    1.2201598084449210E+00 
    1.2189620827531344E+00 
    1.1984025592876020E+00 
    1.1972234236780674E+00 
    1.2176730020286604E+00 
    1.2162987674756387E+00 
    1.1959586313397541E+00 
    1.1946117489107895E+00 
    1.2148453944585993E+00 
    1.2133185353545546E+00 
    1.1931856527902858E+00 
    1.1916820831835817E+00 
    1.2117232538567551E+00 
    1.2100637053970460E+00 
    1.1901008770277786E+00 
    1.1884384329077622E+00 
    1.2083426311401479E+00 
    1.2065604644399346E+00 
    1.1866844995585573E+00 
    1.1848083128657831E+00 
    1.2047134507651600E+00 
    1.2027889839812045E+00 
    1.1827413811591714E+00 
    1.1804672316158025E+00 
    1.2007457696261790E+00 
    1.1985115281540488E+00 
    1.1780684470513121E+00 
    1.1757527076568242E+00 
    1.1960697238630360E+00 
    1.1936175237253195E+00 
    1.1736885728998814E+00 
    1.1718357326745823E+00 
    1.1913742086990362E+00 
    1.1893730224222758E+00 
    1.1701235436718114E+00 
    1.1685312413079703E+00 
    1.1875562993189004E+00 
    1.1858792581722342E+00 
    1.1670593146082677E+00 
    1.1657082387593607E+00 
    1.1843417505271729E+00 
    1.1829437636954028E+00 
    1.1644784631881975E+00 
    1.1633704081842944E+00 
    1.1816853295080403E+00 
    1.1805665032473951E+00 
    1.1623844609408325E+00 
    1.1615209719424153E+00 
    1.1795873499756886E+00 
    1.1787479358274120E+00 
    1.1607802520442312E+00 
    1.1601625702917759E+00 
    1.1780483225884901E+00 
    1.1774885644186306E+00 
    1.1596681523953518E+00 
    1.1592971797253619E+00 
    1.1770687059433549E+00 
    1.1767887811971807E+00 
    1.1590497886908535E+00 
    1.1589260703816622E+00 
    1.1766488130754327E+00 
    1.1825627702669335E+00 
    1.1595512902092124E+00 
    1.1594482360173963E+00 
    1.1824542894092009E+00 
    1.1822374579954842E+00 
    1.1592418718545088E+00 
    1.1589322981268759E+00 
    1.1819130118509238E+00 
    1.1814821507465554E+00 
    1.1585199291247439E+00 
    1.1580054227781607E+00 
    1.1809464869782542E+00 
    1.1803079751922976E+00 
    1.1573895787121304E+00 
    1.1566732112905498E+00 
    1.1795688266848947E+00 
    1.1787314059939820E+00 
    1.1558569751783685E+00 
    1.1549410955823103E+00 
    1.1777981038482401E+00 
    1.1767711779531416E+00 
    1.1539249612235059E+00 
    1.1528066078973558E+00 
    1.1756525471800079E+00 
    1.1744435009828849E+00 
    1.1515820477779757E+00 
    1.1502430036795850E+00 
    1.1731442250499207E+00 
    1.1717529822361137E+00 
    1.1487681038308175E+00 
    1.1471138059136168E+00 
    1.1702647958619818E+00 
    1.1686678782193214E+00 
    1.1452503994740364E+00 
    1.1432069390882946E+00 
    1.1669273017646076E+00 
    1.1649859077873661E+00 
    1.1410556613556069E+00 
    1.1389421589539865E+00 
    1.1628413638542769E+00 
    1.1605548114062751E+00 
    1.1369940921195143E+00 
    1.1352554118526770E+00 
    1.1582987126435680E+00 
    1.1562346185295340E+00 
    1.1336828311044453E+00 
    1.1322029840654231E+00 
    1.1543943069024778E+00 
    1.1527206481542280E+00 
    1.1307985648455028E+00 
    1.1294718549943406E+00 
    1.1511485341087293E+00 
    1.1496753691992805E+00 
    1.1282249710685968E+00 
    1.1270598277600532E+00 
    1.1483024266556463E+00 
    1.1470308625363383E+00 
    1.1259781524937365E+00 
    1.1249814985036697E+00 
    1.1458617242140967E+00 
    1.1447959570083701E+00 
    1.1240712562937054E+00 
    1.1232486635286745E+00 
    1.1438344092561263E+00 
    1.1429778361838097E+00 
    1.1225148134738923E+00 
    1.1218706621313015E+00 
    1.1422269029067815E+00 
    1.1415821868037352E+00 
    1.1213170342227812E+00 
    1.1208546281577478E+00 
    1.1410441794347326E+00 
    1.1406132881077229E+00 
    1.1204840201016826E+00 
    1.1202056672400351E+00 
    1.1402898371525536E+00 
    1.1400740689313553E+00 
    1.1200199103107997E+00 
    1.1199269754602752E+00 
    1.1399661445962628E+00 
    1.1354086764837890E+00 
    1.1098132334441391E+00 
    1.1096984467432613E+00 
    1.1353054327282779E+00 
    1.1350980733252629E+00 
    1.1094670991421260E+00 
    1.1091171783811182E+00 
    1.1347857958167253E+00 
    1.1343679012696122E+00 
    1.1086460200393953E+00 
    1.1080486059838193E+00 
    1.1338435653479364E+00 
    1.1332115881064080E+00 
    1.1073153122471215E+00 
    1.1064306084286673E+00 
    1.1324701965052946E+00 
    1.1316167718064913E+00 
    1.1053764022332051E+00 
    1.1041429056361245E+00 
    1.1306467708000523E+00 
    1.1295502392006052E+00 
    1.1027413612168970E+00 
    1.1012049729044437E+00 
    1.1283055854529243E+00 
    1.1268807475530387E+00 
    1.0995797451494151E+00 
    1.0979251199030924E+00 
    1.1252582154959045E+00 
    1.1234618992156475E+00 
    1.0963120021351960E+00 
    1.0948019910813160E+00 
    1.1215447727421650E+00 
    1.1195929274376630E+00 
    1.0934349755974671E+00 
    1.0922041624680547E+00 
    1.1177208541104462E+00 
    1.1160053402581596E+00 
    1.0910520374086361E+00 
    1.0899324650852920E+00 
    1.1144730407698262E+00 
    1.1130788111860139E+00 
    1.0888376946127081E+00 
    1.0877727908710646E+00 
    1.1117549169296679E+00 
    1.1104815107358337E+00 
    1.0867422128690187E+00 
    1.0857499813506424E+00 
    1.1092619069142629E+00 
    1.1080993879339405E+00 
    1.0847997343009153E+00 
    1.0838947637739544E+00 
    1.1069969166257643E+00 
    1.1059571667659118E+00 
    1.0830380471019554E+00 
    1.0822322734226564E+00 
    1.1049825484421860E+00 
    1.1040752296886263E+00 
    1.0814798663120970E+00 
    1.0807830031416508E+00 
    1.1032371549922082E+00 
    1.1024700611296996E+00 
    1.0801436316503155E+00 
    1.0795634841257988E+00 
    1.1017754906987280E+00 
    1.1011548036420540E+00 
    1.0790440895130853E+00 
    1.0785867837107248E+00 
    1.1006091870150922E+00 
    1.1001396632069449E+00 
    1.0781927182684452E+00 
    1.0778628676615747E+00 
    1.0997470967910628E+00 
    1.0994322001514596E+00 
    1.0775980352858305E+00 
    1.0773988582887282E+00 
    1.0991955380033973E+00 
    1.0990375309031379E+00 
    1.0772658113299747E+00 
    1.0771992093419331E+00 
    1.0989584578194289E+00 
    1.0820322732682544E+00 
    1.0513690278937526E+00 
    1.0512205327361588E+00 
    1.0818634523267003E+00 
    1.0815257779779841E+00 
    1.0509350809099751E+00 
    1.0505292388796184E+00 
    1.0810205050068202E+00 
    1.0803521994260230E+00 
    1.0500214710449625E+00 
    1.0494331696434518E+00 
    1.0795315862729447E+00 
    1.0785766578595508E+00 
    1.0487898211773914E+00 
    1.0481208095730936E+00 
    1.0775111021303516E+00 
    1.0763619674784393E+00 
    1.0474559871503981E+00 
    1.0468175751441302E+00 
    1.0751597872054195E+00 
    1.0739404752385062E+00 
    1.0462099141748693E+00 
    1.0456165844618857E+00 
    1.0727448472959844E+00 
    1.0716139069206831E+00 
    1.0450126434915163E+00 
    1.0443825708826857E+00 
    1.0705763797642096E+00 
    1.0696271796464971E+00 
    1.0437259223446167E+00 
    1.0430494959277081E+00 
    1.0687263453895690E+00 
    1.0678350561891397E+00 
    1.0423599224611120E+00 
    1.0416626620324538E+00 
    1.0669413812124793E+00 
    1.0660500448550210E+00 
    1.0409628182794477E+00 
    1.0402652215218502E+00 
    1.0651672408593931E+00 
    1.0642981163777823E+00 
    1.0395743828056900E+00 
    1.0388945071535955E+00 
    1.0634474074298907E+00 
    1.0626194501655122E+00 
    1.0382295054680322E+00 
    1.0375830068035998E+00 
    1.0618182111005314E+00 
    1.0610473154402329E+00 
    1.0369583706536305E+00 
    1.0363586989092739E+00 
    1.0603100723725276E+00 
    1.0596094975110053E+00 
    1.0357868472575591E+00 
    1.0352454358690415E+00 
    1.0589483327157327E+00 
    1.0583290635344373E+00 
    1.0347368592883730E+00 
    1.0342632954861766E+00 
    1.0577539344999822E+00 
    1.0572249625027408E+00 
    1.0338267140618052E+00 
    1.0334288836073240E+00 
    1.0567439484348351E+00 
    1.0563124872805840E+00 
    1.0330713782560861E+00 
    1.0327555834467055E+00 
    1.0559319768055322E+00 
    1.0556036249758431E+00 
    1.0324827009366331E+00 
    1.0322537531000777E+00 
    1.0553284562208141E+00 
    1.0551073166337823E+00 
    1.0320695865435177E+00 
    1.0319308750691072E+00 
    1.0549408781905725E+00 
    1.0548296420496934E+00 
    1.0318381220123674E+00 
    1.0317916619759082E+00 
    1.0547739409845185E+00 
    1.0221117571551237E+00 
    9.9577941134288694E-01 
    9.9575236853327531E-01 
    1.0220628998482668E+00 
    1.0219701148397073E+00 
    9.9569593349522056E-01 
    9.9560756088471758E-01 
    1.0218403900890349E+00 
    1.0216793116133434E+00 
    9.9548566842323105E-01 
    9.9532952429188348E-01 
    1.0214883442430738E+00 
    1.0212639523197393E+00 
    9.9513895507859451E-01 
    9.9491416991943904E-01 
    1.0209995753491872E+00 
    1.0206898108335991E+00 
    9.9465584558783970E-01 
    9.9436533717683551E-01 
    1.0203339417887585E+00 
    1.0199360450054069E+00 
    9.9404473890700551E-01 
    9.9369670083529049E-01 
    1.0195021521978800E+00 
    1.0190376802202945E+00 
    9.9332416894465558E-01 
    9.9293022836288902E-01 
    1.0185470839253330E+00 
    1.0180346248940650E+00 
    9.9251805304354135E-01 
    9.9209087896646186E-01 
    1.0175046933038701E+00 
    1.0169616628850329E+00 
    9.9165196699686264E-01 
    9.9120456576216975E-01 
    1.0164097760974053E+00 
    1.0158531217497977E+00 
    9.9075188154250549E-01 
    9.9029705398960866E-01 
    1.0152956217699551E+00 
    1.0147410185929593E+00 
    9.8984313641990895E-01 
    9.8939307998824200E-01 
    1.0141928672119973E+00 
    1.0136545305592517E+00 
    9.8894972109514112E-01 
    9.8851577145979219E-01 
    1.0131291773620397E+00 
    1.0126197818108971E+00 
    9.8809381036967703E-01 
    9.8768627869156533E-01 
    1.0121291245196034E+00 
    1.0116597943721459E+00 
    9.8729547429503917E-01 
    9.8692354859851061E-01 
    1.0112141909438586E+00 
    1.0107945272575880E+00 
    9.8657250399877294E-01 
    9.8624419198890978E-01 
    1.0104028326941203E+00 
    1.0100409559219683E+00 
    9.8594031180650210E-01 
    9.8566240948518613E-01 
    1.0097105677473790E+00 
    1.0094131638130144E+00 
    9.8541187720848999E-01 
    9.8518995288619704E-01 
    1.0091500670947948E+00 
    1.0089224301622433E+00 
    9.8499771989089346E-01 
    9.8483610690648193E-01 