# vtk DataFile Version 2.0
Pressure Field Data 
ASCII 
DATASET UNSTRUCTURED_GRID 

POINTS 1681 double 

    0.0000000000000000E+00     0.0000000000000000E+00     0.0000000000000000E+00 
    1.0000000000000000E+00     0.0000000000000000E+00     0.0000000000000000E+00 
    1.0000000000000000E+00     1.0000000000000000E+00     0.0000000000000000E+00 
    0.0000000000000000E+00     1.0000000000000000E+00     0.0000000000000000E+00 
    5.2499999999875258E-01     0.0000000000000000E+00     0.0000000000000000E+00 
    7.4999999999856765E-02     0.0000000000000000E+00     0.0000000000000000E+00 
    1.2499999999975850E-01     0.0000000000000000E+00     0.0000000000000000E+00 
    1.7499999999962990E-01     0.0000000000000000E+00     0.0000000000000000E+00 
    2.2499999999948389E-01     0.0000000000000000E+00     0.0000000000000000E+00 
    2.7499999999933789E-01     0.0000000000000000E+00     0.0000000000000000E+00 
    3.2499999999919210E-01     0.0000000000000000E+00     0.0000000000000000E+00 
    3.7499999999904610E-01     0.0000000000000000E+00     0.0000000000000000E+00 
    4.2499999999890020E-01     0.0000000000000000E+00     0.0000000000000000E+00 
    4.7499999999875958E-01     0.0000000000000000E+00     0.0000000000000000E+00 
    2.4999999999949701E-02     0.0000000000000000E+00     0.0000000000000000E+00 
    5.7499999999887907E-01     0.0000000000000000E+00     0.0000000000000000E+00 
    6.2499999999901101E-01     0.0000000000000000E+00     0.0000000000000000E+00 
    6.7499999999914273E-01     0.0000000000000000E+00     0.0000000000000000E+00 
    7.2499999999927467E-01     0.0000000000000000E+00     0.0000000000000000E+00 
    7.7499999999940661E-01     0.0000000000000000E+00     0.0000000000000000E+00 
    8.2499999999953844E-01     0.0000000000000000E+00     0.0000000000000000E+00 
    8.7499999999967026E-01     0.0000000000000000E+00     0.0000000000000000E+00 
    9.2499999999980220E-01     0.0000000000000000E+00     0.0000000000000000E+00 
    9.7499999999993414E-01     0.0000000000000000E+00     0.0000000000000000E+00 
    5.4999999999881310E-01     0.0000000000000000E+00     0.0000000000000000E+00 
    9.9999999999814140E-02     0.0000000000000000E+00     0.0000000000000000E+00 
    1.4999999999970290E-01     0.0000000000000000E+00     0.0000000000000000E+00 
    1.9999999999955689E-01     0.0000000000000000E+00     0.0000000000000000E+00 
    2.4999999999941089E-01     0.0000000000000000E+00     0.0000000000000000E+00 
    2.9999999999926502E-01     0.0000000000000000E+00     0.0000000000000000E+00 
    3.4999999999911913E-01     0.0000000000000000E+00     0.0000000000000000E+00 
    3.9999999999897312E-01     0.0000000000000000E+00     0.0000000000000000E+00 
    4.4999999999882723E-01     0.0000000000000000E+00     0.0000000000000000E+00 
    4.9999999999869210E-01     0.0000000000000000E+00     0.0000000000000000E+00 
    4.9999999999899403E-02     0.0000000000000000E+00     0.0000000000000000E+00 
    5.9999999999894504E-01     0.0000000000000000E+00     0.0000000000000000E+00 
    6.4999999999907687E-01     0.0000000000000000E+00     0.0000000000000000E+00 
    6.9999999999920870E-01     0.0000000000000000E+00     0.0000000000000000E+00 
    7.4999999999934064E-01     0.0000000000000000E+00     0.0000000000000000E+00 
    7.9999999999947247E-01     0.0000000000000000E+00     0.0000000000000000E+00 
    8.4999999999960441E-01     0.0000000000000000E+00     0.0000000000000000E+00 
    8.9999999999973623E-01     0.0000000000000000E+00     0.0000000000000000E+00 
    9.4999999999986817E-01     0.0000000000000000E+00     0.0000000000000000E+00 
    1.0000000000000000E+00     5.2499999999875258E-01     0.0000000000000000E+00 
    1.0000000000000000E+00     7.4999999999856765E-02     0.0000000000000000E+00 
    1.0000000000000000E+00     1.2499999999975850E-01     0.0000000000000000E+00 
    1.0000000000000000E+00     1.7499999999962990E-01     0.0000000000000000E+00 
    1.0000000000000000E+00     2.2499999999948389E-01     0.0000000000000000E+00 
    1.0000000000000000E+00     2.7499999999933789E-01     0.0000000000000000E+00 
    1.0000000000000000E+00     3.2499999999919210E-01     0.0000000000000000E+00 
    1.0000000000000000E+00     3.7499999999904610E-01     0.0000000000000000E+00 
    1.0000000000000000E+00     4.2499999999890020E-01     0.0000000000000000E+00 
    1.0000000000000000E+00     4.7499999999875958E-01     0.0000000000000000E+00 
    1.0000000000000000E+00     2.4999999999949701E-02     0.0000000000000000E+00 
    1.0000000000000000E+00     5.7499999999887907E-01     0.0000000000000000E+00 
    1.0000000000000000E+00     6.2499999999901101E-01     0.0000000000000000E+00 
    1.0000000000000000E+00     6.7499999999914273E-01     0.0000000000000000E+00 
    1.0000000000000000E+00     7.2499999999927467E-01     0.0000000000000000E+00 
    1.0000000000000000E+00     7.7499999999940661E-01     0.0000000000000000E+00 
    1.0000000000000000E+00     8.2499999999953844E-01     0.0000000000000000E+00 
    1.0000000000000000E+00     8.7499999999967026E-01     0.0000000000000000E+00 
    1.0000000000000000E+00     9.2499999999980220E-01     0.0000000000000000E+00 
    1.0000000000000000E+00     9.7499999999993414E-01     0.0000000000000000E+00 
    1.0000000000000000E+00     5.4999999999881310E-01     0.0000000000000000E+00 
    1.0000000000000000E+00     9.9999999999814140E-02     0.0000000000000000E+00 
    1.0000000000000000E+00     1.4999999999970290E-01     0.0000000000000000E+00 
    1.0000000000000000E+00     1.9999999999955689E-01     0.0000000000000000E+00 
    1.0000000000000000E+00     2.4999999999941089E-01     0.0000000000000000E+00 
    1.0000000000000000E+00     2.9999999999926502E-01     0.0000000000000000E+00 
    1.0000000000000000E+00     3.4999999999911913E-01     0.0000000000000000E+00 
    1.0000000000000000E+00     3.9999999999897312E-01     0.0000000000000000E+00 
    1.0000000000000000E+00     4.4999999999882723E-01     0.0000000000000000E+00 
    1.0000000000000000E+00     4.9999999999869210E-01     0.0000000000000000E+00 
    1.0000000000000000E+00     4.9999999999899403E-02     0.0000000000000000E+00 
    1.0000000000000000E+00     5.9999999999894504E-01     0.0000000000000000E+00 
    1.0000000000000000E+00     6.4999999999907687E-01     0.0000000000000000E+00 
    1.0000000000000000E+00     6.9999999999920870E-01     0.0000000000000000E+00 
    1.0000000000000000E+00     7.4999999999934064E-01     0.0000000000000000E+00 
    1.0000000000000000E+00     7.9999999999947247E-01     0.0000000000000000E+00 
    1.0000000000000000E+00     8.4999999999960441E-01     0.0000000000000000E+00 
    1.0000000000000000E+00     8.9999999999973623E-01     0.0000000000000000E+00 
    1.0000000000000000E+00     9.4999999999986817E-01     0.0000000000000000E+00 
    4.7500000000196618E-01     1.0000000000000000E+00     0.0000000000000000E+00 
    9.2499999999968763E-01     1.0000000000000000E+00     0.0000000000000000E+00 
    8.7499999999961831E-01     1.0000000000000000E+00     0.0000000000000000E+00 
    8.2499999999982654E-01     1.0000000000000000E+00     0.0000000000000000E+00 
    7.7500000000017355E-01     1.0000000000000000E+00     0.0000000000000000E+00 
    7.2500000000052045E-01     1.0000000000000000E+00     0.0000000000000000E+00 
    6.7500000000086724E-01     1.0000000000000000E+00     0.0000000000000000E+00 
    6.2500000000121403E-01     1.0000000000000000E+00     0.0000000000000000E+00 
    5.7500000000156093E-01     1.0000000000000000E+00     0.0000000000000000E+00 
    5.2500000000189684E-01     1.0000000000000000E+00     0.0000000000000000E+00 
    9.7499999999989595E-01     1.0000000000000000E+00     0.0000000000000000E+00 
    4.2500000000176902E-01     1.0000000000000000E+00     0.0000000000000000E+00 
    3.7500000000156092E-01     1.0000000000000000E+00     0.0000000000000000E+00 
    3.2500000000135282E-01     1.0000000000000000E+00     0.0000000000000000E+00 
    2.7500000000114472E-01     1.0000000000000000E+00     0.0000000000000000E+00 
    2.2500000000093659E-01     1.0000000000000000E+00     0.0000000000000000E+00 
    1.7500000000072849E-01     1.0000000000000000E+00     0.0000000000000000E+00 
    1.2500000000052039E-01     1.0000000000000000E+00     0.0000000000000000E+00 
    7.5000000000312261E-02     1.0000000000000000E+00     0.0000000000000000E+00 
    2.5000000000104109E-02     1.0000000000000000E+00     0.0000000000000000E+00 
    4.5000000000187301E-01     1.0000000000000000E+00     0.0000000000000000E+00 
    8.9999999999958358E-01     1.0000000000000000E+00     0.0000000000000000E+00 
    8.4999999999965303E-01     1.0000000000000000E+00     0.0000000000000000E+00 
    8.0000000000000004E-01     1.0000000000000000E+00     0.0000000000000000E+00 
    7.5000000000034706E-01     1.0000000000000000E+00     0.0000000000000000E+00 
    7.0000000000069384E-01     1.0000000000000000E+00     0.0000000000000000E+00 
    6.5000000000104063E-01     1.0000000000000000E+00     0.0000000000000000E+00 
    6.0000000000138742E-01     1.0000000000000000E+00     0.0000000000000000E+00 
    5.5000000000173432E-01     1.0000000000000000E+00     0.0000000000000000E+00 
    5.0000000000205946E-01     1.0000000000000000E+00     0.0000000000000000E+00 
    9.4999999999979179E-01     1.0000000000000000E+00     0.0000000000000000E+00 
    4.0000000000166491E-01     1.0000000000000000E+00     0.0000000000000000E+00 
    3.5000000000145681E-01     1.0000000000000000E+00     0.0000000000000000E+00 
    3.0000000000124871E-01     1.0000000000000000E+00     0.0000000000000000E+00 
    2.5000000000104061E-01     1.0000000000000000E+00     0.0000000000000000E+00 
    2.0000000000083251E-01     1.0000000000000000E+00     0.0000000000000000E+00 
    1.5000000000062441E-01     1.0000000000000000E+00     0.0000000000000000E+00 
    1.0000000000041630E-01     1.0000000000000000E+00     0.0000000000000000E+00 
[...]
CELL_DATA 1600 
SCALARS Pressure double 1 
LOOKUP_TABLE default 

    1.3799124358206210E+00 
    1.3311758263727940E+00 
    1.3285720322762966E+00 
    1.3638202223564191E+00 
    1.3507000931420023E+00 
    1.3245748061569182E+00 
    1.3198999421734969E+00 
    1.3397741765274831E+00 
    1.3304636634885831E+00 
    1.3149505323779906E+00 
    1.3099530989185644E+00 
    1.3223662376573324E+00 
    1.3151991453311491E+00 
    1.3050317029942700E+00 
    1.3002511403122550E+00 
    1.3087607860837980E+00 
    1.3029052507107584E+00 
    1.2956422309651103E+00 
    1.2912166385990558E+00 
    1.2975253592861531E+00 
    1.2925412482818539E+00 
    1.2869755388186617E+00 
    1.2829146642984057E+00 
    1.2878926003087723E+00 
    1.2835332868973861E+00 
    1.2790272123842901E+00 
    1.2753054919596156E+00 
    1.2794276268252043E+00 
    1.2755477383677154E+00 
    1.2717418285374924E+00 
    1.2683290353586185E+00 
    1.2718716409230535E+00 
    1.2683818759784478E+00 
    1.2650606330941196E+00 
    1.2619309262484963E+00 
    1.2650644920711025E+00 
    1.2619082875072483E+00 
    1.2589349998184545E+00 
    1.2560686729656456E+00 
    1.2589042371135011E+00 
    1.2560450508500194E+00 
    1.2533284301081515E+00 
    1.2507113394629374E+00 
    1.2533248262198375E+00 
    1.2507387651065871E+00 
    1.2482149617634108E+00 
    1.2458372453615405E+00 
    1.2482829298396674E+00 
    1.2459540125152551E+00 
    1.2435763956937331E+00 
    1.2414306929610550E+00 
    1.2437490833691629E+00 
    1.2416652610368821E+00 
    1.2393982025623025E+00 
    1.2374762537846578E+00 
    1.2396991897737946E+00 
    1.2378460564425298E+00 
    1.2356603778368136E+00 
    1.2339418197106178E+00 
    1.2360974226717136E+00 
    1.2344357778830375E+00 
    1.2323010274015567E+00 
    1.2306905207215706E+00 
    1.2328205553409237E+00 
    1.2311669618511485E+00 
    1.2290219211744555E+00 
    1.2274521232608613E+00 
    1.2295721755376519E+00 
    1.2282778996346952E+00 
    1.2261964370824736E+00 
    1.2251911836595892E+00 
    1.2272551436521422E+00 
    1.2264395417050624E+00 
    1.2243890156009880E+00 
    1.2237883850441402E+00 
    1.2258289923744454E+00 
    1.2254225037768594E+00 
    1.2233884364623588E+00 
    1.2231886032493586E+00 
    1.2252194219107233E+00 
    1.3042330937172906E+00 
    1.2833424798806319E+00 
    1.2828856835626259E+00 
    1.3033490819203155E+00 
    1.3017091725242236E+00 
    1.2819969632704771E+00 
    1.2807216798799526E+00 
    1.2994801171860013E+00 
    1.2968184709966086E+00 
    1.2791144233534046E+00 
    1.2772318511549885E+00 
    1.2938557533175750E+00 
    1.2906961897399323E+00 
    1.2751281151994565E+00 
    1.2728523667814275E+00 
    1.2874195268338828E+00 
    1.2840853993910888E+00 
    1.2704477080170413E+00 
    1.2679510520209281E+00 
    1.2807377027006615E+00 
    1.2774083806489001E+00 
    1.2653934977210735E+00 
    1.2628009554834920E+00 
    1.2741204840105420E+00 
    1.2708905414602532E+00 
    1.2601948592424901E+00 
    1.2575928702094843E+00 
    1.2677303515743066E+00 
    1.2646483144622698E+00 
    1.2550095226034124E+00 
    1.2524567899103911E+00 
    1.2616504095975958E+00 
    1.2587409074243121E+00 
    1.2499445665176183E+00 
    1.2474810683056654E+00 
    1.2559228832103533E+00 
    1.2531985849612453E+00 
    1.2450731597681992E+00 
    1.2427266162988693E+00 
    1.2505696935836368E+00 
    1.2480375025996653E+00 
    1.2404463295288481E+00 
    1.2382364615109389E+00 
    1.2456030358734618E+00 
    1.2432671140813014E+00 
    1.2361005500604021E+00 
    1.2340415618506384E+00 
    1.2410303727027767E+00 
    1.2388932238553729E+00 
    1.2320618796373812E+00 
    1.2301631894197393E+00 
    1.2368557366046302E+00 
    1.2349173738753254E+00 
    1.2283461865080691E+00 
    1.2266098957788427E+00 
    1.2330764360124993E+00 
    1.2313288094125405E+00 
    1.2249500093091372E+00 
    1.2233543493210797E+00 
    1.2296647935996952E+00 
    1.2280603699858750E+00 
    1.2217897515161038E+00 
    1.2201705109193612E+00 
    1.2264537105573527E+00 
    1.2247775982331341E+00 
    1.2185163929864535E+00 
    1.2171054384173214E+00 
    1.2232675226093994E+00 
    1.2220735953676625E+00 
    1.2159802804079769E+00 
    1.2150499685897500E+00 
    1.2211003410062207E+00 
    1.2203231145070030E+00 
    1.2143065138595475E+00 
    1.2137493904752135E+00 
    1.2197409579631757E+00 
    1.2193532154600482E+00 
    1.2133781994469290E+00 
    1.2131926716461905E+00 
    1.2191594524580009E+00 
    1.2647375630975970E+00 
    1.2470399760597226E+00 
    1.2468348169397145E+00 
    1.2644480873103796E+00 
    1.2638769617511580E+00 
    1.2464278893928156E+00 
    1.2458268455034103E+00 
    1.2630406815756423E+00 
    1.2619614679927700E+00 
    1.2450424876973369E+00 
    1.2440880658440538E+00 
    1.2606651057256590E+00 
    1.2591790338665154E+00 
    1.2429785439838550E+00 
    1.2417299122411967E+00 
    1.2575308421434057E+00 
    1.2557471943290848E+00 
    1.2403585908278452E+00 
    1.2388809469372863E+00 
    1.2538531309564434E+00 
    1.2518716763751194E+00 
    1.2373129267385705E+00 
    1.2356697931891476E+00 
    1.2498236723602107E+00 
    1.2477277694680995E+00 
    1.2339659544681396E+00 
    1.2322148657873051E+00 
    1.2456005205808718E+00 
    1.2434565345265542E+00 
    1.2304289877029855E+00 
    1.2286197857164496E+00 
    1.2413086594222393E+00 
    1.2391681748151682E+00 
    1.2267977581360034E+00 
    1.2249724813707052E+00 
    1.2370449787786393E+00 
    1.2349477611044015E+00 
    1.2231526636991630E+00 
    1.2213461998613051E+00 
    1.2328841569179894E+00 
    1.2308608766368754E+00 
    1.2195602192938964E+00 
    1.2178011200415630E+00 
    1.2288838081911384E+00 
    1.2269580854273108E+00 
    1.2160745774299566E+00 
    1.2143855094170986E+00 
    1.2250881113752257E+00 
    1.2232775133481597E+00 
    1.2127379638826832E+00 
    1.2111348515828451E+00 
    1.2215289800374267E+00 
    1.2198438627241242E+00 
    1.2095773276253521E+00 
    1.2080632231939263E+00 
    1.2182212179412106E+00 
    1.2166552764970335E+00 
    1.2065826080927839E+00 
    1.2051042158175833E+00 
    1.2151281073837157E+00 
    1.2135873031092039E+00 
    1.2035401883469306E+00 
    1.2018938225159692E+00 
    1.2119435080774157E+00 
    1.2103616716983729E+00 
    1.2004444638974185E+00 
    1.1992686882130699E+00 
    1.2090711861810703E+00 
    1.2080121643111992E+00 
    1.1982742819763350E+00 
    1.1974457699284060E+00 
    1.2071310626832010E+00 
    1.2064265997533861E+00 
    1.1967830596153204E+00 
    1.1962860877962049E+00 
    1.2058984994267601E+00 
    1.2055465511583445E+00 
    1.1959548034987248E+00 
    1.1957891706948223E+00 
    1.2053706128270330E+00 
    1.2296035035139026E+00 
    1.2120771622582704E+00 
    1.2119524037355276E+00 
    1.2294474571856666E+00 
    1.2291371860245470E+00 
    1.2117040215437955E+00 
    1.2113346880000817E+00 
    1.2286769334276493E+00 
    1.2280727893215544E+00 
    1.2108482477778018E+00 
    1.2102495954480434E+00 
    1.2273324209599838E+00 
    1.2264647675922331E+00 
    1.2095445323561340E+00 
    1.2087396102318835E+00 
    1.2254797244059532E+00 
    1.2243878382339488E+00 
    1.2078419709704589E+00 
    1.2068591905142902E+00 
    1.2232000307791100E+00 
    1.2219273586527890E+00 
    1.2057991328134072E+00 
    1.2046698178650708E+00 
    1.2205808141558276E+00 
    1.2191711666984730E+00 
    1.2034793060281479E+00 
    1.2022355992707026E+00 
    1.2177088420004223E+00 
    1.2162038345275361E+00 
    1.2009465587641468E+00 
    1.1996198372496123E+00 
    1.2146656477402733E+00 
    1.2131032563770283E+00 
    1.1982628237916388E+00 
    1.1968825977758386E+00 
    1.2115250849126000E+00 
    1.2099389962618681E+00 
    1.1954858881103001E+00 
    1.1940790322412782E+00 
    1.2083522844518666E+00 
    1.2067716639518276E+00 
    1.1926679272159166E+00 
    1.1912579604077413E+00 
    1.2052032459005921E+00 
    1.2036524860706883E+00 
    1.1898538977324147E+00 
    1.1884596837583086E+00 
    1.2021240773628064E+00 
    1.2006217303165485E+00 
    1.1870780430145149E+00 
    1.1857095725372859E+00 
    1.1991477024574564E+00 
    1.1977016723238483E+00 
    1.1843503960025061E+00 
    1.1829854525889567E+00 
    1.1962776972264364E+00 
    1.1948551795781288E+00 
    1.1815668300158368E+00 
    1.1800052314866245E+00 
    1.1933698706331928E+00 
    1.1917499245397287E+00 
    1.1783866103540170E+00 
    1.1769845717343470E+00 
    1.1901862271824659E+00 
    1.1888925548867453E+00 
    1.1758168774186994E+00 
    1.1748033896746397E+00 
    1.1878074596581243E+00 
    1.1868776412197268E+00 
    1.1739346300697659E+00 
    1.1732105886521991E+00 
    1.1861024598251517E+00 
    1.1854821345375441E+00 
    1.1726312924661497E+00 
    1.1721967786795657E+00 
    1.1850168009492967E+00 
    1.1847065409033319E+00 
    1.1719070816449020E+00 
    1.1717622265560326E+00 
    1.1845514005236710E+00 
    1.1942509255766214E+00 
    1.1759898336907733E+00 
    1.1759009285699031E+00 
    1.1941472724878723E+00 
    1.1939407466251195E+00 
    1.1757236872194397E+00 
    1.1754594509160701E+00 
    1.1936331867679759E+00 
    1.1932272299001374E+00 
    1.1751101358382612E+00 
    1.1746781932425261E+00 
    1.1927262459550847E+00 
    1.1921342620063187E+00 
    1.1741665642637142E+00 
    1.1735786286156544E+00 
    1.1914558771703461E+00 
    1.1906961722493572E+00 
    1.1729181490335081E+00 
    1.1721892132598544E+00 
    1.1898606178716211E+00 
    1.1889549842818594E+00 
    1.1713961751297841E+00 
    1.1705435959915169E+00 
    1.1879852552138350E+00 
    1.1869575475140595E+00 
    1.1696361873150039E+00 
    1.1686787548892092E+00 
    1.1858780374215228E+00 
    1.1847528936615721E+00 
    1.1676761444763963E+00 
    1.1666331881292697E+00 
    1.1835882167659315E+00 
    1.1823899832257951E+00 
    1.1655546494718709E+00 
    1.1644451648789866E+00 
    1.1811639921008756E+00 
    1.1799158103104610E+00 
    1.1633091752020051E+00 
    1.1621508383343153E+00 
    1.1786507105455084E+00 
    1.1773735915137156E+00 
    1.1609739033560571E+00 
    1.1597815040667998E+00 
    1.1760888613185774E+00 
    1.1748002430387663E+00 
    1.1585757684336746E+00 
    1.1573569799586358E+00 
    1.1735104036228716E+00 
    1.1722201369413330E+00 
    1.1561215480297125E+00 
    1.1548565613213879E+00 
    1.1709263225557494E+00 
    1.1696162918611468E+00 
    1.1535228833771978E+00 
    1.1520335948007709E+00 
    1.1682499990992570E+00 
    1.1667377675049133E+00 
    1.1503862626334505E+00 
    1.1488389092172298E+00 
    1.1651004214454710E+00 
    1.1636109213152512E+00 
    1.1475448365174357E+00 
    1.1464249407677682E+00 
    1.1623702171984855E+00 
    1.1612940088183836E+00 
    1.1454291509165342E+00 
    1.1445573552276376E+00 
    1.1603520547069659E+00 
    1.1595444370467103E+00 
    1.1438097862476848E+00 
    1.1431866104888302E+00 
    1.1588712651640491E+00 
    1.1583326264000928E+00 
    1.1426879477890715E+00 
    1.1423138836281475E+00 
    1.1579285888906319E+00 
    1.1576592029285260E+00 
    1.1420644768777390E+00 
    1.1419397645572369E+00 
    1.1575245016998608E+00 
    1.1572016737120134E+00 
    1.1378191068188539E+00 
    1.1377481370728448E+00 
    1.1571232558428290E+00 
    1.1569668445896868E+00 
    1.1376065090409342E+00 
    1.1373949898180689E+00 
    1.1567334509176384E+00 
    1.1564245182174266E+00 
    1.1371146822062643E+00 
    1.1367670048422589E+00 
    1.1560418952456781E+00 
    1.1555878058632687E+00 
    1.1363536693731391E+00 
    1.1358766540775871E+00 
    1.1550648144906577E+00 
    1.1544757882462255E+00 
    1.1353381745922062E+00 
    1.1347406521113275E+00 
    1.1538238566364007E+00 
    1.1531123694718135E+00 
    1.1340866791573787E+00 
    1.1333789827277476E+00 
    1.1523448534532776E+00 
    1.1515249675661834E+00 
    1.1326203842135143E+00 
    1.1318137548368850E+00 
    1.1506564570021460E+00 
    1.1497431047411908E+00 
    1.1309619642626398E+00 
    1.1300678181293320E+00 
    1.1487886790572293E+00 
    1.1477968737736937E+00 
    1.1291339767741113E+00 
    1.1281628401573389E+00 
    1.1467712354276098E+00 
    1.1457150661009416E+00 
    1.1271563672287555E+00 
    1.1261157634615560E+00 
    1.1446312792621456E+00 
    1.1435221578543655E+00 
    1.1250408821972988E+00 
    1.1239289605932352E+00 
    1.1423888964714730E+00 
    1.1412306270946084E+00 
    1.1227716595873929E+00 
    1.1215470987730884E+00 
    1.1400421331495703E+00 
    1.1388077486888688E+00 
    1.1201948511102950E+00 
    1.1186533735418211E+00 
    1.1374825966850393E+00 
    1.1359864057868450E+00 
    1.1169786743038346E+00 
    1.1154046616349256E+00 
    1.1343267389004188E+00 
    1.1327512861289510E+00 
    1.1140745328743256E+00 
    1.1129138658099944E+00 
    1.1314260894890011E+00 
    1.1302765216025625E+00 
    1.1118610017319945E+00 
    1.1109137795317137E+00 
    1.1292430659198918E+00 
    1.1283243513914221E+00 
    1.1100720339074399E+00 
    1.1093356489760118E+00 
    1.1275203886588383E+00 
    1.1268312032376544E+00 
    1.1087045461659493E+00 
    1.1081786741356170E+00 
    1.1262568252226357E+00 
    1.1257972837896979E+00 
    1.1077580007528436E+00 
    1.1074425069271849E+00 
    1.1254526042605082E+00 
    1.1252228065278869E+00 
    1.1072321820322604E+00 
    1.1071270206823141E+00 
    1.1251079042098433E+00 
    1.1177883597544329E+00 
    1.0970605145064112E+00 
    1.0969979268436083E+00 
    1.1177225287769523E+00 
    1.1175910758392862E+00 
    1.0968728504306837E+00 
    1.0966856529379965E+00 
    1.1173945651106936E+00 
    1.1171338266205626E+00 
    1.0964369138323131E+00 
    1.0961274116288808E+00 
    1.1168099408557579E+00 
    1.1164242190702518E+00 
    1.0957581034992618E+00 
    1.0953300996213118E+00 
    1.1159781798264223E+00 
    1.1154735223885961E+00 
    1.0948446328856798E+00 
    1.0943030232016879E+00 
    1.1149120969440198E+00 
    1.1142958711126807E+00 
    1.0937066344084656E+00 
    1.0930568200771047E+00 
    1.1136268916175367E+00 
    1.1129072390989507E+00 
    1.0923548519056043E+00 
    1.0916018202730757E+00 
    1.1121389725798312E+00 
    1.1113240571864462E+00 
    1.0907984872114502E+00 
    1.0899450504132360E+00 
    1.1104642626849939E+00 
    1.1095610097522866E+00 
    1.0890407393559851E+00 
    1.0880830802380592E+00 
    1.1086151189649671E+00 
    1.1076263588865802E+00 
    1.0870663846677662E+00 
    1.0859784654565932E+00 
    1.1065925704687867E+00 
    1.1055077972040577E+00 
    1.0847912967485602E+00 
    1.0834425216501504E+00 
    1.1043577338297743E+00 
    1.1031065375689737E+00 
    1.0818947682399016E+00 
    1.0802057593249046E+00 
    1.1016817727472554E+00 
    1.1000596889631371E+00 
    1.0785649303199061E+00 
    1.0771315313130756E+00 
    1.0983794134996201E+00 
    1.0968487749087363E+00 
    1.0758936861870545E+00 
    1.0747807433715393E+00 
    1.0955447917168486E+00 
    1.0943956450063965E+00 
    1.0737542087954690E+00 
    1.0728134228262933E+00 
    1.0933442895267489E+00 
    1.0923890630893354E+00 
    1.0719582171313826E+00 
    1.0711884970609160E+00 
    1.0915297273834499E+00 
    1.0907661094949905E+00 
    1.0705042203528257E+00 
    1.0699053808538344E+00 
    1.0900980880795017E+00 
    1.0895255812969264E+00 
    1.0693919958414682E+00 
    1.0689640960525895E+00 
    1.0890485365729934E+00 
    1.0886669221448373E+00 
    1.0686217178384165E+00 
    1.0683648970594204E+00 
    1.0883807202865219E+00 
    1.0881899220868503E+00 
    1.0681936644565315E+00 
    1.0681080423176281E+00 
    1.0880945236556701E+00 
    1.0755823996994807E+00 
    1.0532824966010905E+00 
    1.0532209350826198E+00 
    1.0755213103438566E+00 
    1.0753990852321529E+00 
    1.0530975269158136E+00 
    1.0529120587842842E+00 
    1.0752158592743088E+00 
    1.0749719332545351E+00 
    1.0526644373992440E+00 
    1.0523546591272805E+00 
    1.0746677601843393E+00 
    1.0743039168284840E+00 
    1.0519827486449143E+00 
    1.0515486800344034E+00 
    1.0738810659343108E+00 
    1.0733999092912958E+00 
    1.0510522796390815E+00 
    1.0504930931371677E+00 
    1.0728611281678304E+00 
    1.0722653036905823E+00 
    1.0498701709625735E+00 
    1.0491817029214388E+00 
    1.0716128045762621E+00 
    1.0709036223850255E+00 
    1.0484244618989436E+00 
    1.0475930416817829E+00 
    1.0701371195261669E+00 
    1.0693116051023515E+00 
    1.0466781814591770E+00 
    1.0456609478260568E+00 
    1.0684235462010758E+00 
    1.0674661304568109E+00 
    1.0445024972416979E+00 
    1.0431612986306340E+00 
    1.0664262562060907E+00 
    1.0652742962324209E+00 
    1.0416454081157891E+00 
    1.0400172878540650E+00 
    1.0639544785533031E+00 
    1.0624396034759283E+00 
    1.0383980521382328E+00 
    1.0369203439243766E+00 
    1.0607784332530583E+00 
    1.0591148996311828E+00 
    1.0356422750685792E+00 
    1.0345291121391060E+00 
    1.0576105372977489E+00 
    1.0563198657885675E+00 
    1.0335066283075549E+00 
    1.0325436246268571E+00 
    1.0551839792141533E+00 
    1.0541341603997336E+00 
    1.0316402105875471E+00 
    1.0307973990260004E+00 
    1.0531578459801856E+00 
    1.0522552865169246E+00 
    1.0300161009431863E+00 
    1.0292971371447259E+00 
    1.0514267533831825E+00 
    1.0506725149289748E+00 
    1.0286412463281061E+00 
    1.0280490909741755E+00 
    1.0499928331146129E+00 
    1.0493879591196635E+00 
    1.0275212615147316E+00 
    1.0270582791998977E+00 
    1.0488581287618910E+00 
    1.0484035581511224E+00 
    1.0266605980131509E+00 
    1.0263286059064498E+00 
    1.0480244397851153E+00 
    1.0477209391802265E+00 
    1.0260626255629424E+00 
    1.0258629148421230E+00 
    1.0474931920712469E+00 
    1.0473413021863625E+00 
    1.0257296670208702E+00 
    1.0256630109113765E+00 
    1.0472653395910096E+00 
    1.0300406222337037E+00 
    1.0056080978304947E+00 
    1.0055314770644668E+00 
    1.0299754369935352E+00 
    1.0298443169089715E+00 
    1.0053765083316177E+00 
    1.0051411429742318E+00 
    1.0296464238404144E+00 
    1.0293809801484000E+00 
    1.0048233159262363E+00 
    1.0044203252572292E+00 
    1.0290471353194000E+00 
    1.0286437437427292E+00 
    1.0039275328859152E+00 
    1.0033362531425829E+00 
    1.0281691054805602E+00 
    1.0276207282482412E+00 
    1.0026316774209458E+00 
    1.0017939572231733E+00 
    1.0269950881541043E+00 
    1.0262869462928963E+00 
    1.0008065888417645E+00 
    9.9967021475726892E-01 
    1.0254869349367566E+00 
    1.0245761823410697E+00 
    9.9840942025766755E-01 
    9.9706534148815118E-01 
    1.0235232940136545E+00 
    1.0223002929700915E+00 
    9.9569033098583914E-01 
    9.9434820325980167E-01 
    1.0209140620139470E+00 
    1.0194099181672349E+00 
    9.9310100064493034E-01 
    9.9199328375237483E-01 
    1.0178614782957696E+00 
    1.0163706189387622E+00 
    9.9102966085662525E-01 
    9.9016093200477295E-01 
    1.0150224318164107E+00 
    1.0138535974876905E+00 
    9.8933324456317462E-01 
    9.8852907009945079E-01 
    1.0128308491663711E+00 
    1.0118841657823283E+00 
    9.8775061357457006E-01 
    9.8700112500919968E-01 
    1.0109812697862923E+00 
    1.0101216630936358E+00 
    9.8628338798632786E-01 
    9.8559990708232015E-01 
    1.0093073873919465E+00 
    1.0085402359977287E+00 
    9.8495293459810074E-01 
    9.8434449599644402E-01 
    1.0078218172844924E+00 
    1.0071535725259100E+00 
    9.8377641090332069E-01 
    9.8325031052569833E-01 
    1.0065367910878587E+00 
    1.0059726231003367E+00 
    9.8276765211198580E-01 
    9.8232973094073384E-01 
    1.0054620898888726E+00 
    1.0050060924636919E+00 
    9.8193769022751920E-01 
    9.8159252927056173E-01 
    1.0046054183570241E+00 
    1.0042607470747140E+00 
    9.8129511010191928E-01 
    9.8104616286711033E-01 