# vtk DataFile Version 2.0
Pressure Field Data 
ASCII 
DATASET UNSTRUCTURED_GRID 

POINTS 1681 double 

    0.0000000000000000E+00     0.0000000000000000E+00     0.0000000000000000E+00 
    1.0000000000000000E+00     0.0000000000000000E+00     0.0000000000000000E+00 
    1.0000000000000000E+00     1.0000000000000000E+00     0.0000000000000000E+00 
    0.0000000000000000E+00     1.0000000000000000E+00     0.0000000000000000E+00 
    5.2499999999875258E-01     0.0000000000000000E+00     0.0000000000000000E+00 
    7.4999999999856765E-02     0.0000000000000000E+00     0.0000000000000000E+00 
    1.2499999999975850E-01     0.0000000000000000E+00     0.0000000000000000E+00 
    1.7499999999962990E-01     0.0000000000000000E+00     0.0000000000000000E+00 
    2.2499999999948389E-01     0.0000000000000000E+00     0.0000000000000000E+00 
    2.7499999999933789E-01     0.0000000000000000E+00     0.0000000000000000E+00 
    3.2499999999919210E-01     0.0000000000000000E+00     0.0000000000000000E+00 
    3.7499999999904610E-01     0.0000000000000000E+00     0.0000000000000000E+00 
    4.2499999999890020E-01     0.0000000000000000E+00     0.0000000000000000E+00 
    4.7499999999875958E-01     0.0000000000000000E+00     0.0000000000000000E+00 
    2.4999999999949701E-02     0.0000000000000000E+00     0.0000000000000000E+00 
    5.7499999999887907E-01     0.0000000000000000E+00     0.0000000000000000E+00 
    6.2499999999901101E-01     0.0000000000000000E+00     0.0000000000000000E+00 
    6.7499999999914273E-01     0.0000000000000000E+00     0.0000000000000000E+00 
    7.2499999999927467E-01     0.0000000000000000E+00     0.0000000000000000E+00 
    7.7499999999940661E-01     0.0000000000000000E+00     0.0000000000000000E+00 
    8.2499999999953844E-01     0.0000000000000000E+00     0.0000000000000000E+00 
    8.7499999999967026E-01     0.0000000000000000E+00     0.0000000000000000E+00 
    9.2499999999980220E-01     0.0000000000000000E+00     0.0000000000000000E+00 
    9.7499999999993414E-01     0.0000000000000000E+00     0.0000000000000000E+00 
    5.4999999999881310E-01     0.0000000000000000E+00     0.0000000000000000E+00 
    9.9999999999814140E-02     0.0000000000000000E+00     0.0000000000000000E+00 
    1.4999999999970290E-01     0.0000000000000000E+00     0.0000000000000000E+00 
    1.9999999999955689E-01     0.0000000000000000E+00     0.0000000000000000E+00 
    2.4999999999941089E-01     0.0000000000000000E+00     0.0000000000000000E+00 
    2.9999999999926502E-01     0.0000000000000000E+00     0.0000000000000000E+00 
    3.4999999999911913E-01     0.0000000000000000E+00     0.0000000000000000E+00 
    3.9999999999897312E-01     0.0000000000000000E+00     0.0000000000000000E+00 
    4.4999999999882723E-01     0.0000000000000000E+00     0.0000000000000000E+00 
    4.9999999999869210E-01     0.0000000000000000E+00     0.0000000000000000E+00 
    4.9999999999899403E-02     0.0000000000000000E+00     0.0000000000000000E+00 
    5.9999999999894504E-01     0.0000000000000000E+00     0.0000000000000000E+00 
    6.4999999999907687E-01     0.0000000000000000E+00     0.0000000000000000E+00 
    6.9999999999920870E-01     0.0000000000000000E+00     0.0000000000000000E+00 
    7.4999999999934064E-01     0.0000000000000000E+00     0.0000000000000000E+00 
    7.9999999999947247E-01     0.0000000000000000E+00     0.0000000000000000E+00 
    8.4999999999960441E-01     0.0000000000000000E+00     0.0000000000000000E+00 
    8.9999999999973623E-01     0.0000000000000000E+00     0.0000000000000000E+00 
    9.4999999999986817E-01     0.0000000000000000E+00     0.0000000000000000E+00 
    1.0000000000000000E+00     5.2499999999875258E-01     0.0000000000000000E+00 
    1.0000000000000000E+00     7.4999999999856765E-02     0.0000000000000000E+00 
    1.0000000000000000E+00     1.2499999999975850E-01     0.0000000000000000E+00 
    1.0000000000000000E+00     1.7499999999962990E-01     0.0000000000000000E+00 
    1.0000000000000000E+00     2.2499999999948389E-01     0.0000000000000000E+00 
    1.0000000000000000E+00     2.7499999999933789E-01     0.0000000000000000E+00 
    1.0000000000000000E+00     3.2499999999919210E-01     0.0000000000000000E+00 
    1.0000000000000000E+00     3.7499999999904610E-01     0.0000000000000000E+00 
    1.0000000000000000E+00     4.2499999999890020E-01     0.0000000000000000E+00 
    1.0000000000000000E+00     4.7499999999875958E-01     0.0000000000000000E+00 
    1.0000000000000000E+00     2.4999999999949701E-02     0.0000000000000000E+00 
    1.0000000000000000E+00     5.7499999999887907E-01     0.0000000000000000E+00 
    1.0000000000000000E+00     6.2499999999901101E-01     0.0000000000000000E+00 
    1.0000000000000000E+00     6.7499999999914273E-01     0.0000000000000000E+00 
    1.0000000000000000E+00     7.2499999999927467E-01     0.0000000000000000E+00 
    1.0000000000000000E+00     7.7499999999940661E-01     0.0000000000000000E+00 
    1.0000000000000000E+00     8.2499999999953844E-01     0.0000000000000000E+00 
    1.0000000000000000E+00     8.7499999999967026E-01     0.0000000000000000E+00 
    1.0000000000000000E+00     9.2499999999980220E-01     0.0000000000000000E+00 
    1.0000000000000000E+00     9.7499999999993414E-01     0.0000000000000000E+00 
    1.0000000000000000E+00     5.4999999999881310E-01     0.0000000000000000E+00 
    1.0000000000000000E+00     9.9999999999814140E-02     0.0000000000000000E+00 
    1.0000000000000000E+00     1.4999999999970290E-01     0.0000000000000000E+00 
    1.0000000000000000E+00     1.9999999999955689E-01     0.0000000000000000E+00 
    1.0000000000000000E+00     2.4999999999941089E-01     0.0000000000000000E+00 
    1.0000000000000000E+00     2.9999999999926502E-01     0.0000000000000000E+00 
    1.0000000000000000E+00     3.4999999999911913E-01     0.0000000000000000E+00 
    1.0000000000000000E+00     3.9999999999897312E-01     0.0000000000000000E+00 
    1.0000000000000000E+00     4.4999999999882723E-01     0.0000000000000000E+00 
    1.0000000000000000E+00     4.9999999999869210E-01     0.0000000000000000E+00 
    1.0000000000000000E+00     4.9999999999899403E-02     0.0000000000000000E+00 
    1.0000000000000000E+00     5.9999999999894504E-01     0.0000000000000000E+00 
    1.0000000000000000E+00     6.4999999999907687E-01     0.0000000000000000E+00 
    1.0000000000000000E+00     6.9999999999920870E-01     0.0000000000000000E+00 
    1.0000000000000000E+00     7.4999999999934064E-01     0.0000000000000000E+00 
    1.0000000000000000E+00     7.9999999999947247E-01     0.0000000000000000E+00 
    1.0000000000000000E+00     8.4999999999960441E-01     0.0000000000000000E+00 
    1.0000000000000000E+00     8.9999999999973623E-01     0.0000000000000000E+00 
    1.0000000000000000E+00     9.4999999999986817E-01     0.0000000000000000E+00 
    4.7500000000196618E-01     1.0000000000000000E+00     0.0000000000000000E+00 
    9.2499999999968763E-01     1.0000000000000000E+00     0.0000000000000000E+00 
    8.7499999999961831E-01     1.0000000000000000E+00     0.0000000000000000E+00 
    8.2499999999982654E-01     1.0000000000000000E+00     0.0000000000000000E+00 
    7.7500000000017355E-01     1.0000000000000000E+00     0.0000000000000000E+00 
    7.2500000000052045E-01     1.0000000000000000E+00     0.0000000000000000E+00 
    6.7500000000086724E-01     1.0000000000000000E+00     0.0000000000000000E+00 
    6.2500000000121403E-01     1.0000000000000000E+00     0.0000000000000000E+00 
    5.7500000000156093E-01     1.0000000000000000E+00     0.0000000000000000E+00 
    5.2500000000189684E-01     1.0000000000000000E+00     0.0000000000000000E+00 
    9.7499999999989595E-01     1.0000000000000000E+00     0.0000000000000000E+00 
    4.2500000000176902E-01     1.0000000000000000E+00     0.0000000000000000E+00 
    3.7500000000156092E-01     1.0000000000000000E+00     0.0000000000000000E+00 
    3.2500000000135282E-01     1.0000000000000000E+00     0.0000000000000000E+00 
    2.7500000000114472E-01     1.0000000000000000E+00     0.0000000000000000E+00 
    2.2500000000093659E-01     1.0000000000000000E+00     0.0000000000000000E+00 
    1.7500000000072849E-01     1.0000000000000000E+00     0.0000000000000000E+00 
    1.2500000000052039E-01     1.0000000000000000E+00     0.0000000000000000E+00 
    7.5000000000312261E-02     1.0000000000000000E+00     0.0000000000000000E+00 
    2.5000000000104109E-02     1.0000000000000000E+00     0.0000000000000000E+00 
    4.5000000000187301E-01     1.0000000000000000E+00     0.0000000000000000E+00 
    8.9999999999958358E-01     1.0000000000000000E+00     0.0000000000000000E+00 
    8.4999999999965303E-01     1.0000000000000000E+00     0.0000000000000000E+00 
    8.0000000000000004E-01     1.0000000000000000E+00     0.0000000000000000E+00 
    7.5000000000034706E-01     1.0000000000000000E+00     0.0000000000000000E+00 
    7.0000000000069384E-01     1.0000000000000000E+00     0.0000000000000000E+00 
    6.5000000000104063E-01     1.0000000000000000E+00     0.0000000000000000E+00 
    6.0000000000138742E-01     1.0000000000000000E+00     0.0000000000000000E+00 
    5.5000000000173432E-01     1.0000000000000000E+00     0.0000000000000000E+00 
    5.0000000000205946E-01     1.0000000000000000E+00     0.0000000000000000E+00 
    9.4999999999979179E-01     1.0000000000000000E+00     0.0000000000000000E+00 
    4.0000000000166491E-01     1.0000000000000000E+00     0.0000000000000000E+00 
    3.5000000000145681E-01     1.0000000000000000E+00     0.0000000000000000E+00 
    3.0000000000124871E-01     1.0000000000000000E+00     0.0000000000000000E+00 
    2.5000000000104061E-01     1.0000000000000000E+00     0.0000000000000000E+00 
    2.0000000000083251E-01     1.0000000000000000E+00     0.0000000000000000E+00 
    1.5000000000062441E-01     1.0000000000000000E+00     0.0000000000000000E+00 
    1.0000000000041630E-01     1.0000000000000000E+00     0.0000000000000000E+00 
[...]
CELL_DATA 1600 
SCALARS Pressure double 1 
LOOKUP_TABLE default 

    1.3235415279475620E+00 
    1.2756901849122864E+00 
    1.2731571943827387E+00 
    1.3075960496397534E+00 
    1.2946860953197581E+00 
    1.2692897796955633E+00 
    1.2647896922700743E+00 
    1.2840032244687598E+00 
    1.2749616552957925E+00 
    1.2600519319461676E+00 
    1.2552967387970400E+00 
    1.2671545421052646E+00 
    1.2602956150222113E+00 
    1.2506430247074549E+00 
    1.2461512584558092E+00 
    1.2541803310712998E+00 
    1.2486602329286032E+00 
    1.2418485808085744E+00 
    1.2377435067837779E+00 
    1.2436258990840081E+00 
    1.2389954793551310E+00 
    1.2338345053032145E+00 
    1.2301149721561608E+00 
    1.2347068886732704E+00 
    1.2307124214364451E+00 
    1.2265760774530123E+00 
    1.2232083622236918E+00 
    1.2269749857791490E+00 
    1.2234654349876555E+00 
    1.2200026018166590E+00 
    1.2169502428435635E+00 
    1.2201606511635876E+00 
    1.2170421510731317E+00 
    1.2140435953972784E+00 
    1.2112758879587271E+00 
    1.2140950589591528E+00 
    1.2113073403527006E+00 
    1.2086412481396240E+00 
    1.2061346459972206E+00 
    1.2086692236662449E+00 
    1.2061727583246915E+00 
    1.2037518208784104E+00 
    1.2014892032918190E+00 
    1.2038114730464884E+00 
    1.2015801079541999E+00 
    1.1993438375625873E+00 
    1.1973133073718472E+00 
    1.1994744009288585E+00 
    1.1974909128657014E+00 
    1.1953956636171019E+00 
    1.1935893514060212E+00 
    1.1956268785463708E+00 
    1.1938800693512110E+00 
    1.1918931292060673E+00 
    1.1903059659298372E+00 
    1.1922486493821982E+00 
    1.1907309930946888E+00 
    1.1888268855312858E+00 
    1.1874546879175092E+00 
    1.1893253966975632E+00 
    1.1880295197873887E+00 
    1.1861873674598711E+00 
    1.1850208040424337E+00 
    1.1868391706903463E+00 
    1.1857456402450168E+00 
    1.1839458472855897E+00 
    1.1829420187729249E+00 
    1.1847300449956994E+00 
    1.1837532883289204E+00 
    1.1819666572381995E+00 
    1.1810246985248645E+00 
    1.1828045338655622E+00 
    1.1820433109196691E+00 
    1.1802795639399259E+00 
    1.1797606305169921E+00 
    1.1815142697764311E+00 
    1.1811650292751721E+00 
    1.1794173564901951E+00 
    1.1792458503098018E+00 
    1.1809905584601388E+00 
    1.2499262541027467E+00 
    1.2303993439465812E+00 
    1.2299771892021321E+00 
    1.2490869680409715E+00 
    1.2475353066636752E+00 
    1.2291574977140813E+00 
    1.2279841432191578E+00 
    1.2454341731829548E+00 
    1.2429360124356443E+00 
    1.2265097254683905E+00 
    1.2247885979989461E+00 
    1.2401682702085253E+00 
    1.2372312758718991E+00 
    1.2228724391339099E+00 
    1.2208078669702200E+00 
    1.2342011323425388E+00 
    1.2311341211516644E+00 
    1.2186354724099318E+00 
    1.2163897371989492E+00 
    1.2280710879641614E+00 
    1.2250412270390589E+00 
    1.2140994472449209E+00 
    1.2117883414466473E+00 
    1.2220651247256369E+00 
    1.2191571090563009E+00 
    1.2094758354233741E+00 
    1.2071777284581928E+00 
    1.2163270172025500E+00 
    1.2135815019913772E+00 
    1.2049068468432904E+00 
    1.2026736043971471E+00 
    1.2109249858249611E+00 
    1.2083603507722909E+00 
    1.2004864768491967E+00 
    1.1983523952320401E+00 
    1.2058894341296709E+00 
    1.2035133819475889E+00 
    1.1962770672742749E+00 
    1.1942652369499338E+00 
    1.2012328994959531E+00 
    1.1990484271553452E+00 
    1.1923208920093487E+00 
    1.1904474282012438E+00 
    1.1969602622490561E+00 
    1.1949686412767127E+00 
    1.1886477773732613E+00 
    1.1869245048346555E+00 
    1.1930737922920129E+00 
    1.1912759631856864E+00 
    1.1852798791709547E+00 
    1.1837159146687897E+00 
    1.1895754276464996E+00 
    1.1879724653597750E+00 
    1.1822343815064289E+00 
    1.1808367690276016E+00 
    1.1864673040057301E+00 
    1.1850599913547779E+00 
    1.1795241647397308E+00 
    1.1782969522038160E+00 
    1.1837501172942975E+00 
    1.1825361788855508E+00 
    1.1771540771545175E+00 
    1.1760912982088843E+00 
    1.1814140987494179E+00 
    1.1803738738229688E+00 
    1.1750971695905787E+00 
    1.1741437522064584E+00 
    1.1793921310345310E+00 
    1.1784207691145479E+00 
    1.1731787596364225E+00 
    1.1722882933151617E+00 
    1.1774976600041753E+00 
    1.1767845243176493E+00 
    1.1716187893748620E+00 
    1.1711423294295433E+00 
    1.1762840996951018E+00 
    1.1759520220830546E+00 
    1.1708253333114385E+00 
    1.1706668931261568E+00 
    1.1757860803555407E+00 
    1.2133205409275616E+00 
    1.1972983233772374E+00 
    1.1971185910249198E+00 
    1.2130601294555947E+00 
    1.2125469687127053E+00 
    1.1967623720912082E+00 
    1.1962367577515154E+00 
    1.2117967293795531E+00 
    1.2108304726466226E+00 
    1.1955517666744102E+00 
    1.1947196776869018E+00 
    1.2096725617870565E+00 
    1.2083488234251198E+00 
    1.1937543315884334E+00 
    1.1926704786564013E+00 
    1.2068851089822137E+00 
    1.2053062752451107E+00 
    1.1914832169594145E+00 
    1.1902075408191035E+00 
    1.2036355348687249E+00 
    1.2018941016545694E+00 
    1.1888580007298521E+00 
    1.1874484650663475E+00 
    1.2001010534086596E+00 
    1.1982733446492058E+00 
    1.1859919684006712E+00 
    1.1845006295178422E+00 
    1.1964259149337444E+00 
    1.1945718521146220E+00 
    1.1829856228157580E+00 
    1.1814571886188838E+00 
    1.1927225815922460E+00 
    1.1908880620335378E+00 
    1.1799246702861115E+00 
    1.1783965683904500E+00 
    1.1890769751049104E+00 
    1.1872969018526025E+00 
    1.1768806044297755E+00 
    1.1753837883626927E+00 
    1.1855544818396497E+00 
    1.1838555533830732E+00 
    1.1739124856952063E+00 
    1.1724724808446236E+00 
    1.1822052745180796E+00 
    1.1806082248403043E+00 
    1.1710690340346086E+00 
    1.1697069289154411E+00 
    1.1790684882062796E+00 
    1.1775897152775829E+00 
    1.1683905071654357E+00 
    1.1671236837960117E+00 
    1.1761751625822157E+00 
    1.1748276998054357E+00 
    1.1659099309093000E+00 
    1.1647522030247077E+00 
    1.1735497657874516E+00 
    1.1723432254193684E+00 
    1.1636527382113551E+00 
    1.1626125650649612E+00 
    1.1712090029897291E+00 
    1.1701461755530147E+00 
    1.1616302980936017E+00 
    1.1606992694467650E+00 
    1.1691498034214374E+00 
    1.1682058450479118E+00 
    1.1598005560756186E+00 
    1.1588860046510059E+00 
    1.1672788242096339E+00 
    1.1663248417977590E+00 
    1.1579516441776481E+00 
    1.1571744626212490E+00 
    1.1654826644890708E+00 
    1.1648624830255954E+00 
    1.1566045024835179E+00 
    1.1561832066534579E+00 
    1.1644127173441945E+00 
    1.1641130856603121E+00 
    1.1559023373443198E+00 
    1.1557618987986691E+00 
    1.1639633040439914E+00 
    1.1816794980132852E+00 
    1.1661101760870280E+00 
    1.1660064720825889E+00 
    1.1815463334349059E+00 
    1.1812816991420398E+00 
    1.1658000945907012E+00 
    1.1654933971155237E+00 
    1.1808894217762018E+00 
    1.1803750168521563E+00 
    1.1650897880546660E+00 
    1.1645936239276071E+00 
    1.1797454414177191E+00 
    1.1790088089375614E+00 
    1.1640100796741666E+00 
    1.1633450060581940E+00 
    1.1781740942002126E+00 
    1.1772508501387078E+00 
    1.1626047835574664E+00 
    1.1617961803530157E+00 
    1.1762489515581522E+00 
    1.1751783744726487E+00 
    1.1609262201126649E+00 
    1.1600020633890789E+00 
    1.1740490146128701E+00 
    1.1728705448585743E+00 
    1.1590309047759870E+00 
    1.1580198865781552E+00 
    1.1716523088088426E+00 
    1.1704032462220804E+00 
    1.1569760286812052E+00 
    1.1559061735416722E+00 
    1.1691318453861081E+00 
    1.1678461173718580E+00 
    1.1548169447129324E+00 
    1.1537147170214188E+00 
    1.1665535873720707E+00 
    1.1652612987603401E+00 
    1.1526055963458812E+00 
    1.1514954068620673E+00 
    1.1639758259945781E+00 
    1.1627032929263821E+00 
    1.1503896835194112E+00 
    1.1492936673154264E+00 
    1.1614493933636019E+00 
    1.1602194107414032E+00 
    1.1482123004712090E+00 
    1.1471502175925219E+00 
    1.1590182332738044E+00 
    1.1578503595445981E+00 
    1.1461117266739183E+00 
    1.1451007687240324E+00 
    1.1567198861195549E+00 
    1.1556304606564716E+00 
    1.1441208323078385E+00 
    1.1431747667962113E+00 
    1.1545851631310946E+00 
    1.1535862216805675E+00 
    1.1422643541066322E+00 
    1.1413892976876567E+00 
    1.1526343262964274E+00 
    1.1517269779611787E+00 
    1.1405448226417116E+00 
    1.1397157165341112E+00 
    1.1508545289449916E+00 
    1.1499899005535392E+00 
    1.1388595967757147E+00 
    1.1379364298954353E+00 
    1.1490730330516468E+00 
    1.1481737806631960E+00 
    1.1370997490558614E+00 
    1.1364639791999813E+00 
    1.1474685622096223E+00 
    1.1469427862392263E+00 
    1.1359739732143630E+00 
    1.1356063735968693E+00 
    1.1465495569972703E+00 
    1.1462872813934801E+00 
    1.1353612023703921E+00 
    1.1352385844296113E+00 
    1.1461561080969147E+00 
    1.1503803913862629E+00 
    1.1343578283734363E+00 
    1.1342877749485216E+00 
    1.1502964867061569E+00 
    1.1501293786153683E+00 
    1.1341481858062525E+00 
    1.1339402262199485E+00 
    1.1498806636382768E+00 
    1.1495526461065411E+00 
    1.1336655658455963E+00 
    1.1333263485771077E+00 
    1.1491482850358643E+00 
    1.1486711282977407E+00 
    1.1329251555259630E+00 
    1.1324649621439504E+00 
    1.1481252376870639E+00 
    1.1475151090344959E+00 
    1.1319490914550514E+00 
    1.1313811652071493E+00 
    1.1468455910227033E+00 
    1.1461218057725355E+00 
    1.1307650545470884E+00 
    1.1301048315843010E+00 
    1.1453490736137455E+00 
    1.1445328437921907E+00 
    1.1294047229443112E+00 
    1.1286690661364958E+00 
    1.1436786322371384E+00 
    1.1427919669505264E+00 
    1.1279022692835339E+00 
    1.1271087744915917E+00 
    1.1418783411009936E+00 
    1.1409431735102014E+00 
    1.1262930248822740E+00 
    1.1254594350529186E+00 
    1.1399917758953915E+00 
    1.1390293259559214E+00 
    1.1246123644622918E+00 
    1.1237560929165815E+00 
    1.1380608451238745E+00 
    1.1370911794785536E+00 
    1.1228947968826244E+00 
    1.1220325246336520E+00 
    1.1361249818469950E+00 
    1.1351666922766197E+00 
    1.1211731669115128E+00 
    1.1203204171116647E+00 
    1.1342205124370706E+00 
    1.1332903660235374E+00 
    1.1194777090427712E+00 
    1.1186481061950915E+00 
    1.1323798290859017E+00 
    1.1314919939102990E+00 
    1.1178340823455415E+00 
    1.1170370519692197E+00 
    1.1306291787952201E+00 
    1.1297922714817072E+00 
    1.1162563187886085E+00 
    1.1154866361727369E+00 
    1.1289792036079933E+00 
    1.1281812904369366E+00 
    1.1147120290086701E+00 
    1.1138873298804064E+00 
    1.1273733757875291E+00 
    1.1264919959127797E+00 
    1.1129660952797704E+00 
    1.1120962926800646E+00 
    1.1255735482630986E+00 
    1.1248172491775645E+00 
    1.1114182275320637E+00 
    1.1108808192874526E+00 
    1.1242404087543765E+00 
    1.1237826197897156E+00 
    1.1104505345869264E+00 
    1.1101274620109958E+00 
    1.1234389062912908E+00 
    1.1232095904903379E+00 
    1.1099119119577481E+00 
    1.1098040869228396E+00 
    1.1230948813546382E+00 
    1.1179556703228184E+00 
    1.1011154312760838E+00 
    1.1010625352890617E+00 
    1.1178955545918237E+00 
    1.1177757275529963E+00 
    1.1009570711630141E+00 
    1.1007997577957369E+00 
    1.1175970868576615E+00 
    1.1173609079539386E+00 
    1.1005916090137864E+00 
    1.1003339199359703E+00 
    1.1170688248156611E+00 
    1.1167228070631465E+00 
    1.1000282515630901E+00 
    1.0996764129012890E+00 
    1.1163251333354165E+00 
    1.1158783619175485E+00 
    1.0992804411748980E+00 
    1.0988425806572297E+00 
    1.1153852995702800E+00 
    1.1148489694147790E+00 
    1.0983652605841276E+00 
    1.0978510725547344E+00 
    1.1142725786229772E+00 
    1.1136594865468203E+00 
    1.0973027477570629E+00 
    1.0967231342755570E+00 
    1.1130131737871907E+00 
    1.1123372125567610E+00 
    1.0961151746394742E+00 
    1.0954818836485467E+00 
    1.1116352385309782E+00 
    1.1109109242033322E+00 
    1.0948263263534290E+00 
    1.0941515958471639E+00 
    1.1101679535527291E+00 
    1.1094099975661682E+00 
    1.0934607901896019E+00 
    1.0927569872433496E+00 
    1.1086406897861005E+00 
    1.1078636004544928E+00 
    1.0920432152280826E+00 
    1.0913224149220280E+00 
    1.1070822067559294E+00 
    1.1062998545339233E+00 
    1.0905973855523028E+00 
    1.0898706981296749E+00 
    1.1055197023202417E+00 
    1.1047446282169582E+00 
    1.0891445416025067E+00 
    1.0884204264087243E+00 
    1.1039770562158622E+00 
    1.1032186032594673E+00 
    1.0876985778048232E+00 
    1.0869766282899642E+00 
    1.1024693202067866E+00 
    1.1017259863567850E+00 
    1.0862465835939865E+00 
    1.0854866755380030E+00 
    1.1009779781125257E+00 
    1.1001954711163751E+00 
    1.0846370885054053E+00 
    1.0836715238871113E+00 
    1.0993091582424972E+00 
    1.0983658598147488E+00 
    1.0827770433361317E+00 
    1.0820727150252678E+00 
    1.0975777195584646E+00 
    1.0969617373158473E+00 
    1.0814951910469535E+00 
    1.0810131122370648E+00 
    1.0964533893520076E+00 
    1.0960463281541755E+00 
    1.0806268662461502E+00 
    1.0803368591147609E+00 
    1.0957407925038700E+00 
    1.0955369832417627E+00 
    1.0801433729005967E+00 
    1.0800465863658750E+00 
    1.0954350421421737E+00 
    1.0837970623299953E+00 
    1.0659728609914019E+00 
    1.0659289436740711E+00 
    1.0837494078750769E+00 
    1.0836543705499200E+00 
    1.0658413358928078E+00 
    1.0657105322968123E+00 
    1.0835125417545108E+00 
    1.0833247512206989E+00 
    1.0655372258181663E+00 
    1.0653222992319413E+00 
    1.0830920565720317E+00 
    1.0828157321021508E+00 
    1.0650668163789063E+00 
    1.0647720120776882E+00 
    1.0824972558386761E+00 
    1.0821382952393175E+00 
    1.0644392809892578E+00 
    1.0640701656424072E+00 
    1.0817406918377861E+00 
    1.0813064450952952E+00 
    1.0636663437538716E+00 
    1.0632296149178404E+00 
    1.0808376956618690E+00 
    1.0803367081971347E+00 
    1.0627618866787689E+00 
    1.0622651599230271E+00 
    1.0798058538313948E+00 
    1.0792475922543199E+00 
    1.0617415134078889E+00 
    1.0611930870559694E+00 
    1.0786644532861176E+00 
    1.0780590175911464E+00 
    1.0606220633423649E+00 
    1.0600306456120754E+00 
    1.0774338958865717E+00 
    1.0767917054670082E+00 
    1.0594210312446255E+00 
    1.0587953758789896E+00 
    1.0761350419249482E+00 
    1.0754664421727544E+00 
    1.0581557416907048E+00 
    1.0575040162482010E+00 
    1.0747883313385089E+00 
    1.0741029388296590E+00 
    1.0568417754154324E+00 
    1.0561700364153632E+00 
    1.0734121536855348E+00 
    1.0727172566346777E+00 
    1.0554887878801622E+00 
    1.0547960437227071E+00 
    1.0720183947056210E+00 
    1.0713134927753816E+00 
    1.0540857780654946E+00 
    1.0533427887198676E+00 
    1.0705958217340059E+00 
    1.0698477836885292E+00 
    1.0525270990050271E+00 
    1.0515680959000386E+00 
    1.0690216518819433E+00 
    1.0680579592687445E+00 
    1.0505242562974428E+00 
    1.0496210458532180E+00 
    1.0670772938006952E+00 
    1.0662765590924763E+00 
    1.0488941716443474E+00 
    1.0482724250989788E+00 
    1.0656291344940301E+00 
    1.0650759742190659E+00 
    1.0477398284360595E+00 
    1.0472961406784966E+00 
    1.0646145069334052E+00 
    1.0642450157428676E+00 
    1.0469412452288678E+00 
    1.0466750899813235E+00 
    1.0639677165534012E+00 
    1.0637827657650063E+00 
    1.0464976559689718E+00 
    1.0464089388962783E+00 
    1.0636902652426559E+00 
    1.0476234631336938E+00 
    1.0287349640741104E+00 
    1.0286951303069354E+00 
    1.0475820868201811E+00 
    1.0474995225448942E+00 
    1.0286156149379739E+00 
    1.0284967661358293E+00 
    1.0473761866912379E+00 
    1.0472126647187738E+00 
    1.0283390792672058E+00 
    1.0281431909633809E+00 
    1.0470097041216160E+00 
    1.0467682070702684E+00 
    1.0279098724773843E+00 
    1.0276400217798831E+00 
    1.0464892218879953E+00 
    1.0461739336161140E+00 
    1.0273346546935922E+00 
    1.0269948951737904E+00 
    1.0458236538167269E+00 
    1.0454398096557929E+00 
    1.0266219646782087E+00 
    1.0262171704109617E+00 
    1.0450239322221675E+00 
    1.0445776439460541E+00 
    1.0257818920483446E+00 
    1.0253175663630054E+00 
    1.0441026448673669E+00 
    1.0436006973247203E+00 
    1.0248256688617599E+00 
    1.0243076908697106E+00 
    1.0430736082905829E+00 
    1.0425232080027391E+00 
    1.0237651092911322E+00 
    1.0231993445487912E+00 
    1.0419513226495847E+00 
    1.0413597371414254E+00 
    1.0226116988649301E+00 
    1.0220032603927478E+00 
    1.0407501407243298E+00 
    1.0401240421448898E+00 
    1.0213747467719749E+00 
    1.0207262359262981E+00 
    1.0394826287001511E+00 
    1.0388265188099122E+00 
    1.0200566775527693E+00 
    1.0193629429252848E+00 
    1.0381553029713924E+00 
    1.0374666399918320E+00 
    1.0186378037453923E+00 
    1.0178649240780155E+00 
    1.0367543188989703E+00 
    1.0360034917998380E+00 
    1.0170040337738324E+00 
    1.0159832002608953E+00 
    1.0351764635237337E+00 
    1.0342000084752174E+00 
    1.0148202693167678E+00 
    1.0137439150855465E+00 
    1.0330975529409483E+00 
    1.0320991092374485E+00 
    1.0128782263211324E+00 
    1.0121457586496725E+00 
    1.0312984557920035E+00 
    1.0306189093408646E+00 
    1.0114956164414211E+00 
    1.0109269900786257E+00 
    1.0300242929354992E+00 
    1.0295145935994736E+00 
    1.0104397879549647E+00 
    1.0100339259598123E+00 
    1.0290898513442390E+00 
    1.0287500726940204E+00 
    1.0097093300239453E+00 
    1.0094659385760412E+00 
    1.0284952510573242E+00 
    1.0283253767763565E+00 
    1.0093037043039650E+00 
    1.0092225952209999E+00 
    1.0282404418233657E+00 
    1.0092965298342358E+00 
    9.8929790818543151E-01 
    9.8925855775320337E-01 
    1.0092573562796709E+00 
    1.0091791235098369E+00 
    9.8917992621508033E-01 
    9.8906222437450197E-01 
    1.0090621141456881E+00 
    1.0089067411468404E+00 
    9.8890577978483873E-01 
    9.8871103280993677E-01 
    1.0087135428789742E+00 
    1.0084831765597406E+00 
    9.8847852934963099E-01 
    9.8820891105618580E-01 
    1.0082164100521738E+00 
    1.0079141123981428E+00 
    9.8790290357466781E-01 
    9.8756130280466603E-01 
    1.0075772431578784E+00 
    1.0072068403521490E+00 
    9.8718495872149004E-01 
    9.8677475564486372E-01 
    1.0068040064877015E+00 
    1.0063698917715154E+00 
    9.8633158701502677E-01 
    9.8585632200776296E-01 
    1.0059056732654463E+00 
    1.0054125282185529E+00 
    9.8534976039412103E-01 
    9.8481256919287485E-01 
    1.0048915984386071E+00 
    1.0043439399384193E+00 
    9.8424518855947496E-01 
    9.8364768596530583E-01 
    1.0037704485524754E+00 
    1.0031717454500937E+00 
    9.8301952156460370E-01 
    9.8235914639290389E-01 
    1.0025479914735353E+00 
    1.0018985716109956E+00 
    9.8166327242864382E-01 
    9.8092542376038971E-01 
    1.0012215253340639E+00 
    1.0005124411589879E+00 
    9.8013261253481399E-01 
    9.7925661058337132E-01 
    9.9976206533173517E-01 
    9.9895020831462733E-01 
    9.7823361843557610E-01 
    9.7702601259087918E-01 
    9.9802771561807824E-01 
    9.9693164631885967E-01 
    9.7573746286972685E-01 
    9.7457706961773261E-01 
    9.9570471675631733E-01 
    9.9457179118793115E-01 
    9.7363019336488132E-01 
    9.7281781014624813E-01 
    9.9365468795952427E-01 
    9.9287546854702424E-01 
    9.7208291798602076E-01 
    9.7142285984523724E-01 
    9.9217704340179735E-01 
    9.9155716508876102E-01 
    9.7083713318938070E-01 
    9.7032533504886909E-01 
    9.9101544483039561E-01 
    9.9055158102535834E-01 
    9.6988714647371721E-01 
    9.6952231865979843E-01 