# vtk DataFile Version 2.0
Pressure Field Data 
ASCII 
DATASET UNSTRUCTURED_GRID 

POINTS 1681 double 

    0.0000000000000000E+00     0.0000000000000000E+00     0.0000000000000000E+00 
    1.0000000000000000E+00     0.0000000000000000E+00     0.0000000000000000E+00 
    1.0000000000000000E+00     1.0000000000000000E+00     0.0000000000000000E+00 
    0.0000000000000000E+00     1.0000000000000000E+00     0.0000000000000000E+00 
    5.2499999999875258E-01     0.0000000000000000E+00     0.0000000000000000E+00 
    7.4999999999856765E-02     0.0000000000000000E+00     0.0000000000000000E+00 
    1.2499999999975850E-01     0.0000000000000000E+00     0.0000000000000000E+00 
    1.7499999999962990E-01     0.0000000000000000E+00     0.0000000000000000E+00 
    2.2499999999948389E-01     0.0000000000000000E+00     0.0000000000000000E+00 
    2.7499999999933789E-01     0.0000000000000000E+00     0.0000000000000000E+00 
    3.2499999999919210E-01     0.0000000000000000E+00     0.0000000000000000E+00 
    3.7499999999904610E-01     0.0000000000000000E+00     0.0000000000000000E+00 
    4.2499999999890020E-01     0.0000000000000000E+00     0.0000000000000000E+00 
    4.7499999999875958E-01     0.0000000000000000E+00     0.0000000000000000E+00 
    2.4999999999949701E-02     0.0000000000000000E+00     0.0000000000000000E+00 
    5.7499999999887907E-01     0.0000000000000000E+00     0.0000000000000000E+00 
    6.2499999999901101E-01     0.0000000000000000E+00     0.0000000000000000E+00 
    6.7499999999914273E-01     0.0000000000000000E+00     0.0000000000000000E+00 
    7.2499999999927467E-01     0.0000000000000000E+00     0.0000000000000000E+00 
    7.7499999999940661E-01     0.0000000000000000E+00     0.0000000000000000E+00 
    8.2499999999953844E-01     0.0000000000000000E+00     0.0000000000000000E+00 
    8.7499999999967026E-01     0.0000000000000000E+00     0.0000000000000000E+00 
    9.2499999999980220E-01     0.0000000000000000E+00     0.0000000000000000E+00 
    9.7499999999993414E-01     0.0000000000000000E+00     0.0000000000000000E+00 
    5.4999999999881310E-01     0.0000000000000000E+00     0.0000000000000000E+00 
    9.9999999999814140E-02     0.0000000000000000E+00     0.0000000000000000E+00 
    1.4999999999970290E-01     0.0000000000000000E+00     0.0000000000000000E+00 
    1.9999999999955689E-01     0.0000000000000000E+00     0.0000000000000000E+00 
    2.4999999999941089E-01     0.0000000000000000E+00     0.0000000000000000E+00 
    2.9999999999926502E-01     0.0000000000000000E+00     0.0000000000000000E+00 
    3.4999999999911913E-01     0.0000000000000000E+00     0.0000000000000000E+00 
    3.9999999999897312E-01     0.0000000000000000E+00     0.0000000000000000E+00 
    4.4999999999882723E-01     0.0000000000000000E+00     0.0000000000000000E+00 
    4.9999999999869210E-01     0.0000000000000000E+00     0.0000000000000000E+00 
    4.9999999999899403E-02     0.0000000000000000E+00     0.0000000000000000E+00 
    5.9999999999894504E-01     0.0000000000000000E+00     0.0000000000000000E+00 
    6.4999999999907687E-01     0.0000000000000000E+00     0.0000000000000000E+00 
    6.9999999999920870E-01     0.0000000000000000E+00     0.0000000000000000E+00 
    7.4999999999934064E-01     0.0000000000000000E+00     0.0000000000000000E+00 
    7.9999999999947247E-01     0.0000000000000000E+00     0.0000000000000000E+00 
    8.4999999999960441E-01     0.0000000000000000E+00     0.0000000000000000E+00 
    8.9999999999973623E-01     0.0000000000000000E+00     0.0000000000000000E+00 
    9.4999999999986817E-01     0.0000000000000000E+00     0.0000000000000000E+00 
    1.0000000000000000E+00     5.2499999999875258E-01     0.0000000000000000E+00 
    1.0000000000000000E+00     7.4999999999856765E-02     0.0000000000000000E+00 
    1.0000000000000000E+00     1.2499999999975850E-01     0.0000000000000000E+00 
    1.0000000000000000E+00     1.7499999999962990E-01     0.0000000000000000E+00 
    1.0000000000000000E+00     2.2499999999948389E-01     0.0000000000000000E+00 
    1.0000000000000000E+00     2.7499999999933789E-01     0.0000000000000000E+00 
    1.0000000000000000E+00     3.2499999999919210E-01     0.0000000000000000E+00 
    1.0000000000000000E+00     3.7499999999904610E-01     0.0000000000000000E+00 
    1.0000000000000000E+00     4.2499999999890020E-01     0.0000000000000000E+00 
    1.0000000000000000E+00     4.7499999999875958E-01     0.0000000000000000E+00 
    1.0000000000000000E+00     2.4999999999949701E-02     0.0000000000000000E+00 
    1.0000000000000000E+00     5.7499999999887907E-01     0.0000000000000000E+00 
    1.0000000000000000E+00     6.2499999999901101E-01     0.0000000000000000E+00 
    1.0000000000000000E+00     6.7499999999914273E-01     0.0000000000000000E+00 
    1.0000000000000000E+00     7.2499999999927467E-01     0.0000000000000000E+00 
    1.0000000000000000E+00     7.7499999999940661E-01     0.0000000000000000E+00 
    1.0000000000000000E+00     8.2499999999953844E-01     0.0000000000000000E+00 
    1.0000000000000000E+00     8.7499999999967026E-01     0.0000000000000000E+00 
    1.0000000000000000E+00     9.2499999999980220E-01     0.0000000000000000E+00 
    1.0000000000000000E+00     9.7499999999993414E-01     0.0000000000000000E+00 
    1.0000000000000000E+00     5.4999999999881310E-01     0.0000000000000000E+00 
    1.0000000000000000E+00     9.9999999999814140E-02     0.0000000000000000E+00 
    1.0000000000000000E+00     1.4999999999970290E-01     0.0000000000000000E+00 
    1.0000000000000000E+00     1.9999999999955689E-01     0.0000000000000000E+00 
    1.0000000000000000E+00     2.4999999999941089E-01     0.0000000000000000E+00 
    1.0000000000000000E+00     2.9999999999926502E-01     0.0000000000000000E+00 
    1.0000000000000000E+00     3.4999999999911913E-01     0.0000000000000000E+00 
    1.0000000000000000E+00     3.9999999999897312E-01     0.0000000000000000E+00 
    1.0000000000000000E+00     4.4999999999882723E-01     0.0000000000000000E+00 
    1.0000000000000000E+00     4.9999999999869210E-01     0.0000000000000000E+00 
    1.0000000000000000E+00     4.9999999999899403E-02     0.0000000000000000E+00 
    1.0000000000000000E+00     5.9999999999894504E-01     0.0000000000000000E+00 
    1.0000000000000000E+00     6.4999999999907687E-01     0.0000000000000000E+00 
    1.0000000000000000E+00     6.9999999999920870E-01     0.0000000000000000E+00 
    1.0000000000000000E+00     7.4999999999934064E-01     0.0000000000000000E+00 
    1.0000000000000000E+00     7.9999999999947247E-01     0.0000000000000000E+00 
    1.0000000000000000E+00     8.4999999999960441E-01     0.0000000000000000E+00 
    1.0000000000000000E+00     8.9999999999973623E-01     0.0000000000000000E+00 
    1.0000000000000000E+00     9.4999999999986817E-01     0.0000000000000000E+00 
    4.7500000000196618E-01     1.0000000000000000E+00     0.0000000000000000E+00 
    9.2499999999968763E-01     1.0000000000000000E+00     0.0000000000000000E+00 
    8.7499999999961831E-01     1.0000000000000000E+00     0.0000000000000000E+00 
    8.2499999999982654E-01     1.0000000000000000E+00     0.0000000000000000E+00 
    7.7500000000017355E-01     1.0000000000000000E+00     0.0000000000000000E+00 
    7.2500000000052045E-01     1.0000000000000000E+00     0.0000000000000000E+00 
    6.7500000000086724E-01     1.0000000000000000E+00     0.0000000000000000E+00 
    6.2500000000121403E-01     1.0000000000000000E+00     0.0000000000000000E+00 
    5.7500000000156093E-01     1.0000000000000000E+00     0.0000000000000000E+00 
    5.2500000000189684E-01     1.0000000000000000E+00     0.0000000000000000E+00 
    9.7499999999989595E-01     1.0000000000000000E+00     0.0000000000000000E+00 
    4.2500000000176902E-01     1.0000000000000000E+00     0.0000000000000000E+00 
    3.7500000000156092E-01     1.0000000000000000E+00     0.0000000000000000E+00 
    3.2500000000135282E-01     1.0000000000000000E+00     0.0000000000000000E+00 
    2.7500000000114472E-01     1.0000000000000000E+00     0.0000000000000000E+00 
    2.2500000000093659E-01     1.0000000000000000E+00     0.0000000000000000E+00 
    1.7500000000072849E-01     1.0000000000000000E+00     0.0000000000000000E+00 
    1.2500000000052039E-01     1.0000000000000000E+00     0.0000000000000000E+00 
    7.5000000000312261E-02     1.0000000000000000E+00     0.0000000000000000E+00 
    2.5000000000104109E-02     1.0000000000000000E+00     0.0000000000000000E+00 
    4.5000000000187301E-01     1.0000000000000000E+00     0.0000000000000000E+00 
    8.9999999999958358E-01     1.0000000000000000E+00     0.0000000000000000E+00 
    8.4999999999965303E-01     1.0000000000000000E+00     0.0000000000000000E+00 
    8.0000000000000004E-01     1.0000000000000000E+00     0.0000000000000000E+00 
    7.5000000000034706E-01     1.0000000000000000E+00     0.0000000000000000E+00 
    7.0000000000069384E-01     1.0000000000000000E+00     0.0000000000000000E+00 
    6.5000000000104063E-01     1.0000000000000000E+00     0.0000000000000000E+00 
    6.0000000000138742E-01     1.0000000000000000E+00     0.0000000000000000E+00 
    5.5000000000173432E-01     1.0000000000000000E+00     0.0000000000000000E+00 
    5.0000000000205946E-01     1.0000000000000000E+00     0.0000000000000000E+00 
    9.4999999999979179E-01     1.0000000000000000E+00     0.0000000000000000E+00 
    4.0000000000166491E-01     1.0000000000000000E+00     0.0000000000000000E+00 
    3.5000000000145681E-01     1.0000000000000000E+00     0.0000000000000000E+00 
    3.0000000000124871E-01     1.0000000000000000E+00     0.0000000000000000E+00 
    2.5000000000104061E-01     1.0000000000000000E+00     0.0000000000000000E+00 
    2.0000000000083251E-01     1.0000000000000000E+00     0.0000000000000000E+00 
    1.5000000000062441E-01     1.0000000000000000E+00     0.0000000000000000E+00 
    1.0000000000041630E-01     1.0000000000000000E+00     0.0000000000000000E+00 
[...]
CELL_DATA 1600 
SCALARS Pressure double 1 
LOOKUP_TABLE default 

    1.3554393719862403E+00 
    1.3071411395747961E+00 
    1.3045728246655688E+00 
    1.3394201740511709E+00 
    1.3264053946551115E+00 
    1.3006407924581487E+00 
    1.2960537799724663E+00 
    1.3156015590234669E+00 
    1.3064262564236355E+00 
    1.2912108068822812E+00 
    1.2863352213264381E+00 
    1.2984748329164679E+00 
    1.2914627320746184E+00 
    1.2815484813356710E+00 
    1.2769132003657975E+00 
    1.2851868588318212E+00 
    1.2795000228469864E+00 
    1.2724583510755836E+00 
    1.2681940252029233E+00 
    1.2742939286066299E+00 
    1.2694877334649928E+00 
    1.2641200558540351E+00 
    1.2602310246238351E+00 
    1.2650202567881703E+00 
    1.2608446065039010E+00 
    1.2565191373966664E+00 
    1.2529758446945092E+00 
    1.2569244239206279E+00 
    1.2532312245477009E+00 
    1.2495927249193313E+00 
    1.2463619377392448E+00 
    1.2497424901285790E+00 
    1.2464402817926941E+00 
    1.2432764297605652E+00 
    1.2403300002350712E+00 
    1.2433102190216956E+00 
    1.2403407183507549E+00 
    1.2375172901835476E+00 
    1.2348337317714779E+00 
    1.2375224184123252E+00 
    1.2348477397866227E+00 
    1.2322754788042565E+00 
    1.2298393294621743E+00 
    1.2323105427601677E+00 
    1.2299058557583273E+00 
    1.2275226461772835E+00 
    1.2253232730635888E+00 
    1.2276296532055133E+00 
    1.2254786643799276E+00 
    1.2232394470701513E+00 
    1.2212696932602585E+00 
    1.2234501940315712E+00 
    1.2215419290279823E+00 
    1.2194126841633655E+00 
    1.2176670206930575E+00 
    1.2197516871140903E+00 
    1.2180770173630555E+00 
    1.2160308378168494E+00 
    1.2145009890279004E+00 
    1.2165144352433948E+00 
    1.2150577253622061E+00 
    1.2130711539773884E+00 
    1.2117272924694420E+00 
    1.2136939559871049E+00 
    1.2123943089408900E+00 
    1.2104369616254100E+00 
    1.2091344939277144E+00 
    1.2110988598248971E+00 
    1.2098369711188770E+00 
    1.2078868984507081E+00 
    1.2068954390321764E+00 
    1.2088181927130903E+00 
    1.2080568012090316E+00 
    1.2061476425367912E+00 
    1.2055887380157442E+00 
    1.2074884441870872E+00 
    1.2071100579813145E+00 
    1.2052165805080108E+00 
    1.2050306349384428E+00 
    1.2069210195228721E+00 
    1.2807791667320054E+00 
    1.2605572736783148E+00 
    1.2601179367693578E+00 
    1.2799176523588975E+00 
    1.2783221480177136E+00 
    1.2592640073308432E+00 
    1.2580400963491523E+00 
    1.2761574744774875E+00 
    1.2735781190627606E+00 
    1.2564997913769056E+00 
    1.2546985913578523E+00 
    1.2707135497868587E+00 
    1.2676660313512200E+00 
    1.2526894069480234E+00 
    1.2505201215910826E+00 
    1.2645134802649711E+00 
    1.2613138524620104E+00 
    1.2482325844923636E+00 
    1.2458625000547010E+00 
    1.2581095225539025E+00 
    1.2549310697264702E+00 
    1.2434398219309244E+00 
    1.2409893900069184E+00 
    1.2518003278635161E+00 
    1.2487327449605528E+00 
    1.2385316479740087E+00 
    1.2360833482862890E+00 
    1.2457391620233746E+00 
    1.2428271314750228E+00 
    1.2336581964009776E+00 
    1.2312674140088702E+00 
    1.2400018825866477E+00 
    1.2372670221449604E+00 
    1.2289202170895679E+00 
    1.2266242132299747E+00 
    1.2346250392832792E+00 
    1.2320776667025841E+00 
    1.2243857265980371E+00 
    1.2222100601504207E+00 
    1.2296261369927357E+00 
    1.2272713621852696E+00 
    1.2201017042397495E+00 
    1.2180644994286196E+00 
    1.2250140564588197E+00 
    1.2228548153931640E+00 
    1.2161017592771226E+00 
    1.2142163560380317E+00 
    1.2207941595493041E+00 
    1.2188325444172483E+00 
    1.2124107679430169E+00 
    1.2106870794490052E+00 
    1.2169703312120581E+00 
    1.2152077000502792E+00 
    1.2090469112794326E+00 
    1.2074912238745819E+00 
    1.2135444598936573E+00 
    1.2119796426732672E+00 
    1.2060198492827539E+00 
    1.2046303468178370E+00 
    1.2105105787474850E+00 
    1.2091306362176792E+00 
    1.2033150961584966E+00 
    1.2020539209915877E+00 
    1.2078236409188428E+00 
    1.2065503498858066E+00 
    1.2007957149153752E+00 
    1.1994923717635075E+00 
    1.2052420617787589E+00 
    1.2040292544929705E+00 
    1.1983396912101940E+00 
    1.1974553746526606E+00 
    1.2030861608087462E+00 
    1.2023629345008233E+00 
    1.1967642620636052E+00 
    1.1962464615853448E+00 
    1.2018215627745861E+00 
    1.2014609836530541E+00 
    1.1959014855298946E+00 
    1.1957290644311434E+00 
    1.2012807946583424E+00 
    1.2426983338320570E+00 
    1.2258179646590248E+00 
    1.2256256584601106E+00 
    1.2424235280050064E+00 
    1.2418816597919367E+00 
    1.2252443653281935E+00 
    1.2246814568549760E+00 
    1.2410888087546916E+00 
    1.2400666130574685E+00 
    1.2239473443148476E+00 
    1.2230547943499572E+00 
    1.2388401451125974E+00 
    1.2374360383328993E+00 
    1.2220182136894191E+00 
    1.2208529791949427E+00 
    1.2358810165260297E+00 
    1.2342008462662266E+00 
    1.2195748592772162E+00 
    1.2181995467647286E+00 
    1.2324196637245721E+00 
    1.2305596009147641E+00 
    1.2167423049990012E+00 
    1.2152177177053560E+00 
    1.2286406339024529E+00 
    1.2266805847631046E+00 
    1.2136395274839575E+00 
    1.2120205458856612E+00 
    1.2246952224504191E+00 
    1.2226984212313905E+00 
    1.2103726185284769E+00 
    1.2087066304786298E+00 
    1.2207023471079728E+00 
    1.2187176520694118E+00 
    1.2070325394127253E+00 
    1.2053594264157708E+00 
    1.2167536631259468E+00 
    1.2148185581572633E+00 
    1.2036955563698128E+00 
    1.2020484415863362E+00 
    1.2129195240297104E+00 
    1.2110628945159259E+00 
    1.2004249035226666E+00 
    1.1988311279739514E+00 
    1.2092542665033539E+00 
    1.2074985928480804E+00 
    1.1972727088141673E+00 
    1.1957546736505456E+00 
    1.2058002487745545E+00 
    1.2041630651329329E+00 
    1.1942814804236070E+00 
    1.1928569638823416E+00 
    1.2025903139831209E+00 
    1.2010846141794558E+00 
    1.1914841858284857E+00 
    1.1901650732027367E+00 
    1.1996476795378976E+00 
    1.1982797021069116E+00 
    1.1888995214608409E+00 
    1.1876830712083446E+00 
    1.1969777858640653E+00 
    1.1957318847625082E+00 
    1.1865007727024719E+00 
    1.1853100933718823E+00 
    1.1945141188525026E+00 
    1.1932548590716974E+00 
    1.1840379750779548E+00 
    1.1828202883762033E+00 
    1.1919771802551591E+00 
    1.1909107372568954E+00 
    1.1818506101996886E+00 
    1.1810811772314864E+00 
    1.1900869852281468E+00 
    1.1894332529626948E+00 
    1.1804663305100878E+00 
    1.1800051861150440E+00 
    1.1889431161693078E+00 
    1.1886164378397437E+00 
    1.1796977530867094E+00 
    1.1795440357691007E+00 
    1.1884531232164688E+00 
    1.2092670370133041E+00 
    1.1926937529238968E+00 
    1.1925796747862141E+00 
    1.2091225761076232E+00 
    1.2088354153178287E+00 
    1.1923526058211651E+00 
    1.1920150646784500E+00 
    1.2084095926293699E+00 
    1.2078509147407190E+00 
    1.1915706848327692E+00 
    1.1910241003423820E+00 
    1.2071666993512622E+00 
    1.2063654802718271E+00 
    1.1903808097221020E+00 
    1.1896470267116943E+00 
    1.2054567021154536E+00 
    1.2044504267918692E+00 
    1.1888295273692029E+00 
    1.1879355012772104E+00 
    1.2033570671952569E+00 
    1.2021871571012661E+00 
    1.1869724127182166E+00 
    1.1859478757573021E+00 
    1.2009511610417842E+00 
    1.1996593240146705E+00 
    1.1848695454402884E+00 
    1.1837450258694486E+00 
    1.1983215582489595E+00 
    1.1969473626797968E+00 
    1.1825817947863155E+00 
    1.1813871434534955E+00 
    1.1955457700360803E+00 
    1.1941253162549681E+00 
    1.1801681300331308E+00 
    1.1789315442355282E+00 
    1.1926940270871924E+00 
    1.1912594170541462E+00 
    1.1776838806650500E+00 
    1.1764313179009780E+00 
    1.1898284961921131E+00 
    1.1884077800952413E+00 
    1.1751796997422934E+00 
    1.1739345139150736E+00 
    1.1870032984129952E+00 
    1.1856205957683636E+00 
    1.1727008612874381E+00 
    1.1714834038626434E+00 
    1.1842647162122861E+00 
    1.1829401558407657E+00 
    1.1702862687541606E+00 
    1.1691128568073987E+00 
    1.1816507525815263E+00 
    1.1803994401886235E+00 
    1.1679654253647784E+00 
    1.1668440953315145E+00 
    1.1791876721310015E+00 
    1.1780139783236592E+00 
    1.1657443432045589E+00 
    1.1646503284974945E+00 
    1.1768702017818338E+00 
    1.1757311811104565E+00 
    1.1635150596219417E+00 
    1.1622664364882744E+00 
    1.1745273739245088E+00 
    1.1732520401650128E+00 
    1.1610391842495926E+00 
    1.1600411141350715E+00 
    1.1721368630799878E+00 
    1.1712583661281166E+00 
    1.1592322744552948E+00 
    1.1585588129830406E+00 
    1.1705385099090275E+00 
    1.1699623850513701E+00 
    1.1580196175929323E+00 
    1.1576149837681715E+00 
    1.1695301423936861E+00 
    1.1692419112264183E+00 
    1.1573451185003649E+00 
    1.1572101537155535E+00 
    1.1690977751457268E+00 
    1.1758888881187985E+00 
    1.1587198044167972E+00 
    1.1586405124275274E+00 
    1.1757952757234909E+00 
    1.1756087982386922E+00 
    1.1584824805040728E+00 
    1.1582469737340280E+00 
    1.1753311818734979E+00 
    1.1749649072351558E+00 
    1.1579357984935235E+00 
    1.1575512675906994E+00 
    1.1745131503717177E+00 
    1.1739797122398399E+00 
    1.1570961595012679E+00 
    1.1565736717096213E+00 
    1.1733689390008066E+00 
    1.1726856372359844E+00 
    1.1559873700441623E+00 
    1.1553411358307113E+00 
    1.1719349878057275E+00 
    1.1711224614858577E+00 
    1.1546391124787532E+00 
    1.1538856528551455E+00 
    1.1702537388413861E+00 
    1.1693346361004342E+00 
    1.1530852685025665E+00 
    1.1522425814365316E+00 
    1.1683710381197197E+00 
    1.1673688389164973E+00 
    1.1513622789132054E+00 
    1.1504490711983604E+00 
    1.1663338896904056E+00 
    1.1652719537612355E+00 
    1.1495076519671870E+00 
    1.1485426604829827E+00 
    1.1641886673720157E+00 
    1.1630895047875303E+00 
    1.1475586440548624E+00 
    1.1465600182816285E+00 
    1.1619797454421019E+00 
    1.1608644398419619E+00 
    1.1455510208506403E+00 
    1.1445356512311471E+00 
    1.1597483690536381E+00 
    1.1586359888277937E+00 
    1.1435175809969189E+00 
    1.1425000015918698E+00 
    1.1575313409118599E+00 
    1.1564378928368539E+00 
    1.1414853309049986E+00 
    1.1404745840456108E+00 
    1.1553582107644274E+00 
    1.1542932188805053E+00 
    1.1394659173182660E+00 
    1.1384510187251937E+00 
    1.1532403980941648E+00 
    1.1521891364390193E+00 
    1.1374050725588762E+00 
    1.1362579729631608E+00 
    1.1511072923064609E+00 
    1.1499145865565219E+00 
    1.1349737026820683E+00 
    1.1337618957471807E+00 
    1.1486366460043933E+00 
    1.1475216473450365E+00 
    1.1327777522751874E+00 
    1.1319530873514672E+00 
    1.1466245735176903E+00 
    1.1458676239192647E+00 
    1.1312452942785836E+00 
    1.1306546274332401E+00 
    1.1452364556554104E+00 
    1.1447312344810086E+00 
    1.1301815887040010E+00 
    1.1298265325866095E+00 
    1.1443521395731144E+00 
    1.1440993209443651E+00 
    1.1295897021703822E+00 
    1.1294712500899451E+00 
    1.1439728844374133E+00 
    1.1410983466535864E+00 
    1.1229635332461365E+00 
    1.1229018734765763E+00 
    1.1410293000265284E+00 
    1.1408916329671779E+00 
    1.1227788897294844E+00 
    1.1225953472805155E+00 
    1.1406863158584517E+00 
    1.1404147262196123E+00 
    1.1223523293230373E+00 
    1.1220512202621129E+00 
    1.1400786256051085E+00 
    1.1396801335207967E+00 
    1.1216936873571284E+00 
    1.1212816596632187E+00 
    1.1392216974948097E+00 
    1.1387060602562968E+00 
    1.1208173048344183E+00 
    1.1203030042947983E+00 
    1.1381362249584543E+00 
    1.1375154192698389E+00 
    1.1197413271765262E+00 
    1.1191350033158300E+00 
    1.1368470590246051E+00 
    1.1361347119609098E+00 
    1.1184868954656970E+00 
    1.1177999707052984E+00 
    1.1353820618798123E+00 
    1.1345928733170139E+00 
    1.1170772707753582E+00 
    1.1163218807016280E+00 
    1.1337709565182497E+00 
    1.1329201321029325E+00 
    1.1155368944956914E+00 
    1.1147253757306304E+00 
    1.1320441942012207E+00 
    1.1311468698787468E+00 
    1.1138903089085765E+00 
    1.1130345339429981E+00 
    1.1302317709421286E+00 
    1.1293023307795225E+00 
    1.1121606484353928E+00 
    1.1112708457181097E+00 
    1.1283617115434892E+00 
    1.1274126499730852E+00 
    1.1103666185566790E+00 
    1.1094481706778490E+00 
    1.1264571706016011E+00 
    1.1254959975065995E+00 
    1.1085131564398996E+00 
    1.1075537646025326E+00 
    1.1245272531091852E+00 
    1.1235433596245246E+00 
    1.1065489641373278E+00 
    1.1054409136007186E+00 
    1.1225226873129832E+00 
    1.1214041268703339E+00 
    1.1041671672308493E+00 
    1.1028436195058502E+00 
    1.1201293740068494E+00 
    1.1188517804747611E+00 
    1.1016987940889900E+00 
    1.1007445040139525E+00 
    1.1177836795033762E+00 
    1.1168935350582214E+00 
    1.0999092633965029E+00 
    1.0991786077492880E+00 
    1.1161174576522122E+00 
    1.1154517023668087E+00 
    1.0985524007689651E+00 
    1.0980305779138066E+00 
    1.1148965180500101E+00 
    1.1144521168085071E+00 
    1.0976131146984451E+00 
    1.0973000078894641E+00 
    1.1141186685884608E+00 
    1.1138963000384989E+00 
    1.0970912634085876E+00 
    1.0969868887854264E+00 
    1.1137850949383399E+00 
    1.1042713217198645E+00 
    1.0849879028954446E+00 
    1.0849351589907894E+00 
    1.1042149391740681E+00 
    1.1041024376524344E+00 
    1.0848298701724597E+00 
    1.0846725175113607E+00 
    1.1039344271703282E+00 
    1.1037117733059250E+00 
    1.0844637919042330E+00 
    1.0842045839562435E+00 
    1.1034355843941890E+00 
    1.1031071973662978E+00 
    1.0838959719596890E+00 
    1.0835392077023696E+00 
    1.1027281614065867E+00 
    1.1023002198614860E+00 
    1.0831357005548012E+00 
    1.0826869999669584E+00 
    1.1018252906816586E+00 
    1.1013054455303120E+00 
    1.0821947762569246E+00 
    1.0816607993271499E+00 
    1.1007428875549381E+00 
    1.1001399276510504E+00 
    1.0810869146315423E+00 
    1.0804750152740421E+00 
    1.0994989587998274E+00 
    1.0988224276619765E+00 
    1.0798270083125396E+00 
    1.0791447716884033E+00 
    1.0981128019233244E+00 
    1.0973725307448581E+00 
    1.0784300954209785E+00 
    1.0776845960356338E+00 
    1.0966039935964333E+00 
    1.0958094283567583E+00 
    1.0769095825560062E+00 
    1.0761058311508158E+00 
    1.0949908210890853E+00 
    1.0941497221235361E+00 
    1.0752731817262136E+00 
    1.0744097619838160E+00 
    1.0932869132830334E+00 
    1.0924017613098649E+00 
    1.0735103833537822E+00 
    1.0725627710827252E+00 
    1.0914908666602445E+00 
    1.0905449663746867E+00 
    1.0715373355813353E+00 
    1.0703630237432953E+00 
    1.0895406655106428E+00 
    1.0884160741519171E+00 
    1.0690014693438823E+00 
    1.0675980447074778E+00 
    1.0871150169350141E+00 
    1.0857498994994703E+00 
    1.0663630756302664E+00 
    1.0653267896461538E+00 
    1.0845460228726804E+00 
    1.0835410759108945E+00 
    1.0644157424444600E+00 
    1.0635966468159495E+00 
    1.0826610638687071E+00 
    1.0818791717278433E+00 
    1.0628691641548009E+00 
    1.0622330616807982E+00 
    1.0811952711774158E+00 
    1.0806092579194602E+00 
    1.0616881478888522E+00 
    1.0612342679973814E+00 
    1.0801210413796134E+00 
    1.0797305485245690E+00 
    1.0608712999516854E+00 
    1.0605991508569510E+00 
    1.0794377239094246E+00 
    1.0792425282015237E+00 
    1.0604177539184099E+00 
    1.0603270660144437E+00 
    1.0791449364012276E+00 
    1.0650846089487394E+00 
    1.0445330034045524E+00 
    1.0444836373296773E+00 
    1.0650341544308821E+00 
    1.0649333785240440E+00 
    1.0443849593286467E+00 
    1.0442371988888421E+00 
    1.0647826420009761E+00 
    1.0645824800704979E+00 
    1.0440407305143269E+00 
    1.0437960671907274E+00 
    1.0643335943220753E+00 
    1.0640368412341414E+00 
    1.0435038472730755E+00 
    1.0431648170034236E+00 
    1.0636932179311007E+00 
    1.0633038457371229E+00 
    1.0427798093396285E+00 
    1.0423497187063206E+00 
    1.0628699514801585E+00 
    1.0623928460177574E+00 
    1.0418754702319064E+00 
    1.0413579804505821E+00 
    1.0618738988675751E+00 
    1.0613145070636394E+00 
    1.0407981043902179E+00 
    1.0401965618076099E+00 
    1.0607160554463508E+00 
    1.0600798638621087E+00 
    1.0395538310914880E+00 
    1.0388699868366451E+00 
    1.0594071124256463E+00 
    1.0586987284107450E+00 
    1.0381444340025467E+00 
    1.0373754582317165E+00 
    1.0579552066974260E+00 
    1.0571763070763702E+00 
    1.0365594079230740E+00 
    1.0356890048915934E+00 
    1.0563605092577564E+00 
    1.0555039721582833E+00 
    1.0347496746122202E+00 
    1.0337089983590380E+00 
    1.0545982929200635E+00 
    1.0536251004385353E+00 
    1.0325031226356332E+00 
    1.0311054603064453E+00 
    1.0525399507297202E+00 
    1.0512752766612476E+00 
    1.0296056852117803E+00 
    1.0282027060315320E+00 
    1.0498347577985343E+00 
    1.0484087355628835E+00 
    1.0270201692834564E+00 
    1.0260041406242415E+00 
    1.0471798461501087E+00 
    1.0461380105862721E+00 
    1.0250840090980569E+00 
    1.0242417101425287E+00 
    1.0452119513244844E+00 
    1.0443715028718197E+00 
    1.0234768065950441E+00 
    1.0227889793334384E+00 
    1.0436161000895678E+00 
    1.0429453547102898E+00 
    1.0221779849399675E+00 
    1.0216436406805516E+00 
    1.0423589653635921E+00 
    1.0418566988534761E+00 
    1.0211858116777959E+00 
    1.0208044002385968E+00 
    1.0414383761573893E+00 
    1.0411038618691819E+00 
    1.0204993371709332E+00 
    1.0202705748918663E+00 
    1.0408530562425486E+00 
    1.0406858892895436E+00 
    1.0201180821417215E+00 
    1.0200418401518148E+00 
    1.0406023165884337E+00 
    1.0232983431155949E+00 
    1.0013279961712689E+00 
    1.0012769260337648E+00 
    1.0232488596465201E+00 
    1.0231498328631670E+00 
    1.0011745290170964E+00 
    1.0010205769879805E+00 
    1.0230013178589867E+00 
    1.0228034873706684E+00 
    1.0008149298646982E+00 
    1.0005575236444557E+00 
    1.0225566253379383E+00 
    1.0222611074107464E+00 
    1.0002483300505616E+00 
    9.9988729669437126E-01 
    1.0219173731520474E+00 
    1.0215258907783953E+00 
    9.9947426981857157E-01 
    9.9900889898894207E-01 
    1.0210871132270807E+00 
    1.0206014214950887E+00 
    9.9849051242187536E-01 
    9.9791792249997968E-01 
    1.0200690461516280E+00 
    1.0194899518004179E+00 
    9.9728908158170904E-01 
    9.9660051140613082E-01 
    1.0188636649664515E+00 
    1.0181890143953125E+00 
    9.9584649042842455E-01 
    9.9501755864797636E-01 
    1.0174636966394561E+00 
    1.0166834548437174E+00 
    9.9409551350912106E-01 
    9.9304260708993231E-01 
    1.0158405598155174E+00 
    1.0149206939437658E+00 
    9.9181409344034632E-01 
    9.9041316459751438E-01 
    1.0138928693848588E+00 
    1.0127007248579747E+00 
    9.8890569617579160E-01 
    9.8742042663008911E-01 
    1.0113193791217816E+00 
    1.0098085930351945E+00 
    9.8608955778403795E-01 
    9.8496024180466424E-01 
    1.0083278581650614E+00 
    1.0070274875291068E+00 
    9.8398282975890028E-01 
    9.8308543956760308E-01 
    1.0059307308180971E+00 
    1.0049659493119387E+00 
    9.8224507490614910E-01 
    9.8146201120869792E-01 
    1.0040748002723212E+00 
    1.0032520004038243E+00 
    9.8073684826150620E-01 
    9.8007013858746694E-01 
    1.0024975148801354E+00 
    1.0018113474594736E+00 
    9.7946238975245881E-01 
    9.7891406549193005E-01 
    1.0011935298959560E+00 
    1.0006441138290920E+00 
    9.7842558603151530E-01 
    9.7799732784285243E-01 
    1.0001631634308974E+00 
    9.9975074886654081E-01 
    9.7762962303276069E-01 
    9.7732275852647843E-01 