# vtk DataFile Version 2.0
Pressure Field Data 
ASCII 
DATASET UNSTRUCTURED_GRID 

POINTS 1681 double 

    0.0000000000000000E+00     0.0000000000000000E+00     0.0000000000000000E+00 
    1.0000000000000000E+00     0.0000000000000000E+00     0.0000000000000000E+00 
    1.0000000000000000E+00     1.0000000000000000E+00     0.0000000000000000E+00 
    0.0000000000000000E+00     1.0000000000000000E+00     0.0000000000000000E+00 
    5.2499999999875258E-01     0.0000000000000000E+00     0.0000000000000000E+00 
    7.4999999999856765E-02     0.0000000000000000E+00     0.0000000000000000E+00 
    1.2499999999975850E-01     0.0000000000000000E+00     0.0000000000000000E+00 
    1.7499999999962990E-01     0.0000000000000000E+00     0.0000000000000000E+00 
    2.2499999999948389E-01     0.0000000000000000E+00     0.0000000000000000E+00 
    2.7499999999933789E-01     0.0000000000000000E+00     0.0000000000000000E+00 
    3.2499999999919210E-01     0.0000000000000000E+00     0.0000000000000000E+00 
    3.7499999999904610E-01     0.0000000000000000E+00     0.0000000000000000E+00 
    4.2499999999890020E-01     0.0000000000000000E+00     0.0000000000000000E+00 
    4.7499999999875958E-01     0.0000000000000000E+00     0.0000000000000000E+00 
    2.4999999999949701E-02     0.0000000000000000E+00     0.0000000000000000E+00 
    5.7499999999887907E-01     0.0000000000000000E+00     0.0000000000000000E+00 
    6.2499999999901101E-01     0.0000000000000000E+00     0.0000000000000000E+00 
    6.7499999999914273E-01     0.0000000000000000E+00     0.0000000000000000E+00 
    7.2499999999927467E-01     0.0000000000000000E+00     0.0000000000000000E+00 
    7.7499999999940661E-01     0.0000000000000000E+00     0.0000000000000000E+00 
    8.2499999999953844E-01     0.0000000000000000E+00     0.0000000000000000E+00 
    8.7499999999967026E-01     0.0000000000000000E+00     0.0000000000000000E+00 
    9.2499999999980220E-01     0.0000000000000000E+00     0.0000000000000000E+00 
    9.7499999999993414E-01     0.0000000000000000E+00     0.0000000000000000E+00 
    5.4999999999881310E-01     0.0000000000000000E+00     0.0000000000000000E+00 
    9.9999999999814140E-02     0.0000000000000000E+00     0.0000000000000000E+00 
    1.4999999999970290E-01     0.0000000000000000E+00     0.0000000000000000E+00 
    1.9999999999955689E-01     0.0000000000000000E+00     0.0000000000000000E+00 
    2.4999999999941089E-01     0.0000000000000000E+00     0.0000000000000000E+00 
    2.9999999999926502E-01     0.0000000000000000E+00     0.0000000000000000E+00 
    3.4999999999911913E-01     0.0000000000000000E+00     0.0000000000000000E+00 
    3.9999999999897312E-01     0.0000000000000000E+00     0.0000000000000000E+00 
    4.4999999999882723E-01     0.0000000000000000E+00     0.0000000000000000E+00 
    4.9999999999869210E-01     0.0000000000000000E+00     0.0000000000000000E+00 
    4.9999999999899403E-02     0.0000000000000000E+00     0.0000000000000000E+00 
    5.9999999999894504E-01     0.0000000000000000E+00     0.0000000000000000E+00 
    6.4999999999907687E-01     0.0000000000000000E+00     0.0000000000000000E+00 
    6.9999999999920870E-01     0.0000000000000000E+00     0.0000000000000000E+00 
    7.4999999999934064E-01     0.0000000000000000E+00     0.0000000000000000E+00 
    7.9999999999947247E-01     0.0000000000000000E+00     0.0000000000000000E+00 
    8.4999999999960441E-01     0.0000000000000000E+00     0.0000000000000000E+00 
    8.9999999999973623E-01     0.0000000000000000E+00     0.0000000000000000E+00 
    9.4999999999986817E-01     0.0000000000000000E+00     0.0000000000000000E+00 
    1.0000000000000000E+00     5.2499999999875258E-01     0.0000000000000000E+00 
    1.0000000000000000E+00     7.4999999999856765E-02     0.0000000000000000E+00 
    1.0000000000000000E+00     1.2499999999975850E-01     0.0000000000000000E+00 
    1.0000000000000000E+00     1.7499999999962990E-01     0.0000000000000000E+00 
    1.0000000000000000E+00     2.2499999999948389E-01     0.0000000000000000E+00 
    1.0000000000000000E+00     2.7499999999933789E-01     0.0000000000000000E+00 
    1.0000000000000000E+00     3.2499999999919210E-01     0.0000000000000000E+00 
    1.0000000000000000E+00     3.7499999999904610E-01     0.0000000000000000E+00 
    1.0000000000000000E+00     4.2499999999890020E-01     0.0000000000000000E+00 
    1.0000000000000000E+00     4.7499999999875958E-01     0.0000000000000000E+00 
    1.0000000000000000E+00     2.4999999999949701E-02     0.0000000000000000E+00 
    1.0000000000000000E+00     5.7499999999887907E-01     0.0000000000000000E+00 
    1.0000000000000000E+00     6.2499999999901101E-01     0.0000000000000000E+00 
    1.0000000000000000E+00     6.7499999999914273E-01     0.0000000000000000E+00 
    1.0000000000000000E+00     7.2499999999927467E-01     0.0000000000000000E+00 
    1.0000000000000000E+00     7.7499999999940661E-01     0.0000000000000000E+00 
    1.0000000000000000E+00     8.2499999999953844E-01     0.0000000000000000E+00 
    1.0000000000000000E+00     8.7499999999967026E-01     0.0000000000000000E+00 
    1.0000000000000000E+00     9.2499999999980220E-01     0.0000000000000000E+00 
    1.0000000000000000E+00     9.7499999999993414E-01     0.0000000000000000E+00 
    1.0000000000000000E+00     5.4999999999881310E-01     0.0000000000000000E+00 
    1.0000000000000000E+00     9.9999999999814140E-02     0.0000000000000000E+00 
    1.0000000000000000E+00     1.4999999999970290E-01     0.0000000000000000E+00 
    1.0000000000000000E+00     1.9999999999955689E-01     0.0000000000000000E+00 
    1.0000000000000000E+00     2.4999999999941089E-01     0.0000000000000000E+00 
    1.0000000000000000E+00     2.9999999999926502E-01     0.0000000000000000E+00 
    1.0000000000000000E+00     3.4999999999911913E-01     0.0000000000000000E+00 
    1.0000000000000000E+00     3.9999999999897312E-01     0.0000000000000000E+00 
    1.0000000000000000E+00     4.4999999999882723E-01     0.0000000000000000E+00 
    1.0000000000000000E+00     4.9999999999869210E-01     0.0000000000000000E+00 
    1.0000000000000000E+00     4.9999999999899403E-02     0.0000000000000000E+00 
    1.0000000000000000E+00     5.9999999999894504E-01     0.0000000000000000E+00 
    1.0000000000000000E+00     6.4999999999907687E-01     0.0000000000000000E+00 
    1.0000000000000000E+00     6.9999999999920870E-01     0.0000000000000000E+00 
    1.0000000000000000E+00     7.4999999999934064E-01     0.0000000000000000E+00 
    1.0000000000000000E+00     7.9999999999947247E-01     0.0000000000000000E+00 
    1.0000000000000000E+00     8.4999999999960441E-01     0.0000000000000000E+00 
    1.0000000000000000E+00     8.9999999999973623E-01     0.0000000000000000E+00 
    1.0000000000000000E+00     9.4999999999986817E-01     0.0000000000000000E+00 
    4.7500000000196618E-01     1.0000000000000000E+00     0.0000000000000000E+00 
    9.2499999999968763E-01     1.0000000000000000E+00     0.0000000000000000E+00 
    8.7499999999961831E-01     1.0000000000000000E+00     0.0000000000000000E+00 
    8.2499999999982654E-01     1.0000000000000000E+00     0.0000000000000000E+00 
    7.7500000000017355E-01     1.0000000000000000E+00     0.0000000000000000E+00 
    7.2500000000052045E-01     1.0000000000000000E+00     0.0000000000000000E+00 
    6.7500000000086724E-01     1.0000000000000000E+00     0.0000000000000000E+00 
    6.2500000000121403E-01     1.0000000000000000E+00     0.0000000000000000E+00 
    5.7500000000156093E-01     1.0000000000000000E+00     0.0000000000000000E+00 
    5.2500000000189684E-01     1.0000000000000000E+00     0.0000000000000000E+00 
    9.7499999999989595E-01     1.0000000000000000E+00     0.0000000000000000E+00 
    4.2500000000176902E-01     1.0000000000000000E+00     0.0000000000000000E+00 
    3.7500000000156092E-01     1.0000000000000000E+00     0.0000000000000000E+00 
    3.2500000000135282E-01     1.0000000000000000E+00     0.0000000000000000E+00 
    2.7500000000114472E-01     1.0000000000000000E+00     0.0000000000000000E+00 
    2.2500000000093659E-01     1.0000000000000000E+00     0.0000000000000000E+00 
    1.7500000000072849E-01     1.0000000000000000E+00     0.0000000000000000E+00 
    1.2500000000052039E-01     1.0000000000000000E+00     0.0000000000000000E+00 
    7.5000000000312261E-02     1.0000000000000000E+00     0.0000000000000000E+00 
    2.5000000000104109E-02     1.0000000000000000E+00     0.0000000000000000E+00 
    4.5000000000187301E-01     1.0000000000000000E+00     0.0000000000000000E+00 
    8.9999999999958358E-01     1.0000000000000000E+00     0.0000000000000000E+00 
    8.4999999999965303E-01     1.0000000000000000E+00     0.0000000000000000E+00 
    8.0000000000000004E-01     1.0000000000000000E+00     0.0000000000000000E+00 
    7.5000000000034706E-01     1.0000000000000000E+00     0.0000000000000000E+00 
    7.0000000000069384E-01     1.0000000000000000E+00     0.0000000000000000E+00 
    6.5000000000104063E-01     1.0000000000000000E+00     0.0000000000000000E+00 
    6.0000000000138742E-01     1.0000000000000000E+00     0.0000000000000000E+00 
    5.5000000000173432E-01     1.0000000000000000E+00     0.0000000000000000E+00 
    5.0000000000205946E-01     1.0000000000000000E+00     0.0000000000000000E+00 
    9.4999999999979179E-01     1.0000000000000000E+00     0.0000000000000000E+00 
    4.0000000000166491E-01     1.0000000000000000E+00     0.0000000000000000E+00 
    3.5000000000145681E-01     1.0000000000000000E+00     0.0000000000000000E+00 
    3.0000000000124871E-01     1.0000000000000000E+00     0.0000000000000000E+00 
    2.5000000000104061E-01     1.0000000000000000E+00     0.0000000000000000E+00 
    2.0000000000083251E-01     1.0000000000000000E+00     0.0000000000000000E+00 
    1.5000000000062441E-01     1.0000000000000000E+00     0.0000000000000000E+00 
    1.0000000000041630E-01     1.0000000000000000E+00     0.0000000000000000E+00 
[...]
CELL_DATA 1600 
SCALARS Pressure double 1 
LOOKUP_TABLE default 

    1.2346632168352387E+00 
    1.1876107410351648E+00 
    1.1851383743976811E+00 
    1.2188470403084903E+00 
    1.2061168682900512E+00 
    1.1813810496762547E+00 
    1.1770285656096888E+00 
    1.1956399371192896E+00 
    1.1868252474472061E+00 
    1.1724691040376412E+00 
    1.1679177262485505E+00 
    1.1792625863046686E+00 
    1.1726630143516961E+00 
    1.1634891334614159E+00 
    1.1592402392413383E+00 
    1.1668196757054996E+00 
    1.1615820292231216E+00 
    1.1551951176728428E+00 
    1.1513596051954664E+00 
    1.1568387457431908E+00 
    1.1525062190723150E+00 
    1.1477298122684858E+00 
    1.1442970456085806E+00 
    1.1485207458748103E+00 
    1.1448331296560608E+00 
    1.1410506152764845E+00 
    1.1379793979940991E+00 
    1.1414049055062430E+00 
    1.1382056620306835E+00 
    1.1350726726486582E+00 
    1.1323205337185069E+00 
    1.1352111155314950E+00 
    1.1324017066077308E+00 
    1.1297140636609118E+00 
    1.1272453711705974E+00 
    1.1297615642394481E+00 
    1.1272777316658684E+00 
    1.1249075580803121E+00 
    1.1226946513852512E+00 
    1.1249395810937095E+00 
    1.1227383662569652E+00 
    1.1206015212308600E+00 
    1.1186237964224455E+00 
    1.1206668767783916E+00 
    1.1187191685244866E+00 
    1.1167577835335385E+00 
    1.1150003924673586E+00 
    1.1168903512321124E+00 
    1.1151764196090557E+00 
    1.1133490694242474E+00 
    1.1118017370558595E+00 
    1.1135741175045633E+00 
    1.1120808269751752E+00 
    1.1103567407264712E+00 
    1.1090127988597287E+00 
    1.1106944752537091E+00 
    1.1094134525251493E+00 
    1.1077689537357120E+00 
    1.1066245155135956E+00 
    1.1082365310022295E+00 
    1.1071627679403546E+00 
    1.1055789832033374E+00 
    1.1046319028315708E+00 
    1.1061913535229497E+00 
    1.1053213121579328E+00 
    1.1037825678155366E+00 
    1.1030293611636013E+00 
    1.1045508639810555E+00 
    1.1038760947522788E+00 
    1.1023683738860446E+00 
    1.1017906366494057E+00 
    1.1032883168878163E+00 
    1.1027696072540001E+00 
    1.1012773960888502E+00 
    1.1008219340515499E+00 
    1.1023105240865863E+00 
    1.1019919734120194E+00 
    1.1005079224348686E+00 
    1.1003609427658920E+00 
    1.1018425536384511E+00 
    1.1629354200086528E+00 
    1.1446936032566353E+00 
    1.1443002867146985E+00 
    1.1621337486951633E+00 
    1.1606561980572330E+00 
    1.1435380696446034E+00 
    1.1424495973380346E+00 
    1.1586623876461126E+00 
    1.1563013036512373E+00 
    1.1410858172172018E+00 
    1.1394991601158584E+00 
    1.1536969914533695E+00 
    1.1509465329156767E+00 
    1.1377392265201973E+00 
    1.1358504880330302E+00 
    1.1481229791613925E+00 
    1.1452797746645493E+00 
    1.1338713844377999E+00 
    1.1318342880507128E+00 
    1.1424551485539640E+00 
    1.1396758961721993E+00 
    1.1297659492337733E+00 
    1.1276881662062834E+00 
    1.1369604136349487E+00 
    1.1343210344660049E+00 
    1.1256185209976097E+00 
    1.1235710919609514E+00 
    1.1317657817378146E+00 
    1.1292996582545023E+00 
    1.1215570978257607E+00 
    1.1195854555492710E+00 
    1.1269255841374275E+00 
    1.1246450713080669E+00 
    1.1176632498761900E+00 
    1.1157961207194835E+00 
    1.1224587046573826E+00 
    1.1203664827272077E+00 
    1.1139885781362402E+00 
    1.1122442557038865E+00 
    1.1183680571135393E+00 
    1.1164628993054047E+00 
    1.1105661127134225E+00 
    1.1089565945217215E+00 
    1.1146504157805737E+00 
    1.1129300263347253E+00 
    1.1074177590674830E+00 
    1.1059513761788051E+00 
    1.1113012163232387E+00 
    1.1097635703243629E+00 
    1.1045590049797520E+00 
    1.1032420534410217E+00 
    1.1083167923358181E+00 
    1.1069607156671402E+00 
    1.1020018228252444E+00 
    1.1008395382101717E+00 
    1.1056953038041857E+00 
    1.1045206410625228E+00 
    1.0997563638459604E+00 
    1.0987533972701806E+00 
    1.1034369073681527E+00 
    1.1024443211634918E+00 
    1.0978316246143032E+00 
    1.0969917910863056E+00 
    1.1015430086202302E+00 
    1.1007326984599608E+00 
    1.0962340777254846E+00 
    1.0955573624255457E+00 
    1.1000120325004092E+00 
    1.0993771084264850E+00 
    1.0949576555027840E+00 
    1.0944248533159961E+00 
    1.0988185189342992E+00 
    1.0983162526333601E+00 
    1.0939371297981688E+00 
    1.0935043501672004E+00 
    1.0978696866896462E+00 
    1.0975655959816113E+00 
    1.0932150817452262E+00 
    1.0930802618499365E+00 
    1.0974235990492736E+00 
    1.1290732024236287E+00 
    1.1146675974398459E+00 
    1.1145086811814238E+00 
    1.1288367904641896E+00 
    1.1283715049260037E+00 
    1.1141939748447034E+00 
    1.1137301031301532E+00 
    1.1276923444140603E+00 
    1.1268194091835109E+00 
    1.1131264233035039E+00 
    1.1123943828665888E+00 
    1.1257758693046591E+00 
    1.1245861819306169E+00 
    1.1115468484965587E+00 
    1.1105974818638511E+00 
    1.1232747049754057E+00 
    1.1218647239074342E+00 
    1.1095602057075384E+00 
    1.1084487782407930E+00 
    1.1203778415062442E+00 
    1.1188336552581282E+00 
    1.1072764763854572E+00 
    1.1060558777312512E+00 
    1.1172496455278391E+00 
    1.1156412074175732E+00 
    1.1047987259022365E+00 
    1.1035158625023471E+00 
    1.1140217728949811E+00 
    1.1124029833823095E+00 
    1.1022172095671023E+00 
    1.1009117883981498E+00 
    1.1107948847595306E+00 
    1.1092061260884214E+00 
    1.0996077630759131E+00 
    1.0983124993867701E+00 
    1.1076441503825265E+00 
    1.1061153707693632E+00 
    1.0970326321199775E+00 
    1.0957741355752029E+00 
    1.1046253288287093E+00 
    1.1031788341340854E+00 
    1.0945423936454024E+00 
    1.0933422670177999E+00 
    1.1017800854003386E+00 
    1.1004327744024240E+00 
    1.0921781559027304E+00 
    1.0910540572912100E+00 
    1.0991401741616442E+00 
    1.0979052129119986E+00 
    1.0899736160772016E+00 
    1.0889401694430749E+00 
    1.0967305351075631E+00 
    1.0956185501650824E+00 
    1.0879567836018822E+00 
    1.0870262810406022E+00 
    1.0945714685355885E+00 
    1.0935913224375642E+00 
    1.0861512540586917E+00 
    1.0853340545429202E+00 
    1.0926799634042903E+00 
    1.0918390158772031E+00 
    1.0845767350120203E+00 
    1.0838808803307332E+00 
    1.0910697343802485E+00 
    1.0903726443778408E+00 
    1.0832471971780577E+00 
    1.0826746031402650E+00 
    1.0897467288001830E+00 
    1.0891877080923247E+00 
    1.0821582959491420E+00 
    1.0816854196881147E+00 
    1.0886843553702352E+00 
    1.0882123650607241E+00 
    1.0812292668819381E+00 
    1.0808348123728102E+00 
    1.0877971949550127E+00 
    1.0875265641864329E+00 
    1.0805847092037792E+00 
    1.0804678614894931E+00 
    1.0874005022960751E+00 
    1.1008140831485922E+00 
    1.0871528219106990E+00 
    1.0870659934201665E+00 
    1.1006994673845785E+00 
    1.1004718142382253E+00 
    1.0868932578062533E+00 
    1.0866366720090463E+00 
    1.1001345878019739E+00 
    1.0996928002881119E+00 
    1.0862992400393019E+00 
    1.0858848167492692E+00 
    1.0991527793468048E+00 
    1.0985218981261480E+00 
    1.0853979879411757E+00 
    1.0848439382576922E+00 
    1.0978082965776184E+00 
    1.0970206151427453E+00 
    1.0842283160018995E+00 
    1.0835571021469550E+00 
    1.0961677550883078E+00 
    1.0952586736210514E+00 
    1.0828364889120030E+00 
    1.0820727714709828E+00 
    1.0943022169377430E+00 
    1.0933069907149673E+00 
    1.0812722547566918E+00 
    1.0804411760077455E+00 
    1.0922812651392082E+00 
    1.0912329102140690E+00 
    1.0795856427083519E+00 
    1.0787115848751068E+00 
    1.0901693565074169E+00 
    1.0890975764768425E+00 
    1.0778247202110729E+00 
    1.0769305304236707E+00 
    1.0880240818345055E+00 
    1.0869549329252230E+00 
    1.0760342469361448E+00 
    1.0751408442633361E+00 
    1.0858957566810243E+00 
    1.0848517703041023E+00 
    1.0742550394280799E+00 
    1.0733812959276905E+00 
    1.0838278083678656E+00 
    1.0828283514797885E+00 
    1.0725238308868690E+00 
    1.0716866241176606E+00 
    1.0818575549935292E+00 
    1.0809192764580657E+00 
    1.0708734277985192E+00 
    1.0700877752935036E+00 
    1.0800171004846204E+00 
    1.0791543593528048E+00 
    1.0693329870677164E+00 
    1.0686121702546725E+00 
    1.0783341466088503E+00 
    1.0775593181890815E+00 
    1.0679282049884951E+00 
    1.0672837019732233E+00 
    1.0768324686679229E+00 
    1.0761558527305559E+00 
    1.0666808947474715E+00 
    1.0661213846719075E+00 
    1.0755311819073261E+00 
    1.0749591493113799E+00 
    1.0656055723943691E+00 
    1.0651314469465289E+00 
    1.0744383982812604E+00 
    1.0739633060889227E+00 
    1.0646918991926897E+00 
    1.0642677386195942E+00 
    1.0735186776237726E+00 
    1.0730783251881875E+00 
    1.0638418001719459E+00 
    1.0634997465250982E+00 
    1.0727079384611427E+00 
    1.0724786497920191E+00 
    1.0632918634299762E+00 
    1.0631918976537524E+00 
    1.0723704240082759E+00 
    1.0734701561740267E+00 
    1.0596315698122432E+00 
    1.0595762173860515E+00 
    1.0734018779278924E+00 
    1.0732659238232773E+00 
    1.0594659432849756E+00 
    1.0593017036494197E+00 
    1.0730636422634661E+00 
    1.0727970032575644E+00 
    1.0590848880306145E+00 
    1.0588172963687765E+00 
    1.0724685537499374E+00 
    1.0720813588437532E+00 
    1.0585011074207660E+00 
    1.0581388413714767E+00 
    1.0716389341918509E+00 
    1.0711451737118309E+00 
    1.0577333187077591E+00 
    1.0572876171041177E+00 
    1.0706042761261150E+00 
    1.0700206732287876E+00 
    1.0568050278448156E+00 
    1.0562890130811242E+00 
    1.0693989621551800E+00 
    1.0687438433035295E+00 
    1.0557431649810545E+00 
    1.0551711675812747E+00 
    1.0680600649713774E+00 
    1.0673523752539997E+00 
    1.0545767619105932E+00 
    1.0539637147326941E+00 
    1.0666254813254672E+00 
    1.0658840158895670E+00 
    1.0533357910604011E+00 
    1.0526967304278620E+00 
    1.0651325103428397E+00 
    1.0643753740239745E+00 
    1.0520502267702188E+00 
    1.0513999116484605E+00 
    1.0636168788173750E+00 
    1.0628611483159009E+00 
    1.0507493404626584E+00 
    1.0501019812073007E+00 
    1.0621121507080291E+00 
    1.0613736945129526E+00 
    1.0494612052182768E+00 
    1.0488302792075266E+00 
    1.0606494262080000E+00 
    1.0599428286174493E+00 
    1.0482123576118647E+00 
    1.0476104737547871E+00 
    1.0592572185456535E+00 
    1.0585957412864631E+00 
    1.0470275272030800E+00 
    1.0464662621761700E+00 
    1.0579613577056224E+00 
    1.0573568149868291E+00 
    1.0459292259103894E+00 
    1.0454186819010405E+00 
    1.0567845809669012E+00 
    1.0562466962775114E+00 
    1.0449364224576076E+00 
    1.0444833656641053E+00 
    1.0557444461340002E+00 
    1.0552776568833049E+00 
    1.0440587070676821E+00 
    1.0436580812655394E+00 
    1.0548432039565334E+00 
    1.0544315108248725E+00 
    1.0432688721598138E+00 
    1.0428579333022094E+00 
    1.0540167328795653E+00 
    1.0536030091995461E+00 
    1.0424582629456278E+00 
    1.0421749721022473E+00 
    1.0532919620037902E+00 
    1.0531055106173925E+00 
    1.0420049013548855E+00 
    1.0419202360324893E+00 
    1.0530139348974312E+00 
    1.0455491181822130E+00 
    1.0311640701003981E+00 
    1.0311247609759624E+00 
    1.0455030376915881E+00 
    1.0454112070468955E+00 
    1.0310464100315895E+00 
    1.0309295905784197E+00 
    1.0452743481912683E+00 
    1.0450935013031259E+00 
    1.0307751203424083E+00 
    1.0305840530935417E+00 
    1.0448700116433851E+00 
    1.0446055111038990E+00 
    1.0303576669787911E+00 
    1.0300974503107736E+00 
    1.0443018959439470E+00 
    1.0439613018642566E+00 
    1.0298050855035557E+00 
    1.0294824316899729E+00 
    1.0435860773512347E+00 
    1.0431787561137167E+00 
    1.0291315064844133E+00 
    1.0287544673085924E+00 
    1.0427420293421501E+00 
    1.0422787184225688E+00 
    1.0283535926539007E+00 
    1.0279312636061493E+00 
    1.0417917486322901E+00 
    1.0412841242341857E+00 
    1.0274899459061881E+00 
    1.0270321727637588E+00 
    1.0407589052763291E+00 
    1.0402191862977237E+00 
    1.0265605285831705E+00 
    1.0260776336983848E+00 
    1.0396680770411748E+00 
    1.0391086851817806E+00 
    1.0255861301509854E+00 
    1.0250886684742535E+00 
    1.0385441009921546E+00 
    1.0379773837783131E+00 
    1.0245878953634462E+00 
    1.0240864420028202E+00 
    1.0374115498231073E+00 
    1.0368495614478792E+00 
    1.0235869126572374E+00 
    1.0230918728656910E+00 
    1.0362943166096263E+00 
    1.0357486381101895E+00 
    1.0226038360782035E+00 
    1.0221252465901711E+00 
    1.0352152608241330E+00 
    1.0346968139192763E+00 
    1.0216584545323870E+00 
    1.0212056740469373E+00 
    1.0341957917905762E+00 
    1.0337144998715049E+00 
    1.0207689055257338E+00 
    1.0203497810024889E+00 
    1.0332549444739896E+00 
    1.0328186006290765E+00 
    1.0199492485617137E+00 
    1.0195669255390349E+00 
    1.0324059246113766E+00 
    1.0320153317825385E+00 
    1.0191997278333793E+00 
    1.0188385171335479E+00 
    1.0316408701469642E+00 
    1.0312655884988025E+00 
    1.0184573600541784E+00 
    1.0180433661232011E+00 
    1.0308567642582263E+00 
    1.0304787926800785E+00 
    1.0176964698514934E+00 
    1.0174646983932900E+00 
    1.0302196745350862E+00 
    1.0300597496456652E+00 
    1.0173155028254941E+00 
    1.0172408847643848E+00 
    1.0299798847702646E+00 
    1.0164369889968818E+00 
    1.0013417608717483E+00 
    1.0013110824674238E+00 
    1.0164026621217808E+00 
    1.0163342336867272E+00 
    1.0012499216038451E+00 
    1.0011586839651472E+00 
    1.0162321779358114E+00 
    1.0160971645183474E+00 
    1.0010379373428919E+00 
    1.0008884069190735E+00 
    1.0159300525317660E+00 
    1.0157318825783024E+00 
    1.0007109694714056E+00 
    1.0005066463646748E+00 
    1.0155038670838443E+00 
    1.0152473793197667E+00 
    1.0002765956174677E+00 
    1.0000221032583005E+00 
    1.0149639414557605E+00 
    1.0146552119190217E+00 
    9.9974457414295903E-01 
    9.9944552238265416E-01 
    1.0143229723058478E+00 
    1.0139691140681748E+00 
    9.9912656151715262E-01 
    9.9878939455242199E-01 
    1.0135956251733633E+00 
    1.0132045769083231E+00 
    9.9843580396591314E-01 
    9.9806764176295593E-01 
    1.0127981109681514E+00 
    1.0123784269343292E+00 
    9.9768681964366501E-01 
    9.9729529930930771E-01 
    1.0119477702072097E+00 
    1.0115084204097451E+00 
    9.9689508289688167E-01 
    9.9648820347464750E-01 
    1.0110626802196636E+00 
    1.0106128645064025E+00 
    9.9607671544793341E-01 
    9.9566268459043794E-01 
    1.0101612895291567E+00 
    1.0097102617567937E+00 
    9.9524817718375558E-01 
    9.9483524731752815E-01 
    1.0092620655236171E+00 
    1.0088189480721261E+00 
    9.9442592055786350E-01 
    9.9402217045693286E-01 
    1.0083830991853875E+00 
    1.0079566197499661E+00 
    9.9362588072832170E-01 
    9.9323877822788054E-01 
    1.0075414674078327E+00 
    1.0071393542874529E+00 
    9.9286230606864190E-01 
    9.9249737463802246E-01 
    1.0067515449688131E+00 
    1.0063784498315465E+00 
    9.9214386307315627E-01 
    9.9179957601453805E-01 
    1.0060187921776491E+00 
    1.0056677660682467E+00 
    9.9145774601069225E-01 
    9.9109927561012878E-01 
    1.0053120452897426E+00 
    1.0049134977720975E+00 
    9.9068448425739730E-01 
    9.9027535746799489E-01 
    1.0044940234961004E+00 
    1.0041756102097252E+00 
    9.8997810753137927E-01 
    9.8977470752331864E-01 
    1.0039651117446353E+00 
    1.0038255904875970E+00 
    9.8963933152630856E-01 
    9.8957166013211484E-01 
    1.0037557041476819E+00 
    9.8586186533062958E-01 
    9.6998800303331234E-01 
    9.6996170621854616E-01 
    9.8583379897874635E-01 
    9.8577784089398335E-01 
    9.6990927133652849E-01 
    9.6983102048126313E-01 
    9.8569434809251510E-01 
    9.8558381689274011E-01 
    9.6972739964921961E-01 
    9.6959897493634961E-01 
    9.8544687882440318E-01 
    9.8528429612325397E-01 
    9.6944642882628451E-01 
    9.6927055584664523E-01 
    9.8509695635954264E-01 
    9.8488586638959119E-01 
    9.6907225771167849E-01 
    9.6885253805689242E-01 
    9.8465214577753146E-01 
    9.8439701979928684E-01 
    9.6861249684172290E-01 
    9.6835332447881117E-01 
    9.8412181212193295E-01 
    9.8382793723915418E-01 
    9.6807629573706133E-01 
    9.6778276345558190E-01 
    9.8351689273239540E-01 
    9.8319025141464189E-01 
    9.6747415209392962E-01 
    9.6715195112814922E-01 
    9.8284965339758734E-01 
    9.8249679810122592E-01 
    9.6681770827926172E-01 
    9.6647302252738310E-01 
    9.8213343619451365E-01 
    9.8176136141086090E-01 
    9.6611953681236573E-01 
    9.6575893023633763E-01 
    9.8138240211266692E-01 
    9.8099841236625795E-01 
    9.6539290943948863E-01 
    9.6502319856677443E-01 
    9.8061126209505300E-01 
    9.8022282552909279E-01 
    9.6465152677765231E-01 
    9.6427961137122831E-01 
    9.7983496651072521E-01 
    9.7944951792914148E-01 
    9.6390913289268187E-01 
    9.6354169522454058E-01 
    9.7906824997340380E-01 
    9.7869281664857444E-01 
    9.6317875699322142E-01 
    9.6282150739586525E-01 
    9.7832465938685220E-01 
    9.7796482539532148E-01 
    9.6247063306813707E-01 
    9.6212586552201107E-01 
    9.7761361550483206E-01 
    9.7726987854226244E-01 
    9.6178504917000784E-01 
    9.6144194846107489E-01 
    9.7692947610320791E-01 
    9.7658124898703258E-01 
    9.6107967869314181E-01 
    9.6065040160458826E-01 
    9.7619283054001127E-01 
    9.7575155121216905E-01 
    9.6018672829996354E-01 
    9.5982864899511700E-01 
    9.7537052079593711E-01 
    9.7510139696294451E-01 
    9.5957665593414521E-01 
    9.5938804638474950E-01 
    9.7490622254311643E-01 
    9.7477602655113371E-01 
    9.5926200541809170E-01 
    9.5919890045617739E-01 
    9.7471090217493817E-01 
    9.5371659397840147E-01 
    9.3704887000196702E-01 
    9.3702401822072512E-01 
    9.5369134599971073E-01 
    9.5364099686089265E-01 
    9.3697445258623813E-01 
    9.3690045342639250E-01 
    9.5356584382610499E-01 
    9.5346629821222706E-01 
    9.3680240971409345E-01 
    9.3668081532448211E-01 
    9.5334288167689407E-01 
    9.5319622299678863E-01 
    9.3653626610551977E-01 
    9.3636945657768078E-01 
    9.5302705437180746E-01 
    9.5283620731978358E-01 
    9.3618117628500730E-01 
    9.3597230585837332E-01 
    9.5262460824064088E-01 
    9.5239327370298899E-01 
    9.3574381282821883E-01 
    9.3549674720556542E-01 
    9.5214330548893988E-01 
    9.5187588542110235E-01 
    9.3523223683633594E-01 
    9.3495148252180416E-01 
    9.5159226998518842E-01 
    9.5129378474917925E-01 
    9.3465575288336256E-01 
    9.3434637892550065E-01 
    9.5098181856130193E-01 
    9.5065781748045752E-01 
    9.3402474821069259E-01 
    9.3369229849968838E-01 
    9.5032327834998198E-01 
    9.4997974185707390E-01 
    9.3335051061420460E-01 
    9.3300090011202585E-01 
    9.4962878480399493E-01 
    9.4927201111764947E-01 
    9.3264500707610409E-01 
    9.3228438280623160E-01 
    9.4891104076901922E-01 
    9.4854749512252201E-01 
    9.3192057126991834E-01 
    9.3155508144534593E-01 
    9.4818297601478352E-01 
    9.4781903353634100E-01 
    9.3118934346345139E-01 
    9.3082463532292747E-01 
    9.4745711300597202E-01 
    9.4709846288422506E-01 
    9.3046195501206175E-01 
    9.3010178863607851E-01 
    9.4674396808924444E-01 
    9.4639383713200287E-01 
    9.2974367055587392E-01 
    9.2938528406600029E-01 
    9.4604698516772412E-01 
    9.4569969413438304E-01 
    9.2902034526367172E-01 
    9.2863232054781175E-01 
    9.4534210377305417E-01 
    9.4494598704643740E-01 
    9.2817179200376576E-01 
    9.2765055115713979E-01 
    9.4447513153716378E-01 
    9.4402144358220719E-01 
    9.2722064684676775E-01 
    9.2690670352082316E-01 