# vtk DataFile Version 2.0
Pressure Field Data 
ASCII 
DATASET UNSTRUCTURED_GRID 

POINTS 1681 double 

    0.0000000000000000E+00     0.0000000000000000E+00     0.0000000000000000E+00 
    1.0000000000000000E+00     0.0000000000000000E+00     0.0000000000000000E+00 
    1.0000000000000000E+00     1.0000000000000000E+00     0.0000000000000000E+00 
    0.0000000000000000E+00     1.0000000000000000E+00     0.0000000000000000E+00 
    5.2499999999875258E-01     0.0000000000000000E+00     0.0000000000000000E+00 
    7.4999999999856765E-02     0.0000000000000000E+00     0.0000000000000000E+00 
    1.2499999999975850E-01     0.0000000000000000E+00     0.0000000000000000E+00 
    1.7499999999962990E-01     0.0000000000000000E+00     0.0000000000000000E+00 
    2.2499999999948389E-01     0.0000000000000000E+00     0.0000000000000000E+00 
    2.7499999999933789E-01     0.0000000000000000E+00     0.0000000000000000E+00 
    3.2499999999919210E-01     0.0000000000000000E+00     0.0000000000000000E+00 
    3.7499999999904610E-01     0.0000000000000000E+00     0.0000000000000000E+00 
    4.2499999999890020E-01     0.0000000000000000E+00     0.0000000000000000E+00 
    4.7499999999875958E-01     0.0000000000000000E+00     0.0000000000000000E+00 
    2.4999999999949701E-02     0.0000000000000000E+00     0.0000000000000000E+00 
    5.7499999999887907E-01     0.0000000000000000E+00     0.0000000000000000E+00 
    6.2499999999901101E-01     0.0000000000000000E+00     0.0000000000000000E+00 
    6.7499999999914273E-01     0.0000000000000000E+00     0.0000000000000000E+00 
    7.2499999999927467E-01     0.0000000000000000E+00     0.0000000000000000E+00 
    7.7499999999940661E-01     0.0000000000000000E+00     0.0000000000000000E+00 
    8.2499999999953844E-01     0.0000000000000000E+00     0.0000000000000000E+00 
    8.7499999999967026E-01     0.0000000000000000E+00     0.0000000000000000E+00 
    9.2499999999980220E-01     0.0000000000000000E+00     0.0000000000000000E+00 
    9.7499999999993414E-01     0.0000000000000000E+00     0.0000000000000000E+00 
    5.4999999999881310E-01     0.0000000000000000E+00     0.0000000000000000E+00 
    9.9999999999814140E-02     0.0000000000000000E+00     0.0000000000000000E+00 
    1.4999999999970290E-01     0.0000000000000000E+00     0.0000000000000000E+00 
    1.9999999999955689E-01     0.0000000000000000E+00     0.0000000000000000E+00 
    2.4999999999941089E-01     0.0000000000000000E+00     0.0000000000000000E+00 
    2.9999999999926502E-01     0.0000000000000000E+00     0.0000000000000000E+00 
    3.4999999999911913E-01     0.0000000000000000E+00     0.0000000000000000E+00 
    3.9999999999897312E-01     0.0000000000000000E+00     0.0000000000000000E+00 
    4.4999999999882723E-01     0.0000000000000000E+00     0.0000000000000000E+00 
    4.9999999999869210E-01     0.0000000000000000E+00     0.0000000000000000E+00 
    4.9999999999899403E-02     0.0000000000000000E+00     0.0000000000000000E+00 
    5.9999999999894504E-01     0.0000000000000000E+00     0.0000000000000000E+00 
    6.4999999999907687E-01     0.0000000000000000E+00     0.0000000000000000E+00 
    6.9999999999920870E-01     0.0000000000000000E+00     0.0000000000000000E+00 
    7.4999999999934064E-01     0.0000000000000000E+00     0.0000000000000000E+00 
    7.9999999999947247E-01     0.0000000000000000E+00     0.0000000000000000E+00 
    8.4999999999960441E-01     0.0000000000000000E+00     0.0000000000000000E+00 
    8.9999999999973623E-01     0.0000000000000000E+00     0.0000000000000000E+00 
    9.4999999999986817E-01     0.0000000000000000E+00     0.0000000000000000E+00 
    1.0000000000000000E+00     5.2499999999875258E-01     0.0000000000000000E+00 
    1.0000000000000000E+00     7.4999999999856765E-02     0.0000000000000000E+00 
    1.0000000000000000E+00     1.2499999999975850E-01     0.0000000000000000E+00 
    1.0000000000000000E+00     1.7499999999962990E-01     0.0000000000000000E+00 
    1.0000000000000000E+00     2.2499999999948389E-01     0.0000000000000000E+00 
    1.0000000000000000E+00     2.7499999999933789E-01     0.0000000000000000E+00 
    1.0000000000000000E+00     3.2499999999919210E-01     0.0000000000000000E+00 
    1.0000000000000000E+00     3.7499999999904610E-01     0.0000000000000000E+00 
    1.0000000000000000E+00     4.2499999999890020E-01     0.0000000000000000E+00 
    1.0000000000000000E+00     4.7499999999875958E-01     0.0000000000000000E+00 
    1.0000000000000000E+00     2.4999999999949701E-02     0.0000000000000000E+00 
    1.0000000000000000E+00     5.7499999999887907E-01     0.0000000000000000E+00 
    1.0000000000000000E+00     6.2499999999901101E-01     0.0000000000000000E+00 
    1.0000000000000000E+00     6.7499999999914273E-01     0.0000000000000000E+00 
    1.0000000000000000E+00     7.2499999999927467E-01     0.0000000000000000E+00 
    1.0000000000000000E+00     7.7499999999940661E-01     0.0000000000000000E+00 
    1.0000000000000000E+00     8.2499999999953844E-01     0.0000000000000000E+00 
    1.0000000000000000E+00     8.7499999999967026E-01     0.0000000000000000E+00 
    1.0000000000000000E+00     9.2499999999980220E-01     0.0000000000000000E+00 
    1.0000000000000000E+00     9.7499999999993414E-01     0.0000000000000000E+00 
    1.0000000000000000E+00     5.4999999999881310E-01     0.0000000000000000E+00 
    1.0000000000000000E+00     9.9999999999814140E-02     0.0000000000000000E+00 
    1.0000000000000000E+00     1.4999999999970290E-01     0.0000000000000000E+00 
    1.0000000000000000E+00     1.9999999999955689E-01     0.0000000000000000E+00 
    1.0000000000000000E+00     2.4999999999941089E-01     0.0000000000000000E+00 
    1.0000000000000000E+00     2.9999999999926502E-01     0.0000000000000000E+00 
    1.0000000000000000E+00     3.4999999999911913E-01     0.0000000000000000E+00 
    1.0000000000000000E+00     3.9999999999897312E-01     0.0000000000000000E+00 
    1.0000000000000000E+00     4.4999999999882723E-01     0.0000000000000000E+00 
    1.0000000000000000E+00     4.9999999999869210E-01     0.0000000000000000E+00 
    1.0000000000000000E+00     4.9999999999899403E-02     0.0000000000000000E+00 
    1.0000000000000000E+00     5.9999999999894504E-01     0.0000000000000000E+00 
    1.0000000000000000E+00     6.4999999999907687E-01     0.0000000000000000E+00 
    1.0000000000000000E+00     6.9999999999920870E-01     0.0000000000000000E+00 
    1.0000000000000000E+00     7.4999999999934064E-01     0.0000000000000000E+00 
    1.0000000000000000E+00     7.9999999999947247E-01     0.0000000000000000E+00 
    1.0000000000000000E+00     8.4999999999960441E-01     0.0000000000000000E+00 
    1.0000000000000000E+00     8.9999999999973623E-01     0.0000000000000000E+00 
    1.0000000000000000E+00     9.4999999999986817E-01     0.0000000000000000E+00 
    4.7500000000196618E-01     1.0000000000000000E+00     0.0000000000000000E+00 
    9.2499999999968763E-01     1.0000000000000000E+00     0.0000000000000000E+00 
    8.7499999999961831E-01     1.0000000000000000E+00     0.0000000000000000E+00 
    8.2499999999982654E-01     1.0000000000000000E+00     0.0000000000000000E+00 
    7.7500000000017355E-01     1.0000000000000000E+00     0.0000000000000000E+00 
    7.2500000000052045E-01     1.0000000000000000E+00     0.0000000000000000E+00 
    6.7500000000086724E-01     1.0000000000000000E+00     0.0000000000000000E+00 
    6.2500000000121403E-01     1.0000000000000000E+00     0.0000000000000000E+00 
    5.7500000000156093E-01     1.0000000000000000E+00     0.0000000000000000E+00 
    5.2500000000189684E-01     1.0000000000000000E+00     0.0000000000000000E+00 
    9.7499999999989595E-01     1.0000000000000000E+00     0.0000000000000000E+00 
    4.2500000000176902E-01     1.0000000000000000E+00     0.0000000000000000E+00 
    3.7500000000156092E-01     1.0000000000000000E+00     0.0000000000000000E+00 
    3.2500000000135282E-01     1.0000000000000000E+00     0.0000000000000000E+00 
    2.7500000000114472E-01     1.0000000000000000E+00     0.0000000000000000E+00 
    2.2500000000093659E-01     1.0000000000000000E+00     0.0000000000000000E+00 
    1.7500000000072849E-01     1.0000000000000000E+00     0.0000000000000000E+00 
    1.2500000000052039E-01     1.0000000000000000E+00     0.0000000000000000E+00 
    7.5000000000312261E-02     1.0000000000000000E+00     0.0000000000000000E+00 
    2.5000000000104109E-02     1.0000000000000000E+00     0.0000000000000000E+00 
    4.5000000000187301E-01     1.0000000000000000E+00     0.0000000000000000E+00 
    8.9999999999958358E-01     1.0000000000000000E+00     0.0000000000000000E+00 
    8.4999999999965303E-01     1.0000000000000000E+00     0.0000000000000000E+00 
    8.0000000000000004E-01     1.0000000000000000E+00     0.0000000000000000E+00 
    7.5000000000034706E-01     1.0000000000000000E+00     0.0000000000000000E+00 
    7.0000000000069384E-01     1.0000000000000000E+00     0.0000000000000000E+00 
    6.5000000000104063E-01     1.0000000000000000E+00     0.0000000000000000E+00 
    6.0000000000138742E-01     1.0000000000000000E+00     0.0000000000000000E+00 
    5.5000000000173432E-01     1.0000000000000000E+00     0.0000000000000000E+00 
    5.0000000000205946E-01     1.0000000000000000E+00     0.0000000000000000E+00 
    9.4999999999979179E-01     1.0000000000000000E+00     0.0000000000000000E+00 
    4.0000000000166491E-01     1.0000000000000000E+00     0.0000000000000000E+00 
    3.5000000000145681E-01     1.0000000000000000E+00     0.0000000000000000E+00 
    3.0000000000124871E-01     1.0000000000000000E+00     0.0000000000000000E+00 
    2.5000000000104061E-01     1.0000000000000000E+00     0.0000000000000000E+00 
    2.0000000000083251E-01     1.0000000000000000E+00     0.0000000000000000E+00 
    1.5000000000062441E-01     1.0000000000000000E+00     0.0000000000000000E+00 
    1.0000000000041630E-01     1.0000000000000000E+00     0.0000000000000000E+00 
[...]
CELL_DATA 1600 
SCALARS Pressure double 1 
LOOKUP_TABLE default 

    1.4010043797968534E+00 
    1.3517998332765901E+00 
    1.3491573962068397E+00 
    1.3848336856236156E+00 
    1.3715987236233314E+00 
    1.3450888658307740E+00 
    1.3403177885979820E+00 
    1.3605392601815791E+00 
    1.3510806351070936E+00 
    1.3352517328889730E+00 
    1.3301207289372625E+00 
    1.3428232108356262E+00 
    1.3354862684237736E+00 
    1.3250517123331769E+00 
    1.3201118734875383E+00 
    1.3288698619566148E+00 
    1.3228294715230233E+00 
    1.3153340401390534E+00 
    1.3107315639135728E+00 
    1.3172591027878156E+00 
    1.3120799129513236E+00 
    1.3063070430989681E+00 
    1.3020574131895604E+00 
    1.3072324682878067E+00 
    1.3026714084238475E+00 
    1.2979768924493331E+00 
    1.2940586600484296E+00 
    1.2983617219013048E+00 
    1.2942761123151325E+00 
    1.2902957863974889E+00 
    1.2866817240797004E+00 
    1.2903931108877083E+00 
    1.2866957055834434E+00 
    1.2832105424907772E+00 
    1.2798770145741545E+00 
    1.2831703313243104E+00 
    1.2798061146939073E+00 
    1.2766766191488368E+00 
    1.2736054949837072E+00 
    1.2765942985884575E+00 
    1.2735277930835422E+00 
    1.2706603655327031E+00 
    1.2678384413397814E+00 
    1.2706008115613694E+00 
    1.2678085573632769E+00 
    1.2651372969887729E+00 
    1.2625547074188244E+00 
    1.2651469255539616E+00 
    1.2626121736104317E+00 
    1.2600884086229041E+00 
    1.2577357075653575E+00 
    1.2602004845664616E+00 
    1.2579072703008425E+00 
    1.2554927724337157E+00 
    1.2533531857418485E+00 
    1.2557258634451478E+00 
    1.2536446600696425E+00 
    1.2513045663157791E+00 
    1.2493191111327404E+00 
    1.2516396854108507E+00 
    1.2496527703651701E+00 
    1.2473249682464738E+00 
    1.2452316380991955E+00 
    1.2475716358146849E+00 
    1.2456184020139962E+00 
    1.2433232167422290E+00 
    1.2417833263809008E+00 
    1.2440338194299621E+00 
    1.2427171543746658E+00 
    1.2404894762441099E+00 
    1.2394141757830717E+00 
    1.2416233513799124E+00 
    1.2407504659448441E+00 
    1.2385558006930515E+00 
    1.2379131002709511E+00 
    1.2400970470349530E+00 
    1.2396620228014625E+00 
    1.2374851454999840E+00 
    1.2372713212646926E+00 
    1.2394446862981203E+00 
    1.3242423135207166E+00 
    1.3026494137420148E+00 
    1.3021734191423555E+00 
    1.3233336410483270E+00 
    1.3216450240285342E+00 
    1.3012464397835029E+00 
    1.2999146605006384E+00 
    1.3193453248195122E+00 
    1.3165933678711452E+00 
    1.2982337704970250E+00 
    1.2962616930344517E+00 
    1.3135229248536660E+00 
    1.3102403689829147E+00 
    1.2940539299638458E+00 
    1.2916610036581397E+00 
    1.3068274410823952E+00 
    1.3033455926176856E+00 
    1.2891273621985853E+00 
    1.2864912074450334E+00 
    1.2998403504480587E+00 
    1.2963451086357820E+00 
    1.2837848492314694E+00 
    1.2810353192603414E+00 
    1.2928841974387042E+00 
    1.2894752687336164E+00 
    1.2782650779995943E+00 
    1.2754927175620228E+00 
    1.2861311037207710E+00 
    1.2828609598529574E+00 
    1.2727336092388839E+00 
    1.2700004727070417E+00 
    1.2796715623997355E+00 
    1.2765678273981649E+00 
    1.2673038604558873E+00 
    1.2646525597634362E+00 
    1.2735533837525546E+00 
    1.2706309454688174E+00 
    1.2620539183634898E+00 
    1.2595141005039627E+00 
    1.2678025709567828E+00 
    1.2650698345412488E+00 
    1.2570382782446152E+00 
    1.2546307585701575E+00 
    1.2624339247336087E+00 
    1.2598956726857040E+00 
    1.2522950390253813E+00 
    1.2500337696892829E+00 
    1.2574554994141407E+00 
    1.2551132451454108E+00 
    1.2478485684921383E+00 
    1.2457395653937406E+00 
    1.2528677919457758E+00 
    1.2507162645759307E+00 
    1.2437043605834446E+00 
    1.2417354633385431E+00 
    1.2486522369088426E+00 
    1.2466611071057336E+00 
    1.2398127657122382E+00 
    1.2378777241793175E+00 
    1.2447057398308230E+00 
    1.2426858890608965E+00 
    1.2358194513306946E+00 
    1.2338175581448041E+00 
    1.2406073232004775E+00 
    1.2388006635163449E+00 
    1.2321503073496392E+00 
    1.2307517778058421E+00 
    1.2373284674313605E+00 
    1.2360767133653559E+00 
    1.2295561038676510E+00 
    1.2285612254154876E+00 
    1.2350357464760260E+00 
    1.2342043887620413E+00 
    1.2277663173553977E+00 
    1.2271707175947260E+00 
    1.2335816969956181E+00 
    1.2331669628417508E+00 
    1.2267739282787469E+00 
    1.2265756168581443E+00 
    1.2329597138783606E+00 
    1.2832651879651344E+00 
    1.2647165477799300E+00 
    1.2644971866742742E+00 
    1.2829595428148626E+00 
    1.2823561661579284E+00 
    1.2640619268440030E+00 
    1.2634187198069804E+00 
    1.2814720068334202E+00 
    1.2803299201482026E+00 
    1.2625787852927515E+00 
    1.2615558865320522E+00 
    1.2789564614416227E+00 
    1.2773799365504781E+00 
    1.2603655764961261E+00 
    1.2590244894008678E+00 
    1.2756288610835878E+00 
    1.2737308517045962E+00 
    1.2575497252267829E+00 
    1.2559583487924553E+00 
    1.2717119022986159E+00 
    1.2695959700624291E+00 
    1.2542670060028662E+00 
    1.2524916480955439E+00 
    1.2674047932462607E+00 
    1.2651578709632971E+00 
    1.2506473485302205E+00 
    1.2487481949104329E+00 
    1.2628725485736283E+00 
    1.2605641655220852E+00 
    1.2468072385025286E+00 
    1.2448364853808265E+00 
    1.2582462342223912E+00 
    1.2559306279273856E+00 
    1.2428469151468238E+00 
    1.2408485149477151E+00 
    1.2536277624201593E+00 
    1.2513467609470341E+00 
    1.2388503176720571E+00 
    1.2368604332003730E+00 
    1.2490955942045208E+00 
    1.2468811872442072E+00 
    1.2348860596006310E+00 
    1.2329334554884441E+00 
    1.2447094821273381E+00 
    1.2425854369549660E+00 
    1.2310078414805528E+00 
    1.2291131676077875E+00 
    1.2405129231174752E+00 
    1.2384944385491037E+00 
    1.2272516047299136E+00 
    1.2254223815446661E+00 
    1.2365304406199975E+00 
    1.2346177498930604E+00 
    1.2236186866593526E+00 
    1.2218175639858782E+00 
    1.2327450909206346E+00 
    1.2308779627233621E+00 
    1.2199432539421153E+00 
    1.2179168688960467E+00 
    1.2289142734413416E+00 
    1.2268493445126796E+00 
    1.2159609402507459E+00 
    1.2143121294149151E+00 
    1.2250048276389125E+00 
    1.2234767821732775E+00 
    1.2128997541869988E+00 
    1.2116650526527974E+00 
    1.2221572674475816E+00 
    1.2210275395789951E+00 
    1.2106070880526842E+00 
    1.2097257588007333E+00 
    1.2200870004341700E+00 
    1.2193351629545530E+00 
    1.2090209258339406E+00 
    1.2084924476721075E+00 
    1.2187716337469110E+00 
    1.2183961147619680E+00 
    1.2081402026959871E+00 
    1.2079641031055877E+00 
    1.2182084056319455E+00 
    1.2463590395504747E+00 
    1.2278408352869157E+00 
    1.2277041985805812E+00 
    1.2461901546288863E+00 
    1.2458542617534114E+00 
    1.2274320967148733E+00 
    1.2270273494318960E+00 
    1.2453558151258972E+00 
    1.2447011971348125E+00 
    1.2264940079477424E+00 
    1.2258372227939247E+00 
    1.2438984355597107E+00 
    1.2429568860960356E+00 
    1.2250630922435886E+00 
    1.2241784972358329E+00 
    1.2418869039124656E+00 
    1.2406995269516545E+00 
    1.2231909322071290E+00 
    1.2221083398520294E+00 
    1.2394061870723247E+00 
    1.2380184585664793E+00 
    1.2209389558299710E+00 
    1.2196911673550750E+00 
    1.2365478480661423E+00 
    1.2350056256529562E+00 
    1.2183733876588554E+00 
    1.2169939465879773E+00 
    1.2334026940462752E+00 
    1.2317494908462578E+00 
    1.2155609960847404E+00 
    1.2140824279011881E+00 
    1.2300559176441677E+00 
    1.2283312890426745E+00 
    1.2125657994278161E+00 
    1.2110182616403200E+00 
    1.2265842938710934E+00 
    1.2248229596412556E+00 
    1.2094464802501088E+00 
    1.2078565358987334E+00 
    1.2230546088009384E+00 
    1.2212857901517586E+00 
    1.2062537788227812E+00 
    1.2046425905574325E+00 
    1.2195221576702180E+00 
    1.2177682438525033E+00 
    1.2030259475035221E+00 
    1.2014045034658813E+00 
    1.2160270120766359E+00 
    1.2142988840578421E+00 
    1.1997742567760690E+00 
    1.1981193243776633E+00 
    1.2125792404594993E+00 
    1.2108505361324629E+00 
    1.1963857655825010E+00 
    1.1944873355398078E+00 
    1.2090532977192665E+00 
    1.2070965786766321E+00 
    1.1924943363837888E+00 
    1.1906886366482747E+00 
    1.2051021547778855E+00 
    1.2033579640811582E+00 
    1.1891441493241544E+00 
    1.1877770217566104E+00 
    1.2018699689064243E+00 
    1.2005552878583052E+00 
    1.1865622078856088E+00 
    1.1854995458849185E+00 
    1.1994054685258186E+00 
    1.1984202830447197E+00 
    1.1845889105160983E+00 
    1.1838301990598550E+00 
    1.1975995543156828E+00 
    1.1969431406637212E+00 
    1.1832233282093247E+00 
    1.1827682322465594E+00 
    1.1964509297401758E+00 
    1.1961228367727990E+00 
    1.1824648621505673E+00 
    1.1823131852704774E+00 
    1.1959588046753269E+00 
    1.2089487193834285E+00 
    1.1895419203360662E+00 
    1.1894421907007131E+00 
    1.2088338447464813E+00 
    1.2086048909466185E+00 
    1.1892432899684182E+00 
    1.1889466032651783E+00 
    1.2082637912566134E+00 
    1.2078133207748032E+00 
    1.1885541223538905E+00 
    1.1880683998903139E+00 
    1.2072570237544216E+00 
    1.2065991309755968E+00 
    1.1874924978283545E+00 
    1.1868299290037156E+00 
    1.2058444674611362E+00 
    1.2049983544873042E+00 
    1.1860845937008926E+00 
    1.1852607128332553E+00 
    1.2040665095944030E+00 
    1.2030549476181591E+00 
    1.1843627589665322E+00 
    1.1833953858920718E+00 
    1.2019698849178848E+00 
    1.2008176480260913E+00 
    1.1823633567478529E+00 
    1.1812714697183817E+00 
    1.1996045868985641E+00 
    1.1983369917662157E+00 
    1.1801244789941292E+00 
    1.1789270066023505E+00 
    1.1970210111337123E+00 
    1.1956625664281297E+00 
    1.1776834372061704E+00 
    1.1763977814377544E+00 
    1.1942672555832383E+00 
    1.1928402321879754E+00 
    1.1750734799107765E+00 
    1.1737130872921688E+00 
    1.1913860357070196E+00 
    1.1899083235500372E+00 
    1.1723176793951244E+00 
    1.1708855485097776E+00 
    1.1884093893769299E+00 
    1.1868891373509705E+00 
    1.1694087573623686E+00 
    1.1678628139513416E+00 
    1.1853424877401750E+00 
    1.1837513882786845E+00 
    1.1661724661056376E+00 
    1.1642855199670907E+00 
    1.1820562880147882E+00 
    1.1801838421634991E+00 
    1.1623227254962640E+00 
    1.1605155630087527E+00 
    1.1782040409754899E+00 
    1.1763759446148032E+00 
    1.1589510594619465E+00 
    1.1575587229296422E+00 
    1.1748051626888001E+00 
    1.1734135735593114E+00 
    1.1562930385043699E+00 
    1.1551538938692294E+00 
    1.1721610337871247E+00 
    1.1710476092097770E+00 
    1.1541412876055159E+00 
    1.1532552257564270E+00 
    1.1700733569252704E+00 
    1.1692382988616796E+00 
    1.1524957177193798E+00 
    1.1518627739818819E+00 
    1.1685424377468743E+00 
    1.1679857668772682E+00 
    1.1513564047697353E+00 
    1.1509766191622099E+00 
    1.1675682760852091E+00 
    1.1672899553693143E+00 
    1.1507234244732687E+00 
    1.1505968258153771E+00 
    1.1671507970648987E+00 
    1.1695189302780515E+00 
    1.1487978936596737E+00 
    1.1487160750975820E+00 
    1.1694298274466988E+00 
    1.1692520033169407E+00 
    1.1485526601384661E+00 
    1.1483083319324685E+00 
    1.1689864568342809E+00 
    1.1686346407141628E+00 
    1.1479841201012368E+00 
    1.1475813758608460E+00 
    1.1681984293598462E+00 
    1.1676800814819479E+00 
    1.1471017394873100E+00 
    1.1465471015074113E+00 
    1.1670821970297542E+00 
    1.1664076694188454E+00 
    1.1459195582750950E+00 
    1.1452213614123887E+00 
    1.1656596335542215E+00 
    1.1648414096418964E+00 
    1.1444548595816197E+00 
    1.1436224298157223E+00 
    1.1639564421484032E+00 
    1.1630082322920430E+00 
    1.1427263935268370E+00 
    1.1417689079261335E+00 
    1.1620002608774644E+00 
    1.1609358957101918E+00 
    1.1407518139167936E+00 
    1.1396764025041020E+00 
    1.1598182732850513E+00 
    1.1586501351062719E+00 
    1.1385430245621120E+00 
    1.1373503566372443E+00 
    1.1574335758654839E+00 
    1.1561696013214613E+00 
    1.1360937702110638E+00 
    1.1347616379468932E+00 
    1.1548572538402102E+00 
    1.1534915579125355E+00 
    1.1333231424392547E+00 
    1.1317099463183453E+00 
    1.1520581265339913E+00 
    1.1505145926269049E+00 
    1.1298941432317118E+00 
    1.1279551582176961E+00 
    1.1487874442152788E+00 
    1.1468624952595936E+00 
    1.1260962205491061E+00 
    1.1244705107808564E+00 
    1.1449273841504612E+00 
    1.1431892866136844E+00 
    1.1230355918853960E+00 
    1.1217213941796984E+00 
    1.1416684687111682E+00 
    1.1403004698999595E+00 
    1.1205076818606672E+00 
    1.1193944799458002E+00 
    1.1390467707889087E+00 
    1.1379071055480940E+00 
    1.1183818732940949E+00 
    1.1174699773150290E+00 
    1.1368813702370506E+00 
    1.1359695218549903E+00 
    1.1166589261624007E+00 
    1.1159488621550124E+00 
    1.1351715564671356E+00 
    1.1344874935815608E+00 
    1.1153399267699533E+00 
    1.1148322532366859E+00 
    1.1339173649633620E+00 
    1.1334612066159775E+00 
    1.1144259606144793E+00 
    1.1141211491848104E+00 
    1.1331190530533666E+00 
    1.1328909332667270E+00 
    1.1139178969889920E+00 
    1.1138162573641561E+00 
    1.1327768679872068E+00 
    1.1273018660505947E+00 
    1.1049427899965656E+00 
    1.1048674208026463E+00 
    1.1272245922044120E+00 
    1.1270700893282362E+00 
    1.1047164767006106E+00 
    1.1044899401136281E+00 
    1.1268387289699660E+00 
    1.1265311468484602E+00 
    1.1041879875146146E+00 
    1.1038109547961403E+00 
    1.1261482199426498E+00 
    1.1256910297635589E+00 
    1.1033592732668618E+00 
    1.1028333882128081E+00 
    1.1251608164549587E+00 
    1.1245589240125573E+00 
    1.1022336608875509E+00 
    1.1015602398094548E+00 
    1.1238867335110629E+00 
    1.1231455775014267E+00 
    1.1008128568133619E+00 
    1.0999904685773321E+00 
    1.1223366246014674E+00 
    1.1214607174293338E+00 
    1.0990906835065775E+00 
    1.0981089761357887E+00 
    1.1205181306119099E+00 
    1.1195081558240920E+00 
    1.0970370077629483E+00 
    1.0958562013496886E+00 
    1.1184282903483622E+00 
    1.1172727184593669E+00 
    1.0945252436732267E+00 
    1.0930012396419795E+00 
    1.1160289998778885E+00 
    1.1146652978952947E+00 
    1.0912964944959218E+00 
    1.0894762386121584E+00 
    1.1131220019301840E+00 
    1.1113792790452850E+00 
    1.0876750536611373E+00 
    1.0860287577263730E+00 
    1.1094928832779880E+00 
    1.1076259117522342E+00 
    1.0845878582380586E+00 
    1.0833084822223875E+00 
    1.1059392776306913E+00 
    1.1044670488314383E+00 
    1.0821180272899540E+00 
    1.0809955938249518E+00 
    1.1031465437088122E+00 
    1.1019154750414977E+00 
    1.0799423586740859E+00 
    1.0789595399096739E+00 
    1.1007697082864354E+00 
    1.0997097897797230E+00 
    1.0780482457183020E+00 
    1.0772094814832642E+00 
    1.0987362364710578E+00 
    1.0978495343136971E+00 
    1.0764441556104392E+00 
    1.0757530842036960E+00 
    1.0970501361286213E+00 
    1.0963384590173966E+00 
    1.0751369947383820E+00 
    1.0745965288974797E+00 
    1.0957148816195721E+00 
    1.0951797414404107E+00 
    1.0741322447295307E+00 
    1.0737446182695969E+00 
    1.0947333323993820E+00 
    1.0943759026876001E+00 
    1.0734340447414354E+00 
    1.0732008394353065E+00 
    1.0941076529777463E+00 
    1.0939287350014297E+00 
    1.0730452383338533E+00 
    1.0729673985393435E+00 
    1.0938392504931145E+00 
    1.0815944457227684E+00 
    1.0570242155740850E+00 
    1.0569387627586651E+00 
    1.0815175771607570E+00 
    1.0813631742284622E+00 
    1.0567661083738416E+00 
    1.0565041915357540E+00 
    1.0811305804597002E+00 
    1.0808192661960139E+00 
    1.0561510193004453E+00 
    1.0557042607779161E+00 
    1.0804287150278695E+00 
    1.0799582133251904E+00 
    1.0551601766303684E+00 
    1.0545114788636702E+00 
    1.0794065752139990E+00 
    1.0787718615504103E+00 
    1.0537444413968144E+00 
    1.0528382352836292E+00 
    1.0780511279201812E+00 
    1.0772398669799965E+00 
    1.0517723405014097E+00 
    1.0505426689538084E+00 
    1.0763297887295415E+00 
    1.0753029282714566E+00 
    1.0491721207266496E+00 
    1.0477030031652710E+00 
    1.0741266151515052E+00 
    1.0727695833616007E+00 
    1.0461912494480980E+00 
    1.0447083630809106E+00 
    1.0712379066258235E+00 
    1.0695774116247672E+00 
    1.0433230914101992E+00 
    1.0420829523072965E+00 
    1.0678658634639209E+00 
    1.0662162464413831E+00 
    1.0409919979383853E+00 
    1.0399969879052111E+00 
    1.0647167810059786E+00 
    1.0634017375942177E+00 
    1.0390441434808972E+00 
    1.0381191142500159E+00 
    1.0622316276597787E+00 
    1.0611364198887774E+00 
    1.0372251302771127E+00 
    1.0363655518521282E+00 
    1.0600904140861944E+00 
    1.0590950967210715E+00 
    1.0355433496690991E+00 
    1.0347611966367167E+00 
    1.0581526610042646E+00 
    1.0572650784421442E+00 
    1.0340214989853296E+00 
    1.0333264223887872E+00 
    1.0564341258025112E+00 
    1.0556614020935340E+00 
    1.0326779135809623E+00 
    1.0320777183312255E+00 
    1.0549483428733371E+00 
    1.0542962322463585E+00 
    1.0315273964313596E+00 
    1.0310283341986566E+00 
    1.0537062128644714E+00 
    1.0531792942152431E+00 
    1.0305817548938383E+00 
    1.0301887273737089E+00 
    1.0527163594458409E+00 
    1.0523181709384870E+00 
    1.0298501732379914E+00 
    1.0295668726817595E+00 
    1.0519853748220775E+00 
    1.0517185045749471E+00 
    1.0293394692254680E+00 
    1.0291684734613327E+00 
    1.0515179838461159E+00 
    1.0513841285968437E+00 
    1.0290542659260251E+00 
    1.0289970991841801E+00 
    1.0513171486409523E+00 
    1.0306716293311575E+00 
    1.0012432181584920E+00 
    1.0010951983579979E+00 
    1.0305539131465764E+00 
    1.0303137284990203E+00 
    1.0008107048531238E+00 
    1.0004056307695957E+00 
    1.0299438346931176E+00 
    1.0294363281513961E+00 
    9.9989599708042443E-01 
    9.9929823967564735E-01 
    1.0287855223905893E+00 
    1.0279921396009175E+00 
    9.9863057567167368E-01 
    9.9791491460581172E-01 
    1.0270668352668644E+00 
    1.0260302514600803E+00 
    9.9717820488272824E-01 
    9.9645136210163077E-01 
    1.0249093936216476E+00 
    1.0237349153598707E+00 
    9.9576324981735687E-01 
    9.9512874910340265E-01 
    1.0225423212865816E+00 
    1.0213727293799169E+00 
    9.9453834726306467E-01 
    9.9396389136691043E-01 
    1.0202692446332116E+00 
    1.0192678494047636E+00 
    9.9338001852689228E-01 
    9.9277852738628691E-01 
    1.0183758044669253E+00 
    1.0175581187392713E+00 
    9.9216356476428136E-01 
    9.9154125287192396E-01 
    1.0167680347134476E+00 
    1.0159842247794022E+00 
    9.9091644665416401E-01 
    9.9029349167762493E-01 
    1.0152077541172491E+00 
    1.0144438071168249E+00 
    9.8967648875200920E-01 
    9.8906924548867503E-01 
    1.0136965583256299E+00 
    1.0129697852256925E+00 
    9.8847528944666918E-01 
    9.8789788315172911E-01 
    1.0122669271985161E+00 
    1.0115911111106575E+00 
    9.8734003818801797E-01 
    9.8680452855884504E-01 
    1.0109451784592189E+00 
    1.0103317089800681E+00 
    9.8629390310507270E-01 
    9.8581049686905386E-01 
    1.0097530410878912E+00 
    1.0092112894875083E+00 
    9.8535644136126355E-01 
    9.8493367373529617E-01 
    1.0087083602904046E+00 
    1.0082459639447297E+00 
    9.8454394490871322E-01 
    9.8418882668645202E-01 
    1.0078256262539931E+00 
    1.0074486977255444E+00 
    9.8386971795365596E-01 
    9.8358785000852544E-01 
    1.0071163614574550E+00 
    1.0068296397426324E+00 
    9.8334429110510313E-01 
    9.8313995027220913E-01 