# vtk DataFile Version 2.0
Pressure Field Data 
ASCII 
DATASET UNSTRUCTURED_GRID 

POINTS 1681 double 

    0.0000000000000000E+00     0.0000000000000000E+00     0.0000000000000000E+00 
    1.0000000000000000E+00     0.0000000000000000E+00     0.0000000000000000E+00 
    1.0000000000000000E+00     1.0000000000000000E+00     0.0000000000000000E+00 
    0.0000000000000000E+00     1.0000000000000000E+00     0.0000000000000000E+00 
    5.2499999999875258E-01     0.0000000000000000E+00     0.0000000000000000E+00 
    7.4999999999856765E-02     0.0000000000000000E+00     0.0000000000000000E+00 
    1.2499999999975850E-01     0.0000000000000000E+00     0.0000000000000000E+00 
    1.7499999999962990E-01     0.0000000000000000E+00     0.0000000000000000E+00 
    2.2499999999948389E-01     0.0000000000000000E+00     0.0000000000000000E+00 
    2.7499999999933789E-01     0.0000000000000000E+00     0.0000000000000000E+00 
    3.2499999999919210E-01     0.0000000000000000E+00     0.0000000000000000E+00 
    3.7499999999904610E-01     0.0000000000000000E+00     0.0000000000000000E+00 
    4.2499999999890020E-01     0.0000000000000000E+00     0.0000000000000000E+00 
    4.7499999999875958E-01     0.0000000000000000E+00     0.0000000000000000E+00 
    2.4999999999949701E-02     0.0000000000000000E+00     0.0000000000000000E+00 
    5.7499999999887907E-01     0.0000000000000000E+00     0.0000000000000000E+00 
    6.2499999999901101E-01     0.0000000000000000E+00     0.0000000000000000E+00 
    6.7499999999914273E-01     0.0000000000000000E+00     0.0000000000000000E+00 
    7.2499999999927467E-01     0.0000000000000000E+00     0.0000000000000000E+00 
    7.7499999999940661E-01     0.0000000000000000E+00     0.0000000000000000E+00 
    8.2499999999953844E-01     0.0000000000000000E+00     0.0000000000000000E+00 
    8.7499999999967026E-01     0.0000000000000000E+00     0.0000000000000000E+00 
    9.2499999999980220E-01     0.0000000000000000E+00     0.0000000000000000E+00 
    9.7499999999993414E-01     0.0000000000000000E+00     0.0000000000000000E+00 
    5.4999999999881310E-01     0.0000000000000000E+00     0.0000000000000000E+00 
    9.9999999999814140E-02     0.0000000000000000E+00     0.0000000000000000E+00 
    1.4999999999970290E-01     0.0000000000000000E+00     0.0000000000000000E+00 
    1.9999999999955689E-01     0.0000000000000000E+00     0.0000000000000000E+00 
    2.4999999999941089E-01     0.0000000000000000E+00     0.0000000000000000E+00 
    2.9999999999926502E-01     0.0000000000000000E+00     0.0000000000000000E+00 
    3.4999999999911913E-01     0.0000000000000000E+00     0.0000000000000000E+00 
    3.9999999999897312E-01     0.0000000000000000E+00     0.0000000000000000E+00 
    4.4999999999882723E-01     0.0000000000000000E+00     0.0000000000000000E+00 
    4.9999999999869210E-01     0.0000000000000000E+00     0.0000000000000000E+00 
    4.9999999999899403E-02     0.0000000000000000E+00     0.0000000000000000E+00 
    5.9999999999894504E-01     0.0000000000000000E+00     0.0000000000000000E+00 
    6.4999999999907687E-01     0.0000000000000000E+00     0.0000000000000000E+00 
    6.9999999999920870E-01     0.0000000000000000E+00     0.0000000000000000E+00 
    7.4999999999934064E-01     0.0000000000000000E+00     0.0000000000000000E+00 
    7.9999999999947247E-01     0.0000000000000000E+00     0.0000000000000000E+00 
    8.4999999999960441E-01     0.0000000000000000E+00     0.0000000000000000E+00 
    8.9999999999973623E-01     0.0000000000000000E+00     0.0000000000000000E+00 
    9.4999999999986817E-01     0.0000000000000000E+00     0.0000000000000000E+00 
    1.0000000000000000E+00     5.2499999999875258E-01     0.0000000000000000E+00 
    1.0000000000000000E+00     7.4999999999856765E-02     0.0000000000000000E+00 
    1.0000000000000000E+00     1.2499999999975850E-01     0.0000000000000000E+00 
    1.0000000000000000E+00     1.7499999999962990E-01     0.0000000000000000E+00 
    1.0000000000000000E+00     2.2499999999948389E-01     0.0000000000000000E+00 
    1.0000000000000000E+00     2.7499999999933789E-01     0.0000000000000000E+00 
    1.0000000000000000E+00     3.2499999999919210E-01     0.0000000000000000E+00 
    1.0000000000000000E+00     3.7499999999904610E-01     0.0000000000000000E+00 
    1.0000000000000000E+00     4.2499999999890020E-01     0.0000000000000000E+00 
    1.0000000000000000E+00     4.7499999999875958E-01     0.0000000000000000E+00 
    1.0000000000000000E+00     2.4999999999949701E-02     0.0000000000000000E+00 
    1.0000000000000000E+00     5.7499999999887907E-01     0.0000000000000000E+00 
    1.0000000000000000E+00     6.2499999999901101E-01     0.0000000000000000E+00 
    1.0000000000000000E+00     6.7499999999914273E-01     0.0000000000000000E+00 
    1.0000000000000000E+00     7.2499999999927467E-01     0.0000000000000000E+00 
    1.0000000000000000E+00     7.7499999999940661E-01     0.0000000000000000E+00 
    1.0000000000000000E+00     8.2499999999953844E-01     0.0000000000000000E+00 
    1.0000000000000000E+00     8.7499999999967026E-01     0.0000000000000000E+00 
    1.0000000000000000E+00     9.2499999999980220E-01     0.0000000000000000E+00 
    1.0000000000000000E+00     9.7499999999993414E-01     0.0000000000000000E+00 
    1.0000000000000000E+00     5.4999999999881310E-01     0.0000000000000000E+00 
    1.0000000000000000E+00     9.9999999999814140E-02     0.0000000000000000E+00 
    1.0000000000000000E+00     1.4999999999970290E-01     0.0000000000000000E+00 
    1.0000000000000000E+00     1.9999999999955689E-01     0.0000000000000000E+00 
    1.0000000000000000E+00     2.4999999999941089E-01     0.0000000000000000E+00 
    1.0000000000000000E+00     2.9999999999926502E-01     0.0000000000000000E+00 
    1.0000000000000000E+00     3.4999999999911913E-01     0.0000000000000000E+00 
    1.0000000000000000E+00     3.9999999999897312E-01     0.0000000000000000E+00 
    1.0000000000000000E+00     4.4999999999882723E-01     0.0000000000000000E+00 
    1.0000000000000000E+00     4.9999999999869210E-01     0.0000000000000000E+00 
    1.0000000000000000E+00     4.9999999999899403E-02     0.0000000000000000E+00 
    1.0000000000000000E+00     5.9999999999894504E-01     0.0000000000000000E+00 
    1.0000000000000000E+00     6.4999999999907687E-01     0.0000000000000000E+00 
    1.0000000000000000E+00     6.9999999999920870E-01     0.0000000000000000E+00 
    1.0000000000000000E+00     7.4999999999934064E-01     0.0000000000000000E+00 
    1.0000000000000000E+00     7.9999999999947247E-01     0.0000000000000000E+00 
    1.0000000000000000E+00     8.4999999999960441E-01     0.0000000000000000E+00 
    1.0000000000000000E+00     8.9999999999973623E-01     0.0000000000000000E+00 
    1.0000000000000000E+00     9.4999999999986817E-01     0.0000000000000000E+00 
    4.7500000000196618E-01     1.0000000000000000E+00     0.0000000000000000E+00 
    9.2499999999968763E-01     1.0000000000000000E+00     0.0000000000000000E+00 
    8.7499999999961831E-01     1.0000000000000000E+00     0.0000000000000000E+00 
    8.2499999999982654E-01     1.0000000000000000E+00     0.0000000000000000E+00 
    7.7500000000017355E-01     1.0000000000000000E+00     0.0000000000000000E+00 
    7.2500000000052045E-01     1.0000000000000000E+00     0.0000000000000000E+00 
    6.7500000000086724E-01     1.0000000000000000E+00     0.0000000000000000E+00 
    6.2500000000121403E-01     1.0000000000000000E+00     0.0000000000000000E+00 
    5.7500000000156093E-01     1.0000000000000000E+00     0.0000000000000000E+00 
    5.2500000000189684E-01     1.0000000000000000E+00     0.0000000000000000E+00 
    9.7499999999989595E-01     1.0000000000000000E+00     0.0000000000000000E+00 
    4.2500000000176902E-01     1.0000000000000000E+00     0.0000000000000000E+00 
    3.7500000000156092E-01     1.0000000000000000E+00     0.0000000000000000E+00 
    3.2500000000135282E-01     1.0000000000000000E+00     0.0000000000000000E+00 
    2.7500000000114472E-01     1.0000000000000000E+00     0.0000000000000000E+00 
    2.2500000000093659E-01     1.0000000000000000E+00     0.0000000000000000E+00 
    1.7500000000072849E-01     1.0000000000000000E+00     0.0000000000000000E+00 
    1.2500000000052039E-01     1.0000000000000000E+00     0.0000000000000000E+00 
    7.5000000000312261E-02     1.0000000000000000E+00     0.0000000000000000E+00 
    2.5000000000104109E-02     1.0000000000000000E+00     0.0000000000000000E+00 
    4.5000000000187301E-01     1.0000000000000000E+00     0.0000000000000000E+00 
    8.9999999999958358E-01     1.0000000000000000E+00     0.0000000000000000E+00 
    8.4999999999965303E-01     1.0000000000000000E+00     0.0000000000000000E+00 
    8.0000000000000004E-01     1.0000000000000000E+00     0.0000000000000000E+00 
    7.5000000000034706E-01     1.0000000000000000E+00     0.0000000000000000E+00 
    7.0000000000069384E-01     1.0000000000000000E+00     0.0000000000000000E+00 
    6.5000000000104063E-01     1.0000000000000000E+00     0.0000000000000000E+00 
    6.0000000000138742E-01     1.0000000000000000E+00     0.0000000000000000E+00 
    5.5000000000173432E-01     1.0000000000000000E+00     0.0000000000000000E+00 
    5.0000000000205946E-01     1.0000000000000000E+00     0.0000000000000000E+00 
    9.4999999999979179E-01     1.0000000000000000E+00     0.0000000000000000E+00 
    4.0000000000166491E-01     1.0000000000000000E+00     0.0000000000000000E+00 
    3.5000000000145681E-01     1.0000000000000000E+00     0.0000000000000000E+00 
    3.0000000000124871E-01     1.0000000000000000E+00     0.0000000000000000E+00 
    2.5000000000104061E-01     1.0000000000000000E+00     0.0000000000000000E+00 
    2.0000000000083251E-01     1.0000000000000000E+00     0.0000000000000000E+00 
    1.5000000000062441E-01     1.0000000000000000E+00     0.0000000000000000E+00 
    1.0000000000041630E-01     1.0000000000000000E+00     0.0000000000000000E+00 
[...]
CELL_DATA 1600 
SCALARS Pressure double 1 
LOOKUP_TABLE default 

    1.1818966195508884E+00 
    1.1353465482438165E+00 
    1.1329105009495499E+00 
    1.1661598158598854E+00 
    1.1535371693553695E+00 
    1.1292185401656125E+00 
    1.1249532925408043E+00 
    1.1431822442654500E+00 
    1.1345013249062792E+00 
    1.1204989140426027E+00 
    1.1160674962549078E+00 
    1.1270824935044184E+00 
    1.1206354544048527E+00 
    1.1117713703707512E+00 
    1.1076654606756988E+00 
    1.1149521493651631E+00 
    1.1098809189688363E+00 
    1.1037721169499675E+00 
    1.1000956503229511E+00 
    1.1053093743763309E+00 
    1.1011529001307578E+00 
    1.0966308042325046E+00 
    1.0933676493983018E+00 
    1.0973468323521653E+00 
    1.0938410629007349E+00 
    1.0902943712059845E+00 
    1.0873988178740379E+00 
    1.0905962642622806E+00 
    1.0875812109043188E+00 
    1.0846693237562812E+00 
    1.0820951126148348E+00 
    1.0847708520514674E+00 
    1.0821449061680788E+00 
    1.0796664613695877E+00 
    1.0773747308980470E+00 
    1.0796868224131269E+00 
    1.0773830035834502E+00 
    1.0752123264384765E+00 
    1.0731726239333428E+00 
    1.0752222177650319E+00 
    1.0731951478689705E+00 
    1.0712498830593666E+00 
    1.0694391584516316E+00 
    1.0712940431360560E+00 
    1.0695124469285167E+00 
    1.0677362151906478E+00 
    1.0661374514537549E+00 
    1.0678449822307441E+00 
    1.0662871812610066E+00 
    1.0646398294164041E+00 
    1.0632408144673329E+00 
    1.0648353491160594E+00 
    1.0634864538636510E+00 
    1.0619383222292236E+00 
    1.0607306725232604E+00 
    1.0622380372362386E+00 
    1.0610881411976441E+00 
    1.0596165490892520E+00 
    1.0585949633137897E+00 
    1.0600352461144935E+00 
    1.0590782156676144E+00 
    1.0576652188656508E+00 
    1.0568268704611579E+00 
    1.0582162406129771E+00 
    1.0574487641089050E+00 
    1.0560796598448561E+00 
    1.0554233860781030E+00 
    1.0567753463586858E+00 
    1.0561953702552509E+00 
    1.0548576100069025E+00 
    1.0543809883809607E+00 
    1.0557073862570374E+00 
    1.0553077256873975E+00 
    1.0539898593770822E+00 
    1.0536756130204603E+00 
    1.0549879384668996E+00 
    1.0547392083522242E+00 
    1.0534296891500750E+00 
    1.0532968673333385E+00 
    1.0546050834340310E+00 
    1.1113721362927005E+00 
    1.0939738735810964E+00 
    1.0935973637469174E+00 
    1.1105926072438363E+00 
    1.1091586293484796E+00 
    1.0928686617489820E+00 
    1.0918297162979009E+00 
    1.1072278603475525E+00 
    1.1049472562322364E+00 
    1.0905305329347119E+00 
    1.0890224447136352E+00 
    1.1024388953081588E+00 
    1.0997979977139833E+00 
    1.0873538633482784E+00 
    1.0855680274249631E+00 
    1.0970958696251674E+00 
    1.0943843280471786E+00 
    1.0837021331532217E+00 
    1.0817873229322559E+00 
    1.0917000890317239E+00 
    1.0890685445283610E+00 
    1.0798491480119672E+00 
    1.0779082500397048E+00 
    1.0865067912674056E+00 
    1.0840259610215763E+00 
    1.0759811045471783E+00 
    1.0740807377442920E+00 
    1.0816329659018324E+00 
    1.0793317814569867E+00 
    1.0722173723686987E+00 
    1.0703989854885643E+00 
    1.0771243771591481E+00 
    1.0750113839590554E+00 
    1.0686317766919982E+00 
    1.0669205532025381E+00 
    1.0729925688471176E+00 
    1.0710671693509424E+00 
    1.0652690420370998E+00 
    1.0636801402851177E+00 
    1.0692341272513712E+00 
    1.0674922502816111E+00 
    1.0621561141465539E+00 
    1.0606987562582959E+00 
    1.0658403226748816E+00 
    1.0642771795924100E+00 
    1.0593095094903686E+00 
    1.0579895640373658E+00 
    1.0628017562023773E+00 
    1.0614131190873075E+00 
    1.0567399333796061E+00 
    1.0555615135829395E+00 
    1.0601104854134928E+00 
    1.0588932336509067E+00 
    1.0544551294394919E+00 
    1.0534215700783178E+00 
    1.0577609083782422E+00 
    1.0567132206390886E+00 
    1.0524616157909783E+00 
    1.0515760566823551E+00 
    1.0557500441384102E+00 
    1.0548714056597654E+00 
    1.0507657017432230E+00 
    1.0500313723027854E+00 
    1.0540774637929475E+00 
    1.0533684590524961E+00 
    1.0493738620454343E+00 
    1.0487938174755818E+00 
    1.0527445912662179E+00 
    1.0522057220221437E+00 
    1.0482914343151715E+00 
    1.0478657627957448E+00 
    1.0517506960356611E+00 
    1.0513758967667119E+00 
    1.0475132281700650E+00 
    1.0472248279276692E+00 
    1.0510725422017460E+00 
    1.0508328027242639E+00 
    1.0469940975773619E+00 
    1.0468693263705950E+00 
    1.0507031593638592E+00 
    1.0793235572403035E+00 
    1.0660032218063795E+00 
    1.0658562539127185E+00 
    1.0791010284031108E+00 
    1.0786634593230182E+00 
    1.0655653906992471E+00 
    1.0651370065352104E+00 
    1.0780254843485135E+00 
    1.0772066700468641E+00 
    1.0645800937049019E+00 
    1.0639056319243934E+00 
    1.0762295140208691E+00 
    1.0751176932713689E+00 
    1.0631259316616768E+00 
    1.0622540253470125E+00 
    1.0738947067075542E+00 
    1.0725829273786422E+00 
    1.0613031487438493E+00 
    1.0602863298407592E+00 
    1.0712030139440871E+00 
    1.0697736060980143E+00 
    1.0592160853181920E+00 
    1.0581042142322374E+00 
    1.0683112273079662E+00 
    1.0668303280986866E+00 
    1.0569616734871239E+00 
    1.0557985182633229E+00 
    1.0653434168328915E+00 
    1.0638612385716619E+00 
    1.0546238914001504E+00 
    1.0534460477339562E+00 
    1.0623929743558469E+00 
    1.0609464425856614E+00 
    1.0522724018448637E+00 
    1.0511095901245151E+00 
    1.0595282911648893E+00 
    1.0581441740638104E+00 
    1.0499635403040770E+00 
    1.0488395434698268E+00 
    1.0567989093591559E+00 
    1.0554966180246530E+00 
    1.0477423251193070E+00 
    1.0466761129963291E+00 
    1.0542408441043065E+00 
    1.0530346576635246E+00 
    1.0456447003314138E+00 
    1.0446515037546622E+00 
    1.0518807422749468E+00 
    1.0507814688947097E+00 
    1.0436996155862828E+00 
    1.0427918504815570E+00 
    1.0497389579123328E+00 
    1.0487551309635330E+00 
    1.0419307865297498E+00 
    1.0411188008666679E+00 
    1.0478317537855171E+00 
    1.0469704709029073E+00 
    1.0403580995760047E+00 
    1.0396507408678832E+00 
    1.0461728320336603E+00 
    1.0454403081337467E+00 
    1.0389986484867122E+00 
    1.0384036069611435E+00 
    1.0447742900813279E+00 
    1.0441760504486315E+00 
    1.0378672168084047E+00 
    1.0373907574085195E+00 
    1.0436466194773013E+00 
    1.0431864681222967E+00 
    1.0369748473103018E+00 
    1.0366186898979732E+00 
    1.0427947898126189E+00 
    1.0424679698432340E+00 
    1.0363184578607856E+00 
    1.0360640720648469E+00 
    1.0421966278207540E+00 
    1.0419766554617964E+00 
    1.0358552654875690E+00 
    1.0357439679177964E+00 
    1.0418581464836869E+00 
    1.0533424374821725E+00 
    1.0409760805414772E+00 
    1.0408987412985198E+00 
    1.0532383702119821E+00 
    1.0530317555802891E+00 
    1.0407449241172837E+00 
    1.0405165189343313E+00 
    1.0527258598783427E+00 
    1.0523254143301237E+00 
    1.0402162984503538E+00 
    1.0398478261038129E+00 
    1.0518363885536015E+00 
    1.0512657283001681E+00 
    1.0394153410020086E+00 
    1.0389236313311543E+00 
    1.0506210855026030E+00 
    1.0499105611876405E+00 
    1.0383779051207740E+00 
    1.0377836653825916E+00 
    1.0491424750740015E+00 
    1.0483251696479066E+00 
    1.0371465948003962E+00 
    1.0364724533749232E+00 
    1.0474668516234580E+00 
    1.0465754701225967E+00 
    1.0357669908596028E+00 
    1.0350358745429618E+00 
    1.0456586285734695E+00 
    1.0447235260196495E+00 
    1.0342846319682566E+00 
    1.0335186075149450E+00 
    1.0437769230052798E+00 
    1.0428251272136240E+00 
    1.0327429313593035E+00 
    1.0319624991315954E+00 
    1.0418739943874404E+00 
    1.0409289405940672E+00 
    1.0311819605423569E+00 
    1.0304057153131405E+00 
    1.0399949625052967E+00 
    1.0390766629684345E+00 
    1.0296379148774126E+00 
    1.0288824684833151E+00 
    1.0381782797054389E+00 
    1.0373037154673295E+00 
    1.0281430525070785E+00 
    1.0274231219546854E+00 
    1.0364565683796441E+00 
    1.0356401615369455E+00 
    1.0267259232733426E+00 
    1.0260545076947118E+00 
    1.0348575711354497E+00 
    1.0341116525585319E+00 
    1.0254117443589412E+00 
    1.0248003323612043E+00 
    1.0334050638088237E+00 
    1.0327402853991794E+00 
    1.0242228104752327E+00 
    1.0236815622623838E+00 
    1.0321196349612511E+00 
    1.0315452725389751E+00 
    1.0231788115596976E+00 
    1.0227165964590850E+00 
    1.0310191865376284E+00 
    1.0305431355988333E+00 
    1.0222966937738036E+00 
    1.0219204331136242E+00 
    1.0301184900853337E+00 
    1.0297458588206785E+00 
    1.0215882807077805E+00 
    1.0212989530386472E+00 
    1.0294242795888795E+00 
    1.0291494586163568E+00 
    1.0210474283066011E+00 
    1.0208206509879409E+00 
    1.0289101090271284E+00 
    1.0287117090181768E+00 
    1.0206316316903026E+00 
    1.0205355387054489E+00 
    1.0286080482375770E+00 
    1.0286867931121861E+00 
    1.0163373871436021E+00 
    1.0162900643236603E+00 
    1.0286271843861987E+00 
    1.0285085101722120E+00 
    1.0161957927253511E+00 
    1.0160553991402712E+00 
    1.0283319731699914E+00 
    1.0280993455495033E+00 
    1.0158700999855950E+00 
    1.0156414813251362E+00 
    1.0278129277043826E+00 
    1.0274754929082881E+00 
    1.0153714699531902E+00 
    1.0150622988581370E+00 
    1.0270902235361952E+00 
    1.0266606428962186E+00 
    1.0147164691232438E+00 
    1.0143367099496774E+00 
    1.0261905460467113E+00 
    1.0256839323880156E+00 
    1.0139259382634072E+00 
    1.0134872191489079E+00 
    1.0251449422083725E+00 
    1.0245777987536178E+00 
    1.0130237281196739E+00 
    1.0125387159974091E+00 
    1.0239867568209378E+00 
    1.0233760583793159E+00 
    1.0120354769417443E+00 
    1.0115173199620067E+00 
    1.0227498953104195E+00 
    1.0221123790481943E+00 
    1.0109875440596670E+00 
    1.0104494169985829E+00 
    1.0214675166687328E+00 
    1.0208191928335788E+00 
    1.0099061575806223E+00 
    1.0093609212148147E+00 
    1.0201711569060206E+00 
    1.0195270145266118E+00 
    1.0088167885050481E+00 
    1.0082767565393116E+00 
    1.0188902229367625E+00 
    1.0182640893641177E+00 
    1.0077437325361134E+00 
    1.0072205294825225E+00 
    1.0176517718168803E+00 
    1.0170562816610531E+00 
    1.0067098633711602E+00 
    1.0062143515900199E+00 
    1.0164804873538789E+00 
    1.0159271186422363E+00 
    1.0057365118993364E+00 
    1.0052787611559468E+00 
    1.0153987703312546E+00 
    1.0148979042078055E+00 
    1.0048434123047920E+00 
    1.0044326666084653E+00 
    1.0144268464099542E+00 
    1.0139877742958432E+00 
    1.0040485942978252E+00 
    1.0036930879461150E+00 
    1.0135826789767035E+00 
    1.0132132721320546E+00 
    1.0033677541364709E+00 
    1.0030736743756687E+00 
    1.0128807717411774E+00 
    1.0125854405073484E+00 
    1.0028109023115086E+00 
    1.0025773859684959E+00 
    1.0123256079721188E+00 
    1.0120953659837153E+00 
    1.0023662516700720E+00 
    1.0021609867972123E+00 
    1.0118796461275386E+00 
    1.0116998253110216E+00 
    1.0019911006504665E+00 
    1.0019088046173663E+00 
    1.0116108805775892E+00 
    1.0038379191031954E+00 
    9.9112810544205532E-01 
    9.9109594558575853E-01 
    1.0037993699663716E+00 
    1.0037225486205315E+00 
    9.9103184352442175E-01 
    9.9093626805541069E-01 
    1.0036080610574267E+00 
    1.0034567937365366E+00 
    9.9080989912844564E-01 
    9.9065362210663255E-01 
    1.0032699032414258E+00 
    1.0030487999948934E+00 
    9.9046851792716106E-01 
    9.9025585069776678E-01 
    1.0027951282269241E+00 
    1.0025107433773151E+00 
    9.9001705348554014E-01 
    9.8975371282364200E-01 
    1.0021976878363550E+00 
    1.0018581658110695E+00 
    9.8946755238161510E-01 
    9.8916041619940809E-01 
    1.0014945180150943E+00 
    1.0011091967875980E+00 
    9.8883425184451612E-01 
    9.8849109380835887E-01 
    1.0007047421472028E+00 
    1.0002837591837495E+00 
    9.8813304741127939E-01 
    9.8776227343662493E-01 
    9.9984889708896219E-01 
    9.9940283003093744E-01 
    9.8738097366509103E-01 
    9.8699137743256660E-01 
    9.9894823999033711E-01 
    9.9848780160016437E-01 
    9.8659572928934902E-01 
    9.8619627779647390E-01 
    9.9802416896677892E-01 
    9.9755996439687999E-01 
    9.8579526545581242E-01 
    9.8539491973331150E-01 
    9.9709776891167889E-01 
    9.9664011439214817E-01 
    9.8499744509643683E-01 
    9.8460501594166117E-01 
    9.9618947716214734E-01 
    9.9574827276892586E-01 
    9.8421977022419871E-01 
    9.8384380349578571E-01 
    9.9531885164235545E-01 
    9.9490349516089949E-01 
    9.8347916285312853E-01 
    9.8312783987236196E-01 
    9.9450441132091261E-01 
    9.9412372844251462E-01 
    9.8279176064271201E-01 
    9.8247276876750578E-01 
    9.9376348351582944E-01 
    9.9342559741459879E-01 
    9.8217259203626073E-01 
    9.8189277243796413E-01 
    9.9311181936330695E-01 
    9.9282360336563757E-01 
    9.8163451817960012E-01 
    9.8139839873834245E-01 
    9.9256184411527815E-01 
    9.9232632950910260E-01 
    9.8118371691760664E-01 
    9.8098704564742245E-01 
    9.9211452962044566E-01 
    9.9191828981242380E-01 
    9.8079790690631019E-01 
    9.8060517447674977E-01 
    9.9172168551649320E-01 
    9.9156252664536981E-01 
    9.8045726387120447E-01 
    9.8038892481968509E-01 
    9.9148679056233957E-01 
    9.7816725772149826E-01 
    9.6492821476234181E-01 
    9.6490420631068441E-01 
    9.7813979686567221E-01 
    9.7808505479099239E-01 
    9.6485634374315687E-01 
    9.6478494729521902E-01 
    9.7800341127367119E-01 
    9.7789541170768668E-01 
    9.6469047226802063E-01 
    9.6457350663532604E-01 
    9.7776176362278633E-01 
    9.7760333031760394E-01 
    9.6443476663002325E-01 
    9.6427509101262043E-01 
    9.7742112268173953E-01 
    9.7721628973185581E-01 
    9.6409543440468837E-01 
    9.6389685991106888E-01 
    9.7699010819294696E-01 
    9.7674397139185376E-01 
    9.6368053120063379E-01 
    9.6344770419279291E-01 
    9.7647937770057691E-01 
    9.7619791874588846E-01 
    9.6319971848386887E-01 
    9.6293798863650315E-01 
    9.7590126758124041E-01 
    9.7559116699474058E-01 
    9.6266399544397352E-01 
    9.6237927726867767E-01 
    9.7526941810270174E-01 
    9.7493786935235449E-01 
    9.6208542153989529E-01 
    9.6178405648011855E-01 
    9.7459840603025882E-01 
    9.7425294034508425E-01 
    9.6147684311149739E-01 
    9.6116546757366006E-01 
    9.7390340212468074E-01 
    9.7355173013693452E-01 
    9.6085163375997029E-01 
    9.6053705624836816E-01 
    9.7319986400980518E-01 
    9.7284973668420216E-01 
    9.6022345346010585E-01 
    9.5991254091460376E-01 
    9.7250326727607050E-01 
    9.7216235413551788E-01 
    9.5960602434090614E-01 
    9.5930559221294320E-01 
    9.7182886773827992E-01 
    9.7150464275608017E-01 
    9.5901290690320640E-01 
    9.5872959288546777E-01 
    9.7119146806105161E-01 
    9.7089107213334402E-01 
    9.5845721878051238E-01 
    9.5819726649330184E-01 
    9.7060509846762455E-01 
    9.7033505929668562E-01 
    9.5795107326781681E-01 
    9.5771971806887912E-01 
    9.7008224323334491E-01 
    9.6984752897818305E-01 
    9.5750379730037338E-01 
    9.5730297968328126E-01 
    9.6963101283154340E-01 
    9.6943123494163397E-01 
    9.5711504922868873E-01 
    9.5693330117672770E-01 
    9.6924324629721315E-01 
    9.6905257550083901E-01 
    9.5673835747060765E-01 
    9.5654189901464615E-01 
    9.6885824605805415E-01 
    9.6872147757823679E-01 
    9.5641403601107078E-01 
    9.5635996822133229E-01 
    9.6866131050328719E-01 
    9.5139354976980239E-01 
    9.3755315525725402E-01 
    9.3753337125033231E-01 
    9.5137203702819184E-01 
    9.5132914866299789E-01 
    9.3749392862773095E-01 
    9.3743508000412223E-01 
    9.5126516449842313E-01 
    9.5118047883293355E-01 
    9.3735717888772929E-01 
    9.3726067788794076E-01 
    9.5107559851915058E-01 
    9.5095113968282718E-01 
    9.3714612609770698E-01 
    9.3701416572470086E-01 
    9.5080782345744941E-01 
    9.5064647101940625E-01 
    9.3686552818101643E-01 
    9.3670102975016301E-01 
    9.5046799808370408E-01 
    9.5027340897443036E-01 
    9.3652156691194222E-01 
    9.3632811138995464E-01 
    9.5006379036554400E-01 
    9.4984030477815340E-01 
    9.3612170497898783E-01 
    9.3590345420503340E-01 
    9.4960418391387935E-01 
    9.4935672189780362E-01 
    9.3567452486700975E-01 
    9.3543613650541257E-01 
    9.4909926849781934E-01 
    9.4883322237948231E-01 
    9.3518955683857075E-01 
    9.3493609620151685E-01 
    9.4856002444637044E-01 
    9.4828115130505541E-01 
    9.3467710201516929E-01 
    9.3441395330369592E-01 
    9.4799810888035052E-01 
    9.4771242618896134E-01 
    9.3414805526399014E-01 
    9.3388083387001986E-01 
    9.4742564925520756E-01 
    9.4713933511534643E-01 
    9.3361373046015594E-01 
    9.3334819619459908E-01 
    9.4685504579587698E-01 
    9.4657434204243729E-01 
    9.3308568615548937E-01 
    9.3282765263467915E-01 
    9.4629877636888182E-01 
    9.4602988457857085E-01 
    9.3257553668151993E-01 
    9.3233075597421233E-01 
    9.4576917402992478E-01 
    9.4551810502152056E-01 
    9.3209468491545977E-01 
    9.3186861833886503E-01 
    9.4527805762533701E-01 
    9.4505026808318005E-01 
    9.3165370132361680E-01 
    9.3145079109458362E-01 
    9.4483570338471767E-01 
    9.4463481371396529E-01 
    9.3126018425212209E-01 
    9.3108105027462040E-01 
    9.4444703327665280E-01 
    9.4426963540099229E-01 
    9.3091001419568764E-01 
    9.3073658328959508E-01 
    9.4409430764856528E-01 
    9.4389784561883650E-01 
    9.3053765274130340E-01 
    9.3034892464247054E-01 
    9.4370336755748885E-01 
    9.4358112276479678E-01 
    9.3023209630240433E-01 
    9.3018014697080387E-01 
    9.4352900045655153E-01 
    9.2340271513428296E-01 
    9.0894278681360841E-01 
    9.0892458905250439E-01 
    9.2338401318842700E-01 
    9.2334672698160591E-01 
    9.0888830671278009E-01 
    9.0883416530288030E-01 
    9.2329109167807932E-01 
    9.2321743501496856E-01 
    9.0876247882567363E-01 
    9.0867364768742298E-01 
    9.2312617542941422E-01 
    9.2301781982039111E-01 
    9.0856815665628476E-01 
    9.0844657236172000E-01 
    9.2289296072707494E-01 
    9.2275227307033891E-01 
    9.0830954042416023E-01 
    9.0815778228263822E-01 
    9.2259651054715786E-01 
    9.2242650173673857E-01 
    9.0799209176425610E-01 
    9.0781333142771337E-01 
    9.2224314596356460E-01 
    9.2204740895608750E-01 
    9.0762242870742671E-01 
    9.0742037188142644E-01 
    9.2184031833609525E-01 
    9.2162295897087287E-01 
    9.0720820588347351E-01 
    9.0698702797660979E-01 
    9.2139646821711763E-01 
    9.2116203108154304E-01 
    9.0675798330083079E-01 
    9.0652226030081440E-01 
    9.2092087531753153E-01 
    9.2067426646917827E-01 
    9.0628108602923152E-01 
    9.0603572130470733E-01 
    9.2042350286212737E-01 
    9.2016991052220010E-01 
    9.0578745567704688E-01 
    9.0553760210868073E-01 
    9.1991483797328455E-01 
    9.1965965081623158E-01 
    9.0528749120692897E-01 
    9.0503846471078375E-01 
    9.1940572590267788E-01 
    9.1915444475500929E-01 
    9.0479186769705722E-01 
    9.0454903851938451E-01 
    9.1890718556817053E-01 
    9.1866531249414352E-01 
    9.0431129461486015E-01 
    9.0407991057258752E-01 
    9.1843015960332197E-01 
    9.1820300422668011E-01 
    9.0385608141471563E-01 
    9.0364085737121380E-01 
    9.1798501899167639E-01 
    9.1777718156172017E-01 
    9.0343502382315977E-01 
    9.0323887519801405E-01 
    9.1758010169549153E-01 
    9.1739368249316633E-01 
    9.0305176935350751E-01 
    9.0287112094994315E-01 
    9.1721639237029884E-01 
    9.1704328908263821E-01 
    9.0268947689715195E-01 
    9.0248505701142523E-01 