# vtk DataFile Version 2.0
Pressure Field Data 
ASCII 
DATASET UNSTRUCTURED_GRID 

POINTS 1681 double 

    0.0000000000000000E+00     0.0000000000000000E+00     0.0000000000000000E+00 
    1.0000000000000000E+00     0.0000000000000000E+00     0.0000000000000000E+00 
    1.0000000000000000E+00     1.0000000000000000E+00     0.0000000000000000E+00 
    0.0000000000000000E+00     1.0000000000000000E+00     0.0000000000000000E+00 
    5.2499999999875258E-01     0.0000000000000000E+00     0.0000000000000000E+00 
    7.4999999999856765E-02     0.0000000000000000E+00     0.0000000000000000E+00 
    1.2499999999975850E-01     0.0000000000000000E+00     0.0000000000000000E+00 
    1.7499999999962990E-01     0.0000000000000000E+00     0.0000000000000000E+00 
    2.2499999999948389E-01     0.0000000000000000E+00     0.0000000000000000E+00 
    2.7499999999933789E-01     0.0000000000000000E+00     0.0000000000000000E+00 
    3.2499999999919210E-01     0.0000000000000000E+00     0.0000000000000000E+00 
    3.7499999999904610E-01     0.0000000000000000E+00     0.0000000000000000E+00 
    4.2499999999890020E-01     0.0000000000000000E+00     0.0000000000000000E+00 
    4.7499999999875958E-01     0.0000000000000000E+00     0.0000000000000000E+00 
    2.4999999999949701E-02     0.0000000000000000E+00     0.0000000000000000E+00 
    5.7499999999887907E-01     0.0000000000000000E+00     0.0000000000000000E+00 
    6.2499999999901101E-01     0.0000000000000000E+00     0.0000000000000000E+00 
    6.7499999999914273E-01     0.0000000000000000E+00     0.0000000000000000E+00 
    7.2499999999927467E-01     0.0000000000000000E+00     0.0000000000000000E+00 
    7.7499999999940661E-01     0.0000000000000000E+00     0.0000000000000000E+00 
    8.2499999999953844E-01     0.0000000000000000E+00     0.0000000000000000E+00 
    8.7499999999967026E-01     0.0000000000000000E+00     0.0000000000000000E+00 
    9.2499999999980220E-01     0.0000000000000000E+00     0.0000000000000000E+00 
    9.7499999999993414E-01     0.0000000000000000E+00     0.0000000000000000E+00 
    5.4999999999881310E-01     0.0000000000000000E+00     0.0000000000000000E+00 
    9.9999999999814140E-02     0.0000000000000000E+00     0.0000000000000000E+00 
    1.4999999999970290E-01     0.0000000000000000E+00     0.0000000000000000E+00 
    1.9999999999955689E-01     0.0000000000000000E+00     0.0000000000000000E+00 
    2.4999999999941089E-01     0.0000000000000000E+00     0.0000000000000000E+00 
    2.9999999999926502E-01     0.0000000000000000E+00     0.0000000000000000E+00 
    3.4999999999911913E-01     0.0000000000000000E+00     0.0000000000000000E+00 
    3.9999999999897312E-01     0.0000000000000000E+00     0.0000000000000000E+00 
    4.4999999999882723E-01     0.0000000000000000E+00     0.0000000000000000E+00 
    4.9999999999869210E-01     0.0000000000000000E+00     0.0000000000000000E+00 
    4.9999999999899403E-02     0.0000000000000000E+00     0.0000000000000000E+00 
    5.9999999999894504E-01     0.0000000000000000E+00     0.0000000000000000E+00 
    6.4999999999907687E-01     0.0000000000000000E+00     0.0000000000000000E+00 
    6.9999999999920870E-01     0.0000000000000000E+00     0.0000000000000000E+00 
    7.4999999999934064E-01     0.0000000000000000E+00     0.0000000000000000E+00 
    7.9999999999947247E-01     0.0000000000000000E+00     0.0000000000000000E+00 
    8.4999999999960441E-01     0.0000000000000000E+00     0.0000000000000000E+00 
    8.9999999999973623E-01     0.0000000000000000E+00     0.0000000000000000E+00 
    9.4999999999986817E-01     0.0000000000000000E+00     0.0000000000000000E+00 
    1.0000000000000000E+00     5.2499999999875258E-01     0.0000000000000000E+00 
    1.0000000000000000E+00     7.4999999999856765E-02     0.0000000000000000E+00 
    1.0000000000000000E+00     1.2499999999975850E-01     0.0000000000000000E+00 
    1.0000000000000000E+00     1.7499999999962990E-01     0.0000000000000000E+00 
    1.0000000000000000E+00     2.2499999999948389E-01     0.0000000000000000E+00 
    1.0000000000000000E+00     2.7499999999933789E-01     0.0000000000000000E+00 
    1.0000000000000000E+00     3.2499999999919210E-01     0.0000000000000000E+00 
    1.0000000000000000E+00     3.7499999999904610E-01     0.0000000000000000E+00 
    1.0000000000000000E+00     4.2499999999890020E-01     0.0000000000000000E+00 
    1.0000000000000000E+00     4.7499999999875958E-01     0.0000000000000000E+00 
    1.0000000000000000E+00     2.4999999999949701E-02     0.0000000000000000E+00 
    1.0000000000000000E+00     5.7499999999887907E-01     0.0000000000000000E+00 
    1.0000000000000000E+00     6.2499999999901101E-01     0.0000000000000000E+00 
    1.0000000000000000E+00     6.7499999999914273E-01     0.0000000000000000E+00 
    1.0000000000000000E+00     7.2499999999927467E-01     0.0000000000000000E+00 
    1.0000000000000000E+00     7.7499999999940661E-01     0.0000000000000000E+00 
    1.0000000000000000E+00     8.2499999999953844E-01     0.0000000000000000E+00 
    1.0000000000000000E+00     8.7499999999967026E-01     0.0000000000000000E+00 
    1.0000000000000000E+00     9.2499999999980220E-01     0.0000000000000000E+00 
    1.0000000000000000E+00     9.7499999999993414E-01     0.0000000000000000E+00 
    1.0000000000000000E+00     5.4999999999881310E-01     0.0000000000000000E+00 
    1.0000000000000000E+00     9.9999999999814140E-02     0.0000000000000000E+00 
    1.0000000000000000E+00     1.4999999999970290E-01     0.0000000000000000E+00 
    1.0000000000000000E+00     1.9999999999955689E-01     0.0000000000000000E+00 
    1.0000000000000000E+00     2.4999999999941089E-01     0.0000000000000000E+00 
    1.0000000000000000E+00     2.9999999999926502E-01     0.0000000000000000E+00 
    1.0000000000000000E+00     3.4999999999911913E-01     0.0000000000000000E+00 
    1.0000000000000000E+00     3.9999999999897312E-01     0.0000000000000000E+00 
    1.0000000000000000E+00     4.4999999999882723E-01     0.0000000000000000E+00 
    1.0000000000000000E+00     4.9999999999869210E-01     0.0000000000000000E+00 
    1.0000000000000000E+00     4.9999999999899403E-02     0.0000000000000000E+00 
    1.0000000000000000E+00     5.9999999999894504E-01     0.0000000000000000E+00 
    1.0000000000000000E+00     6.4999999999907687E-01     0.0000000000000000E+00 
    1.0000000000000000E+00     6.9999999999920870E-01     0.0000000000000000E+00 
    1.0000000000000000E+00     7.4999999999934064E-01     0.0000000000000000E+00 
    1.0000000000000000E+00     7.9999999999947247E-01     0.0000000000000000E+00 
    1.0000000000000000E+00     8.4999999999960441E-01     0.0000000000000000E+00 
    1.0000000000000000E+00     8.9999999999973623E-01     0.0000000000000000E+00 
    1.0000000000000000E+00     9.4999999999986817E-01     0.0000000000000000E+00 
    4.7500000000196618E-01     1.0000000000000000E+00     0.0000000000000000E+00 
    9.2499999999968763E-01     1.0000000000000000E+00     0.0000000000000000E+00 
    8.7499999999961831E-01     1.0000000000000000E+00     0.0000000000000000E+00 
    8.2499999999982654E-01     1.0000000000000000E+00     0.0000000000000000E+00 
    7.7500000000017355E-01     1.0000000000000000E+00     0.0000000000000000E+00 
    7.2500000000052045E-01     1.0000000000000000E+00     0.0000000000000000E+00 
    6.7500000000086724E-01     1.0000000000000000E+00     0.0000000000000000E+00 
    6.2500000000121403E-01     1.0000000000000000E+00     0.0000000000000000E+00 
    5.7500000000156093E-01     1.0000000000000000E+00     0.0000000000000000E+00 
    5.2500000000189684E-01     1.0000000000000000E+00     0.0000000000000000E+00 
    9.7499999999989595E-01     1.0000000000000000E+00     0.0000000000000000E+00 
    4.2500000000176902E-01     1.0000000000000000E+00     0.0000000000000000E+00 
    3.7500000000156092E-01     1.0000000000000000E+00     0.0000000000000000E+00 
    3.2500000000135282E-01     1.0000000000000000E+00     0.0000000000000000E+00 
    2.7500000000114472E-01     1.0000000000000000E+00     0.0000000000000000E+00 
    2.2500000000093659E-01     1.0000000000000000E+00     0.0000000000000000E+00 
    1.7500000000072849E-01     1.0000000000000000E+00     0.0000000000000000E+00 
    1.2500000000052039E-01     1.0000000000000000E+00     0.0000000000000000E+00 
    7.5000000000312261E-02     1.0000000000000000E+00     0.0000000000000000E+00 
    2.5000000000104109E-02     1.0000000000000000E+00     0.0000000000000000E+00 
    4.5000000000187301E-01     1.0000000000000000E+00     0.0000000000000000E+00 
    8.9999999999958358E-01     1.0000000000000000E+00     0.0000000000000000E+00 
    8.4999999999965303E-01     1.0000000000000000E+00     0.0000000000000000E+00 
    8.0000000000000004E-01     1.0000000000000000E+00     0.0000000000000000E+00 
    7.5000000000034706E-01     1.0000000000000000E+00     0.0000000000000000E+00 
    7.0000000000069384E-01     1.0000000000000000E+00     0.0000000000000000E+00 
    6.5000000000104063E-01     1.0000000000000000E+00     0.0000000000000000E+00 
    6.0000000000138742E-01     1.0000000000000000E+00     0.0000000000000000E+00 
    5.5000000000173432E-01     1.0000000000000000E+00     0.0000000000000000E+00 
    5.0000000000205946E-01     1.0000000000000000E+00     0.0000000000000000E+00 
    9.4999999999979179E-01     1.0000000000000000E+00     0.0000000000000000E+00 
    4.0000000000166491E-01     1.0000000000000000E+00     0.0000000000000000E+00 
    3.5000000000145681E-01     1.0000000000000000E+00     0.0000000000000000E+00 
    3.0000000000124871E-01     1.0000000000000000E+00     0.0000000000000000E+00 
    2.5000000000104061E-01     1.0000000000000000E+00     0.0000000000000000E+00 
    2.0000000000083251E-01     1.0000000000000000E+00     0.0000000000000000E+00 
    1.5000000000062441E-01     1.0000000000000000E+00     0.0000000000000000E+00 
    1.0000000000041630E-01     1.0000000000000000E+00     0.0000000000000000E+00 
[...]
CELL_DATA 1600 
SCALARS Pressure double 1 
LOOKUP_TABLE default 

    1.0029600719697163E+00 
    9.5672667158153901E-01 
    9.5431268520272972E-01 
    9.8727231675896265E-01 
    9.7471489243958054E-01 
    9.5066015051409103E-01 
    9.4644730390043164E-01 
    9.6443339617389023E-01 
    9.5583262880692921E-01 
    9.4205587023126047E-01 
    9.3769619369621160E-01 
    9.4849977455237933E-01 
    9.4214383107184119E-01 
    9.3347923969092028E-01 
    9.2945879996361047E-01 
    9.3655610834845360E-01 
    9.3158434803311030E-01 
    9.2565624585903072E-01 
    9.2207501951178827E-01 
    9.2711558014340045E-01 
    9.2306462178008797E-01 
    9.1870907821511638E-01 
    9.1554777264635123E-01 
    9.1936625562833474E-01 
    9.1596983589328440E-01 
    9.1257862307428694E-01 
    9.0978885962791067E-01 
    9.1283551510082384E-01 
    9.0993156695759703E-01 
    9.0716623970486743E-01 
    9.0469944661991364E-01 
    9.0723246004105673E-01 
    9.0471745260907321E-01 
    9.0237824956205837E-01 
    9.0019353116751799E-01 
    9.0236955387381879E-01 
    9.0017474636168537E-01 
    8.9813724509642268E-01 
    8.9620233984814190E-01 
    8.9812139668504787E-01 
    8.9619980399813770E-01 
    8.9438266949933731E-01 
    8.9267290283637057E-01 
    8.9440185030299668E-01 
    8.9272072699397853E-01 
    8.9106843693397619E-01 
    8.8956531808056039E-01 
    8.9115071912484711E-01 
    8.8968703386249737E-01 
    8.8816017115230472E-01 
    8.8685013754257547E-01 
    8.8832566312338990E-01 
    8.8706327291639331E-01 
    8.8563282122625064E-01 
    8.8450624227481822E-01 
    8.8589711373326385E-01 
    8.8482494762375807E-01 
    8.8346879700113223E-01 
    8.8251922378759196E-01 
    8.8384498846494841E-01 
    8.8295585236561480E-01 
    8.8165657337602577E-01 
    8.8088018159192816E-01 
    8.8215651486273794E-01 
    8.8144626956571104E-01 
    8.8018964003945543E-01 
    8.7958475305444650E-01 
    8.8082467612083137E-01 
    8.8029146577653228E-01 
    8.7906544900662487E-01 
    8.7863156400648135E-01 
    8.7984632339592106E-01 
    8.7948835775301770E-01 
    8.7828230913949756E-01 
    8.7801505074932029E-01 
    8.7921488870338960E-01 
    8.7901960169898541E-01 
    8.7782347648924197E-01 
    8.7771321417475678E-01 
    8.7890752477695888E-01 
    9.3320226451059907E-01 
    9.1635361797043524E-01 
    9.1598709008207713E-01 
    9.3243599419272682E-01 
    9.3102808045565211E-01 
    9.1527830449619629E-01 
    9.1426880509787589E-01 
    9.2913498448628662E-01 
    9.2690244296619972E-01 
    9.1300804844073835E-01 
    9.1154672890085742E-01 
    9.2445137054675719E-01 
    9.2187589915464430E-01 
    9.0993256795770083E-01 
    9.0820808859858460E-01 
    9.1924632250065641E-01 
    9.1661351565723803E-01 
    9.0640976411713947E-01 
    9.0456801923348829E-01 
    9.1401331729625523E-01 
    9.1147030109860827E-01 
    9.0270770151217328E-01 
    9.0084876894054144E-01 
    9.0900079987387805E-01 
    9.0661523158612900E-01 
    8.9900703742075272E-01 
    8.9719490002670899E-01 
    9.0431984077908900E-01 
    9.0211797806300464E-01 
    8.9542197413381253E-01 
    8.9369565959907393E-01 
    9.0001102718923909E-01 
    8.9799906937360796E-01 
    8.9202160664952646E-01 
    8.9040410019989846E-01 
    8.9608135479825768E-01 
    8.9425663422386859E-01 
    8.8884637086241136E-01 
    8.8735084384467300E-01 
    8.9252338999705028E-01 
    8.9087999522046424E-01 
    8.8591933646677246E-01 
    8.8455321390199637E-01 
    8.8932482195435647E-01 
    8.8785631348684091E-01 
    8.8325351138465957E-01 
    8.8202102976642616E-01 
    8.8647303145479117E-01 
    8.8517368551617193E-01 
    8.8085641005463455E-01 
    8.7976019147811191E-01 
    8.8395715105448180E-01 
    8.8282247879754427E-01 
    8.7873285670324797E-01 
    8.7777486704712460E-01 
    8.8176889907400136E-01 
    8.8079582256550548E-01 
    8.7688668986648854E-01 
    8.7606881966955130E-01 
    8.7990283870169439E-01 
    8.7908971209440101E-01 
    8.7532179374353025E-01 
    8.7464620179125852E-01 
    8.7835637619309759E-01 
    8.7770292049082244E-01 
    8.7404268600118695E-01 
    8.7351191975266096E-01 
    8.7712955982440555E-01 
    8.7663655343385505E-01 
    8.7305453169900904E-01 
    8.7267089182020696E-01 
    8.7622399113218807E-01 
    8.7589125875146467E-01 
    8.7236057375738729E-01 
    8.7212113917885836E-01 
    8.7563581930430390E-01 
    8.7545142448892044E-01 
    8.7194640337427387E-01 
    8.7184444205465772E-01 
    8.7534474278858521E-01 
    9.0234181203695374E-01 
    8.8974088901618176E-01 
    8.8960094874638385E-01 
    9.0212748594967773E-01 
    9.0170630664639362E-01 
    8.8932412051182352E-01 
    8.8891664507669921E-01 
    9.0109270833747723E-01 
    9.0030595718364381E-01 
    8.8838731357085488E-01 
    8.8774684294805761E-01 
    8.9936816779074114E-01 
    8.9830256955950039E-01 
    8.8700722720239489E-01 
    8.8618113713788749E-01 
    8.9713216560064979E-01 
    8.9587879922841374E-01 
    8.8528141027373319E-01 
    8.8432064784864717E-01 
    8.9456257749999180E-01 
    8.9320157665343436E-01 
    8.8331091874523116E-01 
    8.8226355984805227E-01 
    8.9181175300033977E-01 
    8.9040699271359713E-01 
    8.8118905734964592E-01 
    8.8009699216379678E-01 
    8.8899924766902894E-01 
    8.8759871812222491E-01 
    8.7899603347284128E-01 
    8.7789396646233597E-01 
    8.8621405474937276E-01 
    8.8485256190303108E-01 
    8.7679774276399602E-01 
    8.7571354459618223E-01 
    8.8352039090738155E-01 
    8.8222271718843415E-01 
    8.7464685582167545E-01 
    8.7360253503048590E-01 
    8.8096389842183709E-01 
    8.7974761308010729E-01 
    8.7258488727887673E-01 
    8.7159773229813386E-01 
    8.7857698010559859E-01 
    8.7745466118772242E-01 
    8.7064446787301497E-01 
    8.6972812773172559E-01 
    8.7638294747911971E-01 
    8.7536383268717322E-01 
    8.6885143373630724E-01 
    8.6801684245718991E-01 
    8.7439907442213638E-01 
    8.7349024553467369E-01 
    8.6722658639127514E-01 
    8.6648271015930423E-01 
    8.7263877696905723E-01 
    8.7184599339996915E-01 
    8.6578710199459830E-01 
    8.6514152066767602E-01 
    8.7111314257263095E-01 
    8.7044141868608282E-01 
    8.6454761752386189E-01 
    8.6400695206551226E-01 
    8.6983197891130504E-01 
    8.6928594893083677E-01 
    8.6352099610711686E-01 
    8.6309111240932401E-01 
    8.6880440475244913E-01 
    8.6838829607086077E-01 
    8.6271847119519451E-01 
    8.6240381894860618E-01 
    8.6803822679148601E-01 
    8.6775390937320440E-01 
    8.6214691776982499E-01 
    8.6194531057912893E-01 
    8.6753294647046075E-01 
    8.6736913208858379E-01 
    8.6179261073016855E-01 
    8.6170078043090903E-01 
    8.6727231348589084E-01 
    8.7787468685576042E-01 
    8.6637395692079677E-01 
    8.6630214012929052E-01 
    8.7777679352700699E-01 
    8.7758250088105272E-01 
    8.6615933856734240E-01 
    8.6594735227657627E-01 
    8.7729496995756528E-01 
    8.7691877789581618E-01 
    8.6566882634920805E-01 
    8.6532716038839286E-01 
    8.7645969392279499E-01 
    8.7592442104575752E-01 
    8.6492639579635078E-01 
    8.6447109208647632E-01 
    8.7532033081076521E-01 
    8.7465521128272883E-01 
    8.6396620087057807E-01 
    8.6341694438689243E-01 
    8.7393704179898790E-01 
    8.7317380209353945E-01 
    8.6282870362540187E-01 
    8.6220691935813298E-01 
    8.7237331855717481E-01 
    8.7154314686835677E-01 
    8.6155700783363509E-01 
    8.6088429163276170E-01 
    8.7069048792888493E-01 
    8.6982213276117493E-01 
    8.6019394523423554E-01 
    8.5949095418754762E-01 
    8.6894443152038503E-01 
    8.6806328180590386E-01 
    8.5878008639681480E-01 
    8.5806587383092170E-01 
    8.6718413182206400E-01 
    8.6631199448305329E-01 
    8.5735260294045701E-01 
    8.5664431213342496E-01 
    8.6545146917184013E-01 
    8.6460676847487106E-01 
    8.5594479480009189E-01 
    8.5525760655166561E-01 
    8.6378174777963912E-01 
    8.6297993611817236E-01 
    8.5458607552478205E-01 
    8.5393331478748336E-01 
    8.6220456705717718E-01 
    8.6145860877462699E-01 
    8.5330223605094380E-01 
    8.5269556403588498E-01 
    8.6074479272666160E-01 
    8.6006564050090795E-01 
    8.5211585095438069E-01 
    8.5156549063225417E-01 
    8.5942348857047757E-01 
    8.5882051068815446E-01 
    8.5104673178290802E-01 
    8.5056168977002433E-01 
    8.5825873753043547E-01 
    8.5774007273095254E-01 
    8.5011235564500554E-01 
    8.4970059970616296E-01 
    8.5726630309339247E-01 
    8.5683909705697081E-01 
    8.4932816270051870E-01 
    8.4899661740966548E-01 
    8.5645997576848654E-01 
    8.5613021807602596E-01 
    8.4870725985986328E-01 
    8.4846084185744408E-01 
    8.5585061245691052E-01 
    8.5562087425034450E-01 
    8.4825696157044916E-01 
    8.4809274093682629E-01 
    8.5543837567423786E-01 
    8.5529635461716669E-01 
    8.4796088294934624E-01 
    8.4787811763795962E-01 
    8.5520913849139357E-01 
    8.5501830608296270E-01 
    8.4366824023441667E-01 
    8.4362552383579203E-01 
    8.5496370925486598E-01 
    8.5485502802213231E-01 
    8.4354043395571021E-01 
    8.4341372482148280E-01 
    8.5469338517317284E-01 
    8.5448044233875298E-01 
    8.4324651445395138E-01 
    8.4304026576101476E-01 
    8.5421835990817430E-01 
    8.5390974331905645E-01 
    8.4279675888059769E-01 
    8.4251805812973068E-01 
    8.5355758127046777E-01 
    8.5316517977623052E-01 
    8.4220647554531225E-01 
    8.4186453264809302E-01 
    8.5273609534350769E-01 
    8.5227406999540067E-01 
    8.4149492184923891E-01 
    8.4110046870668398E-01 
    8.5178297025808014E-01 
    8.5126673163243038E-01 
    8.4068409601056115E-01 
    8.4024879044337852E-01 
    8.5072930950957815E-01 
    8.5017463700058438E-01 
    8.3979757233514318E-01 
    8.3933346882795623E-01 
    8.4960658975007275E-01 
    8.4902895749620189E-01 
    8.3885949058650089E-01 
    8.3837861204422537E-01 
    8.4844542192038797E-01 
    8.4785954018919674E-01 
    8.3789375506061459E-01 
    8.3740777578098624E-01 
    8.4727473351447569E-01 
    8.4669428003211844E-01 
    8.3692345443348026E-01 
    8.3644348776396582E-01 
    8.4612131131138169E-01 
    8.4555881184340731E-01 
    8.3597048379372874E-01 
    8.3550695858174207E-01 
    8.4500962090891074E-01 
    8.4447643628152924E-01 
    8.3505533467736415E-01 
    8.3461794095320030E-01 
    8.4396181927580427E-01 
    8.4346820068571715E-01 
    8.3419701350060427E-01 
    8.3379469723139343E-01 
    8.4299788716228274E-01 
    8.4255306750753878E-01 
    8.3341304771377045E-01 
    8.3305403246687593E-01 
    8.4213581812131888E-01 
    8.4174810617178308E-01 
    8.3271953015532252E-01 
    8.3241132410901542E-01 
    8.4139178728836905E-01 
    8.4106858999859957E-01 
    8.3213108157853610E-01 
    8.3188029864289881E-01 
    8.4078006812407224E-01 
    8.4052747862729194E-01 
    8.3166016714623658E-01 
    8.3147127489656614E-01 
    8.4031149586245890E-01 
    8.4013157610551925E-01 
    8.3131294960729352E-01 
    8.3118181663069801E-01 
    8.3998457385185799E-01 
    8.3986261481998592E-01 
    8.3106956304461499E-01 
    8.3099673734217605E-01 
    8.3978457015870100E-01 
    8.3223199612166499E-01 
    8.2064779269206811E-01 
    8.2061966000841069E-01 
    8.3219773021068955E-01 
    8.3212944463416672E-01 
    8.2056358249372574E-01 
    8.2047996707434934E-01 
    8.3202767865932059E-01 
    8.3189322958252243E-01 
    8.2036941186230106E-01 
    8.2023270149020355E-01 
    8.3172714344665855E-01 
    8.3153069979552463E-01 
    8.2007079816662132E-01 
    8.1988483023691672E-01 
    8.3130539281571825E-01 
    8.3105291001406467E-01 
    8.1967607899978945E-01 
    8.1944596428726169E-01 
    8.3077510930214704E-01 
    8.3047399524965881E-01 
    8.1919602923812906E-01 
    8.1892792465176245E-01 
    8.3015169518287824E-01 
    8.2981043571497448E-01 
    8.1864339327049596E-01 
    8.1834425429748592E-01 
    8.2945252019807736E-01 
    8.2908030748669370E-01 
    8.1803238841223769E-01 
    8.1770972349941407E-01 
    8.2869619230316760E-01 
    8.2830258740295026E-01 
    8.1737822126003268E-01 
    8.1703986482961755E-01 
    8.2790190765391192E-01 
    8.2749655607192119E-01 
    8.1669664748682924E-01 
    8.1635056249963878E-01 
    8.2708891179542388E-01 
    8.2668131993477068E-01 
    8.1600359412485246E-01 
    8.1565770975082874E-01 
    8.2627608319665491E-01 
    8.2587545515873495E-01 
    8.1531485315216590E-01 
    8.1497693880776911E-01 
    8.2548163505192262E-01 
    8.2509676389450337E-01 
    8.1464584721768085E-01 
    8.1432342113453160E-01 
    8.2472292180762108E-01 
    8.2436212631535821E-01 
    8.1401146259209889E-01 
    8.1371173054267887E-01 
    8.2401633137295827E-01 
    8.2368742672313211E-01 
    8.1342593874947788E-01 
    8.1315575317412581E-01 
    8.2337723682545771E-01 
    8.2308751770792954E-01 
    8.1290278708245489E-01 
    8.1266858958858468E-01 
    8.2281994783478551E-01 
    8.2257610367834788E-01 
    8.1245461758804927E-01 
    8.1226216909080962E-01 
    8.2235739889887416E-01 
    8.2216494311119470E-01 
    8.1209223378177930E-01 
    8.1194517355959328E-01 
    8.2199923262575436E-01 
    8.2185947875952692E-01 
    8.1182002701296296E-01 
    8.1171292540711126E-01 
    8.2174210972730954E-01 
    8.2163876038693562E-01 
    8.1161623394343518E-01 
    8.1155381256275583E-01 
    8.2157137351521081E-01 
    8.0887365216379492E-01 
    7.9688124849279574E-01 
    7.9686091963077843E-01 
    8.0885001944212509E-01 
    8.0880290496236551E-01 
    7.9682038880671879E-01 
    7.9675992206872892E-01 
    8.0873263076073520E-01 
    8.0863966635105244E-01 
    7.9667990373786290E-01 
    7.9658083512104327E-01 
    8.0852462633382460E-01 
    8.0838826481986270E-01 
    7.9646333080863685E-01 
    7.9632811364121237E-01 
    8.0823146806526369E-01 
    8.0805524585697863E-01 
    7.9617600875836081E-01 
    7.9600793695151395E-01 
    8.0786072197177672E-01 
    8.0764912396636901E-01 
    7.9582490748516543E-01 
    7.9562801052853704E-01 
    8.0742177252818481E-01 
    8.0718007059664310E-01 
    7.9541840932740915E-01 
    7.9519733223586375E-01 
    8.0692549244575951E-01 
    8.0665957289838930E-01 
    7.9496606471752884E-01 
    7.9472594141482067E-01 
    8.0638389682025924E-01 
    8.0610008901873442E-01 
    7.9447833837260307E-01 
    7.9422466548980875E-01 
    8.0580980464787255E-01 
    8.0551472019852011E-01 
    7.9396635925919612E-01 
    7.9370487584174343E-01 
    8.0521652513067232E-01 
    8.0491691418551603E-01 
    7.9344168450826835E-01 
    7.9317826146649140E-01 
    8.0461758039661924E-01 
    8.0432020880338506E-01 
    7.9291608407621361E-01 
    7.9265662543693682E-01 
    8.0402647085409507E-01 
    8.0373801946832912E-01 
    7.9240134930777251E-01 
    7.9215170528173107E-01 
    8.0345648470404396E-01 
    8.0318346993139178E-01 
    7.9190912406999325E-01 
    7.9167501262097040E-01 
    8.0292054832592707E-01 
    8.0266925929052368E-01 
    7.9145074851893116E-01 
    7.9123767247117138E-01 
    8.0243110392770189E-01 
    8.0220753749378060E-01 
    7.9103707621789232E-01 
    7.9085017986967132E-01 
    8.0199995393852452E-01 
    8.0180965140992944E-01 
    7.9067808570944997E-01 
    7.9052168228934183E-01 
    8.0163775534897597E-01 
    8.0148505359673194E-01 
    7.9038144830606549E-01 
    7.9025704766100324E-01 
    8.0135165145996479E-01 
    8.0123620905466986E-01 
    7.9014640641753298E-01 
    7.9004340791802985E-01 
    8.0113414267781080E-01 
    8.0103996678061373E-01 
    7.8994672913865027E-01 
    7.8989055223696414E-01 
    8.0098134756403161E-01 
    7.8465204792957510E-01 
    7.7217483548635446E-01 
    7.7215857306474189E-01 
    7.8463411302885444E-01 
    7.8459835417426782E-01 
    7.7212614867197105E-01 
    7.7207776638142589E-01 
    7.8454500005697003E-01 
    7.8447437801980269E-01 
    7.7201371598812396E-01 
    7.7193437234418161E-01 
    7.8438691325501619E-01 
    7.8428312617299878E-01 
    7.7184019334503617E-01 
    7.7173171710727639E-01 
    7.8416362874783241E-01 
    7.8402912016689585E-01 
    7.7160955860018743E-01 
    7.7147440585605787E-01 
    7.8388038194716847E-01 
    7.8371827262961757E-01 
    7.7132701583916519E-01 
    7.7116821003639191E-01 
    7.8354372214378121E-01 
    7.8335772592542252E-01 
    7.7099886982485233E-01 
    7.7081993166759244E-01 
    7.8316133886394101E-01 
    7.8295566915058890E-01 
    7.7063238218501795E-01 
    7.7043725314623823E-01 
    7.8274187209247215E-01 
    7.8252114395046468E-01 
    7.7023561642049621E-01 
    7.7002857892404120E-01 
    7.8229471585140187E-01 
    7.8206384781614646E-01 
    7.6981727759189311E-01 
    7.6960287439663588E-01 
    7.8182982293521164E-01 
    7.8159394171221519E-01 
    7.6938655142704904E-01 
    7.6916950602703560E-01 
    7.8135751658181074E-01 
    7.8112186659153715E-01 
    7.6895294597808805E-01 
    7.6873808468308202E-01 
    7.8088831221360566E-01 
    7.8065817021797812E-01 
    7.6852613626910893E-01 
    7.6831831045964705E-01 
    7.8043274848208055E-01 
    7.8021334051393032E-01 
    7.6811580694506654E-01 
    7.6791980874708698E-01 
    7.8000121927729948E-01 
    7.7979762952125597E-01 
    7.6773147359580440E-01 
    7.6755192132094952E-01 
    7.7960377697926353E-01 
    7.7942081095323146E-01 
    7.6738221307330445E-01 
    7.6722331365628027E-01 
    7.7924979282199736E-01 
    7.7909163504691525E-01 
    7.6707601944906012E-01 
    7.6694081806021597E-01 
    7.7894698041724775E-01 
    7.7881596225307348E-01 
    7.6681761112658797E-01 
    7.6670512376058819E-01 
    7.7869770650680759E-01 
    7.7858914732835738E-01 
    7.6659942771383660E-01 
    7.6648957630692516E-01 
    7.7848183211732580E-01 
    7.7838010744694153E-01 
    7.6638506714787047E-01 
    7.6633158519083378E-01 
    7.7832544043886320E-01 
    7.5944413024730462E-01 
    7.4645920713849989E-01 
    7.4644456091150757E-01 
    7.5942894004849426E-01 
    7.5939865353993996E-01 
    7.4641535885591470E-01 
    7.4637178169218166E-01 
    7.5935345947125255E-01 
    7.5929362434679215E-01 
    7.4631408386875098E-01 
    7.4624259261621995E-01 
    7.5921949168985370E-01 
    7.5913148037528655E-01 
    7.4615770645289525E-01 
    7.4605989315366184E-01 
    7.5903008230925029E-01 
    7.5891585966350350E-01 
    7.4594968733949252E-01 
    7.4582768776726360E-01 
    7.5878944176342811E-01 
    7.5865152169014538E-01 
    7.4569455436714704E-01 
    7.4555100506216476E-01 
    7.5850285264226136E-01 
    7.5834424409650714E-01 
    7.4539781239934477E-01 
    7.4523580001981848E-01 
    7.5817655780345083E-01 
    7.5800070365252248E-01 
    7.4506583899435408E-01 
    7.4488884405045253E-01 
    7.5781763543888181E-01 
    7.5762834656271905E-01 
    7.4470576971684155E-01 
    7.4451760641076892E-01 
    7.5743386568912852E-01 
    7.5723525239346012E-01 
    7.4432537649269803E-01 
    7.4413013031155328E-01 
    7.5703359281265514E-01 
    7.5682999531693496E-01 
    7.4393294226107920E-01 
    7.4373490686323107E-01 
    7.5662558620727005E-01 
    7.5642150543042963E-01 
    7.4353713488602968E-01 
    7.4334074948743489E-01 
    7.5621890228148114E-01 
    7.5601893102638462E-01 
    7.4314688234620307E-01 
    7.4295666967998419E-01 
    7.5582274631053692E-01 
    7.5563149809232555E-01 
    7.4277124792634830E-01 
    7.4259174859927801E-01 
    7.5544632558701807E-01 
    7.5526834917556085E-01 
    7.4241929126618256E-01 
    7.4225497236627591E-01 
    7.5509865809635657E-01 
    7.5493828932863349E-01 
    7.4209984502899751E-01 
    7.4195488001153387E-01 
    7.5478818820840121E-01 
    7.5464913212883888E-01 
    7.4182088859075646E-01 
    7.4169837045607623E-01 
    7.5452158147207915E-01 
    7.5440538164571114E-01 
    7.4158720305937131E-01 
    7.4148591815256593E-01 