# vtk DataFile Version 2.0
Pressure Field Data 
ASCII 
DATASET UNSTRUCTURED_GRID 

POINTS 1681 double 

    0.0000000000000000E+00     0.0000000000000000E+00     0.0000000000000000E+00 
    1.0000000000000000E+00     0.0000000000000000E+00     0.0000000000000000E+00 
    1.0000000000000000E+00     1.0000000000000000E+00     0.0000000000000000E+00 
    0.0000000000000000E+00     1.0000000000000000E+00     0.0000000000000000E+00 
    5.2499999999875258E-01     0.0000000000000000E+00     0.0000000000000000E+00 
    7.4999999999856765E-02     0.0000000000000000E+00     0.0000000000000000E+00 
    1.2499999999975850E-01     0.0000000000000000E+00     0.0000000000000000E+00 
    1.7499999999962990E-01     0.0000000000000000E+00     0.0000000000000000E+00 
    2.2499999999948389E-01     0.0000000000000000E+00     0.0000000000000000E+00 
    2.7499999999933789E-01     0.0000000000000000E+00     0.0000000000000000E+00 
    3.2499999999919210E-01     0.0000000000000000E+00     0.0000000000000000E+00 
    3.7499999999904610E-01     0.0000000000000000E+00     0.0000000000000000E+00 
    4.2499999999890020E-01     0.0000000000000000E+00     0.0000000000000000E+00 
    4.7499999999875958E-01     0.0000000000000000E+00     0.0000000000000000E+00 
    2.4999999999949701E-02     0.0000000000000000E+00     0.0000000000000000E+00 
    5.7499999999887907E-01     0.0000000000000000E+00     0.0000000000000000E+00 
    6.2499999999901101E-01     0.0000000000000000E+00     0.0000000000000000E+00 
    6.7499999999914273E-01     0.0000000000000000E+00     0.0000000000000000E+00 
    7.2499999999927467E-01     0.0000000000000000E+00     0.0000000000000000E+00 
    7.7499999999940661E-01     0.0000000000000000E+00     0.0000000000000000E+00 
    8.2499999999953844E-01     0.0000000000000000E+00     0.0000000000000000E+00 
    8.7499999999967026E-01     0.0000000000000000E+00     0.0000000000000000E+00 
    9.2499999999980220E-01     0.0000000000000000E+00     0.0000000000000000E+00 
    9.7499999999993414E-01     0.0000000000000000E+00     0.0000000000000000E+00 
    5.4999999999881310E-01     0.0000000000000000E+00     0.0000000000000000E+00 
    9.9999999999814140E-02     0.0000000000000000E+00     0.0000000000000000E+00 
    1.4999999999970290E-01     0.0000000000000000E+00     0.0000000000000000E+00 
    1.9999999999955689E-01     0.0000000000000000E+00     0.0000000000000000E+00 
    2.4999999999941089E-01     0.0000000000000000E+00     0.0000000000000000E+00 
    2.9999999999926502E-01     0.0000000000000000E+00     0.0000000000000000E+00 
    3.4999999999911913E-01     0.0000000000000000E+00     0.0000000000000000E+00 
    3.9999999999897312E-01     0.0000000000000000E+00     0.0000000000000000E+00 
    4.4999999999882723E-01     0.0000000000000000E+00     0.0000000000000000E+00 
    4.9999999999869210E-01     0.0000000000000000E+00     0.0000000000000000E+00 
    4.9999999999899403E-02     0.0000000000000000E+00     0.0000000000000000E+00 
    5.9999999999894504E-01     0.0000000000000000E+00     0.0000000000000000E+00 
    6.4999999999907687E-01     0.0000000000000000E+00     0.0000000000000000E+00 
    6.9999999999920870E-01     0.0000000000000000E+00     0.0000000000000000E+00 
    7.4999999999934064E-01     0.0000000000000000E+00     0.0000000000000000E+00 
    7.9999999999947247E-01     0.0000000000000000E+00     0.0000000000000000E+00 
    8.4999999999960441E-01     0.0000000000000000E+00     0.0000000000000000E+00 
    8.9999999999973623E-01     0.0000000000000000E+00     0.0000000000000000E+00 
    9.4999999999986817E-01     0.0000000000000000E+00     0.0000000000000000E+00 
    1.0000000000000000E+00     5.2499999999875258E-01     0.0000000000000000E+00 
    1.0000000000000000E+00     7.4999999999856765E-02     0.0000000000000000E+00 
    1.0000000000000000E+00     1.2499999999975850E-01     0.0000000000000000E+00 
    1.0000000000000000E+00     1.7499999999962990E-01     0.0000000000000000E+00 
    1.0000000000000000E+00     2.2499999999948389E-01     0.0000000000000000E+00 
    1.0000000000000000E+00     2.7499999999933789E-01     0.0000000000000000E+00 
    1.0000000000000000E+00     3.2499999999919210E-01     0.0000000000000000E+00 
    1.0000000000000000E+00     3.7499999999904610E-01     0.0000000000000000E+00 
    1.0000000000000000E+00     4.2499999999890020E-01     0.0000000000000000E+00 
    1.0000000000000000E+00     4.7499999999875958E-01     0.0000000000000000E+00 
    1.0000000000000000E+00     2.4999999999949701E-02     0.0000000000000000E+00 
    1.0000000000000000E+00     5.7499999999887907E-01     0.0000000000000000E+00 
    1.0000000000000000E+00     6.2499999999901101E-01     0.0000000000000000E+00 
    1.0000000000000000E+00     6.7499999999914273E-01     0.0000000000000000E+00 
    1.0000000000000000E+00     7.2499999999927467E-01     0.0000000000000000E+00 
    1.0000000000000000E+00     7.7499999999940661E-01     0.0000000000000000E+00 
    1.0000000000000000E+00     8.2499999999953844E-01     0.0000000000000000E+00 
    1.0000000000000000E+00     8.7499999999967026E-01     0.0000000000000000E+00 
    1.0000000000000000E+00     9.2499999999980220E-01     0.0000000000000000E+00 
    1.0000000000000000E+00     9.7499999999993414E-01     0.0000000000000000E+00 
    1.0000000000000000E+00     5.4999999999881310E-01     0.0000000000000000E+00 
    1.0000000000000000E+00     9.9999999999814140E-02     0.0000000000000000E+00 
    1.0000000000000000E+00     1.4999999999970290E-01     0.0000000000000000E+00 
    1.0000000000000000E+00     1.9999999999955689E-01     0.0000000000000000E+00 
    1.0000000000000000E+00     2.4999999999941089E-01     0.0000000000000000E+00 
    1.0000000000000000E+00     2.9999999999926502E-01     0.0000000000000000E+00 
    1.0000000000000000E+00     3.4999999999911913E-01     0.0000000000000000E+00 
    1.0000000000000000E+00     3.9999999999897312E-01     0.0000000000000000E+00 
    1.0000000000000000E+00     4.4999999999882723E-01     0.0000000000000000E+00 
    1.0000000000000000E+00     4.9999999999869210E-01     0.0000000000000000E+00 
    1.0000000000000000E+00     4.9999999999899403E-02     0.0000000000000000E+00 
    1.0000000000000000E+00     5.9999999999894504E-01     0.0000000000000000E+00 
    1.0000000000000000E+00     6.4999999999907687E-01     0.0000000000000000E+00 
    1.0000000000000000E+00     6.9999999999920870E-01     0.0000000000000000E+00 
    1.0000000000000000E+00     7.4999999999934064E-01     0.0000000000000000E+00 
    1.0000000000000000E+00     7.9999999999947247E-01     0.0000000000000000E+00 
    1.0000000000000000E+00     8.4999999999960441E-01     0.0000000000000000E+00 
    1.0000000000000000E+00     8.9999999999973623E-01     0.0000000000000000E+00 
    1.0000000000000000E+00     9.4999999999986817E-01     0.0000000000000000E+00 
    4.7500000000196618E-01     1.0000000000000000E+00     0.0000000000000000E+00 
    9.2499999999968763E-01     1.0000000000000000E+00     0.0000000000000000E+00 
    8.7499999999961831E-01     1.0000000000000000E+00     0.0000000000000000E+00 
    8.2499999999982654E-01     1.0000000000000000E+00     0.0000000000000000E+00 
    7.7500000000017355E-01     1.0000000000000000E+00     0.0000000000000000E+00 
    7.2500000000052045E-01     1.0000000000000000E+00     0.0000000000000000E+00 
    6.7500000000086724E-01     1.0000000000000000E+00     0.0000000000000000E+00 
    6.2500000000121403E-01     1.0000000000000000E+00     0.0000000000000000E+00 
    5.7500000000156093E-01     1.0000000000000000E+00     0.0000000000000000E+00 
    5.2500000000189684E-01     1.0000000000000000E+00     0.0000000000000000E+00 
    9.7499999999989595E-01     1.0000000000000000E+00     0.0000000000000000E+00 
    4.2500000000176902E-01     1.0000000000000000E+00     0.0000000000000000E+00 
    3.7500000000156092E-01     1.0000000000000000E+00     0.0000000000000000E+00 
    3.2500000000135282E-01     1.0000000000000000E+00     0.0000000000000000E+00 
    2.7500000000114472E-01     1.0000000000000000E+00     0.0000000000000000E+00 
    2.2500000000093659E-01     1.0000000000000000E+00     0.0000000000000000E+00 
    1.7500000000072849E-01     1.0000000000000000E+00     0.0000000000000000E+00 
    1.2500000000052039E-01     1.0000000000000000E+00     0.0000000000000000E+00 
    7.5000000000312261E-02     1.0000000000000000E+00     0.0000000000000000E+00 
    2.5000000000104109E-02     1.0000000000000000E+00     0.0000000000000000E+00 
    4.5000000000187301E-01     1.0000000000000000E+00     0.0000000000000000E+00 
    8.9999999999958358E-01     1.0000000000000000E+00     0.0000000000000000E+00 
    8.4999999999965303E-01     1.0000000000000000E+00     0.0000000000000000E+00 
    8.0000000000000004E-01     1.0000000000000000E+00     0.0000000000000000E+00 
    7.5000000000034706E-01     1.0000000000000000E+00     0.0000000000000000E+00 
    7.0000000000069384E-01     1.0000000000000000E+00     0.0000000000000000E+00 
    6.5000000000104063E-01     1.0000000000000000E+00     0.0000000000000000E+00 
    6.0000000000138742E-01     1.0000000000000000E+00     0.0000000000000000E+00 
    5.5000000000173432E-01     1.0000000000000000E+00     0.0000000000000000E+00 
    5.0000000000205946E-01     1.0000000000000000E+00     0.0000000000000000E+00 
    9.4999999999979179E-01     1.0000000000000000E+00     0.0000000000000000E+00 
    4.0000000000166491E-01     1.0000000000000000E+00     0.0000000000000000E+00 
    3.5000000000145681E-01     1.0000000000000000E+00     0.0000000000000000E+00 
    3.0000000000124871E-01     1.0000000000000000E+00     0.0000000000000000E+00 
    2.5000000000104061E-01     1.0000000000000000E+00     0.0000000000000000E+00 
    2.0000000000083251E-01     1.0000000000000000E+00     0.0000000000000000E+00 
    1.5000000000062441E-01     1.0000000000000000E+00     0.0000000000000000E+00 
    1.0000000000041630E-01     1.0000000000000000E+00     0.0000000000000000E+00 
[...]
CELL_DATA 1600 
SCALARS Pressure double 1 
LOOKUP_TABLE default 

    1.2590782258479165E+00 
    1.2118512985513896E+00 
    1.2093659881185581E+00 
    1.2432341205293451E+00 
    1.2304655810288436E+00 
    1.2055852537367389E+00 
    1.2012014460220859E+00 
    1.2199448866470521E+00 
    1.2110820856326685E+00 
    1.1966041932498250E+00 
    1.1920096424288795E+00 
    1.2034676351218763E+00 
    1.1968131295278974E+00 
    1.1875333717476810E+00 
    1.1832330346050846E+00 
    1.1909121811769843E+00 
    1.1856146773326475E+00 
    1.1791333456504651E+00 
    1.1752407046796269E+00 
    1.1808096873630318E+00 
    1.1764139776185913E+00 
    1.1715517225347203E+00 
    1.1680581534573069E+00 
    1.1723641930075097E+00 
    1.1686114620281463E+00 
    1.1647497099295370E+00 
    1.1616156322457876E+00 
    1.1651176225352720E+00 
    1.1618525448548624E+00 
    1.1586455292167788E+00 
    1.1558297959915007E+00 
    1.1587922073211347E+00 
    1.1559172943449707E+00 
    1.1531597901931590E+00 
    1.1506278733831781E+00 
    1.1532121620047169E+00 
    1.1506640653993712E+00 
    1.1482273806991441E+00 
    1.1459525552007497E+00 
    1.1482625747398851E+00 
    1.1459991291472473E+00 
    1.1437984677956838E+00 
    1.1417609343148856E+00 
    1.1438666920561618E+00 
    1.1418594823551136E+00 
    1.1398364357972970E+00 
    1.1380220447796947E+00 
    1.1399727624530014E+00 
    1.1382026693296909E+00 
    1.1363153584152006E+00 
    1.1347144379435334E+00 
    1.1365460779076098E+00 
    1.1350004880807421E+00 
    1.1332177529255729E+00 
    1.1318241271944711E+00 
    1.1335639274369449E+00 
    1.1322348605326085E+00 
    1.1305326807131018E+00 
    1.1293427551783168E+00 
    1.1310120906039860E+00 
    1.1298946251847000E+00 
    1.1282537950621536E+00 
    1.1272651148296369E+00 
    1.1288814391534605E+00 
    1.1279709837795244E+00 
    1.1263753932934431E+00 
    1.1255815804009321E+00 
    1.1271601414594195E+00 
    1.1264420956325789E+00 
    1.1248766511448340E+00 
    1.1242451538068594E+00 
    1.1258021762502750E+00 
    1.1252145065584729E+00 
    1.1236602093789829E+00 
    1.1231655990458274E+00 
    1.1247144058829655E+00 
    1.1243902381398658E+00 
    1.1228476780819960E+00 
    1.1226962458253684E+00 
    1.1242360912697171E+00 
    1.1869358015511036E+00 
    1.1684080216697463E+00 
    1.1680086275629560E+00 
    1.1861261643297831E+00 
    1.1846329278675194E+00 
    1.1672342956309305E+00 
    1.1661279279361474E+00 
    1.1826164119927618E+00 
    1.1802263351738009E+00 
    1.1647408180755185E+00 
    1.1631258002307883E+00 
    1.1775874588396897E+00 
    1.1747975468068899E+00 
    1.1613329114966182E+00 
    1.1594070756562089E+00 
    1.1719302910999894E+00 
    1.1690397335261107E+00 
    1.1573871872416235E+00 
    1.1553060664567993E+00 
    1.1661646565957517E+00 
    1.1633323659840227E+00 
    1.1531908980461312E+00 
    1.1510638966546465E+00 
    1.1605617268848170E+00 
    1.1578655030641647E+00 
    1.1489430400499450E+00 
    1.1468427802318650E+00 
    1.1552521118138188E+00 
    1.1527269171445054E+00 
    1.1447746870755946E+00 
    1.1427480064913760E+00 
    1.1502931704185391E+00 
    1.1479526877953110E+00 
    1.1407701307824525E+00 
    1.1388469871313120E+00 
    1.1457063341930513E+00 
    1.1435543665347780E+00 
    1.1369833538430953E+00 
    1.1351831150360840E+00 
    1.1414966754498528E+00 
    1.1395329541156942E+00 
    1.1334494641008213E+00 
    1.1317850651838282E+00 
    1.1376628150302421E+00 
    1.1358858696459648E+00 
    1.1301921806085233E+00 
    1.1286727707410067E+00 
    1.1342017814633276E+00 
    1.1326102999410927E+00 
    1.1272285714211949E+00 
    1.1258611526782827E+00 
    1.1311112800479721E+00 
    1.1297046900588368E+00 
    1.1245719608663998E+00 
    1.1233623441698821E+00 
    1.1283906077442249E+00 
    1.1271692013717114E+00 
    1.1222335575858635E+00 
    1.1211867351452336E+00 
    1.1260406843744599E+00 
    1.1250052142295104E+00 
    1.1202227965095515E+00 
    1.1193422050632218E+00 
    1.1240626609552298E+00 
    1.1232120746952390E+00 
    1.1185443919795486E+00 
    1.1178264870064412E+00 
    1.1224505181992375E+00 
    1.1217706461441830E+00 
    1.1171806564120179E+00 
    1.1165885001821150E+00 
    1.1211557868355120E+00 
    1.1205782151077723E+00 
    1.1160229961219890E+00 
    1.1155595694358673E+00 
    1.1200959699028517E+00 
    1.1197901632887610E+00 
    1.1152702053886798E+00 
    1.1151310849620810E+00 
    1.1196439508793377E+00 
    1.1524611728987311E+00 
    1.1376922036174442E+00 
    1.1375289362925081E+00 
    1.1522197229834101E+00 
    1.1517443849354772E+00 
    1.1372055513746269E+00 
    1.1367287697183779E+00 
    1.1510502957993243E+00 
    1.1501577556323954E+00 
    1.1361080862895925E+00 
    1.1353551229972001E+00 
    1.1490901841475816E+00 
    1.1478723264148010E+00 
    1.1344829521214574E+00 
    1.1335054663093880E+00 
    1.1465288557523070E+00 
    1.1450833909633098E+00 
    1.1324368389005188E+00 
    1.1312910929215794E+00 
    1.1435578779392619E+00 
    1.1419722603263018E+00 
    1.1300817794189475E+00 
    1.1288217551193369E+00 
    1.1403443623245217E+00 
    1.1386899164106483E+00 
    1.1275230441384740E+00 
    1.1261967669031705E+00 
    1.1370226824154104E+00 
    1.1353546179840730E+00 
    1.1248531201760978E+00 
    1.1235013940009344E+00 
    1.1336960722087392E+00 
    1.1320559835829653E+00 
    1.1221500137910152E+00 
    1.1208065982183524E+00 
    1.1304420704599956E+00 
    1.1288610072317973E+00 
    1.1194780257746011E+00 
    1.1181705047578712E+00 
    1.1273185828968681E+00 
    1.1258198409372735E+00 
    1.1168896429574517E+00 
    1.1156405144743726E+00 
    1.1243692008030159E+00 
    1.1229705620533663E+00 
    1.1144277219575922E+00 
    1.1132554530770586E+00 
    1.1216273925036750E+00 
    1.1203428016705970E+00 
    1.1121275302934992E+00 
    1.1110474528572274E+00 
    1.1191196004068400E+00 
    1.1179603467352517E+00 
    1.1100184292742339E+00 
    1.1090433966801727E+00 
    1.1168673761039403E+00 
    1.1158428104081664E+00 
    1.1081250191976615E+00 
    1.1072656463274153E+00 
    1.1148885308250036E+00 
    1.1140060758998860E+00 
    1.1064671844892588E+00 
    1.1057307713071378E+00 
    1.1131963703778041E+00 
    1.1124590800326384E+00 
    1.1050560219077734E+00 
    1.1044393949100504E+00 
    1.1117911979250437E+00 
    1.1111840265175426E+00 
    1.1038705971172489E+00 
    1.1033242972899691E+00 
    1.1106165332733435E+00 
    1.1100671261092465E+00 
    1.1027939370232653E+00 
    1.1023867800459057E+00 
    1.1096287997856360E+00 
    1.1093588059176889E+00 
    1.1021381329240560E+00 
    1.1020162560088520E+00 
    1.1092279216728127E+00 
    1.1234407340785746E+00 
    1.1093484454064868E+00 
    1.1092581287050693E+00 
    1.1233222608568716E+00 
    1.1230869167855173E+00 
    1.1090784400843312E+00 
    1.1088114994761642E+00 
    1.1227382415615657E+00 
    1.1222813531412286E+00 
    1.1084603971340261E+00 
    1.1080290954609469E+00 
    1.1217227123301097E+00 
    1.1210698498071177E+00 
    1.1075223071728928E+00 
    1.1069453610540689E+00 
    1.1203310840767262E+00 
    1.1195152516679485E+00 
    1.1063040645220381E+00 
    1.1056045703434465E+00 
    1.1186314640055317E+00 
    1.1176888992074485E+00 
    1.1048532529474320E+00 
    1.1040565979605546E+00 
    1.1166966320536811E+00 
    1.1156635016889878E+00 
    1.1032211069687103E+00 
    1.1023532181828923E+00 
    1.1145980141913565E+00 
    1.1135082757512014E+00 
    1.1014592426747574E+00 
    1.1005453151400726E+00 
    1.1124019516134904E+00 
    1.1112862458954393E+00 
    1.0996173577029225E+00 
    1.0986810550391681E+00 
    1.1101678977027085E+00 
    1.1090531894687865E+00 
    1.0977418390199922E+00 
    1.0968048811046920E+00 
    1.1079479640199859E+00 
    1.1068576474419856E+00 
    1.0958750908006643E+00 
    1.0949571186160936E+00 
    1.1057872753382123E+00 
    1.1047415204846802E+00 
    1.0940553620153477E+00 
    1.0931739728960517E+00 
    1.1037247201590252E+00 
    1.1027409014911203E+00 
    1.0923168649570532E+00 
    1.0914877188546401E+00 
    1.1017938029240371E+00 
    1.1008868890024115E+00 
    1.0906899818795501E+00 
    1.0899268560931989E+00 
    1.1000233535106692E+00 
    1.0992061005593177E+00 
    1.0892012619446394E+00 
    1.0885157470536275E+00 
    1.0984376794396093E+00 
    1.0977201152186378E+00 
    1.0878722692057174E+00 
    1.0872716998396750E+00 
    1.0970545041815403E+00 
    1.0964401081459443E+00 
    1.0867127380847164E+00 
    1.0861895280414002E+00 
    1.0958723974183788E+00 
    1.0953385240607749E+00 
    1.0856857265028186E+00 
    1.0851649971133779E+00 
    1.0948069697150398E+00 
    1.0942980719427349E+00 
    1.0846818285914916E+00 
    1.0843429682689412E+00 
    1.0939256607392471E+00 
    1.0936984866253900E+00 
    1.0841339124445177E+00 
    1.0840296155401401E+00 
    1.0935858941842875E+00 
    1.0952026883504151E+00 
    1.0808696292529154E+00 
    1.0808112837141419E+00 
    1.0951312028905031E+00 
    1.0949888564674188E+00 
    1.0806950437727376E+00 
    1.0805219124630583E+00 
    1.0947770514621569E+00 
    1.0944978306358828E+00 
    1.0802933418994858E+00 
    1.0800112088898763E+00 
    1.0941538308811471E+00 
    1.0937482230521771E+00 
    1.0796777822892980E+00 
    1.0792956845095167E+00 
    1.0932846428716061E+00 
    1.0927671170849926E+00 
    1.0788678492490216E+00 
    1.0783974772098983E+00 
    1.0921999884027540E+00 
    1.0915878421695029E+00 
    1.0778879913462558E+00 
    1.0773429929610114E+00 
    1.0909354370697497E+00 
    1.0902476415458027E+00 
    1.0767662197229408E+00 
    1.0761615064239909E+00 
    1.0895293770098753E+00 
    1.0887855684095782E+00 
    1.0755327490514750E+00 
    1.0748838725222594E+00 
    1.0880211022715705E+00 
    1.0872407920067555E+00 
    1.0742188022235117E+00 
    1.0735414393296994E+00 
    1.0864493500067176E+00 
    1.0856513658829221E+00 
    1.0728556397164291E+00 
    1.0721651961621790E+00 
    1.0848512900807719E+00 
    1.0840534220194220E+00 
    1.0714738234071344E+00 
    1.0707851455044939E+00 
    1.0832619018400498E+00 
    1.0824807047561111E+00 
    1.0701026847193733E+00 
    1.0694298509393378E+00 
    1.0817136368353120E+00 
    1.0809643307060113E+00 
    1.0687699300263951E+00 
    1.0681260684649272E+00 
    1.0802362389611435E+00 
    1.0795326214331209E+00 
    1.0675012493242042E+00 
    1.0668982491700538E+00 
    1.0788565187624102E+00 
    1.0782106955185882E+00 
    1.0663195528587712E+00 
    1.0657671742267505E+00 
    1.0775975140203569E+00 
    1.0770186511969748E+00 
    1.0652422704595867E+00 
    1.0647443188696295E+00 
    1.0764744752105997E+00 
    1.0759627011725472E+00 
    1.0642693346267542E+00 
    1.0638055223640812E+00 
    1.0754753235768559E+00 
    1.0749902164731095E+00 
    1.0633203735492007E+00 
    1.0628126585721402E+00 
    1.0744778107556709E+00 
    1.0740284413508590E+00 
    1.0624041296742270E+00 
    1.0621295005335099E+00 
    1.0737217170140574E+00 
    1.0735274531807928E+00 
    1.0619500566208075E+00 
    1.0618602705142919E+00 
    1.0734303681549204E+00 
    1.0662617920084869E+00 
    1.0513207663103863E+00 
    1.0512787414598961E+00 
    1.0662128792155361E+00 
    1.0661154024052013E+00 
    1.0511949754410861E+00 
    1.0510700773742194E+00 
    1.0659701244957436E+00 
    1.0657781400352282E+00 
    1.0509049124416328E+00 
    1.0507005924314330E+00 
    1.0655408608368588E+00 
    1.0652599966596714E+00 
    1.0504584633469001E+00 
    1.0501800905006200E+00 
    1.0649375320864325E+00 
    1.0645757007200407E+00 
    1.0498672417508492E+00 
    1.0495218694142541E+00 
    1.0641769576367013E+00 
    1.0637439509282287E+00 
    1.0491460913233490E+00 
    1.0487421714501366E+00 
    1.0632794930726506E+00 
    1.0627865327725086E+00 
    1.0483125004716647E+00 
    1.0478595766028505E+00 
    1.0622681277917077E+00 
    1.0617274192078181E+00 
    1.0473859869660327E+00 
    1.0468943897059209E+00 
    1.0611676073816867E+00 
    1.0605919298335438E+00 
    1.0463874969933387E+00 
    1.0458680589908236E+00 
    1.0600036411060916E+00 
    1.0594059945893062E+00 
    1.0453388487749979E+00 
    1.0448026481184653E+00 
    1.0588022261743419E+00 
    1.0581955394848193E+00 
    1.0442622339147931E+00 
    1.0437203648579056E+00 
    1.0575890922830971E+00 
    1.0569859834278970E+00 
    1.0431797677082946E+00 
    1.0426431219790180E+00 
    1.0563892393875844E+00 
    1.0558017986137016E+00 
    1.0421130408980686E+00 
    1.0415920444554687E+00 
    1.0552264906380087E+00 
    1.0546660035787356E+00 
    1.0410825158546864E+00 
    1.0405866227112801E+00 
    1.0541228264637517E+00 
    1.0535991361834884E+00 
    1.0401061626564228E+00 
    1.0396422481053409E+00 
    1.0530965630139859E+00 
    1.0526156962135360E+00 
    1.0391946526381899E+00 
    1.0387604128901935E+00 
    1.0521550368203423E+00 
    1.0517086447132618E+00 
    1.0383304615239088E+00 
    1.0378793117853193E+00 
    1.0512597873074074E+00 
    1.0507655181518452E+00 
    1.0373726366194560E+00 
    1.0369027930383832E+00 
    1.0502676833480253E+00 
    1.0498955424262086E+00 
    1.0365638520883398E+00 
    1.0363249047485674E+00 
    1.0496436079709464E+00 
    1.0494761348745500E+00 
    1.0361657137671951E+00 
    1.0360861224448390E+00 
    1.0493923118087007E+00 
    1.0360073258867570E+00 
    1.0202954734943346E+00 
    1.0202622025573607E+00 
    1.0359703617966451E+00 
    1.0358966731787651E+00 
    1.0201958686826986E+00 
    1.0200969043245094E+00 
    1.0357867654143484E+00 
    1.0356413495339096E+00 
    1.0199659131095595E+00 
    1.0198036642588248E+00 
    1.0354613352890292E+00 
    1.0352478225917734E+00 
    1.0196110862563299E+00 
    1.0193892593394585E+00 
    1.0350020912530526E+00 
    1.0347255894266529E+00 
    1.0191394070700146E+00 
    1.0188628871969045E+00 
    1.0344199210841647E+00 
    1.0340868327972055E+00 
    1.0185611819813527E+00 
    1.0182358881319764E+00 
    1.0337282000733310E+00 
    1.0333460134665304E+00 
    1.0178887064791586E+00 
    1.0175214315000367E+00 
    1.0329423646560416E+00 
    1.0325194326559435E+00 
    1.0171359407840102E+00 
    1.0167341845018179E+00 
    1.0320794702812981E+00 
    1.0316247909531293E+00 
    1.0163181749063483E+00 
    1.0158899758461357E+00 
    1.0311577558714153E+00 
    1.0306807615172300E+00 
    1.0154516922048038E+00 
    1.0150054590770936E+00 
    1.0301962273520346E+00 
    1.0297065834439549E+00 
    1.0145534303267705E+00 
    1.0140977658863373E+00 
    1.0292142575273318E+00 
    1.0287216606090543E+00 
    1.0136406166336431E+00 
    1.0131841046690280E+00 
    1.0282311694964994E+00 
    1.0277451031458427E+00 
    1.0127302947824859E+00 
    1.0122811487062366E+00 
    1.0272656866469498E+00 
    1.0267949900891795E+00 
    1.0118384450365294E+00 
    1.0114036297261977E+00 
    1.0263348155592933E+00 
    1.0258864764146784E+00 
    1.0109775252069686E+00 
    1.0105597469277732E+00 
    1.0254503532800487E+00 
    1.0250249774781008E+00 
    1.0101474700391806E+00 
    1.0097324649291999E+00 
    1.0246049974334426E+00 
    1.0241757832162597E+00 
    1.0092920440334203E+00 
    1.0087769088446912E+00 
    1.0236957362940224E+00 
    1.0231706651896992E+00 
    1.0082510506810034E+00 
    1.0078520380478968E+00 
    1.0227401789036688E+00 
    1.0224349608092063E+00 
    1.0075628680664304E+00 
    1.0073461448545427E+00 
    1.0222097086532183E+00 
    1.0220592960725745E+00 
    1.0072015147205311E+00 
    1.0071291551217942E+00 
    1.0219840198576733E+00 
    1.0041687131885892E+00 
    9.8761766377907956E-01 
    9.8758877299906123E-01 
    1.0041380680623919E+00 
    1.0040769622045276E+00 
    9.8753115754695120E-01 
    9.8744515782451481E-01 
    1.0039857751777799E+00 
    1.0038650338728781E+00 
    9.8733124519612725E-01 
    9.8719001754662095E-01 
    1.0037154076656536E+00 
    1.0035377034372499E+00 
    9.8702219514150402E-01 
    9.8682861586462434E-01 
    1.0033328597544224E+00 
    1.0031019403767290E+00 
    9.8661022993990388E-01 
    9.8636809424316885E-01 
    1.0028461272357243E+00 
    1.0025667129961697E+00 
    9.8610336627706618E-01 
    9.8581729786021299E-01 
    1.0022650932878032E+00 
    1.0019427586804945E+00 
    9.8551122856545026E-01 
    9.8518657892603367E-01 
    1.0016012864600432E+00 
    1.0012423322427408E+00 
    9.8484484340821488E-01 
    9.8448758311806828E-01 
    1.0008676214407239E+00 
    1.0004789405530921E+00 
    9.8411641816402518E-01 
    9.8373301952689751E-01 
    1.0000781282034603E+00 
    9.9966706575907627E-01 
    9.8333910017509718E-01 
    9.8293640496716150E-01 
    9.9924766722596492E-01 
    9.9882186787445082E-01 
    9.8252669854388675E-01 
    9.8211174979580129E-01 
    9.9839161061791282E-01 
    9.9795882835871552E-01 
    9.8169331034018203E-01 
    9.8127308224721443E-01 
    9.9752541895569691E-01 
    9.9709320638315335E-01 
    9.8085266600382881E-01 
    9.8043347137530756E-01 
    9.9666387547733337E-01 
    9.9623885522216404E-01 
    9.8001655718499858E-01 
    9.7960233167460364E-01 
    9.9581910031769871E-01 
    9.9540466786587867E-01 
    9.7918996679852954E-01 
    9.7877616358474762E-01 
    9.9499385980930477E-01 
    9.9458131896944757E-01 
    9.7835214100022272E-01 
    9.7789427906230331E-01 
    9.9415294736373894E-01 
    9.9366835975038659E-01 
    9.7734593224353028E-01 
    9.7675942715962327E-01 
    9.9311165889099295E-01 
    9.9261786923924833E-01 
    9.7629802758415885E-01 
    9.7595488188770063E-01 
    9.9225344948360572E-01 
    9.9197248172399088E-01 
    9.7568092434003006E-01 
    9.7547506625933977E-01 
    9.9176165038687236E-01 
    9.9162102801574203E-01 
    9.7533765376818871E-01 
    9.7526889750782719E-01 
    9.9155069439888777E-01 
    9.7063852499162284E-01 
    9.5323211260108764E-01 
    9.5320455436856633E-01 
    9.7061064022163912E-01 
    9.7055502222616630E-01 
    9.5314957757474761E-01 
    9.5306747156290783E-01 
    9.7047198214309360E-01 
    9.7036195127644498E-01 
    9.5295863945589276E-01 
    9.5282359402794425E-01 
    9.7022547686550309E-01 
    9.7006321846723986E-01 
    9.5266295439687065E-01 
    9.5247744229064790E-01 
    9.6987594384792553E-01 
    9.6966452445126994E-01 
    9.5226787793156720E-01 
    9.5203517560637618E-01 
    9.6942993052555104E-01 
    9.6917322595836464E-01 
    9.5178033895303760E-01 
    9.5150445596326583E-01 
    9.6889556284280254E-01 
    9.6859817577922869E-01 
    9.5120869367312189E-01 
    9.5089429248951707E-01 
    9.6828237589783328E-01 
    9.6794954456253468E-01 
    9.5056256007032380E-01 
    9.5021486461821636E-01 
    9.6760112667526199E-01 
    9.6723862343161937E-01 
    9.4985262734623710E-01 
    9.4947731372347133E-01 
    9.6686358427681340E-01 
    9.6647759764182561E-01 
    9.4909042286812295E-01 
    9.4869347402230986E-01 
    9.6608227974155603E-01 
    9.6567926019567307E-01 
    9.4828798829044492E-01 
    9.4787546246594778E-01 
    9.6527016228825424E-01 
    9.6485657393965518E-01 
    9.4745732929031001E-01 
    9.4703489383598694E-01 
    9.6444000218800341E-01 
    9.6402179774844332E-01 
    9.4660922683036386E-01 
    9.4618097792656874E-01 
    9.6360302408452481E-01 
    9.6318422076599652E-01 
    9.4575003354979281E-01 
    9.4531485048820829E-01 
    9.6276495685735552E-01 
    9.6234293181054342E-01 
    9.4487102191386585E-01 
    9.4440763093539914E-01 
    9.6191194320019957E-01 
    9.6145628239303049E-01 
    9.4389528342335405E-01 
    9.4327297862148152E-01 
    9.6093086235182701E-01 
    9.6031361313279129E-01 
    9.4260707915012576E-01 
    9.4207547294179661E-01 
    9.5974853400321536E-01 
    9.5932074805278955E-01 
    9.4166744044247541E-01 
    9.4132834799562382E-01 