# vtk DataFile Version 2.0
Pressure Field Data 
ASCII 
DATASET UNSTRUCTURED_GRID 

POINTS 1681 double 

    0.0000000000000000E+00     0.0000000000000000E+00     0.0000000000000000E+00 
    1.0000000000000000E+00     0.0000000000000000E+00     0.0000000000000000E+00 
    1.0000000000000000E+00     1.0000000000000000E+00     0.0000000000000000E+00 
    0.0000000000000000E+00     1.0000000000000000E+00     0.0000000000000000E+00 
    5.2499999999875258E-01     0.0000000000000000E+00     0.0000000000000000E+00 
    7.4999999999856765E-02     0.0000000000000000E+00     0.0000000000000000E+00 
    1.2499999999975850E-01     0.0000000000000000E+00     0.0000000000000000E+00 
    1.7499999999962990E-01     0.0000000000000000E+00     0.0000000000000000E+00 
    2.2499999999948389E-01     0.0000000000000000E+00     0.0000000000000000E+00 
    2.7499999999933789E-01     0.0000000000000000E+00     0.0000000000000000E+00 
    3.2499999999919210E-01     0.0000000000000000E+00     0.0000000000000000E+00 
    3.7499999999904610E-01     0.0000000000000000E+00     0.0000000000000000E+00 
    4.2499999999890020E-01     0.0000000000000000E+00     0.0000000000000000E+00 
    4.7499999999875958E-01     0.0000000000000000E+00     0.0000000000000000E+00 
    2.4999999999949701E-02     0.0000000000000000E+00     0.0000000000000000E+00 
    5.7499999999887907E-01     0.0000000000000000E+00     0.0000000000000000E+00 
    6.2499999999901101E-01     0.0000000000000000E+00     0.0000000000000000E+00 
    6.7499999999914273E-01     0.0000000000000000E+00     0.0000000000000000E+00 
    7.2499999999927467E-01     0.0000000000000000E+00     0.0000000000000000E+00 
    7.7499999999940661E-01     0.0000000000000000E+00     0.0000000000000000E+00 
    8.2499999999953844E-01     0.0000000000000000E+00     0.0000000000000000E+00 
    8.7499999999967026E-01     0.0000000000000000E+00     0.0000000000000000E+00 
    9.2499999999980220E-01     0.0000000000000000E+00     0.0000000000000000E+00 
    9.7499999999993414E-01     0.0000000000000000E+00     0.0000000000000000E+00 
    5.4999999999881310E-01     0.0000000000000000E+00     0.0000000000000000E+00 
    9.9999999999814140E-02     0.0000000000000000E+00     0.0000000000000000E+00 
    1.4999999999970290E-01     0.0000000000000000E+00     0.0000000000000000E+00 
    1.9999999999955689E-01     0.0000000000000000E+00     0.0000000000000000E+00 
    2.4999999999941089E-01     0.0000000000000000E+00     0.0000000000000000E+00 
    2.9999999999926502E-01     0.0000000000000000E+00     0.0000000000000000E+00 
    3.4999999999911913E-01     0.0000000000000000E+00     0.0000000000000000E+00 
    3.9999999999897312E-01     0.0000000000000000E+00     0.0000000000000000E+00 
    4.4999999999882723E-01     0.0000000000000000E+00     0.0000000000000000E+00 
    4.9999999999869210E-01     0.0000000000000000E+00     0.0000000000000000E+00 
    4.9999999999899403E-02     0.0000000000000000E+00     0.0000000000000000E+00 
    5.9999999999894504E-01     0.0000000000000000E+00     0.0000000000000000E+00 
    6.4999999999907687E-01     0.0000000000000000E+00     0.0000000000000000E+00 
    6.9999999999920870E-01     0.0000000000000000E+00     0.0000000000000000E+00 
    7.4999999999934064E-01     0.0000000000000000E+00     0.0000000000000000E+00 
    7.9999999999947247E-01     0.0000000000000000E+00     0.0000000000000000E+00 
    8.4999999999960441E-01     0.0000000000000000E+00     0.0000000000000000E+00 
    8.9999999999973623E-01     0.0000000000000000E+00     0.0000000000000000E+00 
    9.4999999999986817E-01     0.0000000000000000E+00     0.0000000000000000E+00 
    1.0000000000000000E+00     5.2499999999875258E-01     0.0000000000000000E+00 
    1.0000000000000000E+00     7.4999999999856765E-02     0.0000000000000000E+00 
    1.0000000000000000E+00     1.2499999999975850E-01     0.0000000000000000E+00 
    1.0000000000000000E+00     1.7499999999962990E-01     0.0000000000000000E+00 
    1.0000000000000000E+00     2.2499999999948389E-01     0.0000000000000000E+00 
    1.0000000000000000E+00     2.7499999999933789E-01     0.0000000000000000E+00 
    1.0000000000000000E+00     3.2499999999919210E-01     0.0000000000000000E+00 
    1.0000000000000000E+00     3.7499999999904610E-01     0.0000000000000000E+00 
    1.0000000000000000E+00     4.2499999999890020E-01     0.0000000000000000E+00 
    1.0000000000000000E+00     4.7499999999875958E-01     0.0000000000000000E+00 
    1.0000000000000000E+00     2.4999999999949701E-02     0.0000000000000000E+00 
    1.0000000000000000E+00     5.7499999999887907E-01     0.0000000000000000E+00 
    1.0000000000000000E+00     6.2499999999901101E-01     0.0000000000000000E+00 
    1.0000000000000000E+00     6.7499999999914273E-01     0.0000000000000000E+00 
    1.0000000000000000E+00     7.2499999999927467E-01     0.0000000000000000E+00 
    1.0000000000000000E+00     7.7499999999940661E-01     0.0000000000000000E+00 
    1.0000000000000000E+00     8.2499999999953844E-01     0.0000000000000000E+00 
    1.0000000000000000E+00     8.7499999999967026E-01     0.0000000000000000E+00 
    1.0000000000000000E+00     9.2499999999980220E-01     0.0000000000000000E+00 
    1.0000000000000000E+00     9.7499999999993414E-01     0.0000000000000000E+00 
    1.0000000000000000E+00     5.4999999999881310E-01     0.0000000000000000E+00 
    1.0000000000000000E+00     9.9999999999814140E-02     0.0000000000000000E+00 
    1.0000000000000000E+00     1.4999999999970290E-01     0.0000000000000000E+00 
    1.0000000000000000E+00     1.9999999999955689E-01     0.0000000000000000E+00 
    1.0000000000000000E+00     2.4999999999941089E-01     0.0000000000000000E+00 
    1.0000000000000000E+00     2.9999999999926502E-01     0.0000000000000000E+00 
    1.0000000000000000E+00     3.4999999999911913E-01     0.0000000000000000E+00 
    1.0000000000000000E+00     3.9999999999897312E-01     0.0000000000000000E+00 
    1.0000000000000000E+00     4.4999999999882723E-01     0.0000000000000000E+00 
    1.0000000000000000E+00     4.9999999999869210E-01     0.0000000000000000E+00 
    1.0000000000000000E+00     4.9999999999899403E-02     0.0000000000000000E+00 
    1.0000000000000000E+00     5.9999999999894504E-01     0.0000000000000000E+00 
    1.0000000000000000E+00     6.4999999999907687E-01     0.0000000000000000E+00 
    1.0000000000000000E+00     6.9999999999920870E-01     0.0000000000000000E+00 
    1.0000000000000000E+00     7.4999999999934064E-01     0.0000000000000000E+00 
    1.0000000000000000E+00     7.9999999999947247E-01     0.0000000000000000E+00 
    1.0000000000000000E+00     8.4999999999960441E-01     0.0000000000000000E+00 
    1.0000000000000000E+00     8.9999999999973623E-01     0.0000000000000000E+00 
    1.0000000000000000E+00     9.4999999999986817E-01     0.0000000000000000E+00 
    4.7500000000196618E-01     1.0000000000000000E+00     0.0000000000000000E+00 
    9.2499999999968763E-01     1.0000000000000000E+00     0.0000000000000000E+00 
    8.7499999999961831E-01     1.0000000000000000E+00     0.0000000000000000E+00 
    8.2499999999982654E-01     1.0000000000000000E+00     0.0000000000000000E+00 
    7.7500000000017355E-01     1.0000000000000000E+00     0.0000000000000000E+00 
    7.2500000000052045E-01     1.0000000000000000E+00     0.0000000000000000E+00 
    6.7500000000086724E-01     1.0000000000000000E+00     0.0000000000000000E+00 
    6.2500000000121403E-01     1.0000000000000000E+00     0.0000000000000000E+00 
    5.7500000000156093E-01     1.0000000000000000E+00     0.0000000000000000E+00 
    5.2500000000189684E-01     1.0000000000000000E+00     0.0000000000000000E+00 
    9.7499999999989595E-01     1.0000000000000000E+00     0.0000000000000000E+00 
    4.2500000000176902E-01     1.0000000000000000E+00     0.0000000000000000E+00 
    3.7500000000156092E-01     1.0000000000000000E+00     0.0000000000000000E+00 
    3.2500000000135282E-01     1.0000000000000000E+00     0.0000000000000000E+00 
    2.7500000000114472E-01     1.0000000000000000E+00     0.0000000000000000E+00 
    2.2500000000093659E-01     1.0000000000000000E+00     0.0000000000000000E+00 
    1.7500000000072849E-01     1.0000000000000000E+00     0.0000000000000000E+00 
    1.2500000000052039E-01     1.0000000000000000E+00     0.0000000000000000E+00 
    7.5000000000312261E-02     1.0000000000000000E+00     0.0000000000000000E+00 
    2.5000000000104109E-02     1.0000000000000000E+00     0.0000000000000000E+00 
    4.5000000000187301E-01     1.0000000000000000E+00     0.0000000000000000E+00 
    8.9999999999958358E-01     1.0000000000000000E+00     0.0000000000000000E+00 
    8.4999999999965303E-01     1.0000000000000000E+00     0.0000000000000000E+00 
    8.0000000000000004E-01     1.0000000000000000E+00     0.0000000000000000E+00 
    7.5000000000034706E-01     1.0000000000000000E+00     0.0000000000000000E+00 
    7.0000000000069384E-01     1.0000000000000000E+00     0.0000000000000000E+00 
    6.5000000000104063E-01     1.0000000000000000E+00     0.0000000000000000E+00 
    6.0000000000138742E-01     1.0000000000000000E+00     0.0000000000000000E+00 
    5.5000000000173432E-01     1.0000000000000000E+00     0.0000000000000000E+00 
    5.0000000000205946E-01     1.0000000000000000E+00     0.0000000000000000E+00 
    9.4999999999979179E-01     1.0000000000000000E+00     0.0000000000000000E+00 
    4.0000000000166491E-01     1.0000000000000000E+00     0.0000000000000000E+00 
    3.5000000000145681E-01     1.0000000000000000E+00     0.0000000000000000E+00 
    3.0000000000124871E-01     1.0000000000000000E+00     0.0000000000000000E+00 
    2.5000000000104061E-01     1.0000000000000000E+00     0.0000000000000000E+00 
    2.0000000000083251E-01     1.0000000000000000E+00     0.0000000000000000E+00 
    1.5000000000062441E-01     1.0000000000000000E+00     0.0000000000000000E+00 
    1.0000000000041630E-01     1.0000000000000000E+00     0.0000000000000000E+00 
[...]
CELL_DATA 1600 
SCALARS Pressure double 1 
LOOKUP_TABLE default 

    1.1875320756608057E+00 
    1.1407670931241978E+00 
    1.1383156924867468E+00 
    1.1717615272566180E+00 
    1.1590934514789772E+00 
    1.1345961626702850E+00 
    1.1302941664950346E+00 
    1.1486871056327252E+00 
    1.1399498809420674E+00 
    1.1257955564307736E+00 
    1.1213136650514512E+00 
    1.1324705470166467E+00 
    1.1259593540145101E+00 
    1.1169618077765366E+00 
    1.1127957324210738E+00 
    1.1202087295690253E+00 
    1.1150674694659428E+00 
    1.1088385024797420E+00 
    1.1050950617916868E+00 
    1.1104236198852699E+00 
    1.1061929832858257E+00 
    1.1015607229843518E+00 
    1.0982260738693339E+00 
    1.1023112968510675E+00 
    1.0987288360626657E+00 
    1.0950797728466379E+00 
    1.0921101030744096E+00 
    1.0954066390040846E+00 
    1.0923138274614206E+00 
    1.0893058005052147E+00 
    1.0866564610455032E+00 
    1.0894256798413657E+00 
    1.0867222261560063E+00 
    1.0841527075928838E+00 
    1.0817862236776343E+00 
    1.0841872102608736E+00 
    1.0818073137765527E+00 
    1.0795497163578773E+00 
    1.0774368447674978E+00 
    1.0795715688349603E+00 
    1.0774709087601768E+00 
    1.0754421351025327E+00 
    1.0735608935764400E+00 
    1.0754978207120458E+00 
    1.0736460745625447E+00 
    1.0717891234217807E+00 
    1.0701234488323799E+00 
    1.0719105093787329E+00 
    1.0702868638561749E+00 
    1.0685610469014319E+00 
    1.0670995875509450E+00 
    1.0687716405382031E+00 
    1.0673619960859662E+00 
    1.0657371808030200E+00 
    1.0644723302435142E+00 
    1.0660556514659290E+00 
    1.0648508167384263E+00 
    1.0633038908840822E+00 
    1.0622310283292435E+00 
    1.0637461248865787E+00 
    1.0627405667569272E+00 
    1.0612531729366814E+00 
    1.0603699540723250E+00 
    1.0618334114944359E+00 
    1.0610240758086678E+00 
    1.0595810772432388E+00 
    1.0588860560357598E+00 
    1.0603118563185741E+00 
    1.0596953468485220E+00 
    1.0582836165470784E+00 
    1.0577704421701866E+00 
    1.0591712171431764E+00 
    1.0587317985021518E+00 
    1.0573386704766776E+00 
    1.0569729608699934E+00 
    1.0583622227977496E+00 
    1.0580753931849793E+00 
    1.0566890581406700E+00 
    1.0565471075572099E+00 
    1.0579314371672963E+00 
    1.1164910498328202E+00 
    1.0987280163513631E+00 
    1.0983444503340063E+00 
    1.1157022017837657E+00 
    1.1142498910843646E+00 
    1.0976016746246451E+00 
    1.0965419278277484E+00 
    1.1122926047446391E+00 
    1.1099781526795929E+00 
    1.0952156079524991E+00 
    1.0936745054086110E+00 
    1.1074294367555206E+00 
    1.1047424539221284E+00 
    1.0919675270948404E+00 
    1.0901384253968045E+00 
    1.1019892371498756E+00 
    1.0992222811996759E+00 
    1.0882249152547314E+00 
    1.0862586529624749E+00 
    1.0964789330207951E+00 
    1.0937851710951885E+00 
    1.0842656919144598E+00 
    1.0822671593864137E+00 
    1.0911586369236299E+00 
    1.0886109679707694E+00 
    1.0802799969084822E+00 
    1.0783176752238333E+00 
    1.0861495457055721E+00 
    1.0837787814692197E+00 
    1.0763908392844368E+00 
    1.0745078659387377E+00 
    1.0815010497034458E+00 
    1.0793173581741358E+00 
    1.0726753325451226E+00 
    1.0708984028875959E+00 
    1.0772278250839482E+00 
    1.0752320159724424E+00 
    1.0691811403783651E+00 
    1.0675267595203177E+00 
    1.0733291796625155E+00 
    1.0715184120010957E+00 
    1.0659378261817578E+00 
    1.0644164161418102E+00 
    1.0697987682456516E+00 
    1.0681693391125007E+00 
    1.0629642400238661E+00 
    1.0615827413762007E+00 
    1.0666293012328401E+00 
    1.0651779496497038E+00 
    1.0602731733920192E+00 
    1.0590366586164677E+00 
    1.0638147177061381E+00 
    1.0625391879524761E+00 
    1.0578742349383863E+00 
    1.0567868901167112E+00 
    1.0613510962882879E+00 
    1.0602503301420583E+00 
    1.0557755858261486E+00 
    1.0548412701796184E+00 
    1.0592369195125382E+00 
    1.0583110157617335E+00 
    1.0539848734174766E+00 
    1.0532072709771094E+00 
    1.0574728434540484E+00 
    1.0567225865996763E+00 
    1.0525091725510167E+00 
    1.0518908411099714E+00 
    1.0560601178308904E+00 
    1.0554843836274961E+00 
    1.0513514498503480E+00 
    1.0508877219409396E+00 
    1.0549921039387755E+00 
    1.0545751473283576E+00 
    1.0504911333512312E+00 
    1.0501449724083634E+00 
    1.0542175589924505E+00 
    1.0539402199410799E+00 
    1.0498772145852953E+00 
    1.0497458256852006E+00 
    1.0538025920006846E+00 
    1.0836568290272606E+00 
    1.0698645735725947E+00 
    1.0697126048823824E+00 
    1.0834284807816290E+00 
    1.0829792906771214E+00 
    1.0694117600921795E+00 
    1.0689685153488953E+00 
    1.0823240421942220E+00 
    1.0814825220710846E+00 
    1.0683920127481372E+00 
    1.0676934251638444E+00 
    1.0804775064477210E+00 
    1.0793329963298137E+00 
    1.0668852936965083E+00 
    1.0659809125640440E+00 
    1.0780728481858757E+00 
    1.0767198157018509E+00 
    1.0649938041787625E+00 
    1.0639373020644984E+00 
    1.0752949523175006E+00 
    1.0738172992209627E+00 
    1.0628242418485925E+00 
    1.0616667500739727E+00 
    1.0723037820574814E+00 
    1.0707692494485115E+00 
    1.0604761154497488E+00 
    1.0592627257123637E+00 
    1.0692266001243198E+00 
    1.0676869590992388E+00 
    1.0580360540713649E+00 
    1.0568046811953267E+00 
    1.0661598750797510E+00 
    1.0646535206389702E+00 
    1.0555763411320962E+00 
    1.0543579820097142E+00 
    1.0631748836913852E+00 
    1.0617299438024728E+00 
    1.0531558345881551E+00 
    1.0519754836197437E+00 
    1.0603238302851288E+00 
    1.0589609612618813E+00 
    1.0508219385025408E+00 
    1.0496997008962061E+00 
    1.0576451642390559E+00 
    1.0563797795054779E+00 
    1.0486128278548896E+00 
    1.0475649896618788E+00 
    1.0551677480250881E+00 
    1.0540116855726827E+00 
    1.0465595219652410E+00 
    1.0455994720351529E+00 
    1.0529139447449927E+00 
    1.0518766661916945E+00 
    1.0446876389826281E+00 
    1.0438266075205820E+00 
    1.0509018199040716E+00 
    1.0499912364757220E+00 
    1.0430187740771317E+00 
    1.0422663621234238E+00 
    1.0491466263355615E+00 
    1.0483695804197992E+00 
    1.0415714186021636E+00 
    1.0409357706885540E+00 
    1.0476615343086009E+00 
    1.0470236504353705E+00 
    1.0403608927303316E+00 
    1.0398475756337173E+00 
    1.0464565167289055E+00 
    1.0459594634687803E+00 
    1.0393951931384606E+00 
    1.0390001536696194E+00 
    1.0455291217012086E+00 
    1.0451563747424595E+00 
    1.0386524887781616E+00 
    1.0383345769029411E+00 
    1.0448237493708286E+00 
    1.0445678979330875E+00 
    1.0380925196894280E+00 
    1.0379772222953800E+00 
    1.0444441363983281E+00 
    1.0566843199171729E+00 
    1.0437533809154584E+00 
    1.0436720857379469E+00 
    1.0565758455670704E+00 
    1.0563604395225290E+00 
    1.0435103807023280E+00 
    1.0432702240668903E+00 
    1.0560414485747001E+00 
    1.0556237192826934E+00 
    1.0429544837917442E+00 
    1.0425668439829490E+00 
    1.0551133691283769E+00 
    1.0545175211759443E+00 
    1.0421116879138179E+00 
    1.0415939692001350E+00 
    1.0538440305602492E+00 
    1.0531012236174000E+00 
    1.0410190801339816E+00 
    1.0403927243002009E+00 
    1.0522976636671817E+00 
    1.0514419513807796E+00 
    1.0397207987366126E+00 
    1.0390092891107592E+00 
    1.0505425627451344E+00 
    1.0496077240308044E+00 
    1.0382641798031309E+00 
    1.0374913794929370E+00 
    1.0486453208071469E+00 
    1.0476628367194341E+00 
    1.0366966618643927E+00 
    1.0358856203738180E+00 
    1.0466673171965439E+00 
    1.0456653532557272E+00 
    1.0350636356001857E+00 
    1.0342358534928708E+00 
    1.0446630809108790E+00 
    1.0436661922172346E+00 
    1.0334071727777203E+00 
    1.0325822398383135E+00 
    1.0426799545867338E+00 
    1.0417092356099191E+00 
    1.0317654495126842E+00 
    1.0309609504036783E+00 
    1.0407585311756939E+00 
    1.0398319951630448E+00 
    1.0301726534668241E+00 
    1.0294042427898493E+00 
    1.0389334693737555E+00 
    1.0380665126706861E+00 
    1.0286591875886746E+00 
    1.0279407544813177E+00 
    1.0372344284636124E+00 
    1.0364402896996365E+00 
    1.0272520189989154E+00 
    1.0265958749071573E+00 
    1.0356869602559995E+00 
    1.0349771108081163E+00 
    1.0259750388799109E+00 
    1.0253920454308094E+00 
    1.0343132250623226E+00 
    1.0336975865711568E+00 
    1.0248492203117530E+00 
    1.0243486045164436E+00 
    1.0331322221863086E+00 
    1.0326187467557721E+00 
    1.0238917672382863E+00 
    1.0234793854820299E+00 
    1.0321579949538870E+00 
    1.0317492245037019E+00 
    1.0231103551587697E+00 
    1.0227798534396062E+00 
    1.0313884205537149E+00 
    1.0310643325442741E+00 
    1.0224744433057660E+00 
    1.0221844739803871E+00 
    1.0307612187756214E+00 
    1.0305346668499031E+00 
    1.0219749800081286E+00 
    1.0218784061426998E+00 
    1.0304283889190864E+00 
    1.0308561347542708E+00 
    1.0178566707192116E+00 
    1.0178060198222738E+00 
    1.0307929213660634E+00 
    1.0306670619650671E+00 
    1.0177051156131227E+00 
    1.0175548386517730E+00 
    1.0304798192976810E+00 
    1.0302330474442924E+00 
    1.0173564775212554E+00 
    1.0171117077287473E+00 
    1.0299291493301335E+00 
    1.0295710200288752E+00 
    1.0168225617413769E+00 
    1.0164913932946134E+00 
    1.0291619814352195E+00 
    1.0287057124132781E+00 
    1.0161208380525788E+00 
    1.0157137723356726E+00 
    1.0282061778519109E+00 
    1.0276675594646671E+00 
    1.0152732714048081E+00 
    1.0148025685692923E+00 
    1.0270941905549533E+00 
    1.0264904963503152E+00 
    1.0143050161489480E+00 
    1.0137840490791590E+00 
    1.0258609409334820E+00 
    1.0252099812932098E+00 
    1.0132431517135108E+00 
    1.0126858281639872E+00 
    1.0245420286021329E+00 
    1.0238614165064868E+00 
    1.0121155763310450E+00 
    1.0115358656190068E+00 
    1.0231723759790483E+00 
    1.0224790161312645E+00 
    1.0109501182064662E+00 
    1.0103616936441406E+00 
    1.0217853102893537E+00 
    1.0210950865968127E+00 
    1.0097738764790436E+00 
    1.0091898665467460E+00 
    1.0204120223963500E+00 
    1.0197396416514335E+00 
    1.0086127715228255E+00 
    1.0080456012652419E+00 
    1.0190813146725541E+00 
    1.0184402593909854E+00 
    1.0074912633861597E+00 
    1.0069525593171498E+00 
    1.0178195433317927E+00 
    1.0172220851965801E+00 
    1.0064321797753513E+00 
    1.0059326977669543E+00 
    1.0166506543908136E+00 
    1.0161078654635680E+00 
    1.0054565555014903E+00 
    1.0050060374079843E+00 
    1.0155961610932676E+00 
    1.0151177691233872E+00 
    1.0045832116548308E+00 
    1.0041898015101383E+00 
    1.0146746006615845E+00 
    1.0142680195258136E+00 
    1.0038269080369642E+00 
    1.0034944331482070E+00 
    1.0138983482383435E+00 
    1.0135638367422568E+00 
    1.0031898666769559E+00 
    1.0029053213000376E+00 
    1.0132583104256996E+00 
    1.0129647199363605E+00 
    1.0026191365542723E+00 
    1.0023491716240973E+00 
    1.0126851890276038E+00 
    1.0124934806025203E+00 
    1.0021738317717961E+00 
    1.0020960993171588E+00 
    1.0124070363841113E+00 
    1.0046660208760085E+00 
    9.9122467773476275E-01 
    9.9118957800402052E-01 
    1.0046243616662807E+00 
    1.0045413427071017E+00 
    9.9111961748856037E-01 
    9.9101530934635695E-01 
    1.0044176186623679E+00 
    1.0042541405785352E+00 
    9.9087739196143865E-01 
    9.9070682219271622E-01 
    1.0040521444853012E+00 
    1.0038131342517214E+00 
    9.9050476480518923E-01 
    9.9027257932959922E-01 
    1.0035388606475626E+00 
    1.0032312977889859E+00 
    9.9001180508804942E-01 
    9.8972414491735161E-01 
    1.0028926178872966E+00 
    1.0025251651041469E+00 
    9.8941144804470671E-01 
    9.8907569252423100E-01 
    1.0021314292254988E+00 
    1.0017140197720329E+00 
    9.8871896760097322E-01 
    9.8834345632435328E-01 
    1.0012756410619885E+00 
    1.0008190686368428E+00 
    9.8795141868454128E-01 
    9.8754517549436949E-01 
    1.0003471273555775E+00 
    9.9986267136384199E-01 
    9.8712709318761183E-01 
    9.8669956965334649E-01 
    9.9936856605323177E-01 
    9.9886767204482130E-01 
    9.8626502117650094E-01 
    9.8582587050655779E-01 
    9.9836283116006863E-01 
    9.9785685427960047E-01 
    9.8538453602840781E-01 
    9.8494342195803486E-01 
    9.9735251093227983E-01 
    9.9685252039617667E-01 
    9.8450490942412072E-01 
    9.8407134821047304E-01 
    9.9635954401629412E-01 
    9.9587617832543751E-01 
    9.8364504879399528E-01 
    9.8322827405402291E-01 
    9.9540494834090565E-01 
    9.9494829998036949E-01 
    9.8282322950165968E-01 
    9.8243204972379317E-01 
    9.9450858960777067E-01 
    9.9408806657755777E-01 
    9.8205677609959829E-01 
    9.8169931482625006E-01 
    9.9368883962338161E-01 
    9.9331280660366272E-01 
    9.8136135130822943E-01 
    9.8104417170966240E-01 
    9.9296150396209137E-01 
    9.9263578992688994E-01 
    9.8074829640305627E-01 
    9.8047272642529204E-01 
    9.9233519254116598E-01 
    9.9205649552827269E-01 
    9.8021321661709115E-01 
    9.7995705799862654E-01 
    9.9178993284154526E-01 
    9.9151041335730872E-01 
    9.7968144684830039E-01 
    9.7943850229113349E-01 
    9.9125212408258423E-01 
    9.9109032338297598E-01 
    9.7928992506477275E-01 
    9.7922163381080995E-01 
    9.9101815916455904E-01 
    9.7749259735388594E-01 
    9.6344317853653894E-01 
    9.6341645404460785E-01 
    9.7746232633758912E-01 
    9.7740198388746236E-01 
    9.6336317795038662E-01 
    9.6328370780111638E-01 
    9.7731199039678340E-01 
    9.7719294455105687E-01 
    9.6317854780518797E-01 
    9.6304834549960683E-01 
    9.7704561887068220E-01 
    9.7687095270992363E-01 
    9.6289388677609355E-01 
    9.6271608962692146E-01 
    9.7667004346465569E-01 
    9.7644413648395567E-01 
    9.6251599695627721E-01 
    9.6229476867764041E-01 
    9.7619461401707908E-01 
    9.7592298346743167E-01 
    9.6205367326860680E-01 
    9.6179407893243685E-01 
    9.7563086519574338E-01 
    9.7531998009283605E-01 
    9.6151744450191357E-01 
    9.6122531020914614E-01 
    9.7499213712077770E-01 
    9.7464922099759199E-01 
    9.6091928843225682E-01 
    9.6060105451539868E-01 
    9.7429318017461553E-01 
    9.7392601522726585E-01 
    9.6027233774173626E-01 
    9.5993491251935392E-01 
    9.7354976774957569E-01 
    9.7316650981012442E-01 
    9.5959058981649137E-01 
    9.5924120885313724E-01 
    9.7277833399092128E-01 
    9.7238734398885185E-01 
    9.5888862901712524E-01 
    9.5853472191729083E-01 
    9.7199564570635533E-01 
    9.7160533868397692E-01 
    9.5818136340016669E-01 
    9.5783042521249551E-01 
    9.7121850761225670E-01 
    9.7083721346252283E-01 
    9.5748376573240102E-01 
    9.5714321869382435E-01 
    9.7046348340516764E-01 
    9.7009929793521477E-01 
    9.5681057781855983E-01 
    9.5648757314240496E-01 
    9.6974657202628289E-01 
    9.6940712362038461E-01 
    9.5617583028744491E-01 
    9.5587679450830332E-01 
    9.6908261513782490E-01 
    9.6877443812998831E-01 
    9.5559158286217538E-01 
    9.5532069306148881E-01 
    9.6848348189320188E-01 
    9.6820967036183869E-01 
    9.5506342299315461E-01 
    9.5481661665253892E-01 
    9.6795099947191166E-01 
    9.6770116228645953E-01 
    9.5457125282043298E-01 
    9.5430057984428351E-01 
    9.6744159379390504E-01 
    9.6716251082074023E-01 
    9.5401558943933840E-01 
    9.5380851041743009E-01 
    9.6693854745834640E-01 
    9.6680612606764016E-01 
    9.5368957319017966E-01 
    9.5363090352512492E-01 
    9.6674281036601784E-01 
    9.4905950453204380E-01 
    9.3433195549253556E-01 
    9.3430954759328955E-01 
    9.4903533732432066E-01 
    9.4898715718695226E-01 
    9.3426487297098282E-01 
    9.3419821594371255E-01 
    9.4891527830475741E-01 
    9.4882014009715010E-01 
    9.3410997184292122E-01 
    9.3400064435900121E-01 
    9.4870230439590564E-01 
    9.4856245166299991E-01 
    9.3387084247193364E-01 
    9.3372127668616911E-01 
    9.4840137627310905E-01 
    9.4821998110420191E-01 
    9.3355275473585031E-01 
    9.3336617687228995E-01 
    9.4801927159056776E-01 
    9.4780034935219759E-01 
    9.3316253081271083E-01 
    9.3294288641375511E-01 
    9.4756440549630971E-01 
    9.4731271367677061E-01 
    9.3270839012499662E-01 
    9.3246025927187837E-01 
    9.4704662298956177E-01 
    9.4676755077482921E-01 
    9.3219977621190808E-01 
    9.3192828240135483E-01 
    9.4647697538729259E-01 
    9.4617642898613752E-01 
    9.3164717240111894E-01 
    9.3135788783884288E-01 
    9.4586749038215745E-01 
    9.4555177796257350E-01 
    9.3106191132783445E-01 
    9.3076076031895338E-01 
    9.4523094269044550E-01 
    9.4490666114179667E-01 
    9.3045598082382230E-01 
    9.3014914088610368E-01 
    9.4458062849158053E-01 
    9.4425455127355429E-01 
    9.2984182357117684E-01 
    9.2953561905127102E-01 
    9.4393013958666050E-01 
    9.4360909813301841E-01 
    9.2923211499444303E-01 
    9.2893288373319416E-01 
    9.4329311490026080E-01 
    9.4298384511583211E-01 
    9.2863946319237223E-01 
    9.2835332547377403E-01 
    9.4268288559748514E-01 
    9.4239172937281834E-01 
    9.2807582073907369E-01 
    9.2780807176727587E-01 
    9.4211167982987998E-01 
    9.4184368328063750E-01 
    9.2755077098048699E-01 
    9.2730378160268045E-01 
    9.4158799902661794E-01 
    9.4134352726633552E-01 
    9.2706529783018521E-01 
    9.2682969854136454E-01 
    9.4110624500888085E-01 
    9.4086436394067152E-01 
    9.2658007473890669E-01 
    9.2628913525659040E-01 
    9.4058537333691716E-01 
    9.4030137935950420E-01 
    9.2601585949268739E-01 
    9.2583097889141386E-01 
    9.4010450787429800E-01 
    9.3998959187784936E-01 
    9.2571746472779570E-01 
    9.2566083121150589E-01 
    9.3993230444901377E-01 
    9.1925670457442454E-01 
    9.0383482275429738E-01 
    9.0381396900489663E-01 
    9.1923537854802906E-01 
    9.1919285861479272E-01 
    9.0377238779075519E-01 
    9.0371033169210568E-01 
    9.1912940922933417E-01 
    9.1904539705941635E-01 
    9.0362815107986305E-01 
    9.0352629125473061E-01 
    9.1894128829492394E-01 
    9.1881764600062976E-01 
    9.0340529003474479E-01 
    9.0326577494186233E-01 
    9.1867512694380249E-01 
    9.1851447799928343E-01 
    9.0310846003425904E-01 
    9.0293414244530967E-01 
    9.1833653221466105E-01 
    9.1814220459209817E-01 
    9.0274369867065563E-01 
    9.0253808063285423E-01 
    9.1793248762981761E-01 
    9.1770844665881024E-01 
    9.0231831154626940E-01 
    9.0208548160004720E-01 
    9.1747121500510009E-01 
    9.1722198900273300E-01 
    9.0184074347218846E-01 
    9.0158530768124179E-01 
    9.1696202287608386E-01 
    9.1669262350081726E-01 
    9.0132043777241988E-01 
    9.0104744532036907E-01 
    9.1641514503926447E-01 
    9.1613098342520294E-01 
    9.0076768470788471E-01 
    9.0048254760207613E-01 
    9.1584157063992078E-01 
    9.1554836866740197E-01 
    9.0019345698602560E-01 
    8.9990186049405840E-01 
    9.1525286292489982E-01 
    9.1495655480402627E-01 
    8.9960922260192289E-01 
    8.9931701486099924E-01 
    9.1466095266405123E-01 
    9.1436756006683406E-01 
    8.9902670268200580E-01 
    8.9873972585764872E-01 
    9.1407785897380922E-01 
    9.1379328351802735E-01 
    8.9845746745072541E-01 
    8.9818120068508878E-01 
    9.1351517579363106E-01 
    9.1324470694857851E-01 
    8.9791199382669173E-01 
    8.9765053413229923E-01 
    9.1298273113838646E-01 
    9.1272950852965928E-01 
    8.9739679123689853E-01 
    8.9714932883003340E-01 
    9.1248415863220556E-01 
    9.1224345552245756E-01 
    8.9690365374853920E-01 
    8.9664697717077357E-01 
    9.1199844513954431E-01 
    9.1172210475223880E-01 
    8.9634144067050980E-01 
    8.9600934013279776E-01 