# vtk DataFile Version 2.0
Pressure Field Data 
ASCII 
DATASET UNSTRUCTURED_GRID 

POINTS 1681 double 

    0.0000000000000000E+00     0.0000000000000000E+00     0.0000000000000000E+00 
    1.0000000000000000E+00     0.0000000000000000E+00     0.0000000000000000E+00 
    1.0000000000000000E+00     1.0000000000000000E+00     0.0000000000000000E+00 
    0.0000000000000000E+00     1.0000000000000000E+00     0.0000000000000000E+00 
    5.2499999999875258E-01     0.0000000000000000E+00     0.0000000000000000E+00 
    7.4999999999856765E-02     0.0000000000000000E+00     0.0000000000000000E+00 
    1.2499999999975850E-01     0.0000000000000000E+00     0.0000000000000000E+00 
    1.7499999999962990E-01     0.0000000000000000E+00     0.0000000000000000E+00 
    2.2499999999948389E-01     0.0000000000000000E+00     0.0000000000000000E+00 
    2.7499999999933789E-01     0.0000000000000000E+00     0.0000000000000000E+00 
    3.2499999999919210E-01     0.0000000000000000E+00     0.0000000000000000E+00 
    3.7499999999904610E-01     0.0000000000000000E+00     0.0000000000000000E+00 
    4.2499999999890020E-01     0.0000000000000000E+00     0.0000000000000000E+00 
    4.7499999999875958E-01     0.0000000000000000E+00     0.0000000000000000E+00 
    2.4999999999949701E-02     0.0000000000000000E+00     0.0000000000000000E+00 
    5.7499999999887907E-01     0.0000000000000000E+00     0.0000000000000000E+00 
    6.2499999999901101E-01     0.0000000000000000E+00     0.0000000000000000E+00 
    6.7499999999914273E-01     0.0000000000000000E+00     0.0000000000000000E+00 
    7.2499999999927467E-01     0.0000000000000000E+00     0.0000000000000000E+00 
    7.7499999999940661E-01     0.0000000000000000E+00     0.0000000000000000E+00 
    8.2499999999953844E-01     0.0000000000000000E+00     0.0000000000000000E+00 
    8.7499999999967026E-01     0.0000000000000000E+00     0.0000000000000000E+00 
    9.2499999999980220E-01     0.0000000000000000E+00     0.0000000000000000E+00 
    9.7499999999993414E-01     0.0000000000000000E+00     0.0000000000000000E+00 
    5.4999999999881310E-01     0.0000000000000000E+00     0.0000000000000000E+00 
    9.9999999999814140E-02     0.0000000000000000E+00     0.0000000000000000E+00 
    1.4999999999970290E-01     0.0000000000000000E+00     0.0000000000000000E+00 
    1.9999999999955689E-01     0.0000000000000000E+00     0.0000000000000000E+00 
    2.4999999999941089E-01     0.0000000000000000E+00     0.0000000000000000E+00 
    2.9999999999926502E-01     0.0000000000000000E+00     0.0000000000000000E+00 
    3.4999999999911913E-01     0.0000000000000000E+00     0.0000000000000000E+00 
    3.9999999999897312E-01     0.0000000000000000E+00     0.0000000000000000E+00 
    4.4999999999882723E-01     0.0000000000000000E+00     0.0000000000000000E+00 
    4.9999999999869210E-01     0.0000000000000000E+00     0.0000000000000000E+00 
    4.9999999999899403E-02     0.0000000000000000E+00     0.0000000000000000E+00 
    5.9999999999894504E-01     0.0000000000000000E+00     0.0000000000000000E+00 
    6.4999999999907687E-01     0.0000000000000000E+00     0.0000000000000000E+00 
    6.9999999999920870E-01     0.0000000000000000E+00     0.0000000000000000E+00 
    7.4999999999934064E-01     0.0000000000000000E+00     0.0000000000000000E+00 
    7.9999999999947247E-01     0.0000000000000000E+00     0.0000000000000000E+00 
    8.4999999999960441E-01     0.0000000000000000E+00     0.0000000000000000E+00 
    8.9999999999973623E-01     0.0000000000000000E+00     0.0000000000000000E+00 
    9.4999999999986817E-01     0.0000000000000000E+00     0.0000000000000000E+00 
    1.0000000000000000E+00     5.2499999999875258E-01     0.0000000000000000E+00 
    1.0000000000000000E+00     7.4999999999856765E-02     0.0000000000000000E+00 
    1.0000000000000000E+00     1.2499999999975850E-01     0.0000000000000000E+00 
    1.0000000000000000E+00     1.7499999999962990E-01     0.0000000000000000E+00 
    1.0000000000000000E+00     2.2499999999948389E-01     0.0000000000000000E+00 
    1.0000000000000000E+00     2.7499999999933789E-01     0.0000000000000000E+00 
    1.0000000000000000E+00     3.2499999999919210E-01     0.0000000000000000E+00 
    1.0000000000000000E+00     3.7499999999904610E-01     0.0000000000000000E+00 
    1.0000000000000000E+00     4.2499999999890020E-01     0.0000000000000000E+00 
    1.0000000000000000E+00     4.7499999999875958E-01     0.0000000000000000E+00 
    1.0000000000000000E+00     2.4999999999949701E-02     0.0000000000000000E+00 
    1.0000000000000000E+00     5.7499999999887907E-01     0.0000000000000000E+00 
    1.0000000000000000E+00     6.2499999999901101E-01     0.0000000000000000E+00 
    1.0000000000000000E+00     6.7499999999914273E-01     0.0000000000000000E+00 
    1.0000000000000000E+00     7.2499999999927467E-01     0.0000000000000000E+00 
    1.0000000000000000E+00     7.7499999999940661E-01     0.0000000000000000E+00 
    1.0000000000000000E+00     8.2499999999953844E-01     0.0000000000000000E+00 
    1.0000000000000000E+00     8.7499999999967026E-01     0.0000000000000000E+00 
    1.0000000000000000E+00     9.2499999999980220E-01     0.0000000000000000E+00 
    1.0000000000000000E+00     9.7499999999993414E-01     0.0000000000000000E+00 
    1.0000000000000000E+00     5.4999999999881310E-01     0.0000000000000000E+00 
    1.0000000000000000E+00     9.9999999999814140E-02     0.0000000000000000E+00 
    1.0000000000000000E+00     1.4999999999970290E-01     0.0000000000000000E+00 
    1.0000000000000000E+00     1.9999999999955689E-01     0.0000000000000000E+00 
    1.0000000000000000E+00     2.4999999999941089E-01     0.0000000000000000E+00 
    1.0000000000000000E+00     2.9999999999926502E-01     0.0000000000000000E+00 
    1.0000000000000000E+00     3.4999999999911913E-01     0.0000000000000000E+00 
    1.0000000000000000E+00     3.9999999999897312E-01     0.0000000000000000E+00 
    1.0000000000000000E+00     4.4999999999882723E-01     0.0000000000000000E+00 
    1.0000000000000000E+00     4.9999999999869210E-01     0.0000000000000000E+00 
    1.0000000000000000E+00     4.9999999999899403E-02     0.0000000000000000E+00 
    1.0000000000000000E+00     5.9999999999894504E-01     0.0000000000000000E+00 
    1.0000000000000000E+00     6.4999999999907687E-01     0.0000000000000000E+00 
    1.0000000000000000E+00     6.9999999999920870E-01     0.0000000000000000E+00 
    1.0000000000000000E+00     7.4999999999934064E-01     0.0000000000000000E+00 
    1.0000000000000000E+00     7.9999999999947247E-01     0.0000000000000000E+00 
    1.0000000000000000E+00     8.4999999999960441E-01     0.0000000000000000E+00 
    1.0000000000000000E+00     8.9999999999973623E-01     0.0000000000000000E+00 
    1.0000000000000000E+00     9.4999999999986817E-01     0.0000000000000000E+00 
    4.7500000000196618E-01     1.0000000000000000E+00     0.0000000000000000E+00 
    9.2499999999968763E-01     1.0000000000000000E+00     0.0000000000000000E+00 
    8.7499999999961831E-01     1.0000000000000000E+00     0.0000000000000000E+00 
    8.2499999999982654E-01     1.0000000000000000E+00     0.0000000000000000E+00 
    7.7500000000017355E-01     1.0000000000000000E+00     0.0000000000000000E+00 
    7.2500000000052045E-01     1.0000000000000000E+00     0.0000000000000000E+00 
    6.7500000000086724E-01     1.0000000000000000E+00     0.0000000000000000E+00 
    6.2500000000121403E-01     1.0000000000000000E+00     0.0000000000000000E+00 
    5.7500000000156093E-01     1.0000000000000000E+00     0.0000000000000000E+00 
    5.2500000000189684E-01     1.0000000000000000E+00     0.0000000000000000E+00 
    9.7499999999989595E-01     1.0000000000000000E+00     0.0000000000000000E+00 
    4.2500000000176902E-01     1.0000000000000000E+00     0.0000000000000000E+00 
    3.7500000000156092E-01     1.0000000000000000E+00     0.0000000000000000E+00 
    3.2500000000135282E-01     1.0000000000000000E+00     0.0000000000000000E+00 
    2.7500000000114472E-01     1.0000000000000000E+00     0.0000000000000000E+00 
    2.2500000000093659E-01     1.0000000000000000E+00     0.0000000000000000E+00 
    1.7500000000072849E-01     1.0000000000000000E+00     0.0000000000000000E+00 
    1.2500000000052039E-01     1.0000000000000000E+00     0.0000000000000000E+00 
    7.5000000000312261E-02     1.0000000000000000E+00     0.0000000000000000E+00 
    2.5000000000104109E-02     1.0000000000000000E+00     0.0000000000000000E+00 
    4.5000000000187301E-01     1.0000000000000000E+00     0.0000000000000000E+00 
    8.9999999999958358E-01     1.0000000000000000E+00     0.0000000000000000E+00 
    8.4999999999965303E-01     1.0000000000000000E+00     0.0000000000000000E+00 
    8.0000000000000004E-01     1.0000000000000000E+00     0.0000000000000000E+00 
    7.5000000000034706E-01     1.0000000000000000E+00     0.0000000000000000E+00 
    7.0000000000069384E-01     1.0000000000000000E+00     0.0000000000000000E+00 
    6.5000000000104063E-01     1.0000000000000000E+00     0.0000000000000000E+00 
    6.0000000000138742E-01     1.0000000000000000E+00     0.0000000000000000E+00 
    5.5000000000173432E-01     1.0000000000000000E+00     0.0000000000000000E+00 
    5.0000000000205946E-01     1.0000000000000000E+00     0.0000000000000000E+00 
    9.4999999999979179E-01     1.0000000000000000E+00     0.0000000000000000E+00 
    4.0000000000166491E-01     1.0000000000000000E+00     0.0000000000000000E+00 
    3.5000000000145681E-01     1.0000000000000000E+00     0.0000000000000000E+00 
    3.0000000000124871E-01     1.0000000000000000E+00     0.0000000000000000E+00 
    2.5000000000104061E-01     1.0000000000000000E+00     0.0000000000000000E+00 
    2.0000000000083251E-01     1.0000000000000000E+00     0.0000000000000000E+00 
    1.5000000000062441E-01     1.0000000000000000E+00     0.0000000000000000E+00 
    1.0000000000041630E-01     1.0000000000000000E+00     0.0000000000000000E+00 
[...]
CELL_DATA 1600 
SCALARS Pressure double 1 
LOOKUP_TABLE default 

    1.1651686977710591E+00 
    1.1186446467166331E+00 
    1.1162104381270703E+00 
    1.1494359558928118E+00 
    1.1368187478920477E+00 
    1.1125217722087739E+00 
    1.1082609111560018E+00 
    1.1264699643990763E+00 
    1.1177957612142608E+00 
    1.1038118080953450E+00 
    1.0993864073507933E+00 
    1.1103841415831537E+00 
    1.1039447473242552E+00 
    1.0950969240269073E+00 
    1.0909981856113664E+00 
    1.0982694643879833E+00 
    1.0932065807735887E+00 
    1.0871124580669307E+00 
    1.0834439781232301E+00 
    1.0886436570338276E+00 
    1.0844960287330565E+00 
    1.0799874220962495E+00 
    1.0767327994889573E+00 
    1.0806989846437705E+00 
    1.0772023710206917E+00 
    1.0736682394340504E+00 
    1.0707815381733854E+00 
    1.0739668166000980E+00 
    1.0709610540308765E+00 
    1.0680609818299287E+00 
    1.0654957492518704E+00 
    1.0681599926748315E+00 
    1.0655433130669170E+00 
    1.0630760754022839E+00 
    1.0607932818483108E+00 
    1.0630944283087789E+00 
    1.0607997069215016E+00 
    1.0586397368903180E+00 
    1.0566087816601484E+00 
    1.0586478843865426E+00 
    1.0566296125595931E+00 
    1.0546946429297905E+00 
    1.0528923441349163E+00 
    1.0547371110481023E+00 
    1.0529638948768762E+00 
    1.0511976206807119E+00 
    1.0496068424314304E+00 
    1.0513045598690525E+00 
    1.0497546121505270E+00 
    1.0481169444711893E+00 
    1.0467253662051723E+00 
    1.0483103317079816E+00 
    1.0469686624288088E+00 
    1.0454299983037976E+00 
    1.0442291366509471E+00 
    1.0457271228005445E+00 
    1.0445837325898872E+00 
    1.0431214421556951E+00 
    1.0421059047856809E+00 
    1.0435369513371109E+00 
    1.0425856240435529E+00 
    1.0411818089717728E+00 
    1.0403486942413696E+00 
    1.0417289267713874E+00 
    1.0409662964407143E+00 
    1.0396062957986942E+00 
    1.0389544260251706E+00 
    1.0402973063266630E+00 
    1.0397213965084016E+00 
    1.0383927045055814E+00 
    1.0379199444948957E+00 
    1.0392372697020209E+00 
    1.0388415994270661E+00 
    1.0375328365653977E+00 
    1.0372234489455181E+00 
    1.0385265902770362E+00 
    1.0382828682881267E+00 
    1.0369825316383006E+00 
    1.0368513324534721E+00 
    1.0381504193502060E+00 
    1.0947069518760615E+00 
    1.0773532834412078E+00 
    1.0769776130644659E+00 
    1.0939285341666605E+00 
    1.0924967418842761E+00 
    1.0762505856487259E+00 
    1.0752141156317498E+00 
    1.0905691333317618E+00 
    1.0882925625662094E+00 
    1.0739181621150977E+00 
    1.0724140040641321E+00 
    1.0857890100161152E+00 
    1.0831536038191325E+00 
    1.0707499946631225E+00 
    1.0689693117761112E+00 
    1.0804575642548646E+00 
    1.0777526282833099E+00 
    1.0671090902774452E+00 
    1.0652004117358880E+00 
    1.0750754373996887E+00 
    1.0724513141246348E+00 
    1.0632687678638799E+00 
    1.0613347426091777E+00 
    1.0698972905434705E+00 
    1.0674244382378251E+00 
    1.0594147560017755E+00 
    1.0575217811653539E+00 
    1.0650396132599302E+00 
    1.0627467389174905E+00 
    1.0556659902749270E+00 
    1.0538553123845864E+00 
    1.0605477359522875E+00 
    1.0584431897989608E+00 
    1.0520959015803220E+00 
    1.0503925220148245E+00 
    1.0564328248623402E+00 
    1.0545158387462430E+00 
    1.0487488599547987E+00 
    1.0471677739307328E+00 
    1.0526911357172442E+00 
    1.0509574881689838E+00 
    1.0456514936356607E+00 
    1.0442017771094660E+00 
    1.0493136469530189E+00 
    1.0477584156086430E+00 
    1.0428200343958944E+00 
    1.0415074245029279E+00 
    1.0462906992633265E+00 
    1.0449095358835876E+00 
    1.0402649312466821E+00 
    1.0390934224556003E+00 
    1.0436141153149654E+00 
    1.0424037899102900E+00 
    1.0379936960504157E+00 
    1.0369665156541534E+00 
    1.0412780793035676E+00 
    1.0402366708443875E+00 
    1.0360126375300511E+00 
    1.0351328295763071E+00 
    1.0392794160922234E+00 
    1.0384063220159345E+00 
    1.0343278812607142E+00 
    1.0335985991855301E+00 
    1.0376175316638776E+00 
    1.0369132791153459E+00 
    1.0329457723209139E+00 
    1.0323700650187591E+00 
    1.0362937786365072E+00 
    1.0357589537083571E+00 
    1.0318717412910634E+00 
    1.0314500261360071E+00 
    1.0353078123823054E+00 
    1.0349371050591964E+00 
    1.0311017340624227E+00 
    1.0308186232071765E+00 
    1.0346387604167890E+00 
    1.0344039952052291E+00 
    1.0305928405066527E+00 
    1.0304693992713310E+00 
    1.0342758578603164E+00 
    1.0627545725458407E+00 
    1.0494922219430274E+00 
    1.0493458472436361E+00 
    1.0625327349566207E+00 
    1.0620965465943102E+00 
    1.0490561683198749E+00 
    1.0486295478014556E+00 
    1.0614606244622848E+00 
    1.0606445093400299E+00 
    1.0480749605318089E+00 
    1.0474033636156022E+00 
    1.0596706660945885E+00 
    1.0585627335660397E+00 
    1.0466270404219287E+00 
    1.0457589925326667E+00 
    1.0573441684778644E+00 
    1.0560372988949371E+00 
    1.0448124218494046E+00 
    1.0438003201851151E+00 
    1.0546627367371939E+00 
    1.0532390740721711E+00 
    1.0427351663737190E+00 
    1.0416287205280734E+00 
    1.0517827865604898E+00 
    1.0503082773015380E+00 
    1.0404919000128696E+00 
    1.0393347202987178E+00 
    1.0488280080487511E+00 
    1.0473526783946323E+00 
    1.0381662846990884E+00 
    1.0369948089963361E+00 
    1.0458914252839067E+00 
    1.0444520245480702E+00 
    1.0358276694164670E+00 
    1.0346714648727386E+00 
    1.0430410831425356E+00 
    1.0416642157538429E+00 
    1.0335320866254720E+00 
    1.0324147903937027E+00 
    1.0403262028470999E+00 
    1.0390311294376655E+00 
    1.0313242674800591E+00 
    1.0302647126557098E+00 
    1.0377825052285166E+00 
    1.0365833675168972E+00 
    1.0292398874409778E+00 
    1.0282531780587003E+00 
    1.0354363686354469E+00 
    1.0343438497926805E+00 
    1.0273076477778988E+00 
    1.0264060836412998E+00 
    1.0333079031077939E+00 
    1.0323304234470401E+00 
    1.0255510377016754E+00 
    1.0247448628698759E+00 
    1.0314131513728146E+00 
    1.0305577080560073E+00 
    1.0239897432309002E+00 
    1.0232877179861035E+00 
    1.0297656221770253E+00 
    1.0290383470585294E+00 
    1.0226406963649413E+00 
    1.0220504560755643E+00 
    1.0283772618490228E+00 
    1.0277836392308421E+00 
    1.0215186056837295E+00 
    1.0210464634404615E+00 
    1.0272585352321584E+00 
    1.0268025021920235E+00 
    1.0206347509008760E+00 
    1.0202829044206132E+00 
    1.0264149300169689E+00 
    1.0260926342000218E+00 
    1.0199875980457755E+00 
    1.0197397643826100E+00 
    1.0258270858736460E+00 
    1.0256121168659311E+00 
    1.0195361371542324E+00 
    1.0194257627429306E+00 
    1.0254947298731845E+00 
    1.0368953575855395E+00 
    1.0245985420541663E+00 
    1.0245216705466040E+00 
    1.0367918122989010E+00 
    1.0365862391424001E+00 
    1.0243687861320674E+00 
    1.0241417708408376E+00 
    1.0362818951271782E+00 
    1.0358834980656881E+00 
    1.0238433862716221E+00 
    1.0234771817220973E+00 
    1.0353970002797293E+00 
    1.0348293266915103E+00 
    1.0230473793345545E+00 
    1.0225587477624316E+00 
    1.0341881052835309E+00 
    1.0334814104513588E+00 
    1.0220164732160759E+00 
    1.0214260348952442E+00 
    1.0327175330476464E+00 
    1.0319047848927820E+00 
    1.0207930899746918E+00 
    1.0201233715387013E+00 
    1.0310513406473898E+00 
    1.0301651163729049E+00 
    1.0194226012938907E+00 
    1.0186964176111515E+00 
    1.0292536817737237E+00 
    1.0283242018106831E+00 
    1.0179503184838425E+00 
    1.0171896183247129E+00 
    1.0273834028504374E+00 
    1.0264375585294947E+00 
    1.0164194171179342E+00 
    1.0156445802437644E+00 
    1.0254924908640133E+00 
    1.0245535826720547E+00 
    1.0148697272494771E+00 
    1.0140992279038303E+00 
    1.0236257979831316E+00 
    1.0227137077171211E+00 
    1.0133372040036241E+00 
    1.0125875355680296E+00 
    1.0218215184761663E+00 
    1.0209531027849470E+00 
    1.0118538702349995E+00 
    1.0111396348453534E+00 
    1.0201120295255826E+00 
    1.0193015936394849E+00 
    1.0104480483482547E+00 
    1.0097821352696457E+00 
    1.0185248444062147E+00 
    1.0177846117473057E+00 
    1.0091447390261450E+00 
    1.0085385342869699E+00 
    1.0170835300055219E+00 
    1.0164240584174766E+00 
    1.0079660372570398E+00 
    1.0074296118407953E+00 
    1.0158084967546224E+00 
    1.0152389925857777E+00 
    1.0069314672509857E+00 
    1.0064736365014175E+00 
    1.0147175312780901E+00 
    1.0142458866132849E+00 
    1.0060579106841085E+00 
    1.0056856737481827E+00 
    1.0138254809498568E+00 
    1.0134570498212625E+00 
    1.0053575277868783E+00 
    1.0050724911318154E+00 
    1.0131399076918337E+00 
    1.0128703573461664E+00 
    1.0048262180412519E+00 
    1.0046070708419326E+00 
    1.0126383464925264E+00 
    1.0124452512659783E+00 
    1.0044230193907766E+00 
    1.0043275438971244E+00 
    1.0123423465891428E+00 
    1.0123841907849427E+00 
    1.0001149463796410E+00 
    1.0000680154071528E+00 
    1.0123250074132670E+00 
    1.0122071811372226E+00 
    9.9997452476027127E-01 
    9.9983529492878120E-01 
    1.0120319076668705E+00 
    1.0118009495856088E+00 
    9.9965153383907979E-01 
    9.9942481699009644E-01 
    1.0115165952296761E+00 
    1.0111816034950842E+00 
    9.9915705865367332E-01 
    9.9885047747005684E-01 
    1.0107991402356840E+00 
    1.0103727102890587E+00 
    9.9850755849182127E-01 
    9.9813101335716525E-01 
    1.0099060884978466E+00 
    1.0094032525099315E+00 
    9.9772374005076991E-01 
    9.9728878349206929E-01 
    1.0088683195319492E+00 
    1.0083054886014322E+00 
    9.9682929795825281E-01 
    9.9634851211151665E-01 
    1.0077189893742762E+00 
    1.0071130379272730E+00 
    9.9584969717040173E-01 
    9.9533613855503955E-01 
    1.0064917996672222E+00 
    1.0058593591232670E+00 
    9.9481111115351184E-01 
    9.9427785820523029E-01 
    1.0052196961729227E+00 
    1.0045766681043200E+00 
    9.9373957367787114E-01 
    9.9319938792499451E-01 
    1.0039339968339609E+00 
    1.0032952605663310E+00 
    9.9266035634829408E-01 
    9.9212545074623970E-01 
    1.0026638891847424E+00 
    1.0020431626882920E+00 
    9.9159755300329866E-01 
    9.9107945075268622E-01 
    1.0014362120244980E+00 
    1.0008460216965109E+00 
    9.9057383461907489E-01 
    9.9008329659674832E-01 
    1.0002754335283934E+00 
    9.9972715091885134E-01 
    9.8961032900666202E-01 
    9.8915732322319749E-01 
    9.9920374273558266E-01 
    9.9870764554067160E-01 
    9.8872656677736670E-01 
    9.8832023604501396E-01 
    9.9824116168750099E-01 
    9.9780644794650575E-01 
    9.8794037831961146E-01 
    9.8758886903325183E-01 
    9.9740548224477676E-01 
    9.9703998016087225E-01 
    9.8726731270292345E-01 
    9.8697682390484809E-01 
    9.9671120139890923E-01 
    9.9641953003815642E-01 
    9.8671756550582157E-01 
    9.8648776590651266E-01 
    9.9616358611432432E-01 
    9.9593816757654974E-01 
    9.8628130088999666E-01 
    9.8608249751815924E-01 
    9.9572957416751784E-01 
    9.9555370766086149E-01 
    9.8591526814858277E-01 
    9.8583325178590675E-01 
    9.9546524922940538E-01 
    9.8770073369553824E-01 
    9.7508116233471975E-01 
    9.7504934692378309E-01 
    9.8766254986234814E-01 
    9.8758645646361032E-01 
    9.7498593120754917E-01 
    9.7489137870172105E-01 
    9.8747305374391015E-01 
    9.8732322051770272E-01 
    9.7476636239050518E-01 
    9.7461175909621678E-01 
    9.8713810393627388E-01 
    9.8691910329904331E-01 
    9.7442863972244387E-01 
    9.7421825693604103E-01 
    9.8666785012574287E-01 
    9.8638618567035985E-01 
    9.7398203104572667E-01 
    9.7372153460187338E-01 
    9.8607613677803652E-01 
    9.8573989087044667E-01 
    9.7343847616211354E-01 
    9.7313468362196465E-01 
    9.8537977075594796E-01 
    9.8499820986843778E-01 
    9.7281208746918779E-01 
    9.7247270427755550E-01 
    9.8459772843958671E-01 
    9.8418091100630567E-01 
    9.7211862070928357E-01 
    9.7175197824686110E-01 
    9.8375038555376815E-01 
    9.8330880449851421E-01 
    9.7137495882625202E-01 
    9.7098977149620214E-01 
    9.8285882762942389E-01 
    9.8240310704872669E-01 
    9.7059864018398556E-01 
    9.7020379260713208E-01 
    9.8194427409141039E-01 
    9.8148492814892763E-01 
    9.6980745033350979E-01 
    9.6941181995766845E-01 
    9.8102762728023207E-01 
    9.8057488045669317E-01 
    9.6901908532721603E-01 
    9.6863140071430553E-01 
    9.8012914125176909E-01 
    9.7969280274161175E-01 
    9.6825088477408028E-01 
    9.6787961504327635E-01 
    9.7926819330999237E-01 
    9.7885757290969855E-01 
    9.6751962256114254E-01 
    9.6717288583075167E-01 
    9.7846312903036103E-01 
    9.7808697093289665E-01 
    9.6684132251001054E-01 
    9.6652677526879582E-01 
    9.7773111906726884E-01 
    9.7739748265667781E-01 
    9.6623098370538629E-01 
    9.6595552437288668E-01 
    9.7708780951270668E-01 
    9.7680357404713980E-01 
    9.6570168197911477E-01 
    9.6547018098937232E-01 
    9.7654573674311218E-01 
    9.7631424480693585E-01 
    9.6526063278447005E-01 
    9.6507027408895141E-01 
    9.7610694294611389E-01 
    9.7591668495533501E-01 
    9.6489034742291535E-01 
    9.6470648517956981E-01 
    9.7572697798127983E-01 
    9.7556934367294945E-01 
    9.6455904621394406E-01 
    9.6448947845644617E-01 
    9.7549337465490693E-01 
    9.6221545296964039E-01 
    9.4907636317904998E-01 
    9.4905267137773619E-01 
    9.6218832052658143E-01 
    9.6213423286174238E-01 
    9.4900543983087604E-01 
    9.4893498423726375E-01 
    9.6205356486866767E-01 
    9.6194685553438286E-01 
    9.4884175395633508E-01 
    9.4872632972017135E-01 
    9.6181480456430823E-01 
    9.6165826608761185E-01 
    9.4858941928414398E-01 
    9.4843185175630884E-01 
    9.6147824055096043E-01 
    9.6127586532842491E-01 
    9.4825457099224686E-01 
    9.4805862827934373E-01 
    9.6105240437845896E-01 
    9.6080923721445177E-01 
    9.4784517447991967E-01 
    9.4761545177999817E-01 
    9.6054784742590826E-01 
    9.6026981096639674E-01 
    9.4737078517741391E-01 
    9.4711257383207192E-01 
    9.5997678440410705E-01 
    9.5967049330889653E-01 
    9.4684228238990731E-01 
    9.4656143237953949E-01 
    9.5935272092580537E-01 
    9.5902529725961716E-01 
    9.4627159376656111E-01 
    9.4597437673467688E-01 
    9.5869008866871996E-01 
    9.5834898803975099E-01 
    9.4567142374540647E-01 
    9.4536440190814608E-01 
    9.5800390558738691E-01 
    9.5765676029568214E-01 
    9.4505499566890039E-01 
    9.4474489979641885E-01 
    9.5730947198711547E-01 
    9.5696395396985534E-01 
    9.4443581260421516E-01 
    9.4412942928687349E-01 
    9.5662210616631671E-01 
    9.5628580855401790E-01 
    9.4382743515128820E-01 
    9.4353149835062111E-01 
    9.5595691462576571E-01 
    9.5563724433958608E-01 
    9.4324326139923265E-01 
    9.4296433007583191E-01 
    9.5532857553791839E-01 
    9.5503263173320274E-01 
    9.4269625688784009E-01 
    9.4244051315265087E-01 
    9.5475106170391932E-01 
    9.5448540090589629E-01 
    9.4219843717148533E-01 
    9.4197113306301661E-01 
    9.5423699352572566E-01 
    9.5400683325830271E-01 
    9.4175927120391967E-01 
    9.4156269369558487E-01 
    9.5379524260327286E-01 
    9.5360121105423123E-01 
    9.4137958162393554E-01 
    9.4120427193218570E-01 
    9.5342078692108734E-01 
    9.5324216270809015E-01 
    9.4102036716722015E-01 
    9.4083228660529195E-01 
    9.5305812579000593E-01 
    9.5292119155392274E-01 
    9.4070492874578293E-01 
    9.4065037099004700E-01 
    9.5285922331577744E-01 
    9.3564638961636726E-01 
    9.2191534860696600E-01 
    9.2189586946651259E-01 
    9.3562518571574427E-01 
    9.3558291288821183E-01 
    9.2185703456436585E-01 
    9.2179909254290682E-01 
    9.3551984672315358E-01 
    9.3543637596729201E-01 
    9.2172239168343506E-01 
    9.2162737821497720E-01 
    9.3533300070772829E-01 
    9.3521032914876245E-01 
    9.2151459374981226E-01 
    9.2138467196169971E-01 
    9.3506907339930012E-01 
    9.3491004456028415E-01 
    9.2123833472169336E-01 
    9.2107638781107271E-01 
    9.3473414727258775E-01 
    9.3454237383937711E-01 
    9.2089971629207112E-01 
    9.2070927960115334E-01 
    9.3433579801818978E-01 
    9.3411556856849620E-01 
    9.2050610642213060E-01 
    9.2029128939194871E-01 
    9.3388290263389018E-01 
    9.3363907903185150E-01 
    9.2006597968840642E-01 
    9.1983138154532540E-01 
    9.3338543151717457E-01 
    9.3312334207717529E-01 
    9.1958874673627544E-01 
    9.1933936906247793E-01 
    9.3285423430729864E-01 
    9.3257956690425248E-01 
    9.1908457887343509E-01 
    9.1882573763931819E-01 
    9.3230082729946917E-01 
    9.3201952543693878E-01 
    9.1856423258070252E-01 
    9.1830147134087314E-01 
    9.3173718767333180E-01 
    9.3145535073918129E-01 
    9.1803887665282402E-01 
    9.1777788089537182E-01 
    9.3117555563674081E-01 
    9.3089934124088791E-01 
    9.1751992032575425E-01 
    9.1726642856598728E-01 
    9.3062823716748899E-01 
    9.3036375507730185E-01 
    9.1701882848884675E-01 
    9.1677852073556154E-01 
    9.3010737676610744E-01 
    9.2986053565359528E-01 
    9.1654686514304440E-01 
    9.1632514726580394E-01 
    9.2962458459081143E-01 
    9.2940073538018653E-01 
    9.1611451405887323E-01 
    9.1591584765194611E-01 
    9.2918994110488129E-01 
    9.2899266589779905E-01 
    9.1572951690008164E-01 
    9.1555486908576489E-01 
    9.2880842668697317E-01 
    9.2863477496007107E-01 
    9.1538900639267839E-01 
    9.1522298201229157E-01 
    9.2846438354882666E-01 
    9.2827618610324147E-01 
    9.1503313619681481E-01 
    9.1484629505785364E-01 
    9.2808646474416612E-01 
    9.2796554863856850E-01 
    9.1472942745667418E-01 
    9.1467897182055491E-01 
    9.2791485101519333E-01 
    9.0787884406483255E-01 
    8.9353734519976347E-01 
    8.9351945630225826E-01 
    9.0786044690965695E-01 
    9.0782376839643453E-01 
    8.9348378991719601E-01 
    8.9343056799139886E-01 
    9.0776903994160829E-01 
    9.0769658431828382E-01 
    8.9336009976475350E-01 
    8.9327277977542552E-01 
    9.0760681388236786E-01 
    9.0750022838372169E-01 
    8.9316908586416455E-01 
    8.9304957671246432E-01 
    9.0737741218723666E-01 
    9.0723903105597314E-01 
    8.9291488900966931E-01 
    8.9276573431777029E-01 
    9.0708582858715292E-01 
    9.0691862236019516E-01 
    8.9260289567812656E-01 
    8.9242722399269314E-01 
    9.0673829984235255E-01 
    9.0654581409121326E-01 
    8.9223963420675856E-01 
    8.9204110131708170E-01 
    9.0634217928990424E-01 
    9.0612846614832909E-01 
    8.9183265622692398E-01 
    8.9161538146677954E-01 
    9.0590579720123909E-01 
    9.0567534203082301E-01 
    8.9139040679593429E-01 
    8.9115890469454895E-01 
    9.0543831243731288E-01 
    9.0519595757517368E-01 
    8.9092208574764342E-01 
    8.9068119390929168E-01 
    9.0494955906372299E-01 
    9.0470042606762846E-01 
    8.9043750161440516E-01 
    8.9019230467101285E-01 
    9.0444989032110945E-01 
    9.0419930103271984E-01 
    8.8994691680715876E-01 
    8.8970266364257278E-01 
    9.0395001954098209E-01 
    9.0370341346480321E-01 
    8.8946087566416199E-01 
    8.8922287941953515E-01 
    9.0346084984173214E-01 
    9.0322368623097982E-01 
    8.8898998542401619E-01 
    8.8876346983434329E-01 
    9.0299325767450067E-01 
    9.0277085513810151E-01 
    8.8854454405169858E-01 
    8.8833430076130293E-01 
    9.0255768643293477E-01 
    9.0235480170282945E-01 
    8.8813361421639081E-01 
    8.8794295191232153E-01 
    9.0216294892649906E-01 
    9.0198228977915285E-01 
    8.8776200562367436E-01 
    8.8758887676033071E-01 
    9.0181179700163128E-01 
    9.0164767021532699E-01 
    8.8741778481763922E-01 
    8.8723164525965870E-01 