# vtk DataFile Version 2.0
Pressure Field Data 
ASCII 
DATASET UNSTRUCTURED_GRID 

POINTS 1681 double 

    0.0000000000000000E+00     0.0000000000000000E+00     0.0000000000000000E+00 
    1.0000000000000000E+00     0.0000000000000000E+00     0.0000000000000000E+00 
    1.0000000000000000E+00     1.0000000000000000E+00     0.0000000000000000E+00 
    0.0000000000000000E+00     1.0000000000000000E+00     0.0000000000000000E+00 
    5.2499999999875258E-01     0.0000000000000000E+00     0.0000000000000000E+00 
    7.4999999999856765E-02     0.0000000000000000E+00     0.0000000000000000E+00 
    1.2499999999975850E-01     0.0000000000000000E+00     0.0000000000000000E+00 
    1.7499999999962990E-01     0.0000000000000000E+00     0.0000000000000000E+00 
    2.2499999999948389E-01     0.0000000000000000E+00     0.0000000000000000E+00 
    2.7499999999933789E-01     0.0000000000000000E+00     0.0000000000000000E+00 
    3.2499999999919210E-01     0.0000000000000000E+00     0.0000000000000000E+00 
    3.7499999999904610E-01     0.0000000000000000E+00     0.0000000000000000E+00 
    4.2499999999890020E-01     0.0000000000000000E+00     0.0000000000000000E+00 
    4.7499999999875958E-01     0.0000000000000000E+00     0.0000000000000000E+00 
    2.4999999999949701E-02     0.0000000000000000E+00     0.0000000000000000E+00 
    5.7499999999887907E-01     0.0000000000000000E+00     0.0000000000000000E+00 
    6.2499999999901101E-01     0.0000000000000000E+00     0.0000000000000000E+00 
    6.7499999999914273E-01     0.0000000000000000E+00     0.0000000000000000E+00 
    7.2499999999927467E-01     0.0000000000000000E+00     0.0000000000000000E+00 
    7.7499999999940661E-01     0.0000000000000000E+00     0.0000000000000000E+00 
    8.2499999999953844E-01     0.0000000000000000E+00     0.0000000000000000E+00 
    8.7499999999967026E-01     0.0000000000000000E+00     0.0000000000000000E+00 
    9.2499999999980220E-01     0.0000000000000000E+00     0.0000000000000000E+00 
    9.7499999999993414E-01     0.0000000000000000E+00     0.0000000000000000E+00 
    5.4999999999881310E-01     0.0000000000000000E+00     0.0000000000000000E+00 
    9.9999999999814140E-02     0.0000000000000000E+00     0.0000000000000000E+00 
    1.4999999999970290E-01     0.0000000000000000E+00     0.0000000000000000E+00 
    1.9999999999955689E-01     0.0000000000000000E+00     0.0000000000000000E+00 
    2.4999999999941089E-01     0.0000000000000000E+00     0.0000000000000000E+00 
    2.9999999999926502E-01     0.0000000000000000E+00     0.0000000000000000E+00 
    3.4999999999911913E-01     0.0000000000000000E+00     0.0000000000000000E+00 
    3.9999999999897312E-01     0.0000000000000000E+00     0.0000000000000000E+00 
    4.4999999999882723E-01     0.0000000000000000E+00     0.0000000000000000E+00 
    4.9999999999869210E-01     0.0000000000000000E+00     0.0000000000000000E+00 
    4.9999999999899403E-02     0.0000000000000000E+00     0.0000000000000000E+00 
    5.9999999999894504E-01     0.0000000000000000E+00     0.0000000000000000E+00 
    6.4999999999907687E-01     0.0000000000000000E+00     0.0000000000000000E+00 
    6.9999999999920870E-01     0.0000000000000000E+00     0.0000000000000000E+00 
    7.4999999999934064E-01     0.0000000000000000E+00     0.0000000000000000E+00 
    7.9999999999947247E-01     0.0000000000000000E+00     0.0000000000000000E+00 
    8.4999999999960441E-01     0.0000000000000000E+00     0.0000000000000000E+00 
    8.9999999999973623E-01     0.0000000000000000E+00     0.0000000000000000E+00 
    9.4999999999986817E-01     0.0000000000000000E+00     0.0000000000000000E+00 
    1.0000000000000000E+00     5.2499999999875258E-01     0.0000000000000000E+00 
    1.0000000000000000E+00     7.4999999999856765E-02     0.0000000000000000E+00 
    1.0000000000000000E+00     1.2499999999975850E-01     0.0000000000000000E+00 
    1.0000000000000000E+00     1.7499999999962990E-01     0.0000000000000000E+00 
    1.0000000000000000E+00     2.2499999999948389E-01     0.0000000000000000E+00 
    1.0000000000000000E+00     2.7499999999933789E-01     0.0000000000000000E+00 
    1.0000000000000000E+00     3.2499999999919210E-01     0.0000000000000000E+00 
    1.0000000000000000E+00     3.7499999999904610E-01     0.0000000000000000E+00 
    1.0000000000000000E+00     4.2499999999890020E-01     0.0000000000000000E+00 
    1.0000000000000000E+00     4.7499999999875958E-01     0.0000000000000000E+00 
    1.0000000000000000E+00     2.4999999999949701E-02     0.0000000000000000E+00 
    1.0000000000000000E+00     5.7499999999887907E-01     0.0000000000000000E+00 
    1.0000000000000000E+00     6.2499999999901101E-01     0.0000000000000000E+00 
    1.0000000000000000E+00     6.7499999999914273E-01     0.0000000000000000E+00 
    1.0000000000000000E+00     7.2499999999927467E-01     0.0000000000000000E+00 
    1.0000000000000000E+00     7.7499999999940661E-01     0.0000000000000000E+00 
    1.0000000000000000E+00     8.2499999999953844E-01     0.0000000000000000E+00 
    1.0000000000000000E+00     8.7499999999967026E-01     0.0000000000000000E+00 
    1.0000000000000000E+00     9.2499999999980220E-01     0.0000000000000000E+00 
    1.0000000000000000E+00     9.7499999999993414E-01     0.0000000000000000E+00 
    1.0000000000000000E+00     5.4999999999881310E-01     0.0000000000000000E+00 
    1.0000000000000000E+00     9.9999999999814140E-02     0.0000000000000000E+00 
    1.0000000000000000E+00     1.4999999999970290E-01     0.0000000000000000E+00 
    1.0000000000000000E+00     1.9999999999955689E-01     0.0000000000000000E+00 
    1.0000000000000000E+00     2.4999999999941089E-01     0.0000000000000000E+00 
    1.0000000000000000E+00     2.9999999999926502E-01     0.0000000000000000E+00 
    1.0000000000000000E+00     3.4999999999911913E-01     0.0000000000000000E+00 
    1.0000000000000000E+00     3.9999999999897312E-01     0.0000000000000000E+00 
    1.0000000000000000E+00     4.4999999999882723E-01     0.0000000000000000E+00 
    1.0000000000000000E+00     4.9999999999869210E-01     0.0000000000000000E+00 
    1.0000000000000000E+00     4.9999999999899403E-02     0.0000000000000000E+00 
    1.0000000000000000E+00     5.9999999999894504E-01     0.0000000000000000E+00 
    1.0000000000000000E+00     6.4999999999907687E-01     0.0000000000000000E+00 
    1.0000000000000000E+00     6.9999999999920870E-01     0.0000000000000000E+00 
    1.0000000000000000E+00     7.4999999999934064E-01     0.0000000000000000E+00 
    1.0000000000000000E+00     7.9999999999947247E-01     0.0000000000000000E+00 
    1.0000000000000000E+00     8.4999999999960441E-01     0.0000000000000000E+00 
    1.0000000000000000E+00     8.9999999999973623E-01     0.0000000000000000E+00 
    1.0000000000000000E+00     9.4999999999986817E-01     0.0000000000000000E+00 
    4.7500000000196618E-01     1.0000000000000000E+00     0.0000000000000000E+00 
    9.2499999999968763E-01     1.0000000000000000E+00     0.0000000000000000E+00 
    8.7499999999961831E-01     1.0000000000000000E+00     0.0000000000000000E+00 
    8.2499999999982654E-01     1.0000000000000000E+00     0.0000000000000000E+00 
    7.7500000000017355E-01     1.0000000000000000E+00     0.0000000000000000E+00 
    7.2500000000052045E-01     1.0000000000000000E+00     0.0000000000000000E+00 
    6.7500000000086724E-01     1.0000000000000000E+00     0.0000000000000000E+00 
    6.2500000000121403E-01     1.0000000000000000E+00     0.0000000000000000E+00 
    5.7500000000156093E-01     1.0000000000000000E+00     0.0000000000000000E+00 
    5.2500000000189684E-01     1.0000000000000000E+00     0.0000000000000000E+00 
    9.7499999999989595E-01     1.0000000000000000E+00     0.0000000000000000E+00 
    4.2500000000176902E-01     1.0000000000000000E+00     0.0000000000000000E+00 
    3.7500000000156092E-01     1.0000000000000000E+00     0.0000000000000000E+00 
    3.2500000000135282E-01     1.0000000000000000E+00     0.0000000000000000E+00 
    2.7500000000114472E-01     1.0000000000000000E+00     0.0000000000000000E+00 
    2.2500000000093659E-01     1.0000000000000000E+00     0.0000000000000000E+00 
    1.7500000000072849E-01     1.0000000000000000E+00     0.0000000000000000E+00 
    1.2500000000052039E-01     1.0000000000000000E+00     0.0000000000000000E+00 
    7.5000000000312261E-02     1.0000000000000000E+00     0.0000000000000000E+00 
    2.5000000000104109E-02     1.0000000000000000E+00     0.0000000000000000E+00 
    4.5000000000187301E-01     1.0000000000000000E+00     0.0000000000000000E+00 
    8.9999999999958358E-01     1.0000000000000000E+00     0.0000000000000000E+00 
    8.4999999999965303E-01     1.0000000000000000E+00     0.0000000000000000E+00 
    8.0000000000000004E-01     1.0000000000000000E+00     0.0000000000000000E+00 
    7.5000000000034706E-01     1.0000000000000000E+00     0.0000000000000000E+00 
    7.0000000000069384E-01     1.0000000000000000E+00     0.0000000000000000E+00 
    6.5000000000104063E-01     1.0000000000000000E+00     0.0000000000000000E+00 
    6.0000000000138742E-01     1.0000000000000000E+00     0.0000000000000000E+00 
    5.5000000000173432E-01     1.0000000000000000E+00     0.0000000000000000E+00 
    5.0000000000205946E-01     1.0000000000000000E+00     0.0000000000000000E+00 
    9.4999999999979179E-01     1.0000000000000000E+00     0.0000000000000000E+00 
    4.0000000000166491E-01     1.0000000000000000E+00     0.0000000000000000E+00 
    3.5000000000145681E-01     1.0000000000000000E+00     0.0000000000000000E+00 
    3.0000000000124871E-01     1.0000000000000000E+00     0.0000000000000000E+00 
    2.5000000000104061E-01     1.0000000000000000E+00     0.0000000000000000E+00 
    2.0000000000083251E-01     1.0000000000000000E+00     0.0000000000000000E+00 
    1.5000000000062441E-01     1.0000000000000000E+00     0.0000000000000000E+00 
    1.0000000000041630E-01     1.0000000000000000E+00     0.0000000000000000E+00 
[...]
CELL_DATA 1600 
SCALARS Pressure double 1 
LOOKUP_TABLE default 

    1.1794972626278832E+00 
    1.1328621393057585E+00 
    1.1304200499238766E+00 
    1.1637471440138374E+00 
    1.1511066240420482E+00 
    1.1267172514356967E+00 
    1.1224375665287045E+00 
    1.1407314923474612E+00 
    1.1320284615452574E+00 
    1.1179658180403893E+00 
    1.1135145834010605E+00 
    1.1245858783779377E+00 
    1.1181136569197225E+00 
    1.1091965779038302E+00 
    1.1050670466505046E+00 
    1.1124039259137863E+00 
    1.1073052016800160E+00 
    1.1011486173531013E+00 
    1.0974458477177704E+00 
    1.1027052639701516E+00 
    1.0985196599414617E+00 
    1.0939537033590119E+00 
    1.0906624572703814E+00 
    1.0946838823872562E+00 
    1.0911479735923104E+00 
    1.0875604803257741E+00 
    1.0846357917487199E+00 
    1.0878727499079317E+00 
    1.0848271229268591E+00 
    1.0818768842101960E+00 
    1.0792731285640511E+00 
    1.0819861722395170E+00 
    1.0793297400476833E+00 
    1.0768149388288673E+00 
    1.0744938040530227E+00 
    1.0768413928715133E+00 
    1.0745076448331787E+00 
    1.0723022496554167E+00 
    1.0702337646041815E+00 
    1.0723173697062260E+00 
    1.0702613508811170E+00 
    1.0682827151958412E+00 
    1.0664442569521870E+00 
    1.0683319333090842E+00 
    1.0665227517242268E+00 
    1.0647142507084668E+00 
    1.0630891857937055E+00 
    1.0648285165479690E+00 
    1.0632448438576048E+00 
    1.0615661113809458E+00 
    1.0601425760517211E+00 
    1.0617681193119521E+00 
    1.0603953884003674E+00 
    1.0588165750241585E+00 
    1.0575865040953525E+00 
    1.0591242670766612E+00 
    1.0579528678631229E+00 
    1.0564511189231811E+00 
    1.0554094974841490E+00 
    1.0568797367497063E+00 
    1.0559037950655354E+00 
    1.0544610016139049E+00 
    1.0536052283326880E+00 
    1.0550242760166717E+00 
    1.0542406324517941E+00 
    1.0528419276222170E+00 
    1.0521708289063070E+00 
    1.0535523592654186E+00 
    1.0529586044337169E+00 
    1.0515912477408160E+00 
    1.0511012238577238E+00 
    1.0524573238345500E+00 
    1.0520435453324766E+00 
    1.0506957423029779E+00 
    1.0503637274916835E+00 
    1.0517064558598574E+00 
    1.0514416108805442E+00 
    1.0501017212864434E+00 
    1.0499643138978232E+00 
    1.0513026487921031E+00 
    1.1087680145454013E+00 
    1.0912246503775058E+00 
    1.0908453727921987E+00 
    1.1079848259330360E+00 
    1.1065436498700498E+00 
    1.0901111499642864E+00 
    1.0890640438681813E+00 
    1.1046024705654671E+00 
    1.1023085793784373E+00 
    1.0877542134639062E+00 
    1.0862331705499384E+00 
    1.0997843773068496E+00 
    1.0971253883152481E+00 
    1.0845495203217450E+00 
    1.0827467021204227E+00 
    1.0944032025404524E+00 
    1.0916699017108171E+00 
    1.0808621149026261E+00 
    1.0789271020542726E+00 
    1.0889624483945339E+00 
    1.0863064639390538E+00 
    1.0769674113989451E+00 
    1.0750038749120574E+00 
    1.0837192584301463E+00 
    1.0812121620202733E+00 
    1.0730531510019712E+00 
    1.0711284405818884E+00 
    1.0787922712875258E+00 
    1.0764637333909217E+00 
    1.0692401325691889E+00 
    1.0673963616187641E+00 
    1.0742286775931869E+00 
    1.0720878838217811E+00 
    1.0656034764492384E+00 
    1.0638664252405297E+00 
    1.0700412581916683E+00 
    1.0680881684108168E+00 
    1.0621890681698294E+00 
    1.0605744281250831E+00 
    1.0662276783434117E+00 
    1.0644587104905707E+00 
    1.0590248902018067E+00 
    1.0575423594866309E+00 
    1.0627801572504023E+00 
    1.0611909559855122E+00 
    1.0561283852862426E+00 
    1.0547842586049079E+00 
    1.0596901386626865E+00 
    1.0582768637310171E+00 
    1.0535110884191528E+00 
    1.0523098611820236E+00 
    1.0569504356496993E+00 
    1.0557103158088239E+00 
    1.0511814869988991E+00 
    1.0501268349922084E+00 
    1.0545561272851600E+00 
    1.0534876547019811E+00 
    1.0491467593746442E+00 
    1.0482421163470514E+00 
    1.0525048390404694E+00 
    1.0516077647221524E+00 
    1.0474137692410666E+00 
    1.0466625728945369E+00 
    1.0507966303516085E+00 
    1.0500716793748635E+00 
    1.0459893120666179E+00 
    1.0453945314797619E+00 
    1.0494330310354569E+00 
    1.0488802804130186E+00 
    1.0448781232494029E+00 
    1.0444384166225913E+00 
    1.0484116157383490E+00 
    1.0480219881114874E+00 
    1.0440702784277354E+00 
    1.0437618291930755E+00 
    1.0476999925416839E+00 
    1.0474442694704722E+00 
    1.0435151405322309E+00 
    1.0433868422003278E+00 
    1.0473104973305023E+00 
    1.0764066558048444E+00 
    1.0628981020973007E+00 
    1.0627491750994509E+00 
    1.0761818458965653E+00 
    1.0757397210502200E+00 
    1.0624544010306698E+00 
    1.0620201935251785E+00 
    1.0750949733858173E+00 
    1.0742672550841244E+00 
    1.0614556029488749E+00 
    1.0607716841275625E+00 
    1.0732791722607236E+00 
    1.0721545282935143E+00 
    1.0599808373934836E+00 
    1.0590961973432320E+00 
    1.0709169616935912E+00 
    1.0695889942649102E+00 
    1.0581311117642282E+00 
    1.0570987282041433E+00 
    1.0681914391055749E+00 
    1.0667430931461821E+00 
    1.0560116883066160E+00 
    1.0548819195948711E+00 
    1.0652606375417855E+00 
    1.0637586790946083E+00 
    1.0537205092928315E+00 
    1.0525376433526947E+00 
    1.0622498796016111E+00 
    1.0607451336506382E+00 
    1.0513425946785124E+00 
    1.0501437465295540E+00 
    1.0592537671488182E+00 
    1.0577837382056277E+00 
    1.0489486395338616E+00 
    1.0477640331988400E+00 
    1.0563418289863244E+00 
    1.0549338221439253E+00 
    1.0465959750309630E+00 
    1.0454498722641345E+00 
    1.0535646588468337E+00 
    1.0522385776387626E+00 
    1.0443305627215318E+00 
    1.0432423825202588E+00 
    1.0509592347293415E+00 
    1.0497298070781678E+00 
    1.0421892292142430E+00 
    1.0411746196062546E+00 
    1.0485530799954523E+00 
    1.0474315210753329E+00 
    1.0402017418881366E+00 
    1.0392735020204156E+00 
    1.0463673421914745E+00 
    1.0453625510614279E+00 
    1.0383925643473781E+00 
    1.0375613863281117E+00 
    1.0444189935154329E+00 
    1.0435383869811512E+00 
    1.0367822468183310E+00 
    1.0360572661803336E+00 
    1.0427223444870763E+00 
    1.0419723857364587E+00 
    1.0353884135427673E+00 
    1.0347774888898753E+00 
    1.0412899248728666E+00 
    1.0406762072357352E+00 
    1.0342260489550053E+00 
    1.0337352059972642E+00 
    1.0401321288710055E+00 
    1.0396578007942698E+00 
    1.0333051566477258E+00 
    1.0329341673777945E+00 
    1.0392515967662230E+00 
    1.0389081448161399E+00 
    1.0326163922065570E+00 
    1.0323379474444236E+00 
    1.0386147819263520E+00 
    1.0383787429205633E+00 
    1.0321131537882196E+00 
    1.0319995731945446E+00 
    1.0382573560178860E+00 
    1.0500299832588218E+00 
    1.0374381762519511E+00 
    1.0373592890319190E+00 
    1.0499241904479129E+00 
    1.0497141332821511E+00 
    1.0372023850504357E+00 
    1.0369693806596649E+00 
    1.0494031091081759E+00 
    1.0489958938492576E+00 
    1.0366630855307530E+00 
    1.0362871100725912E+00 
    1.0484985146121730E+00 
    1.0479179862461219E+00 
    1.0358457496369318E+00 
    1.0353438570694016E+00 
    1.0472620400163604E+00 
    1.0465388650520782E+00 
    1.0347867125353027E+00 
    1.0341798976817353E+00 
    1.0457568764635712E+00 
    1.0449245179759563E+00 
    1.0335291793459178E+00 
    1.0328404062409187E+00 
    1.0440501020274013E+00 
    1.0431416866949050E+00 
    1.0321194204762292E+00 
    1.0313719844853573E+00 
    1.0422069864643577E+00 
    1.0412533125464696E+00 
    1.0306037229626033E+00 
    1.0298200787409426E+00 
    1.0402875379056196E+00 
    1.0393160821754357E+00 
    1.0290262811319149E+00 
    1.0282273250454521E+00 
    1.0383449119815154E+00 
    1.0373795527228942E+00 
    1.0274279591602526E+00 
    1.0266326814760764E+00 
    1.0364251084685574E+00 
    1.0354862872293671E+00 
    1.0258457407080037E+00 
    1.0250711421469343E+00 
    1.0345674294237637E+00 
    1.0336725378421512E+00 
    1.0243126567852001E+00 
    1.0235738326705328E+00 
    1.0328053078170416E+00 
    1.0319691566165428E+00 
    1.0228580075867768E+00 
    1.0221683222419402E+00 
    1.0311672512877714E+00 
    1.0304025342596455E+00 
    1.0215077331325810E+00 
    1.0208790240612473E+00 
    1.0296777459067141E+00 
    1.0289954428072607E+00 
    1.0202848146997194E+00 
    1.0197275630625302E+00 
    1.0283580091399027E+00 
    1.0277676552952670E+00 
    1.0192095548281428E+00 
    1.0187328626914987E+00 
    1.0272263891659121E+00 
    1.0267359252747947E+00 
    1.0182992370184230E+00 
    1.0179098468468439E+00 
    1.0262974556843658E+00 
    1.0259111340350158E+00 
    1.0175647161033954E+00 
    1.0172615269840417E+00 
    1.0255749779744348E+00 
    1.0252824279312556E+00 
    1.0169928192244959E+00 
    1.0167417758191299E+00 
    1.0250180328059502E+00 
    1.0248047177377235E+00 
    1.0165404668537361E+00 
    1.0164430301656884E+00 
    1.0246992653212643E+00 
    1.0249060440070050E+00 
    1.0122969360422134E+00 
    1.0122483124624546E+00 
    1.0248450256152981E+00 
    1.0247235413637292E+00 
    1.0121514484824936E+00 
    1.0120071918308233E+00 
    1.0245428172441025E+00 
    1.0243046572926806E+00 
    1.0118167870860590E+00 
    1.0115818552907390E+00 
    1.0240114018948332E+00 
    1.0236658719291989E+00 
    1.0113043646380613E+00 
    1.0109865954914670E+00 
    1.0232713043947355E+00 
    1.0228312835930569E+00 
    1.0106311018056404E+00 
    1.0102406706464826E+00 
    1.0223496712636855E+00 
    1.0218305384808477E+00 
    1.0098182812827674E+00 
    1.0093670651019162E+00 
    1.0212781015077439E+00 
    1.0206966631917787E+00 
    1.0088902673680626E+00 
    1.0083912116009908E+00 
    1.0200905609124062E+00 
    1.0194641215931404E+00 
    1.0078732671230370E+00 
    1.0073398201091168E+00 
    1.0188216238780905E+00 
    1.0181672672557471E+00 
    1.0067942482904773E+00 
    1.0062398993094606E+00 
    1.0175051476841488E+00 
    1.0168392391215464E+00 
    1.0056800726010999E+00 
    1.0051180045857215E+00 
    1.0161733802817619E+00 
    1.0155112658990317E+00 
    1.0045568568909458E+00 
    1.0039997072760058E+00 
    1.0148564417887189E+00 
    1.0142123030137953E+00 
    1.0034495428989816E+00 
    1.0029092555386157E+00 
    1.0135820944978342E+00 
    1.0129689134462045E+00 
    1.0023816383418969E+00 
    1.0018693835900596E+00 
    1.0123757129225643E+00 
    1.0118053058300462E+00 
    1.0013750808046806E+00 
    1.0009012141277478E+00 
    1.0112603682619377E+00 
    1.0107434404614739E+00 
    1.0004501569966291E+00 
    1.0000241599116182E+00 
    1.0102569218066222E+00 
    1.0098030516528766E+00 
    9.9962532168375118E-01 
    9.9925552220297653E-01 
    1.0093838569014504E+00 
    1.0090010238080269E+00 
    9.9891626990976223E-01 
    9.9860837290150595E-01 
    1.0086556086707745E+00 
    1.0083474241259074E+00 
    9.9833125426966463E-01 
    9.9808143156495277E-01 
    1.0080737196169904E+00 
    1.0078258672286040E+00 
    9.9784835432230001E-01 
    9.9761888737377846E-01 
    1.0075871270494956E+00 
    1.0073986604048950E+00 
    9.9744410609656642E-01 
    9.9736279694721164E-01 
    1.0073090859016902E+00 
    9.9952132664496840E-01 
    9.8651927228030778E-01 
    9.8648596423275325E-01 
    9.9948156252038778E-01 
    9.9940232000767637E-01 
    9.8641957417314285E-01 
    9.8632058833703995E-01 
    9.9928422413424134E-01 
    9.9912818665781489E-01 
    9.8618970966838804E-01 
    9.8602785170430485E-01 
    9.9893539533470888E-01 
    9.9870729730840258E-01 
    9.8583612845768720E-01 
    9.8561584172896266E-01 
    9.9844557872779582E-01 
    9.9815214177808476E-01 
    9.8536846659792898E-01 
    9.8509563562410918E-01 
    9.9782908003411941E-01 
    9.9747865292999860E-01 
    9.8479912220488164E-01 
    9.8448082349471733E-01 
    9.9710326004835248E-01 
    9.9670541583922656E-01 
    9.8414274324758400E-01 
    9.8378697490061884E-01 
    9.9628772527795662E-01 
    9.9585286086713154E-01 
    9.8341568516958056E-01 
    9.8303109837661073E-01 
    9.9540354128448227E-01 
    9.9494251188062977E-01 
    9.8263548168011572E-01 
    9.8223113132667961E-01 
    9.9447252714127465E-01 
    9.9399633514939956E-01 
    9.8182035999676542E-01 
    9.8140548526972304E-01 
    9.9351666401471683E-01 
    9.9303621017882904E-01 
    9.8098881918831971E-01 
    9.8057265885603029E-01 
    9.9255762845255602E-01 
    9.9208352359160223E-01 
    9.8015927794644486E-01 
    9.7975091893327138E-01 
    9.9161644315938446E-01 
    9.9115887134534975E-01 
    9.7934978574186449E-01 
    9.7895803633851020E-01 
    9.9071322327179334E-01 
    9.9028183906380485E-01 
    9.7857777442310601E-01 
    9.7821103866880221E-01 
    9.8986697641699828E-01 
    9.8947079918763214E-01 
    9.7785978636801807E-01 
    9.7752586475992342E-01 
    9.8909535669976278E-01 
    9.8874254189645350E-01 
    9.7721095537826597E-01 
    9.7691646053128356E-01 
    9.8841400229506649E-01 
    9.8811095060171739E-01 
    9.7664327102684778E-01 
    9.7639129729158780E-01 
    9.8783377318590915E-01 
    9.8758122083949484E-01 
    9.7615848596881405E-01 
    9.7593832745369069E-01 
    9.8734851068157503E-01 
    9.8712168018479118E-01 
    9.7571209569039352E-01 
    9.7548907547663588E-01 
    9.8689666161614265E-01 
    9.8673601694233393E-01 
    9.7534123232890280E-01 
    9.7527709902459125E-01 
    9.8666377438537778E-01 
    9.7325037532345937E-01 
    9.5968773691046827E-01 
    9.5966266699815916E-01 
    9.7322181686317799E-01 
    9.7316488749238228E-01 
    9.5961268893263196E-01 
    9.5953813781114727E-01 
    9.7307998305038146E-01 
    9.7296767002142126E-01 
    9.5943948842487192E-01 
    9.5931735250895867E-01 
    9.7282868168634762E-01 
    9.7266391151355891E-01 
    9.5917247411426909E-01 
    9.5900572367384440E-01 
    9.7247440474389757E-01 
    9.7226134868430902E-01 
    9.5881809113359684E-01 
    9.5861067837019898E-01 
    9.7202606204209774E-01 
    9.7176998356897482E-01 
    9.5838469106698210E-01 
    9.5814143019638398E-01 
    9.7149466025464104E-01 
    9.7120173528841081E-01 
    9.5788228324434610E-01 
    9.5760871530108660E-01 
    9.7089293598665927E-01 
    9.7057006186138739E-01 
    9.5732226013133792E-01 
    9.5702451132456989E-01 
    9.7023497298066708E-01 
    9.6988957874548087E-01 
    9.5671711361174128E-01 
    9.5640175441962438E-01 
    9.6953582718001741E-01 
    9.6917569480403287E-01 
    9.5608015571658778E-01 
    9.5575406618435166E-01 
    9.6881117712621856E-01 
    9.6844427976543013E-01 
    9.5542525372729670E-01 
    9.5509549830157958E-01 
    9.6807701016945880E-01 
    9.6771136985319450E-01 
    9.5476658500468414E-01 
    9.5444029729996682E-01 
    9.6734934700843511E-01 
    9.6699290922347181E-01 
    9.5411841013429088E-01 
    9.5380268248257116E-01 
    9.6664399584317962E-01 
    9.6630450909029553E-01 
    9.5349484838990495E-01 
    9.5319660457751820E-01 
    9.6597630220204511E-01 
    9.6566116092241994E-01 
    9.5290959045077139E-01 
    9.5263535148008793E-01 
    9.6536077043005553E-01 
    9.6507665068797388E-01 
    9.5237526690521135E-01 
    9.5213040377279690E-01 
    9.6481002540207239E-01 
    9.6456155729437987E-01 
    9.5190122408795586E-01 
    9.5168698611539926E-01 
    9.6433081423446609E-01 
    9.6411510122068333E-01 
    9.5148434057198861E-01 
    9.5128294908627942E-01 
    9.6390618786669646E-01 
    9.6368092700542363E-01 
    9.5105865793196342E-01 
    9.5084817171715108E-01 
    9.6346223944666276E-01 
    9.6332391308331455E-01 
    9.5071780613431534E-01 
    9.5065984509437473E-01 
    9.6326426402729681E-01 
    9.4581418033961484E-01 
    9.3161985010387882E-01 
    9.3159903691409474E-01 
    9.4579162883155632E-01 
    9.4574666986761202E-01 
    9.3155754238327626E-01 
    9.3149563200458041E-01 
    9.4567959707759475E-01 
    9.4559082289607743E-01 
    9.3141367628285299E-01 
    9.3131214860616984E-01 
    9.4548087629523758E-01 
    9.4535039931031040E-01 
    9.3119162245232701E-01 
    9.3105276786473778E-01 
    9.4520014259827523E-01 
    9.4503096029888600E-01 
    9.3089634739018523E-01 
    9.3072321159432103E-01 
    9.4484380435593462E-01 
    9.4463971841289818E-01 
    9.3053429423469880E-01 
    9.3033060715536853E-01 
    9.4441983137871344E-01 
    9.4418535074975729E-01 
    9.3011323495913145E-01 
    9.2988332950830888E-01 
    9.4393755576717264E-01 
    9.4367779048200140E-01 
    9.2964210430009830E-01 
    9.2939082875709067E-01 
    9.4340745679313531E-01 
    9.4312800751428350E-01 
    9.2913082246650036E-01 
    9.2886344939224197E-01 
    9.4284093951550363E-01 
    9.4254778697169261E-01 
    9.2859011207089059E-01 
    9.2831224578365945E-01 
    9.4225011473354381E-01 
    9.4194951181372732E-01 
    9.2803131266820460E-01 
    9.2774879568957613E-01 
    9.4164758494816303E-01 
    9.4134595214101080E-01 
    9.2746619231628213E-01 
    9.2718500762042400E-01 
    9.4104623601576654E-01 
    9.4075005663886635E-01 
    9.2690674628990910E-01 
    9.2663290260024989E-01 
    9.4045902318069419E-01 
    9.4017472316360462E-01 
    9.2636494651862322E-01 
    9.2610430232807328E-01 
    9.3989870674322740E-01 
    9.3963246067650008E-01 
    9.2585231250188549E-01 
    9.2561017224294007E-01 
    9.3937736078593859E-01 
    9.3913458020431706E-01 
    9.2537880611754808E-01 
    9.2515863170493795E-01 
    9.3890490924900549E-01 
    9.3868839987830699E-01 
    9.2494909554176941E-01 
    9.2474766669187725E-01 
    9.3848362350219749E-01 
    9.3828578055700806E-01 
    9.2454704007091959E-01 
    9.2432556897258067E-01 
    9.3808034298746512E-01 
    9.3785027296583900E-01 
    9.2408271299741374E-01 
    9.2389742049614043E-01 
    9.3765174460738387E-01 
    9.3753245262516127E-01 
    9.2379120998237363E-01 
    9.2373970361758684E-01 
    9.3747699006269125E-01 
    9.1710069754545376E-01 
    9.0225757728916567E-01 
    9.0223832850009433E-01 
    9.1708096261989391E-01 
    9.1704161645386584E-01 
    9.0219994966802997E-01 
    9.0214267766808309E-01 
    9.1698290628099588E-01 
    9.1690517588960407E-01 
    9.0206684178432905E-01 
    9.0197286130972443E-01 
    9.1680886342651668E-01 
    9.1669449899868560E-01 
    9.0186124335837370E-01 
    9.0173258024230740E-01 
    9.1656270171401366E-01 
    9.1641417629002431E-01 
    9.0158754648407868E-01 
    9.0142689552999511E-01 
    9.1624970931713534E-01 
    9.1607016523449936E-01 
    9.0125145620711034E-01 
    9.0106212895572124E-01 
    9.1587648206290162E-01 
    9.1566966693249596E-01 
    9.0085988186334809E-01 
    9.0064574652279183E-01 
    9.1545079143899022E-01 
    9.1522098685827846E-01 
    9.0042081373405369E-01 
    9.0018622906663215E-01 
    9.1498143924531961E-01 
    9.1473338443741314E-01 
    8.9994318829411324E-01 
    8.9969293270619866E-01 
    9.1447810297399335E-01 
    9.1421691493306989E-01 
    8.9943674429283682E-01 
    8.9917594077820295E-01 
    9.1395117466599252E-01 
    9.1368226538286557E-01 
    8.9891187045427545E-01 
    8.9864590671574474E-01 
    9.1341159349249301E-01 
    9.1314058251737862E-01 
    8.9837944211231968E-01 
    8.9811388157605387E-01 
    9.1287066625498792E-01 
    9.1260328057816731E-01 
    8.9785063417821176E-01 
    8.9759110217370630E-01 
    9.1233985272930196E-01 
    9.1208178589144984E-01 
    8.9733666489562514E-01 
    8.9708865265879723E-01 
    9.1183043465667402E-01 
    9.1158706267080747E-01 
    8.9684830106797964E-01 
    8.9661666691701669E-01 
    9.1135276525489761E-01 
    9.1112832368937957E-01 
    8.9639446902500064E-01 
    8.9618177812549360E-01 
    9.1091392559178641E-01 
    9.1070860231784068E-01 
    8.9597736109830028E-01 
    8.9577697899688946E-01 
    9.1050891590893102E-01 
    9.1030492387967610E-01 
    8.9556767992767672E-01 
    8.9531792046314929E-01 