# vtk DataFile Version 2.0
Pressure Field Data 
ASCII 
DATASET UNSTRUCTURED_GRID 

POINTS 1681 double 

    0.0000000000000000E+00     0.0000000000000000E+00     0.0000000000000000E+00 
    1.0000000000000000E+00     0.0000000000000000E+00     0.0000000000000000E+00 
    1.0000000000000000E+00     1.0000000000000000E+00     0.0000000000000000E+00 
    0.0000000000000000E+00     1.0000000000000000E+00     0.0000000000000000E+00 
    5.2499999999875258E-01     0.0000000000000000E+00     0.0000000000000000E+00 
    7.4999999999856765E-02     0.0000000000000000E+00     0.0000000000000000E+00 
    1.2499999999975850E-01     0.0000000000000000E+00     0.0000000000000000E+00 
    1.7499999999962990E-01     0.0000000000000000E+00     0.0000000000000000E+00 
    2.2499999999948389E-01     0.0000000000000000E+00     0.0000000000000000E+00 
    2.7499999999933789E-01     0.0000000000000000E+00     0.0000000000000000E+00 
    3.2499999999919210E-01     0.0000000000000000E+00     0.0000000000000000E+00 
    3.7499999999904610E-01     0.0000000000000000E+00     0.0000000000000000E+00 
    4.2499999999890020E-01     0.0000000000000000E+00     0.0000000000000000E+00 
    4.7499999999875958E-01     0.0000000000000000E+00     0.0000000000000000E+00 
    2.4999999999949701E-02     0.0000000000000000E+00     0.0000000000000000E+00 
    5.7499999999887907E-01     0.0000000000000000E+00     0.0000000000000000E+00 
    6.2499999999901101E-01     0.0000000000000000E+00     0.0000000000000000E+00 
    6.7499999999914273E-01     0.0000000000000000E+00     0.0000000000000000E+00 
    7.2499999999927467E-01     0.0000000000000000E+00     0.0000000000000000E+00 
    7.7499999999940661E-01     0.0000000000000000E+00     0.0000000000000000E+00 
    8.2499999999953844E-01     0.0000000000000000E+00     0.0000000000000000E+00 
    8.7499999999967026E-01     0.0000000000000000E+00     0.0000000000000000E+00 
    9.2499999999980220E-01     0.0000000000000000E+00     0.0000000000000000E+00 
    9.7499999999993414E-01     0.0000000000000000E+00     0.0000000000000000E+00 
    5.4999999999881310E-01     0.0000000000000000E+00     0.0000000000000000E+00 
    9.9999999999814140E-02     0.0000000000000000E+00     0.0000000000000000E+00 
    1.4999999999970290E-01     0.0000000000000000E+00     0.0000000000000000E+00 
    1.9999999999955689E-01     0.0000000000000000E+00     0.0000000000000000E+00 
    2.4999999999941089E-01     0.0000000000000000E+00     0.0000000000000000E+00 
    2.9999999999926502E-01     0.0000000000000000E+00     0.0000000000000000E+00 
    3.4999999999911913E-01     0.0000000000000000E+00     0.0000000000000000E+00 
    3.9999999999897312E-01     0.0000000000000000E+00     0.0000000000000000E+00 
    4.4999999999882723E-01     0.0000000000000000E+00     0.0000000000000000E+00 
    4.9999999999869210E-01     0.0000000000000000E+00     0.0000000000000000E+00 
    4.9999999999899403E-02     0.0000000000000000E+00     0.0000000000000000E+00 
    5.9999999999894504E-01     0.0000000000000000E+00     0.0000000000000000E+00 
    6.4999999999907687E-01     0.0000000000000000E+00     0.0000000000000000E+00 
    6.9999999999920870E-01     0.0000000000000000E+00     0.0000000000000000E+00 
    7.4999999999934064E-01     0.0000000000000000E+00     0.0000000000000000E+00 
    7.9999999999947247E-01     0.0000000000000000E+00     0.0000000000000000E+00 
    8.4999999999960441E-01     0.0000000000000000E+00     0.0000000000000000E+00 
    8.9999999999973623E-01     0.0000000000000000E+00     0.0000000000000000E+00 
    9.4999999999986817E-01     0.0000000000000000E+00     0.0000000000000000E+00 
    1.0000000000000000E+00     5.2499999999875258E-01     0.0000000000000000E+00 
    1.0000000000000000E+00     7.4999999999856765E-02     0.0000000000000000E+00 
    1.0000000000000000E+00     1.2499999999975850E-01     0.0000000000000000E+00 
    1.0000000000000000E+00     1.7499999999962990E-01     0.0000000000000000E+00 
    1.0000000000000000E+00     2.2499999999948389E-01     0.0000000000000000E+00 
    1.0000000000000000E+00     2.7499999999933789E-01     0.0000000000000000E+00 
    1.0000000000000000E+00     3.2499999999919210E-01     0.0000000000000000E+00 
    1.0000000000000000E+00     3.7499999999904610E-01     0.0000000000000000E+00 
    1.0000000000000000E+00     4.2499999999890020E-01     0.0000000000000000E+00 
    1.0000000000000000E+00     4.7499999999875958E-01     0.0000000000000000E+00 
    1.0000000000000000E+00     2.4999999999949701E-02     0.0000000000000000E+00 
    1.0000000000000000E+00     5.7499999999887907E-01     0.0000000000000000E+00 
    1.0000000000000000E+00     6.2499999999901101E-01     0.0000000000000000E+00 
    1.0000000000000000E+00     6.7499999999914273E-01     0.0000000000000000E+00 
    1.0000000000000000E+00     7.2499999999927467E-01     0.0000000000000000E+00 
    1.0000000000000000E+00     7.7499999999940661E-01     0.0000000000000000E+00 
    1.0000000000000000E+00     8.2499999999953844E-01     0.0000000000000000E+00 
    1.0000000000000000E+00     8.7499999999967026E-01     0.0000000000000000E+00 
    1.0000000000000000E+00     9.2499999999980220E-01     0.0000000000000000E+00 
    1.0000000000000000E+00     9.7499999999993414E-01     0.0000000000000000E+00 
    1.0000000000000000E+00     5.4999999999881310E-01     0.0000000000000000E+00 
    1.0000000000000000E+00     9.9999999999814140E-02     0.0000000000000000E+00 
    1.0000000000000000E+00     1.4999999999970290E-01     0.0000000000000000E+00 
    1.0000000000000000E+00     1.9999999999955689E-01     0.0000000000000000E+00 
    1.0000000000000000E+00     2.4999999999941089E-01     0.0000000000000000E+00 
    1.0000000000000000E+00     2.9999999999926502E-01     0.0000000000000000E+00 
    1.0000000000000000E+00     3.4999999999911913E-01     0.0000000000000000E+00 
    1.0000000000000000E+00     3.9999999999897312E-01     0.0000000000000000E+00 
    1.0000000000000000E+00     4.4999999999882723E-01     0.0000000000000000E+00 
    1.0000000000000000E+00     4.9999999999869210E-01     0.0000000000000000E+00 
    1.0000000000000000E+00     4.9999999999899403E-02     0.0000000000000000E+00 
    1.0000000000000000E+00     5.9999999999894504E-01     0.0000000000000000E+00 
    1.0000000000000000E+00     6.4999999999907687E-01     0.0000000000000000E+00 
    1.0000000000000000E+00     6.9999999999920870E-01     0.0000000000000000E+00 
    1.0000000000000000E+00     7.4999999999934064E-01     0.0000000000000000E+00 
    1.0000000000000000E+00     7.9999999999947247E-01     0.0000000000000000E+00 
    1.0000000000000000E+00     8.4999999999960441E-01     0.0000000000000000E+00 
    1.0000000000000000E+00     8.9999999999973623E-01     0.0000000000000000E+00 
    1.0000000000000000E+00     9.4999999999986817E-01     0.0000000000000000E+00 
    4.7500000000196618E-01     1.0000000000000000E+00     0.0000000000000000E+00 
    9.2499999999968763E-01     1.0000000000000000E+00     0.0000000000000000E+00 
    8.7499999999961831E-01     1.0000000000000000E+00     0.0000000000000000E+00 
    8.2499999999982654E-01     1.0000000000000000E+00     0.0000000000000000E+00 
    7.7500000000017355E-01     1.0000000000000000E+00     0.0000000000000000E+00 
    7.2500000000052045E-01     1.0000000000000000E+00     0.0000000000000000E+00 
    6.7500000000086724E-01     1.0000000000000000E+00     0.0000000000000000E+00 
    6.2500000000121403E-01     1.0000000000000000E+00     0.0000000000000000E+00 
    5.7500000000156093E-01     1.0000000000000000E+00     0.0000000000000000E+00 
    5.2500000000189684E-01     1.0000000000000000E+00     0.0000000000000000E+00 
    9.7499999999989595E-01     1.0000000000000000E+00     0.0000000000000000E+00 
    4.2500000000176902E-01     1.0000000000000000E+00     0.0000000000000000E+00 
    3.7500000000156092E-01     1.0000000000000000E+00     0.0000000000000000E+00 
    3.2500000000135282E-01     1.0000000000000000E+00     0.0000000000000000E+00 
    2.7500000000114472E-01     1.0000000000000000E+00     0.0000000000000000E+00 
    2.2500000000093659E-01     1.0000000000000000E+00     0.0000000000000000E+00 
    1.7500000000072849E-01     1.0000000000000000E+00     0.0000000000000000E+00 
    1.2500000000052039E-01     1.0000000000000000E+00     0.0000000000000000E+00 
    7.5000000000312261E-02     1.0000000000000000E+00     0.0000000000000000E+00 
    2.5000000000104109E-02     1.0000000000000000E+00     0.0000000000000000E+00 
    4.5000000000187301E-01     1.0000000000000000E+00     0.0000000000000000E+00 
    8.9999999999958358E-01     1.0000000000000000E+00     0.0000000000000000E+00 
    8.4999999999965303E-01     1.0000000000000000E+00     0.0000000000000000E+00 
    8.0000000000000004E-01     1.0000000000000000E+00     0.0000000000000000E+00 
    7.5000000000034706E-01     1.0000000000000000E+00     0.0000000000000000E+00 
    7.0000000000069384E-01     1.0000000000000000E+00     0.0000000000000000E+00 
    6.5000000000104063E-01     1.0000000000000000E+00     0.0000000000000000E+00 
    6.0000000000138742E-01     1.0000000000000000E+00     0.0000000000000000E+00 
    5.5000000000173432E-01     1.0000000000000000E+00     0.0000000000000000E+00 
    5.0000000000205946E-01     1.0000000000000000E+00     0.0000000000000000E+00 
    9.4999999999979179E-01     1.0000000000000000E+00     0.0000000000000000E+00 
    4.0000000000166491E-01     1.0000000000000000E+00     0.0000000000000000E+00 
    3.5000000000145681E-01     1.0000000000000000E+00     0.0000000000000000E+00 
    3.0000000000124871E-01     1.0000000000000000E+00     0.0000000000000000E+00 
    2.5000000000104061E-01     1.0000000000000000E+00     0.0000000000000000E+00 
    2.0000000000083251E-01     1.0000000000000000E+00     0.0000000000000000E+00 
    1.5000000000062441E-01     1.0000000000000000E+00     0.0000000000000000E+00 
    1.0000000000041630E-01     1.0000000000000000E+00     0.0000000000000000E+00 
[...]
CELL_DATA 1600 
SCALARS Pressure double 1 
LOOKUP_TABLE default 

    9.6441130404757558E-01 
    9.1825640037379064E-01 
    9.1584777277528184E-01 
    9.4873557117018459E-01 
    9.3619397777484703E-01 
    9.1220477758960494E-01 
    9.0800457790549138E-01 
    9.2593022438095463E-01 
    9.1734877147375649E-01 
    9.0362830867567190E-01 
    8.9928589640454271E-01 
    9.1003660241496509E-01 
    9.0370255870290717E-01 
    8.9508798443097459E-01 
    8.9108810000800232E-01 
    8.9813781065611498E-01 
    8.9318996644578352E-01 
    8.8730738707935530E-01 
    8.8374908590582890E-01 
    8.8874592504170691E-01 
    8.8472037389844926E-01 
    8.8040697059881645E-01 
    8.7727022312493586E-01 
    8.8104796756577586E-01 
    8.7767793415175477E-01 
    8.7432620678882045E-01 
    8.7156200466163780E-01 
    8.7457030273094583E-01 
    8.7169322673896510E-01 
    8.6896523568632822E-01 
    8.6652445235562203E-01 
    8.6902105806493357E-01 
    8.6653294211900278E-01 
    8.6422929990790143E-01 
    8.6207054327162180E-01 
    8.6421177922960368E-01 
    8.6204344701129909E-01 
    8.6004002409853297E-01 
    8.5813058409078613E-01 
    8.6001621105043990E-01 
    8.5812027320117734E-01 
    8.5633597528761107E-01 
    8.5465076877200385E-01 
    8.5634742167551836E-01 
    8.5469075733070166E-01 
    8.5307026784282480E-01 
    8.5159042854930833E-01 
    8.5314447765012691E-01 
    8.5170370489221758E-01 
    8.5020778868934188E-01 
    8.4891940537999644E-01 
    8.5036434841319708E-01 
    8.4912299369932298E-01 
    8.4772280078636231E-01 
    8.4661591533970115E-01 
    8.4797681246832501E-01 
    8.4692348951237895E-01 
    8.4559706765775489E-01 
    8.4466492029840068E-01 
    8.4596116286830014E-01 
    8.4508837443503004E-01 
    8.4381845031068703E-01 
    8.4305692303367108E-01 
    8.4430402815371675E-01 
    8.4360735165873202E-01 
    8.4237986598522319E-01 
    8.4178703472967076E-01 
    8.4299785274473105E-01 
    8.4247524794227435E-01 
    8.4127834807843460E-01 
    8.4085373115079243E-01 
    8.4203930218998402E-01 
    8.4168942740238262E-01 
    8.4051271372336400E-01 
    8.4025345623987868E-01 
    8.4142370998413030E-01 
    8.4123713235134578E-01 
    8.4007099063222834E-01 
    8.3996573615593850E-01 
    8.4112971334934761E-01 
    8.9484467780779664E-01 
    8.7813476978128180E-01 
    8.7777063494545049E-01 
    8.9408160171697393E-01 
    8.9267996321689436E-01 
    8.7706662556239645E-01 
    8.7606418941983655E-01 
    8.9079593138150548E-01 
    8.8857494786848257E-01 
    8.7481265264001784E-01 
    8.7336255821380027E-01 
    8.8613764844113008E-01 
    8.8357790639784817E-01 
    8.7176146444661085E-01 
    8.7005172546759024E-01 
    8.8096577630587602E-01 
    8.7835191154279746E-01 
    8.6826964409488516E-01 
    8.6644547569723596E-01 
    8.7577194448038176E-01 
    8.7325025615098073E-01 
    8.6460390147972754E-01 
    8.6276471733384219E-01 
    8.7080299894953783E-01 
    8.6844042149925493E-01 
    8.6094358217704114E-01 
    8.5915273774464251E-01 
    8.6616860910223026E-01 
    8.6399076238236394E-01 
    8.5740165601882823E-01 
    8.5569759752886532E-01 
    8.6190812360926394E-01 
    8.5992064034014193E-01 
    8.5404607922416942E-01 
    8.5245125867585736E-01 
    8.5802743629434297E-01 
    8.5622714238265596E-01 
    8.5091624489757289E-01 
    8.4944334700408730E-01 
    8.5451812717002396E-01 
    8.5289865553499500E-01 
    8.4803427145699339E-01 
    8.4669027751668335E-01 
    8.5136699639177205E-01 
    8.4992149451036658E-01 
    8.4541229915629923E-01 
    8.4420104032959253E-01 
    8.4856061721590215E-01 
    8.4728298366845900E-01 
    8.4305704923626190E-01 
    8.4198077614148847E-01 
    8.4608738220707014E-01 
    8.4497277964760098E-01 
    8.4097261838773596E-01 
    8.4003295547068813E-01 
    8.4393832527475710E-01 
    8.4298335142345682E-01 
    8.3916217640528890E-01 
    8.3836070102757032E-01 
    8.4210737188080809E-01 
    8.4131007870579566E-01 
    8.3762899625179488E-01 
    8.3696758734490784E-01 
    8.4059133716228551E-01 
    8.3995117648841355E-01 
    8.3637706216114571E-01 
    8.3585806059188206E-01 
    8.3938976884293159E-01 
    8.3890737368030988E-01 
    8.3541122594178496E-01 
    8.3503705578554588E-01 
    8.3850418564145113E-01 
    8.3817993441210947E-01 
    8.3473550288969245E-01 
    8.3450501929856979E-01 
    8.3793291729914254E-01 
    8.3775829581565675E-01 
    8.3434092945369853E-01 
    8.3424533541345003E-01 
    8.3765720069335037E-01 
    8.6428505005717648E-01 
    8.5186747932608120E-01 
    8.5172921465343110E-01 
    8.6407268451732100E-01 
    8.6365542455828170E-01 
    8.5145573452425172E-01 
    8.5105324991928022E-01 
    8.6304765867055844E-01 
    8.6226858334289247E-01 
    8.5053050611142245E-01 
    8.4989815943071545E-01 
    8.6134022378880881E-01 
    8.6028570458198772E-01 
    8.4916813030034854E-01 
    8.4835300498542232E-01 
    8.5912791242846576E-01 
    8.5788856597065799E-01 
    8.4746552746892823E-01 
    8.4651819832740982E-01 
    8.5658764210083982E-01 
    8.5524308368789859E-01 
    8.4552298037692819E-01 
    8.4449110057699750E-01 
    8.5387071233357270E-01 
    8.5248427965547302E-01 
    8.4343293269620045E-01 
    8.4235794389868801E-01 
    8.5109560430744835E-01 
    8.4971475556504061E-01 
    8.4127468928524829E-01 
    8.4019084045406656E-01 
    8.4835025604665282E-01 
    8.4700928545906928E-01 
    8.3911323661704529E-01 
    8.3804794927786974E-01 
    8.4569787422574438E-01 
    8.4442108082358991E-01 
    8.3700035370947368E-01 
    8.3597520235692524E-01 
    8.4318315003779087E-01 
    8.4198765154024480E-01 
    8.3497669681517506E-01 
    8.3400855621333558E-01 
    8.4083759953904991E-01 
    8.3973555499657182E-01 
    8.3307408072364564E-01 
    8.3217620955585014E-01 
    8.3868371226851957E-01 
    8.3768397211803025E-01 
    8.3131757324652289E-01 
    8.3050054035157606E-01 
    8.3673800300544754E-01 
    8.3584729241112554E-01 
    8.2972725883353660E-01 
    8.2899969252697681E-01 
    8.3501318975376682E-01 
    8.3423694223435518E-01 
    8.2831965307374855E-01 
    8.2768882762253970E-01 
    8.3351972464663682E-01 
    8.3286266376022189E-01 
    8.2710880228882122E-01 
    8.2658108056266122E-01 
    8.3226685701696557E-01 
    8.3173338311777445E-01 
    8.2610709360471457E-01 
    8.2568819312446995E-01 
    8.3126329613691996E-01 
    8.3085757886214606E-01 
    8.2532560118300990E-01 
    8.2502025284870684E-01 
    8.3051699219639175E-01 
    8.3024167393256820E-01 
    8.2477238769978778E-01 
    8.2458060913154430E-01 
    8.3003019381604248E-01 
    8.2987800494446962E-01 
    8.2444039196391317E-01 
    8.2435659174183951E-01 
    8.2978844294021781E-01 
    8.4020436254435571E-01 
    8.2892532083345360E-01 
    8.2885481440667230E-01 
    8.4010793778281001E-01 
    8.3991657748974524E-01 
    8.2871462766554305E-01 
    8.2850654066429485E-01 
    8.3963341939782210E-01 
    8.3926300575322710E-01 
    8.2823316956706372E-01 
    8.2789787632865752E-01 
    8.3881105976988279E-01 
    8.3828422818841186E-01 
    8.2750465647290417E-01 
    8.2705801603980789E-01 
    8.3768981709497425E-01 
    8.3703554105295885E-01 
    8.2656284629120802E-01 
    8.2602430300211194E-01 
    8.3632929903501518E-01 
    8.3557898470721670E-01 
    8.2544769536549800E-01 
    8.2483838779540930E-01 
    8.3479233379808926E-01 
    8.3397680776456429E-01 
    8.2420171636929129E-01 
    8.2354292039245669E-01 
    8.3313951067396808E-01 
    8.3228713495039031E-01 
    8.2286708862256841E-01 
    8.2217911904440066E-01 
    8.3142593113543284E-01 
    8.3056169684884740E-01 
    8.2148369069415483E-01 
    8.2078524584690438E-01 
    8.2969978050328652E-01 
    8.2884509587509614E-01 
    8.2008798084817047E-01 
    8.1939584394408826E-01 
    8.2800214424998275E-01 
    8.2717504147600274E-01 
    8.1871253860482551E-01 
    8.1804153101205590E-01 
    8.2636754782320654E-01 
    8.2558309904693683E-01 
    8.1738606057065577E-01 
    8.1674915249121827E-01 
    8.2482483747176638E-01 
    8.2409564225567689E-01 
    8.1613363166264075E-01 
    8.1554213718538993E-01 
    8.2339815826405849E-01 
    8.2273482318585112E-01 
    8.1497713705948793E-01 
    8.1444094260758104E-01 
    8.2210789266180051E-01 
    8.2151946325893310E-01 
    8.1393572224281430E-01 
    8.1346351411284201E-01 
    8.2097149307928552E-01 
    8.2046581951844333E-01 
    8.1302623682488273E-01 
    8.1262569648306626E-01 
    8.2000417284126070E-01 
    8.1958818181037763E-01 
    8.1226358554954337E-01 
    8.1194146184583804E-01 
    8.1921936094076742E-01 
    8.1889905211470926E-01 
    8.1166067859442681E-01 
    8.1142219868489707E-01 
    8.1862825531229688E-01 
    8.1840720618601392E-01 
    8.1122615069754689E-01 
    8.1107084843077004E-01 
    8.1823442570839977E-01 
    8.1810523311110939E-01 
    8.1095122840798761E-01 
    8.1087611227891621E-01 
    8.1802631831957817E-01 
    8.1780910970165444E-01 
    8.0671557269433602E-01 
    8.0667394379791468E-01 
    8.1775569908446288E-01 
    8.1764938373254636E-01 
    8.0659102209159339E-01 
    8.0646754536524845E-01 
    8.1749126851135900E-01 
    8.1728298986429704E-01 
    8.0630460907287704E-01 
    8.0610364757114794E-01 
    8.1702667588238076E-01 
    8.1672489292062045E-01 
    8.0586640670977860E-01 
    8.0559491109533099E-01 
    8.1638058423740734E-01 
    8.1599700453453416E-01 
    8.0529142798822406E-01 
    8.0495842944923823E-01 
    8.1557765365937152E-01 
    8.1512621217030579E-01 
    8.0459855414364900E-01 
    8.0421457000081309E-01 
    8.1464648087139024E-01 
    8.1414232582374613E-01 
    8.0380933870016780E-01 
    8.0338578272175143E-01 
    8.1361762978246599E-01 
    8.1307625052037757E-01 
    8.0294685547455891E-01 
    8.0249551481095649E-01 
    8.1252198610117354E-01 
    8.1195854685853464E-01 
    8.0203470005778532E-01 
    8.0156731254856339E-01 
    8.1138953362030264E-01 
    8.1081842157699269E-01 
    8.0109619952702404E-01 
    8.0062414120833847E-01 
    8.1024854911870914E-01 
    8.0968311093986667E-01 
    8.0015384072747608E-01 
    7.9968791666990724E-01 
    8.0912515472366764E-01 
    8.0857758075623254E-01 
    7.9922889786360074E-01 
    7.9877922010792823E-01 
    8.0804314387332532E-01 
    8.0752445720203614E-01 
    7.9834122451943323E-01 
    7.9791715718025269E-01 
    8.0702399721752260E-01 
    8.0654410968196466E-01 
    7.9750916977363995E-01 
    7.9711932086766912E-01 
    8.0608701605594546E-01 
    8.0565481994506749E-01 
    7.9674957743163499E-01 
    7.9640181596527526E-01 
    8.0524951300385494E-01 
    8.0487297929843871E-01 
    7.9607782209421829E-01 
    7.9577928612093174E-01 
    8.0452699597376620E-01 
    8.0421322498528713E-01 
    7.9550778853427540E-01 
    7.9526476105712596E-01 
    8.0393318284644399E-01 
    8.0368815730509602E-01 
    7.9505139024723537E-01 
    7.9486839301965140E-01 
    8.0347900219734325E-01 
    8.0330566539643344E-01 
    7.9471551457461287E-01 
    7.9459042957661341E-01 
    8.0316615622915288E-01 
    8.0305480599090007E-01 
    7.9448672408087073E-01 
    7.9441767313485201E-01 
    8.0298272899601231E-01 
    7.9555241101190222E-01 
    7.8425739240911241E-01 
    7.8423020585527170E-01 
    7.9551915382778371E-01 
    7.9545287880833371E-01 
    7.8417601377622481E-01 
    7.8409520881994588E-01 
    7.9535410996065503E-01 
    7.9522362400077418E-01 
    7.8398837009502764E-01 
    7.8385625868069342E-01 
    7.9506244122778080E-01 
    7.9487181048397826E-01 
    7.8369980886459423E-01 
    7.8352011691573464E-01 
    7.9465319054754990E-01 
    7.9440822908934938E-01 
    7.8331842813351926E-01 
    7.8309612267426254E-01 
    7.9413874005530305E-01 
    7.9384668022881366E-01 
    7.8285470058058859E-01 
    7.8259576639690609E-01 
    7.9353412564335912E-01 
    7.9320324842648726E-01 
    7.8232101371596008E-01 
    7.8203220996037304E-01 
    7.9285629455996676E-01 
    7.9249556294070378E-01 
    7.8173118165855560E-01 
    7.8141980042785542E-01 
    7.9212338602823462E-01 
    7.9174211227166558E-01 
    7.8109996983128460E-01 
    7.8077361322949179E-01 
    7.9135409042520133E-01 
    7.9096165578902322E-01 
    7.8044266270828289E-01 
    7.8010904912499279E-01 
    7.9056711835212246E-01 
    7.9017275276570054E-01 
    7.7977469328487958E-01 
    7.7944149823147801E-01 
    7.8978079003896462E-01 
    7.8939341082201486E-01 
    7.7911134261202164E-01 
    7.7878607505941344E-01 
    7.8901274012069378E-01 
    7.8864084327259720E-01 
    7.7846750951362176E-01 
    7.7815742138369703E-01 
    7.8827972299716409E-01 
    7.8793131730764010E-01 
    7.7785754441875610E-01 
    7.7756956809497468E-01 
    7.8759749802275880E-01 
    7.8728006950568674E-01 
    7.7729513519581273E-01 
    7.7703583896511519E-01 
    7.8698076700039132E-01 
    7.8670125330735929E-01 
    7.7679321849432859E-01 
    7.7656874924198238E-01 
    7.8644311096844211E-01 
    7.8620782326113081E-01 
    7.7636382138882509E-01 
    7.7617968948351057E-01 
    7.8599672836914636E-01 
    7.8581091230376299E-01 
    7.7601735827244800E-01 
    7.7587733321881380E-01 
    7.8565096883886032E-01 
    7.8551647224345766E-01 
    7.7575907797068377E-01 
    7.7565980258197798E-01 
    7.8540481372410242E-01 
    7.8530882897480325E-01 
    7.7557172559458665E-01 
    7.7551083089884398E-01 
    7.8524347168794828E-01 
    7.7278814315796529E-01 
    7.6111597577512768E-01 
    7.6109650681308783E-01 
    7.7276540753634770E-01 
    7.7272008058246766E-01 
    7.6105768929712514E-01 
    7.6099977651360950E-01 
    7.7265247088300093E-01 
    7.7256303021608774E-01 
    7.6092313604818484E-01 
    7.6082824870958643E-01 
    7.7245235135457813E-01 
    7.7232116265768280E-01 
    7.6071570498398644E-01 
    7.6058620016836298E-01 
    7.7217032089256055E-01 
    7.7200080282180084E-01 
    7.6044052859736033E-01 
    7.6027957718416028E-01 
    7.7181369587603554E-01 
    7.7161018816696891E-01 
    7.6010431843883464E-01 
    7.5991580310595863E-01 
    7.7139155806859738E-01 
    7.7115916357525549E-01 
    7.5971515255155186E-01 
    7.5950355102012646E-01 
    7.7091443162656126E-01 
    7.7065884756922132E-01 
    7.5928223787323912E-01 
    7.5905249991083779E-01 
    7.7039394490394897E-01 
    7.7012129544305463E-01 
    7.5881566386584143E-01 
    7.5857308915113586E-01 
    7.6984249998143239E-01 
    7.6955917956151065E-01 
    7.5832616092688931E-01 
    7.5807628354518886E-01 
    7.6927296739194118E-01 
    7.6898550146082956E-01 
    7.5782487441880542E-01 
    7.5757335835155581E-01 
    7.6869841786736737E-01 
    7.6841334488062774E-01 
    7.5732316235917763E-01 
    7.5707571100126558E-01 
    7.6813189772029156E-01 
    7.6785567403939547E-01 
    7.5683242223504521E-01 
    7.5659470378689175E-01 
    7.6758625007007208E-01 
    7.6732517736140993E-01 
    7.5636395000882739E-01 
    7.5614153912421955E-01 
    7.6707397997524962E-01 
    7.6683415186603199E-01 
    7.5592883061897820E-01 
    7.5572716217532521E-01 
    7.6660715384237110E-01 
    7.6639440870950937E-01 
    7.5553784466569518E-01 
    7.5536215163141895E-01 
    7.6619729125935310E-01 
    7.6601710533045719E-01 
    7.5520129503207389E-01 
    7.5505636978324098E-01 
    7.6585503082336281E-01 
    7.6571200569237086E-01 
    7.5492823262200826E-01 
    7.5481724671777883E-01 
    7.6558847292293397E-01 
    7.6548383232975603E-01 
    7.5472272696731502E-01 
    7.5464167116842451E-01 
    7.6539520118111692E-01 
    7.6531447079658421E-01 
    7.5456622067543688E-01 
    7.5451408166671219E-01 
    7.6525826428553456E-01 
    7.4922201327515336E-01 
    7.3709470067481642E-01 
    7.3707925607645375E-01 
    7.4920491193331828E-01 
    7.4917081388988083E-01 
    7.3704846119577450E-01 
    7.3700250831738445E-01 
    7.4911993562492274E-01 
    7.4905258850035050E-01 
    7.3694167178843695E-01 
    7.3686630758754057E-01 
    7.4896917818148001E-01 
    7.4887020215112332E-01 
    7.3677685144414096E-01 
    7.3667381614379612E-01 
    7.4875624620244230E-01 
    7.4862798024324861E-01 
    7.3655778828993024E-01 
    7.3642942464773142E-01 
    7.4848615357438331E-01 
    7.4833158975340386E-01 
    7.3628944814991182E-01 
    7.3613864362719461E-01 
    7.4816518113602015E-01 
    7.4798788317906151E-01 
    7.3597785331911381E-01 
    7.3580797221677419E-01 
    7.4780070858329317E-01 
    7.4760472134965417E-01 
    7.3562994328635367E-01 
    7.3544475261937803E-01 
    7.4740103081762355E-01 
    7.4719078574914544E-01 
    7.3525342455282361E-01 
    7.3505701679874536E-01 
    7.4697516851594836E-01 
    7.4675538944227748E-01 
    7.3485661561934335E-01 
    7.3465333107912578E-01 
    7.4653268134922168E-01 
    7.4630829434113144E-01 
    7.3444829240099641E-01 
    7.3424264344741941E-01 
    7.4608349086907888E-01 
    7.4585954110076003E-01 
    7.3403753834068652E-01 
    7.3383413722643798E-01 
    7.4563771861996497E-01 
    7.4541929646996163E-01 
    7.3363360216922191E-01 
    7.3343709314214445E-01 
    7.4520554353970536E-01 
    7.4499772125977015E-01 
    7.3324576402136898E-01 
    7.3306075838994955E-01 
    7.4479708050254423E-01 
    7.4460485841007285E-01 
    7.3288320472187707E-01 
    7.3271420998472492E-01 
    7.4442227445879439E-01 
    7.4425052407317382E-01 
    7.3255484948188287E-01 
    7.3240614808037141E-01 
    7.4409076579851063E-01 
    7.4394409315483967E-01 
    7.3226904254582648E-01 
    7.3214430468686864E-01 
    7.4381147297795980E-01 
    7.4369361535112488E-01 
    7.3203238653286740E-01 
    7.3193310346324891E-01 
    7.4359070408330918E-01 
    7.4350180463490412E-01 
    7.3184492142044000E-01 
    7.3176321602016381E-01 
    7.4342348247869250E-01 
    7.4334926205573415E-01 
    7.3168473270105994E-01 
    7.3163641901644572E-01 
    7.4329983094037100E-01 
    7.2472820447270203E-01 
    7.1212141648848304E-01 
    7.1210759063753648E-01 
    7.2471382737362466E-01 
    7.2468516108408532E-01 
    7.1208002348782051E-01 
    7.1203888449195374E-01 
    7.2464238287465266E-01 
    7.2458574414581900E-01 
    7.1198441317705985E-01 
    7.1191691845102545E-01 
    7.2451556993400335E-01 
    7.2443225736641259E-01 
    7.1183677722417271E-01 
    7.1174443247638786E-01 
    7.2433627345037122E-01 
    7.2422815241546545E-01 
    7.1164039094038767E-01 
    7.1152522048186073E-01 
    7.2410849270851596E-01 
    7.2397795370099283E-01 
    7.1139954722265830E-01 
    7.1126405243977187E-01 
    7.2383725215331773E-01 
    7.2368715847402099E-01 
    7.1111946926710179E-01 
    7.1096657922423179E-01 
    7.2352849280844223E-01 
    7.2336212098949904E-01 
    7.1080620859471388E-01 
    7.1063922467487561E-01 
    7.2318895038107456E-01 
    7.2300992564236055E-01 
    7.1046653191243392E-01 
    7.1028906795188107E-01 
    7.2282602443876465E-01 
    7.2263825312151053E-01 
    7.1010779960039516E-01 
    7.0992371872346482E-01 
    7.2244764239357351E-01 
    7.2225524297365240E-01 
    7.0973783807287261E-01 
    7.0955118704009668E-01 
    7.2206212126178537E-01 
    7.2186935499868488E-01 
    7.0936480731377660E-01 
    7.0917974839742770E-01 
    7.2167802889357791E-01 
    7.2148923016782263E-01 
    7.0899706290708320E-01 
    7.0881780150630724E-01 
    7.2130404391495173E-01 
    7.2112354809335821E-01 
    7.0864300722384233E-01 
    7.0847370868518089E-01 
    7.2094880780448189E-01 
    7.2078086817388054E-01 
    7.0831091135924273E-01 
    7.0815558502569753E-01 
    7.2062074443432678E-01 
    7.2046940625824230E-01 
    7.0800864379512773E-01 
    7.0787091122403945E-01 
    7.2032775014233796E-01 
    7.2019654730958227E-01 
    7.0774305582870167E-01 
    7.0762546878338262E-01 
    7.2007634293515166E-01 
    7.1996725929477712E-01 
    7.0751802608682890E-01 
    7.0741958734889465E-01 