# vtk DataFile Version 2.0
Pressure Field Data 
ASCII 
DATASET UNSTRUCTURED_GRID 

POINTS 1681 double 

    0.0000000000000000E+00     0.0000000000000000E+00     0.0000000000000000E+00 
    1.0000000000000000E+00     0.0000000000000000E+00     0.0000000000000000E+00 
    1.0000000000000000E+00     1.0000000000000000E+00     0.0000000000000000E+00 
    0.0000000000000000E+00     1.0000000000000000E+00     0.0000000000000000E+00 
    5.2499999999875258E-01     0.0000000000000000E+00     0.0000000000000000E+00 
    7.4999999999856765E-02     0.0000000000000000E+00     0.0000000000000000E+00 
    1.2499999999975850E-01     0.0000000000000000E+00     0.0000000000000000E+00 
    1.7499999999962990E-01     0.0000000000000000E+00     0.0000000000000000E+00 
    2.2499999999948389E-01     0.0000000000000000E+00     0.0000000000000000E+00 
    2.7499999999933789E-01     0.0000000000000000E+00     0.0000000000000000E+00 
    3.2499999999919210E-01     0.0000000000000000E+00     0.0000000000000000E+00 
    3.7499999999904610E-01     0.0000000000000000E+00     0.0000000000000000E+00 
    4.2499999999890020E-01     0.0000000000000000E+00     0.0000000000000000E+00 
    4.7499999999875958E-01     0.0000000000000000E+00     0.0000000000000000E+00 
    2.4999999999949701E-02     0.0000000000000000E+00     0.0000000000000000E+00 
    5.7499999999887907E-01     0.0000000000000000E+00     0.0000000000000000E+00 
    6.2499999999901101E-01     0.0000000000000000E+00     0.0000000000000000E+00 
    6.7499999999914273E-01     0.0000000000000000E+00     0.0000000000000000E+00 
    7.2499999999927467E-01     0.0000000000000000E+00     0.0000000000000000E+00 
    7.7499999999940661E-01     0.0000000000000000E+00     0.0000000000000000E+00 
    8.2499999999953844E-01     0.0000000000000000E+00     0.0000000000000000E+00 
    8.7499999999967026E-01     0.0000000000000000E+00     0.0000000000000000E+00 
    9.2499999999980220E-01     0.0000000000000000E+00     0.0000000000000000E+00 
    9.7499999999993414E-01     0.0000000000000000E+00     0.0000000000000000E+00 
    5.4999999999881310E-01     0.0000000000000000E+00     0.0000000000000000E+00 
    9.9999999999814140E-02     0.0000000000000000E+00     0.0000000000000000E+00 
    1.4999999999970290E-01     0.0000000000000000E+00     0.0000000000000000E+00 
    1.9999999999955689E-01     0.0000000000000000E+00     0.0000000000000000E+00 
    2.4999999999941089E-01     0.0000000000000000E+00     0.0000000000000000E+00 
    2.9999999999926502E-01     0.0000000000000000E+00     0.0000000000000000E+00 
    3.4999999999911913E-01     0.0000000000000000E+00     0.0000000000000000E+00 
    3.9999999999897312E-01     0.0000000000000000E+00     0.0000000000000000E+00 
    4.4999999999882723E-01     0.0000000000000000E+00     0.0000000000000000E+00 
    4.9999999999869210E-01     0.0000000000000000E+00     0.0000000000000000E+00 
    4.9999999999899403E-02     0.0000000000000000E+00     0.0000000000000000E+00 
    5.9999999999894504E-01     0.0000000000000000E+00     0.0000000000000000E+00 
    6.4999999999907687E-01     0.0000000000000000E+00     0.0000000000000000E+00 
    6.9999999999920870E-01     0.0000000000000000E+00     0.0000000000000000E+00 
    7.4999999999934064E-01     0.0000000000000000E+00     0.0000000000000000E+00 
    7.9999999999947247E-01     0.0000000000000000E+00     0.0000000000000000E+00 
    8.4999999999960441E-01     0.0000000000000000E+00     0.0000000000000000E+00 
    8.9999999999973623E-01     0.0000000000000000E+00     0.0000000000000000E+00 
    9.4999999999986817E-01     0.0000000000000000E+00     0.0000000000000000E+00 
    1.0000000000000000E+00     5.2499999999875258E-01     0.0000000000000000E+00 
    1.0000000000000000E+00     7.4999999999856765E-02     0.0000000000000000E+00 
    1.0000000000000000E+00     1.2499999999975850E-01     0.0000000000000000E+00 
    1.0000000000000000E+00     1.7499999999962990E-01     0.0000000000000000E+00 
    1.0000000000000000E+00     2.2499999999948389E-01     0.0000000000000000E+00 
    1.0000000000000000E+00     2.7499999999933789E-01     0.0000000000000000E+00 
    1.0000000000000000E+00     3.2499999999919210E-01     0.0000000000000000E+00 
    1.0000000000000000E+00     3.7499999999904610E-01     0.0000000000000000E+00 
    1.0000000000000000E+00     4.2499999999890020E-01     0.0000000000000000E+00 
    1.0000000000000000E+00     4.7499999999875958E-01     0.0000000000000000E+00 
    1.0000000000000000E+00     2.4999999999949701E-02     0.0000000000000000E+00 
    1.0000000000000000E+00     5.7499999999887907E-01     0.0000000000000000E+00 
    1.0000000000000000E+00     6.2499999999901101E-01     0.0000000000000000E+00 
    1.0000000000000000E+00     6.7499999999914273E-01     0.0000000000000000E+00 
    1.0000000000000000E+00     7.2499999999927467E-01     0.0000000000000000E+00 
    1.0000000000000000E+00     7.7499999999940661E-01     0.0000000000000000E+00 
    1.0000000000000000E+00     8.2499999999953844E-01     0.0000000000000000E+00 
    1.0000000000000000E+00     8.7499999999967026E-01     0.0000000000000000E+00 
    1.0000000000000000E+00     9.2499999999980220E-01     0.0000000000000000E+00 
    1.0000000000000000E+00     9.7499999999993414E-01     0.0000000000000000E+00 
    1.0000000000000000E+00     5.4999999999881310E-01     0.0000000000000000E+00 
    1.0000000000000000E+00     9.9999999999814140E-02     0.0000000000000000E+00 
    1.0000000000000000E+00     1.4999999999970290E-01     0.0000000000000000E+00 
    1.0000000000000000E+00     1.9999999999955689E-01     0.0000000000000000E+00 
    1.0000000000000000E+00     2.4999999999941089E-01     0.0000000000000000E+00 
    1.0000000000000000E+00     2.9999999999926502E-01     0.0000000000000000E+00 
    1.0000000000000000E+00     3.4999999999911913E-01     0.0000000000000000E+00 
    1.0000000000000000E+00     3.9999999999897312E-01     0.0000000000000000E+00 
    1.0000000000000000E+00     4.4999999999882723E-01     0.0000000000000000E+00 
    1.0000000000000000E+00     4.9999999999869210E-01     0.0000000000000000E+00 
    1.0000000000000000E+00     4.9999999999899403E-02     0.0000000000000000E+00 
    1.0000000000000000E+00     5.9999999999894504E-01     0.0000000000000000E+00 
    1.0000000000000000E+00     6.4999999999907687E-01     0.0000000000000000E+00 
    1.0000000000000000E+00     6.9999999999920870E-01     0.0000000000000000E+00 
    1.0000000000000000E+00     7.4999999999934064E-01     0.0000000000000000E+00 
    1.0000000000000000E+00     7.9999999999947247E-01     0.0000000000000000E+00 
    1.0000000000000000E+00     8.4999999999960441E-01     0.0000000000000000E+00 
    1.0000000000000000E+00     8.9999999999973623E-01     0.0000000000000000E+00 
    1.0000000000000000E+00     9.4999999999986817E-01     0.0000000000000000E+00 
    4.7500000000196618E-01     1.0000000000000000E+00     0.0000000000000000E+00 
    9.2499999999968763E-01     1.0000000000000000E+00     0.0000000000000000E+00 
    8.7499999999961831E-01     1.0000000000000000E+00     0.0000000000000000E+00 
    8.2499999999982654E-01     1.0000000000000000E+00     0.0000000000000000E+00 
    7.7500000000017355E-01     1.0000000000000000E+00     0.0000000000000000E+00 
    7.2500000000052045E-01     1.0000000000000000E+00     0.0000000000000000E+00 
    6.7500000000086724E-01     1.0000000000000000E+00     0.0000000000000000E+00 
    6.2500000000121403E-01     1.0000000000000000E+00     0.0000000000000000E+00 
    5.7500000000156093E-01     1.0000000000000000E+00     0.0000000000000000E+00 
    5.2500000000189684E-01     1.0000000000000000E+00     0.0000000000000000E+00 
    9.7499999999989595E-01     1.0000000000000000E+00     0.0000000000000000E+00 
    4.2500000000176902E-01     1.0000000000000000E+00     0.0000000000000000E+00 
    3.7500000000156092E-01     1.0000000000000000E+00     0.0000000000000000E+00 
    3.2500000000135282E-01     1.0000000000000000E+00     0.0000000000000000E+00 
    2.7500000000114472E-01     1.0000000000000000E+00     0.0000000000000000E+00 
    2.2500000000093659E-01     1.0000000000000000E+00     0.0000000000000000E+00 
    1.7500000000072849E-01     1.0000000000000000E+00     0.0000000000000000E+00 
    1.2500000000052039E-01     1.0000000000000000E+00     0.0000000000000000E+00 
    7.5000000000312261E-02     1.0000000000000000E+00     0.0000000000000000E+00 
    2.5000000000104109E-02     1.0000000000000000E+00     0.0000000000000000E+00 
    4.5000000000187301E-01     1.0000000000000000E+00     0.0000000000000000E+00 
    8.9999999999958358E-01     1.0000000000000000E+00     0.0000000000000000E+00 
    8.4999999999965303E-01     1.0000000000000000E+00     0.0000000000000000E+00 
    8.0000000000000004E-01     1.0000000000000000E+00     0.0000000000000000E+00 
    7.5000000000034706E-01     1.0000000000000000E+00     0.0000000000000000E+00 
    7.0000000000069384E-01     1.0000000000000000E+00     0.0000000000000000E+00 
    6.5000000000104063E-01     1.0000000000000000E+00     0.0000000000000000E+00 
    6.0000000000138742E-01     1.0000000000000000E+00     0.0000000000000000E+00 
    5.5000000000173432E-01     1.0000000000000000E+00     0.0000000000000000E+00 
    5.0000000000205946E-01     1.0000000000000000E+00     0.0000000000000000E+00 
    9.4999999999979179E-01     1.0000000000000000E+00     0.0000000000000000E+00 
    4.0000000000166491E-01     1.0000000000000000E+00     0.0000000000000000E+00 
    3.5000000000145681E-01     1.0000000000000000E+00     0.0000000000000000E+00 
    3.0000000000124871E-01     1.0000000000000000E+00     0.0000000000000000E+00 
    2.5000000000104061E-01     1.0000000000000000E+00     0.0000000000000000E+00 
    2.0000000000083251E-01     1.0000000000000000E+00     0.0000000000000000E+00 
    1.5000000000062441E-01     1.0000000000000000E+00     0.0000000000000000E+00 
    1.0000000000041630E-01     1.0000000000000000E+00     0.0000000000000000E+00 
[...]
CELL_DATA 1600 
SCALARS Pressure double 1 
LOOKUP_TABLE default 

    1.3474204721125325E+00 
    1.2992464354143778E+00 
    1.2966880292187355E+00 
    1.3314218442834287E+00 
    1.3184364745150030E+00 
    1.2927741537063380E+00 
    1.2882115831533210E+00 
    1.3076666325055044E+00 
    1.2985289394643829E+00 
    1.2833982062166862E+00 
    1.2785564936049088E+00 
    1.2906181120538993E+00 
    1.2836491040663058E+00 
    1.2738071839691174E+00 
    1.2692122857016288E+00 
    1.2774184093639445E+00 
    1.2717784805980725E+00 
    1.2648002562323974E+00 
    1.2605807456562594E+00 
    1.2666207073444677E+00 
    1.2618639671778564E+00 
    1.2565532067545253E+00 
    1.2527118921644274E+00 
    1.2574468299744141E+00 
    1.2533221806175272E+00 
    1.2490487218800002E+00 
    1.2455548966489756E+00 
    1.2494534605382883E+00 
    1.2458120056705686E+00 
    1.2422217754304512E+00 
    1.2390413240211688E+00 
    1.2423751359903970E+00 
    1.2391247665446299E+00 
    1.2360063168722517E+00 
    1.2331103997493780E+00 
    1.2360463846820222E+00 
    1.2331282874405440E+00 
    1.2303480765542694E+00 
    1.2277146571266693E+00 
    1.2303610057570933E+00 
    1.2277368640690791E+00 
    1.2252061869452584E+00 
    1.2228193700043897E+00 
    1.2252496385983249E+00 
    1.2228942874242943E+00 
    1.2205514901023971E+00 
    1.2184003316042376E+00 
    1.2206667317232103E+00 
    1.2185636709048187E+00 
    1.2163640971044511E+00 
    1.2144413148708868E+00 
    1.2165824146715640E+00 
    1.2147207108445979E+00 
    1.2126307211171510E+00 
    1.2109310857847988E+00 
    1.2129765349312520E+00 
    1.2113477741332086E+00 
    1.2093409118013885E+00 
    1.2078578343685407E+00 
    1.2098316493010794E+00 
    1.2084234753804692E+00 
    1.2064772666071766E+00 
    1.2051892120552312E+00 
    1.2071138131576526E+00 
    1.2058820187130821E+00 
    1.2039709079193908E+00 
    1.2027720053354150E+00 
    1.2046831009130958E+00 
    1.2034808808464281E+00 
    1.2015746096549467E+00 
    1.2005764722546755E+00 
    1.2024609164736395E+00 
    1.2017076114717535E+00 
    1.1998387959163208E+00 
    1.1992918692721519E+00 
    1.2011513102707549E+00 
    1.2007809643712766E+00 
    1.1989277007719883E+00 
    1.1987457494362377E+00 
    1.2005959448317280E+00 
    1.2730499982805465E+00 
    1.2530197801297069E+00 
    1.2525852857222088E+00 
    1.2721947382014347E+00 
    1.2706115730503937E+00 
    1.2517410056059182E+00 
    1.2505313428785494E+00 
    1.2684647853158204E+00 
    1.2659082877029972E+00 
    1.2490096067994967E+00 
    1.2472309739798744E+00 
    1.2630709787288770E+00 
    1.2600545781687178E+00 
    1.2452480087743665E+00 
    1.2431082396953241E+00 
    1.2569364925450353E+00 
    1.2537742079766037E+00 
    1.2408531637709870E+00 
    1.2385181440718664E+00 
    1.2506096712946262E+00 
    1.2474730754807601E+00 
    1.2361328091636308E+00 
    1.2337216933590438E+00 
    1.2443859077858621E+00 
    1.2413633062087366E+00 
    1.2313049559356526E+00 
    1.2288990865612126E+00 
    1.2384158350083563E+00 
    1.2355507996251622E+00 
    1.2265175492031779E+00 
    1.2241713445405407E+00 
    1.2327732087715906E+00 
    1.2300864720675462E+00 
    1.2218694869654114E+00 
    1.2196194008214769E+00 
    1.2274929022573751E+00 
    1.2249940743191245E+00 
    1.2174272444557224E+00 
    1.2152981718487081E+00 
    1.2225910802650648E+00 
    1.2202847078935777E+00 
    1.2132365412154227E+00 
    1.2112460787096455E+00 
    1.2180755636331628E+00 
    1.2159641532715322E+00 
    1.2093300035275449E+00 
    1.2074911182748003E+00 
    1.2139509290836266E+00 
    1.2120363068045745E+00 
    1.2057318650170079E+00 
    1.2040543418200593E+00 
    1.2102206497122965E+00 
    1.2085042071794063E+00 
    1.2024602639162425E+00 
    1.2009508301697012E+00 
    1.2068869752235512E+00 
    1.2053683994903275E+00 
    1.1995263955451245E+00 
    1.1981856798572892E+00 
    1.2039467120168972E+00 
    1.2026173478269746E+00 
    1.1969237996025217E+00 
    1.1957274129020192E+00 
    1.2013691229060595E+00 
    1.2001751602327211E+00 
    1.1945627258643272E+00 
    1.1933627387797088E+00 
    1.1989761152056027E+00 
    1.1977982015180326E+00 
    1.1922241829252682E+00 
    1.1913321925645182E+00 
    1.1968446964706412E+00 
    1.1961343770528461E+00 
    1.1906558482476106E+00 
    1.1901497873279330E+00 
    1.1956049122510093E+00 
    1.1952522655285789E+00 
    1.1898126115141479E+00 
    1.1896440834769990E+00 
    1.1950760406832508E+00 
    1.2353754647203163E+00 
    1.2187307829561480E+00 
    1.2185420295646028E+00 
    1.2351047208589041E+00 
    1.2345709535574163E+00 
    1.2181678215576741E+00 
    1.2176154518305311E+00 
    1.2337901270156362E+00 
    1.2327837170070630E+00 
    1.2168952216921536E+00 
    1.2160197614725861E+00 
    1.2315765968144150E+00 
    1.2301951737898054E+00 
    1.2150033201206543E+00 
    1.2138611002063158E+00 
    1.2286659278378291E+00 
    1.2270143717649966E+00 
    1.2126086841184638E+00 
    1.2112615713334802E+00 
    1.2252643847858065E+00 
    1.2234378441122973E+00 
    1.2098348284003526E+00 
    1.2083428421338680E+00 
    1.2215544772539306E+00 
    1.2196318669586028E+00 
    1.2067991608596416E+00 
    1.2052164067172013E+00 
    1.2176855541379115E+00 
    1.2157291976266718E+00 
    1.2036062425496405E+00 
    1.2019793786994626E+00 
    1.2137747613898879E+00 
    1.2118327092084158E+00 
    1.2003456073421876E+00 
    1.1987138543491858E+00 
    1.2099121939775379E+00 
    1.2080212338422909E+00 
    1.1970922408028781E+00 
    1.1954881480392658E+00 
    1.2061668708422488E+00 
    1.2043553098844200E+00 
    1.1939082813751190E+00 
    1.1923587284030801E+00 
    1.2025920369505707E+00 
    1.2008819155783592E+00 
    1.1908450077497845E+00 
    1.1893721031347493E+00 
    1.1992292597170677E+00 
    1.1976378785244182E+00 
    1.1879444746060448E+00 
    1.1865660318827262E+00 
    1.1961110831149482E+00 
    1.1946516329167935E+00 
    1.1852400380196448E+00 
    1.1839688670430988E+00 
    1.1932615690927897E+00 
    1.1919417987781931E+00 
    1.1827534112092455E+00 
    1.1815915849859069E+00 
    1.1906910553047365E+00 
    1.1895032633194902E+00 
    1.1804745146188507E+00 
    1.1793765478557654E+00 
    1.1883608919583331E+00 
    1.1872178041651220E+00 
    1.1782317087172296E+00 
    1.1770568543690549E+00 
    1.1860222697732907E+00 
    1.1849479981908928E+00 
    1.1760716341136783E+00 
    1.1753139965679791E+00 
    1.1841243257433278E+00 
    1.1834849746216545E+00 
    1.1747137622886763E+00 
    1.1742635357041880E+00 
    1.1830058121170701E+00 
    1.1826864797333498E+00 
    1.1739633624558838E+00 
    1.1738132699811170E+00 
    1.1825268458992966E+00 
    1.2024355783634211E+00 
    1.1861375855964109E+00 
    1.1860264471308442E+00 
    1.2022943137362907E+00 
    1.2020135274502983E+00 
    1.1858052424451477E+00 
    1.1854764449930157E+00 
    1.2015971987744822E+00 
    1.2010510535503933E+00 
    1.1850436265491879E+00 
    1.1845113451433500E+00 
    1.2003823095040791E+00 
    1.1995993841602053E+00 
    1.1838850107890513E+00 
    1.1831707381588406E+00 
    1.1987115924439169E+00 
    1.1977288561073822E+00 
    1.1823751956260606E+00 
    1.1815054584146298E+00 
    1.1966614402619142E+00 
    1.1955197259459300E+00 
    1.1805688716700811E+00 
    1.1795729273599709E+00 
    1.1943140224422262E+00 
    1.1930544191771686E+00 
    1.1785251571977879E+00 
    1.1774330423561212E+00 
    1.1917506744259430E+00 
    1.1904121365078837E+00 
    1.1763039396223196E+00 
    1.1751450228361660E+00 
    1.1890476924302660E+00 
    1.1876657387785430E+00 
    1.1739632378862779E+00 
    1.1727652691634349E+00 
    1.1862741698373656E+00 
    1.1848803782775843E+00 
    1.1715575150943069E+00 
    1.1703460701101633E+00 
    1.1834912641056381E+00 
    1.1821132477964496E+00 
    1.1691367100095735E+00 
    1.1679348769411140E+00 
    1.1807522834415092E+00 
    1.1794138670564300E+00 
    1.1667456587658882E+00 
    1.1655737544901872E+00 
    1.1781030333480196E+00 
    1.1768243299604582E+00 
    1.1644234105598448E+00 
    1.1632982957185523E+00 
    1.1755817481231430E+00 
    1.1743785625638021E+00 
    1.1622012361305754E+00 
    1.1611336066161835E+00 
    1.1732169605450224E+00 
    1.1720971362929744E+00 
    1.1600938439128874E+00 
    1.1590736852022459E+00 
    1.1710150019778405E+00 
    1.1699562687060696E+00 
    1.1580479219725814E+00 
    1.1569477176343719E+00 
    1.1688797852429453E+00 
    1.1677169873430044E+00 
    1.1557744173565980E+00 
    1.1547531748614515E+00 
    1.1665975066288790E+00 
    1.1657080232632933E+00 
    1.1539510236923605E+00 
    1.1532937713512685E+00 
    1.1650047234880656E+00 
    1.1644425377007168E+00 
    1.1527675732254359E+00 
    1.1523726833064929E+00 
    1.1640207259294681E+00 
    1.1637394374430454E+00 
    1.1521093088429488E+00 
    1.1519775873727245E+00 
    1.1635987693153484E+00 
    1.1696275118595982E+00 
    1.1527729870416847E+00 
    1.1526963210668171E+00 
    1.1695366544801282E+00 
    1.1693556753367871E+00 
    1.1525435331393816E+00 
    1.1523158625817471E+00 
    1.1690862659331323E+00 
    1.1687308594624717E+00 
    1.1520150800642619E+00 
    1.1516434541028278E+00 
    1.1682925735407093E+00 
    1.1677751410486534E+00 
    1.1512037114082534E+00 
    1.1506989913655090E+00 
    1.1671828318236632E+00 
    1.1665203693096953E+00 
    1.1501327965521904E+00 
    1.1495089411200496E+00 
    1.1657928458740865E+00 
    1.1650056399095623E+00 
    1.1488314986577619E+00 
    1.1481047509020978E+00 
    1.1641643371731096E+00 
    1.1632746581276825E+00 
    1.1473331383807783E+00 
    1.1465212137658722E+00 
    1.1623423923952632E+00 
    1.1613733408315103E+00 
    1.1456735984019155E+00 
    1.1447949421508108E+00 
    1.1603732652052898E+00 
    1.1593478450042209E+00 
    1.1438898863567333E+00 
    1.1429630293525994E+00 
    1.1583026404646073E+00 
    1.1572430604921535E+00 
    1.1420188934508828E+00 
    1.1410618916742981E+00 
    1.1561743336141916E+00 
    1.1551014793332659E+00 
    1.1400962913481112E+00 
    1.1391261695549020E+00 
    1.1540292759362107E+00 
    1.1529622182838080E+00 
    1.1381553509854654E+00 
    1.1371873085608777E+00 
    1.1519044537190657E+00 
    1.1508596714700094E+00 
    1.1362249822293407E+00 
    1.1352704086694576E+00 
    1.1498308882330148E+00 
    1.1488199871995306E+00 
    1.1343238991353035E+00 
    1.1333821036475247E+00 
    1.1478266478541814E+00 
    1.1468457334660671E+00 
    1.1324331226901168E+00 
    1.1314422754520512E+00 
    1.1458604657406379E+00 
    1.1448219895151173E+00 
    1.1303312149288691E+00 
    1.1291440377061244E+00 
    1.1436665734580556E+00 
    1.1425379957077171E+00 
    1.1281215495564232E+00 
    1.1272998361714635E+00 
    1.1416266788534688E+00 
    1.1408880196443607E+00 
    1.1266050620930035E+00 
    1.1260257938133318E+00 
    1.1402725012835433E+00 
    1.1397795266812609E+00 
    1.1255621396315767E+00 
    1.1252142416339781E+00 
    1.1394094861295292E+00 
    1.1391626503096559E+00 
    1.1249822293941463E+00 
    1.1248661982669499E+00 
    1.1390391907280042E+00 
    1.1354864693955669E+00 
    1.1177080066577538E+00 
    1.1176488481612474E+00 
    1.1354199658393622E+00 
    1.1352873808612323E+00 
    1.1175308673773745E+00 
    1.1173548202955776E+00 
    1.1350896673163069E+00 
    1.1348281774253346E+00 
    1.1171217748948998E+00 
    1.1168330952878287E+00 
    1.1345046407591883E+00 
    1.1341211391287100E+00 
    1.1164904242807363E+00 
    1.1160956633377026E+00 
    1.1336800776817992E+00 
    1.1331841531703801E+00 
    1.1156509504987688E+00 
    1.1151586367693986E+00 
    1.1326363203310394E+00 
    1.1320397572206644E+00 
    1.1146212614096094E+00 
    1.1140415264628505E+00 
    1.1313978302285439E+00 
    1.1307140593442369E+00 
    1.1134222707597634E+00 
    1.1127664434951485E+00 
    1.1299920840919455E+00 
    1.1292356303441016E+00 
    1.1120770772926263E+00 
    1.1113572604149227E+00 
    1.1284484779899546E+00 
    1.1276344291350202E+00 
    1.1106101073965162E+00 
    1.1098387267531158E+00 
    1.1267972760939633E+00 
    1.1259407678126141E+00 
    1.1090461833121050E+00 
    1.1082354506605230E+00 
    1.1250685723039735E+00 
    1.1241842306964980E+00 
    1.1074093450408069E+00 
    1.1065704231796201E+00 
    1.1232910944079024E+00 
    1.1223922278080312E+00 
    1.1057208068942308E+00 
    1.1048618535256740E+00 
    1.1214902378113545E+00 
    1.1205869415100487E+00 
    1.1039934875077348E+00 
    1.1031127557626519E+00 
    1.1196826621445766E+00 
    1.1187746414318742E+00 
    1.1022104235465469E+00 
    1.1012616901860386E+00 
    1.1178531698219361E+00 
    1.1168907365470409E+00 
    1.1001994400036768E+00 
    1.0989798068284413E+00 
    1.1158140187170831E+00 
    1.1146042672508354E+00 
    1.0977849357663310E+00 
    1.0968022807534323E+00 
    1.1134831878390608E+00 
    1.1125790745985240E+00 
    1.0959815816032379E+00 
    1.0952644927467898E+00 
    1.1118192659017980E+00 
    1.1111671077972411E+00 
    1.0946491967894363E+00 
    1.0941360188178391E+00 
    1.1106229453639447E+00 
    1.1101871907403187E+00 
    1.0937252074083799E+00 
    1.0934169477767655E+00 
    1.1098601395607604E+00 
    1.1096419973522800E+00 
    1.0932113714067986E+00 
    1.0931085626204564E+00 
    1.1095328945341609E+00 
    1.0993951440014929E+00 
    1.0805164708578143E+00 
    1.0804662688065001E+00 
    1.0993412611779836E+00 
    1.0992337649157649E+00 
    1.0803660766419068E+00 
    1.0802163865097016E+00 
    1.0990732650406656E+00 
    1.0988606227470006E+00 
    1.0800178980160515E+00 
    1.0797715085372419E+00 
    1.0985969384240961E+00 
    1.0982835384486898E+00 
    1.0794783023241916E+00 
    1.0791395377934927E+00 
    1.0979219599889776E+00 
    1.0975139342155029E+00 
    1.0787566333855765E+00 
    1.0783311521649654E+00 
    1.0970613682181320E+00 
    1.0965663258164340E+00 
    1.0778647851661172E+00 
    1.0773593333319100E+00 
    1.0960310073511470E+00 
    1.0954577284263285E+00 
    1.0768166877035092E+00 
    1.0762388072578544E+00 
    1.0948488974060617E+00 
    1.0942069912156998E+00 
    1.0756276933375122E+00 
    1.0749853587503284E+00 
    1.0935345285862366E+00 
    1.0928340392155154E+00 
    1.0743137881728673E+00 
    1.0736148840796900E+00 
    1.0921080261551701E+00 
    1.0913589164015904E+00 
    1.0728903872621940E+00 
    1.0721417509701869E+00 
    1.0905889902493964E+00 
    1.0898002709729813E+00 
    1.0713699278269866E+00 
    1.0705749842100800E+00 
    1.0889943370966391E+00 
    1.0881719776431809E+00 
    1.0697553586847024E+00 
    1.0689063161099925E+00 
    1.0873325151124806E+00 
    1.0864723810443595E+00 
    1.0680163758948711E+00 
    1.0670575018689514E+00 
    1.0855818269100057E+00 
    1.0846360052238548E+00 
    1.0659599281184045E+00 
    1.0646831699716295E+00 
    1.0835694184257012E+00 
    1.0823336134807671E+00 
    1.0633858905840439E+00 
    1.0622733519296186E+00 
    1.0810843648800443E+00 
    1.0800289159487515E+00 
    1.0613404919966396E+00 
    1.0605176120401696E+00 
    1.0791466184679050E+00 
    1.0783705723665442E+00 
    1.0597869234852744E+00 
    1.0591481210771683E+00 
    1.0776917907604517E+00 
    1.0771101059240513E+00 
    1.0586009594318186E+00 
    1.0581452452690912E+00 
    1.0766254266503341E+00 
    1.0762377062979893E+00 
    1.0577808308810683E+00 
    1.0575076072711533E+00 
    1.0759469233762964E+00 
    1.0757530696250708E+00 
    1.0573254981453042E+00 
    1.0572344552529971E+00 
    1.0756561428436493E+00 
    1.0610469868540418E+00 
    1.0409640916600813E+00 
    1.0409175362438865E+00 
    1.0609991699281971E+00 
    1.0609036927318354E+00 
    1.0408245210186056E+00 
    1.0406853285143494E+00 
    1.0607609430347487E+00 
    1.0605714828347961E+00 
    1.0405003889532296E+00 
    1.0402702739658973E+00 
    1.0603360405540794E+00 
    1.0600555011303081E+00 
    1.0399956862773754E+00 
    1.0396774464484673E+00 
    1.0597308940407486E+00 
    1.0593633797138022E+00 
    1.0393164772562966E+00 
    1.0389137856187434E+00 
    1.0589542343978313E+00 
    1.0585048332567826E+00 
    1.0384704413923966E+00 
    1.0379875515965051E+00 
    1.0580166311377193E+00 
    1.0574911400534186E+00 
    1.0374662276129862E+00 
    1.0369075418494491E+00 
    1.0569299019351650E+00 
    1.0563344543354338E+00 
    1.0363124685048026E+00 
    1.0356817980806663E+00 
    1.0557062847241854E+00 
    1.0550467654903644E+00 
    1.0350160060686620E+00 
    1.0343150427572037E+00 
    1.0543570563839177E+00 
    1.0536379491545504E+00 
    1.0335779782450274E+00 
    1.0328023578665289E+00 
    1.0528896045955900E+00 
    1.0521110830658131E+00 
    1.0319829563977023E+00 
    1.0311090290802427E+00 
    1.0512994398211404E+00 
    1.0504478413336005E+00 
    1.0301575008302255E+00 
    1.0290731767922769E+00 
    1.0495410215885126E+00 
    1.0485425806376307E+00 
    1.0278013169071440E+00 
    1.0263848487033889E+00 
    1.0473796904339234E+00 
    1.0460356909108290E+00 
    1.0250310832758334E+00 
    1.0238933890246456E+00 
    1.0446975967018381E+00 
    1.0435548006778825E+00 
    1.0229239445465899E+00 
    1.0220531568514970E+00 
    1.0425907151350642E+00 
    1.0417353552759601E+00 
    1.0212629542623368E+00 
    1.0205528327334938E+00 
    1.0409667331315600E+00 
    1.0402844131361046E+00 
    1.0199223965304329E+00 
    1.0193713292868538E+00 
    1.0396880437662985E+00 
    1.0391773381133484E+00 
    1.0188993799909198E+00 
    1.0185063518641861E+00 
    1.0387520661407927E+00 
    1.0384120476830667E+00 
    1.0181920934848923E+00 
    1.0179564917549189E+00 
    1.0381571463253578E+00 
    1.0379872643301133E+00 
    1.0177994664666161E+00 
    1.0177209663227449E+00 
    1.0379023387396995E+00 
    1.0202429846911378E+00 
    9.9884955692823441E-01 
    9.9880221114954071E-01 
    1.0201966214929750E+00 
    1.0201039113063808E+00 
    9.9870741375690175E-01 
    9.9856514196905721E-01 
    1.0199650112133205E+00 
    1.0197802030255183E+00 
    9.9837547514036329E-01 
    9.9813858784660459E-01 
    1.0195498879162288E+00 
    1.0192745732873658E+00 
    9.9785472785905005E-01 
    9.9752418493606665E-01 
    1.0189548546720708E+00 
    1.0185913933734230E+00 
    9.9714725112035973E-01 
    9.9672417035470739E-01 
    1.0181848893074690E+00 
    1.0177360473205497E+00 
    9.9625507185979245E-01 
    9.9573987685143439E-01 
    1.0172455333556290E+00 
    1.0167139142530512E+00 
    9.9517816233700096E-01 
    9.9456895780082888E-01 
    1.0161415722443199E+00 
    1.0155285802430627E+00 
    9.9391042546679842E-01 
    9.9319929963610565E-01 
    1.0148745095774576E+00 
    1.0141781131621408E+00 
    9.9242986067632066E-01 
    9.9159208495177231E-01 
    1.0134367818985426E+00 
    1.0126455292881693E+00 
    9.9066674559034507E-01 
    9.8961192918949159E-01 
    1.0117948804517769E+00 
    1.0108660897078037E+00 
    9.8837666942071123E-01 
    9.8696909670362909E-01 
    1.0098163339122725E+00 
    1.0085857341356994E+00 
    9.8548302177996727E-01 
    9.8408442836211396E-01 
    1.0071779376074286E+00 
    1.0057242307768159E+00 
    9.8288656163183663E-01 
    9.8187250672322657E-01 
    1.0044116302511659E+00 
    1.0033162211172362E+00 
    9.8096696728789523E-01 
    9.8012712168079230E-01 
    1.0023685552534534E+00 
    1.0015027009962580E+00 
    9.7935128360461299E-01 
    9.7863951446682074E-01 
    1.0007098685334672E+00 
    9.9998974264553786E-01 
    9.7799190782884071E-01 
    9.7740857721892083E-01 
    9.9934207907759742E-01 
    9.9876669032993493E-01 
    9.7688964664268918E-01 
    9.7643524292983386E-01 
    9.9826343533094641E-01 
    9.9783221017647716E-01 
    9.7604548945045755E-01 
    9.7572050092554063E-01 