# vtk DataFile Version 2.0
Pressure Field Data 
ASCII 
DATASET UNSTRUCTURED_GRID 

POINTS 1681 double 

    0.0000000000000000E+00     0.0000000000000000E+00     0.0000000000000000E+00 
    1.0000000000000000E+00     0.0000000000000000E+00     0.0000000000000000E+00 
    1.0000000000000000E+00     1.0000000000000000E+00     0.0000000000000000E+00 
    0.0000000000000000E+00     1.0000000000000000E+00     0.0000000000000000E+00 
    5.2499999999875258E-01     0.0000000000000000E+00     0.0000000000000000E+00 
    7.4999999999856765E-02     0.0000000000000000E+00     0.0000000000000000E+00 
    1.2499999999975850E-01     0.0000000000000000E+00     0.0000000000000000E+00 
    1.7499999999962990E-01     0.0000000000000000E+00     0.0000000000000000E+00 
    2.2499999999948389E-01     0.0000000000000000E+00     0.0000000000000000E+00 
    2.7499999999933789E-01     0.0000000000000000E+00     0.0000000000000000E+00 
    3.2499999999919210E-01     0.0000000000000000E+00     0.0000000000000000E+00 
    3.7499999999904610E-01     0.0000000000000000E+00     0.0000000000000000E+00 
    4.2499999999890020E-01     0.0000000000000000E+00     0.0000000000000000E+00 
    4.7499999999875958E-01     0.0000000000000000E+00     0.0000000000000000E+00 
    2.4999999999949701E-02     0.0000000000000000E+00     0.0000000000000000E+00 
    5.7499999999887907E-01     0.0000000000000000E+00     0.0000000000000000E+00 
    6.2499999999901101E-01     0.0000000000000000E+00     0.0000000000000000E+00 
    6.7499999999914273E-01     0.0000000000000000E+00     0.0000000000000000E+00 
    7.2499999999927467E-01     0.0000000000000000E+00     0.0000000000000000E+00 
    7.7499999999940661E-01     0.0000000000000000E+00     0.0000000000000000E+00 
    8.2499999999953844E-01     0.0000000000000000E+00     0.0000000000000000E+00 
    8.7499999999967026E-01     0.0000000000000000E+00     0.0000000000000000E+00 
    9.2499999999980220E-01     0.0000000000000000E+00     0.0000000000000000E+00 
    9.7499999999993414E-01     0.0000000000000000E+00     0.0000000000000000E+00 
    5.4999999999881310E-01     0.0000000000000000E+00     0.0000000000000000E+00 
    9.9999999999814140E-02     0.0000000000000000E+00     0.0000000000000000E+00 
    1.4999999999970290E-01     0.0000000000000000E+00     0.0000000000000000E+00 
    1.9999999999955689E-01     0.0000000000000000E+00     0.0000000000000000E+00 
    2.4999999999941089E-01     0.0000000000000000E+00     0.0000000000000000E+00 
    2.9999999999926502E-01     0.0000000000000000E+00     0.0000000000000000E+00 
    3.4999999999911913E-01     0.0000000000000000E+00     0.0000000000000000E+00 
    3.9999999999897312E-01     0.0000000000000000E+00     0.0000000000000000E+00 
    4.4999999999882723E-01     0.0000000000000000E+00     0.0000000000000000E+00 
    4.9999999999869210E-01     0.0000000000000000E+00     0.0000000000000000E+00 
    4.9999999999899403E-02     0.0000000000000000E+00     0.0000000000000000E+00 
    5.9999999999894504E-01     0.0000000000000000E+00     0.0000000000000000E+00 
    6.4999999999907687E-01     0.0000000000000000E+00     0.0000000000000000E+00 
    6.9999999999920870E-01     0.0000000000000000E+00     0.0000000000000000E+00 
    7.4999999999934064E-01     0.0000000000000000E+00     0.0000000000000000E+00 
    7.9999999999947247E-01     0.0000000000000000E+00     0.0000000000000000E+00 
    8.4999999999960441E-01     0.0000000000000000E+00     0.0000000000000000E+00 
    8.9999999999973623E-01     0.0000000000000000E+00     0.0000000000000000E+00 
    9.4999999999986817E-01     0.0000000000000000E+00     0.0000000000000000E+00 
    1.0000000000000000E+00     5.2499999999875258E-01     0.0000000000000000E+00 
    1.0000000000000000E+00     7.4999999999856765E-02     0.0000000000000000E+00 
    1.0000000000000000E+00     1.2499999999975850E-01     0.0000000000000000E+00 
    1.0000000000000000E+00     1.7499999999962990E-01     0.0000000000000000E+00 
    1.0000000000000000E+00     2.2499999999948389E-01     0.0000000000000000E+00 
    1.0000000000000000E+00     2.7499999999933789E-01     0.0000000000000000E+00 
    1.0000000000000000E+00     3.2499999999919210E-01     0.0000000000000000E+00 
    1.0000000000000000E+00     3.7499999999904610E-01     0.0000000000000000E+00 
    1.0000000000000000E+00     4.2499999999890020E-01     0.0000000000000000E+00 
    1.0000000000000000E+00     4.7499999999875958E-01     0.0000000000000000E+00 
    1.0000000000000000E+00     2.4999999999949701E-02     0.0000000000000000E+00 
    1.0000000000000000E+00     5.7499999999887907E-01     0.0000000000000000E+00 
    1.0000000000000000E+00     6.2499999999901101E-01     0.0000000000000000E+00 
    1.0000000000000000E+00     6.7499999999914273E-01     0.0000000000000000E+00 
    1.0000000000000000E+00     7.2499999999927467E-01     0.0000000000000000E+00 
    1.0000000000000000E+00     7.7499999999940661E-01     0.0000000000000000E+00 
    1.0000000000000000E+00     8.2499999999953844E-01     0.0000000000000000E+00 
    1.0000000000000000E+00     8.7499999999967026E-01     0.0000000000000000E+00 
    1.0000000000000000E+00     9.2499999999980220E-01     0.0000000000000000E+00 
    1.0000000000000000E+00     9.7499999999993414E-01     0.0000000000000000E+00 
    1.0000000000000000E+00     5.4999999999881310E-01     0.0000000000000000E+00 
    1.0000000000000000E+00     9.9999999999814140E-02     0.0000000000000000E+00 
    1.0000000000000000E+00     1.4999999999970290E-01     0.0000000000000000E+00 
    1.0000000000000000E+00     1.9999999999955689E-01     0.0000000000000000E+00 
    1.0000000000000000E+00     2.4999999999941089E-01     0.0000000000000000E+00 
    1.0000000000000000E+00     2.9999999999926502E-01     0.0000000000000000E+00 
    1.0000000000000000E+00     3.4999999999911913E-01     0.0000000000000000E+00 
    1.0000000000000000E+00     3.9999999999897312E-01     0.0000000000000000E+00 
    1.0000000000000000E+00     4.4999999999882723E-01     0.0000000000000000E+00 
    1.0000000000000000E+00     4.9999999999869210E-01     0.0000000000000000E+00 
    1.0000000000000000E+00     4.9999999999899403E-02     0.0000000000000000E+00 
    1.0000000000000000E+00     5.9999999999894504E-01     0.0000000000000000E+00 
    1.0000000000000000E+00     6.4999999999907687E-01     0.0000000000000000E+00 
    1.0000000000000000E+00     6.9999999999920870E-01     0.0000000000000000E+00 
    1.0000000000000000E+00     7.4999999999934064E-01     0.0000000000000000E+00 
    1.0000000000000000E+00     7.9999999999947247E-01     0.0000000000000000E+00 
    1.0000000000000000E+00     8.4999999999960441E-01     0.0000000000000000E+00 
    1.0000000000000000E+00     8.9999999999973623E-01     0.0000000000000000E+00 
    1.0000000000000000E+00     9.4999999999986817E-01     0.0000000000000000E+00 
    4.7500000000196618E-01     1.0000000000000000E+00     0.0000000000000000E+00 
    9.2499999999968763E-01     1.0000000000000000E+00     0.0000000000000000E+00 
    8.7499999999961831E-01     1.0000000000000000E+00     0.0000000000000000E+00 
    8.2499999999982654E-01     1.0000000000000000E+00     0.0000000000000000E+00 
    7.7500000000017355E-01     1.0000000000000000E+00     0.0000000000000000E+00 
    7.2500000000052045E-01     1.0000000000000000E+00     0.0000000000000000E+00 
    6.7500000000086724E-01     1.0000000000000000E+00     0.0000000000000000E+00 
    6.2500000000121403E-01     1.0000000000000000E+00     0.0000000000000000E+00 
    5.7500000000156093E-01     1.0000000000000000E+00     0.0000000000000000E+00 
    5.2500000000189684E-01     1.0000000000000000E+00     0.0000000000000000E+00 
    9.7499999999989595E-01     1.0000000000000000E+00     0.0000000000000000E+00 
    4.2500000000176902E-01     1.0000000000000000E+00     0.0000000000000000E+00 
    3.7500000000156092E-01     1.0000000000000000E+00     0.0000000000000000E+00 
    3.2500000000135282E-01     1.0000000000000000E+00     0.0000000000000000E+00 
    2.7500000000114472E-01     1.0000000000000000E+00     0.0000000000000000E+00 
    2.2500000000093659E-01     1.0000000000000000E+00     0.0000000000000000E+00 
    1.7500000000072849E-01     1.0000000000000000E+00     0.0000000000000000E+00 
    1.2500000000052039E-01     1.0000000000000000E+00     0.0000000000000000E+00 
    7.5000000000312261E-02     1.0000000000000000E+00     0.0000000000000000E+00 
    2.5000000000104109E-02     1.0000000000000000E+00     0.0000000000000000E+00 
    4.5000000000187301E-01     1.0000000000000000E+00     0.0000000000000000E+00 
    8.9999999999958358E-01     1.0000000000000000E+00     0.0000000000000000E+00 
    8.4999999999965303E-01     1.0000000000000000E+00     0.0000000000000000E+00 
    8.0000000000000004E-01     1.0000000000000000E+00     0.0000000000000000E+00 
    7.5000000000034706E-01     1.0000000000000000E+00     0.0000000000000000E+00 
    7.0000000000069384E-01     1.0000000000000000E+00     0.0000000000000000E+00 
    6.5000000000104063E-01     1.0000000000000000E+00     0.0000000000000000E+00 
    6.0000000000138742E-01     1.0000000000000000E+00     0.0000000000000000E+00 
    5.5000000000173432E-01     1.0000000000000000E+00     0.0000000000000000E+00 
    5.0000000000205946E-01     1.0000000000000000E+00     0.0000000000000000E+00 
    9.4999999999979179E-01     1.0000000000000000E+00     0.0000000000000000E+00 
    4.0000000000166491E-01     1.0000000000000000E+00     0.0000000000000000E+00 
    3.5000000000145681E-01     1.0000000000000000E+00     0.0000000000000000E+00 
    3.0000000000124871E-01     1.0000000000000000E+00     0.0000000000000000E+00 
    2.5000000000104061E-01     1.0000000000000000E+00     0.0000000000000000E+00 
    2.0000000000083251E-01     1.0000000000000000E+00     0.0000000000000000E+00 
    1.5000000000062441E-01     1.0000000000000000E+00     0.0000000000000000E+00 
    1.0000000000041630E-01     1.0000000000000000E+00     0.0000000000000000E+00 
[...]
CELL_DATA 1600 
SCALARS Pressure double 1 
LOOKUP_TABLE default 

    1.5579420519809239E+00 
    1.5001243839259955E+00 
    1.4967056237887071E+00 
    1.5403577572363081E+00 
    1.5248124629105007E+00 
    1.4911601343321994E+00 
    1.4843924617591047E+00 
    1.5110193613283538E+00 
    1.4985177042586035E+00 
    1.4769072836516239E+00 
    1.4690095943862951E+00 
    1.4869747298881832E+00 
    1.4761539213827237E+00 
    1.4608847053557370E+00 
    1.4526445852536425E+00 
    1.4658858360178444E+00 
    1.4560470450839742E+00 
    1.4443553940977343E+00 
    1.4360537923473979E+00 
    1.4465453706454428E+00 
    1.4373092840520263E+00 
    1.4277561103757213E+00 
    1.4194623068312509E+00 
    1.4282796542449674E+00 
    1.4194020702937316E+00 
    1.4111546932595704E+00 
    1.4027877272294798E+00 
    1.4106171516317474E+00 
    1.4018429370119447E+00 
    1.3942541118479757E+00 
    1.3852990259766165E+00 
    1.3929298283125411E+00 
    1.3835310641657512E+00 
    1.3757966682612381E+00 
    1.3663814276019897E+00 
    1.3734617951225514E+00 
    1.3641023770608958E+00 
    1.3578854346235305E+00 
    1.3502390302324687E+00 
    1.3559900517897154E+00 
    1.3485179667390905E+00 
    1.3431367460213797E+00 
    1.3365266985000515E+00 
    1.3415840082872936E+00 
    1.3351557808142169E+00 
    1.3303828697922628E+00 
    1.3246821305721317E+00 
    1.3292048444433313E+00 
    1.3237061794595593E+00 
    1.3194038942278294E+00 
    1.3145298273944064E+00 
    1.3186377429989542E+00 
    1.3139800980987977E+00 
    1.3100436046606796E+00 
    1.3059306995828850E+00 
    1.3097161025424471E+00 
    1.3058306472820462E+00 
    1.3021782059979743E+00 
    1.2987746849361139E+00 
    1.3023104361500470E+00 
    1.2991438001394346E+00 
    1.2957100333835285E+00 
    1.2929753718635213E+00 
    1.2963205408044072E+00 
    1.2938317983634626E+00 
    1.2905629483596188E+00 
    1.2884660565474810E+00 
    1.2916699409228960E+00 
    1.2898284719198592E+00 
    1.2866789666624110E+00 
    1.2851968676279448E+00 
    1.2883019534425588E+00 
    1.2870859435467144E+00 
    1.2840158193227724E+00 
    1.2831327140791420E+00 
    1.2861769460732608E+00 
    1.2855723717992200E+00 
    1.2825452466939460E+00 
    1.2822518924005675E+00 
    1.2852705100357065E+00 
    1.4612561208048367E+00 
    1.4268666716830163E+00 
    1.4259797348699872E+00 
    1.4598333606259744E+00 
    1.4571233511032680E+00 
    1.4242306176598667E+00 
    1.4216804907461025E+00 
    1.4533397659494192E+00 
    1.4486894469863258E+00 
    1.4184050884855310E+00 
    1.4144839304367391E+00 
    1.4433519971185269E+00 
    1.4374748869539054E+00 
    1.4099929208034807E+00 
    1.4049991049405366E+00 
    1.4311746874984468E+00 
    1.4245403057531107E+00 
    1.3995563207026396E+00 
    1.3936997145023720E+00 
    1.4176360220187392E+00 
    1.4105027279997704E+00 
    1.3874329235805958E+00 
    1.3806978595664501E+00 
    1.4031550373084316E+00 
    1.3955680192068476E+00 
    1.3734384110728843E+00 
    1.3657053342275793E+00 
    1.3876273323414841E+00 
    1.3792180604404525E+00 
    1.3577304605732539E+00 
    1.3499916612236722E+00 
    1.3703401177142467E+00 
    1.3615579970951055E+00 
    1.3428450113801000E+00 
    1.3362151330286891E+00 
    1.3535105082226075E+00 
    1.3461417663364397E+00 
    1.3299448758155157E+00 
    1.3240064929196829E+00 
    1.3392724877382682E+00 
    1.3328331742158630E+00 
    1.3183962035715975E+00 
    1.3131093331064154E+00 
    1.3268072005773568E+00 
    1.3211790638936700E+00 
    1.3081406506691424E+00 
    1.3034846263553133E+00 
    1.3159343879425722E+00 
    1.3110599138872387E+00 
    1.2991356239373510E+00 
    1.2950880445436126E+00 
    1.3065434707928292E+00 
    1.3023739346631777E+00 
    1.2913364330567003E+00 
    1.2878755562291631E+00 
    1.2985411816944186E+00 
    1.2950360394833325E+00 
    1.2847004593973792E+00 
    1.2818065070589155E+00 
    1.2918502386293720E+00 
    1.2889763663017779E+00 
    1.2791894113465501E+00 
    1.2768452514915676E+00 
    1.2864078227615263E+00 
    1.2841387814380658E+00 
    1.2747704866496756E+00 
    1.2729619639115355E+00 
    1.2821641529012839E+00 
    1.2804795528988466E+00 
    1.2714169228959937E+00 
    1.2701329979970020E+00 
    1.2790812745203315E+00 
    1.2779662644833822E+00 
    1.2691082191014502E+00 
    1.2683410113971159E+00 
    1.2771321035006848E+00 
    1.2765769906704987E+00 
    1.2678301947336319E+00 
    1.2675749828743244E+00 
    1.2762997318316542E+00 
    1.3930551904283386E+00 
    1.3579399384320019E+00 
    1.3573533173731058E+00 
    1.3923851751709755E+00 
    1.3910494475435609E+00 
    1.3561741770248259E+00 
    1.3544003226143047E+00 
    1.3890678137406884E+00 
    1.3864677510019361E+00 
    1.3520267918667994E+00 
    1.3490426119887935E+00 
    1.3832794727571853E+00 
    1.3795302605290731E+00 
    1.3454401045115343E+00 
    1.3412430572274252E+00 
    1.3752357587970885E+00 
    1.3703863043838616E+00 
    1.3365235530217725E+00 
    1.3313947484435869E+00 
    1.3649500480780175E+00 
    1.3589453223839461E+00 
    1.3260655452578471E+00 
    1.3207871512485037E+00 
    1.3524577457032330E+00 
    1.3456728302268974E+00 
    1.3156965904117872E+00 
    1.3108498950816323E+00 
    1.3389837840411090E+00 
    1.3326399804854743E+00 
    1.3061874307823853E+00 
    1.3016247324864230E+00 
    1.3266872507309171E+00 
    1.3210500753994809E+00 
    1.2971635810951958E+00 
    1.2928225014732295E+00 
    1.3156286993008341E+00 
    1.3104293003149186E+00 
    1.2886171118655076E+00 
    1.2845604406717486E+00 
    1.3054595626238872E+00 
    1.3007250440985128E+00 
    1.2806632867935062E+00 
    1.2769345416467133E+00 
    1.2962295853563484E+00 
    1.2919756562101390E+00 
    1.2733814742970329E+00 
    1.2700099818968706E+00 
    1.2879646458093379E+00 
    1.2841971037451831E+00 
    1.2668248081023423E+00 
    1.2638297324143382E+00 
    1.2806729392260927E+00 
    1.2773915848564226E+00 
    1.2610277334603412E+00 
    1.2584211291640326E+00 
    1.2743521308063295E+00 
    1.2715534343781789E+00 
    1.2560116965849049E+00 
    1.2538007739883272E+00 
    1.2689942092274320E+00 
    1.2666730978174439E+00 
    1.2517893474563491E+00 
    1.2499781240910388E+00 
    1.2645887300906509E+00 
    1.2627397708237238E+00 
    1.2483675936085272E+00 
    1.2469580798811446E+00 
    1.2611249576957182E+00 
    1.2597431317275809E+00 
    1.2457497837613973E+00 
    1.2447428183166429E+00 
    1.2585932614392157E+00 
    1.2576744618073248E+00 
    1.2439372374170492E+00 
    1.2433330584506748E+00 
    1.2569860088850471E+00 
    1.2565273507549997E+00 
    1.2429302797861617E+00 
    1.2427288934634466E+00 
    1.2562981153239734E+00 
    1.3198038246576627E+00 
    1.2790859053969106E+00 
    1.2786050250676457E+00 
    1.3191738959256532E+00 
    1.3179233859359094E+00 
    1.2776843712363264E+00 
    1.2763878643100699E+00 
    1.3160795066887332E+00 
    1.3136886866609503E+00 
    1.2747899402528808E+00 
    1.2729699121209477E+00 
    1.3108189363588258E+00 
    1.3075616948343594E+00 
    1.2710004636448717E+00 
    1.2689314525773037E+00 
    1.3040391471075261E+00 
    1.3003916309777701E+00 
    1.2667765282632661E+00 
    1.2645191252748085E+00 
    1.2967353367629046E+00 
    1.2931426256724774E+00 
    1.2621427860957422E+00 
    1.2596553114569105E+00 
    1.2896223082599230E+00 
    1.2861198422669289E+00 
    1.2570815636911210E+00 
    1.2544474024880476E+00 
    1.2825970352029366E+00 
    1.2790659394979966E+00 
    1.2517761662341562E+00 
    1.2490891543450435E+00 
    1.2755516806792284E+00 
    1.2720763693132167E+00 
    1.2464057019712367E+00 
    1.2437432897002039E+00 
    1.2686594035032071E+00 
    1.2653177392764978E+00 
    1.2411176615391943E+00 
    1.2385429472435621E+00 
    1.2620661455646205E+00 
    1.2589174421741502E+00 
    1.2360317857322254E+00 
    1.2335954469752886E+00 
    1.2558827199659486E+00 
    1.2529715428887369E+00 
    1.2312439503152468E+00 
    1.2289861776903341E+00 
    1.2501921319280442E+00 
    1.2475515313942394E+00 
    1.2268299806655336E+00 
    1.2247822805445592E+00 
    1.2450557582624937E+00 
    1.2427099354873561E+00 
    1.2228491611375143E+00 
    1.2210359539991922E+00 
    1.2405184103499030E+00 
    1.2384848589661064E+00 
    1.2193473161383290E+00 
    1.2177873003356521E+00 
    1.2366123781032059E+00 
    1.2349035654285467E+00 
    1.2163594183054478E+00 
    1.2150666969985053E+00 
    1.2333605892634154E+00 
    1.2319852488420104E+00 
    1.2139117283799858E+00 
    1.2128967130295960E+00 
    1.2307790259901539E+00 
    1.2297431290452490E+00 
    1.2120234979081956E+00 
    1.2112936086186161E+00 
    1.2288785297424309E+00 
    1.2281859936945707E+00 
    1.2107082764622450E+00 
    1.2102684605594840E+00 
    1.2276661049976942E+00 
    1.2273192853993407E+00 
    1.2099748652634665E+00 
    1.2098279530540272E+00 
    1.2271458083758928E+00 
    1.2426119544142598E+00 
    1.2111833180044651E+00 
    1.2110461039454665E+00 
    1.2424035553271793E+00 
    1.2419962272705880E+00 
    1.2107674340663821E+00 
    1.2103437365451233E+00 
    1.2414014354215233E+00 
    1.2406259032357949E+00 
    1.2097749673611391E+00 
    1.2090643948960518E+00 
    1.2396701172159674E+00 
    1.2385333537194929E+00 
    1.2082179448644739E+00 
    1.2072436984054844E+00 
    1.2372210630804310E+00 
    1.2357477815896276E+00 
    1.2061515668953133E+00 
    1.2049528756963446E+00 
    1.2341335213302671E+00 
    1.2323989550788106E+00 
    1.2036598458184800E+00 
    1.2022851702538362E+00 
    1.2305639208527879E+00 
    1.2286476226351217E+00 
    1.2008417217497636E+00 
    1.1993423267439698E+00 
    1.2266685204003929E+00 
    1.2246441493225413E+00 
    1.1977995862797111E+00 
    1.1962257392861124E+00 
    1.2225910328578122E+00 
    1.2205246336015314E+00 
    1.1946325607145112E+00 
    1.1930312883367813E+00 
    1.2184593347969834E+00 
    1.2164084451481347E+00 
    1.1914325729534214E+00 
    1.1898464475635704E+00 
    1.2143842210796532E+00 
    1.2123979017463968E+00 
    1.1882823117353118E+00 
    1.1867489280008774E+00 
    1.2104597530156738E+00 
    1.2085791173904696E+00 
    1.1852544276033723E+00 
    1.1838063233522775E+00 
    1.2067644674514977E+00 
    1.2050234608985644E+00 
    1.1824115277146785E+00 
    1.1810763745865320E+00 
    1.2033629956873229E+00 
    1.2017892641004364E+00 
    1.1798066434600241E+00 
    1.1786075849350746E+00 
    1.2003078048738827E+00 
    1.1989235527286786E+00 
    1.1774839467201803E+00 
    1.1764399994342971E+00 
    1.1976408848433582E+00 
    1.1964636639497135E+00 
    1.1754795616611531E+00 
    1.1746060238236200E+00 
    1.1953952778493508E+00 
    1.1944386752366443E+00 
    1.1738223705416131E+00 
    1.1731312012151951E+00 
    1.1935963977791051E+00 
    1.1928706084529050E+00 
    1.1725347486376601E+00 
    1.1720348954935835E+00 
    1.1922631161626982E+00 
    1.1917753966938096E+00 
    1.1716331886361910E+00 
    1.1713308510687983E+00 
    1.1914086100538392E+00 
    1.1911636142618081E+00 
    1.1711287915780686E+00 
    1.1710276119839735E+00 
    1.1910409756379847E+00 
    1.1814597482973066E+00 
    1.1528381672693488E+00 
    1.1527530315695897E+00 
    1.1813495817836988E+00 
    1.1811294355893072E+00 
    1.1525833169750879E+00 
    1.1523301816426630E+00 
    1.1808001064586648E+00 
    1.1803634076710510E+00 
    1.1519954404522950E+00 
    1.1515816013269935E+00 
    1.1798223497146485E+00 
    1.1791811620817263E+00 
    1.1510918718960934E+00 
    1.1505301366631615E+00 
    1.1784452251891200E+00 
    1.1776209498274728E+00 
    1.1499009088871774E+00 
    1.1492092625370727E+00 
    1.1767156168530712E+00 
    1.1757371934259429E+00 
    1.1484607505297248E+00 
    1.1476613157525466E+00 
    1.1746941490491831E+00 
    1.1735952858816221E+00 
    1.1468172004320165E+00 
    1.1459348579255364E+00 
    1.1724495876722074E+00 
    1.1712660885302848E+00 
    1.1450208697200197E+00 
    1.1440818694009955E+00 
    1.1700537614944464E+00 
    1.1688214258887868E+00 
    1.1431244745654743E+00 
    1.1421552270625090E+00 
    1.1675776719328868E+00 
    1.1663308008236357E+00 
    1.1411805415214886E+00 
    1.1402066618353059E+00 
    1.1650887784316222E+00 
    1.1638592007860495E+00 
    1.1392396250736891E+00 
    1.1382852321862715E+00 
    1.1626492696167914E+00 
    1.1614657763521772E+00 
    1.1373490247956011E+00 
    1.1364362673615538E+00 
    1.1603150931181012E+00 
    1.1592031694362628E+00 
    1.1355519340085465E+00 
    1.1347006993364126E+00 
    1.1581355334693546E+00 
    1.1571172968040233E+00 
    1.1338869325778234E+00 
    1.1331146945146497E+00 
    1.1561531618957119E+00 
    1.1552474314215708E+00 
    1.1323877366188624E+00 
    1.1317095019377545E+00 
    1.1544040188978391E+00 
    1.1536264600164698E+00 
    1.1310831272965525E+00 
    1.1305114464425454E+00 
    1.1529179242426233E+00 
    1.1522812262906847E+00 
    1.1299969938029355E+00 
    1.1295420085732124E+00 
    1.1517188371624278E+00 
    1.1512328944878141E+00 
    1.1291484388938056E+00 
    1.1288179459101149E+00 
    1.1508252119576150E+00 
    1.1504972876785680E+00 
    1.1285519075448704E+00 
    1.1283514218424999E+00 
    1.1502503113171285E+00 
    1.1500851699279850E+00 
    1.1282173097730259E+00 
    1.1281501174085000E+00 
    1.1500024523893293E+00 
    1.1250679432384705E+00 
    1.0979544485626354E+00 
    1.0979034253087550E+00 
    1.1250022703029088E+00 
    1.1248714057400935E+00 
    1.0978017522169852E+00 
    1.0976501740616802E+00 
    1.1246763154060895E+00 
    1.1244184525828687E+00 
    1.0974498023566943E+00 
    1.0972021074336231E+00 
    1.1240997559953221E+00 
    1.1237226397307780E+00 
    1.0969089065505173E+00 
    1.0965723476382083E+00 
    1.1232899735677282E+00 
    1.1228050536880874E+00 
    1.0961948886383870E+00 
    1.0957792727210620E+00 
    1.1222715647935080E+00 
    1.1216935353318171E+00 
    1.0953284999408284E+00 
    1.0948457960776712E+00 
    1.1210752878894352E+00 
    1.1204213868419191E+00 
    1.0943345795034711E+00 
    1.0937984269301679E+00 
    1.1197365851692385E+00 
    1.1190257720448356E+00 
    1.0932410388487395E+00 
    1.0926662053801091E+00 
    1.1182939224725246E+00 
    1.1175460499166088E+00 
    1.0920777731477185E+00 
    1.0914796136609686E+00 
    1.1167871625726957E+00 
    1.1160222236709743E+00 
    1.0908755935793211E+00 
    1.0902695471153863E+00 
    1.1152561159933680E+00 
    1.1144936106193684E+00 
    1.0896652507359235E+00 
    1.0890664002342925E+00 
    1.1137393397882840E+00 
    1.1129977736728001E+00 
    1.0884765901770779E+00 
    1.0878992956708513E+00 
    1.1122732007946088E+00 
    1.1115697117720991E+00 
    1.0873378563512686E+00 
    1.0867954624645144E+00 
    1.1108911860680279E+00 
    1.1102412813974696E+00 
    1.0862751428889481E+00 
    1.0857797549311143E+00 
    1.1096234254597281E+00 
    1.1090408096693558E+00 
    1.0853119757236012E+00 
    1.0848742950512258E+00 
    1.1084963845786080E+00 
    1.1079928567046835E+00 
    1.0844690094354976E+00 
    1.0840982173142553E+00 
    1.1075326864984900E+00 
    1.1071180872163142E+00 
    1.0837638151629243E+00 
    1.0834674944152893E+00 
    1.1067510244808152E+00 
    1.1064332163426276E+00 
    1.0832107390544576E+00 
    1.0829948237583431E+00 
    1.1061661336781388E+00 
    1.1059510007824316E+00 
    1.0828208124981944E+00 
    1.0826895575031761E+00 
    1.1057887960389037E+00 
    1.1056802525685892E+00 
    1.0826016985186027E+00 
    1.0825576623000341E+00 
    1.1056258587828296E+00 
    1.0713511864249963E+00 
    1.0451490016017637E+00 
    1.0451169484058478E+00 
    1.0713110786934914E+00 
    1.0712311493292244E+00 
    1.0450530639502464E+00 
    1.0449577902420593E+00 
    1.0711119682140788E+00 
    1.0709543843113747E+00 
    1.0448317856300380E+00 
    1.0446759192197523E+00 
    1.0707595184722722E+00 
    1.0705287536622869E+00 
    1.0444912634588954E+00 
    1.0442790849457018E+00 
    1.0702637225838181E+00 
    1.0699662927637217E+00 
    1.0440408335482430E+00 
    1.0437781299605222E+00 
    1.0696385492777070E+00 
    1.0692827753790750E+00 
    1.0434927518583910E+00 
    1.0431866188503900E+00 
    1.0689014313763365E+00 
    1.0684971321560597E+00 
    1.0428617764429522E+00 
    1.0425203792543789E+00 
    1.0680726237723528E+00 
    1.0676307595246621E+00 
    1.0421646737173107E+00 
    1.0417969805056497E+00 
    1.0671744759252988E+00 
    1.0667067689224197E+00 
    1.0414196769102932E+00 
    1.0410351793702581E+00 
    1.0662306706982239E+00 
    1.0657492273105509E+00 
    1.0406459263435150E+00 
    1.0402543616768256E+00 
    1.0652654773927055E+00 
    1.0647824320741812E+00 
    1.0398629186075805E+00 
    1.0394740045043216E+00 
    1.0643030562361446E+00 
    1.0638302511714759E+00 
    1.0390899864273568E+00 
    1.0387131775673317E+00 
    1.0633668386806592E+00 
    1.0629155466021565E+00 
    1.0383458245983508E+00 
    1.0379900959635688E+00 
    1.0624789957491234E+00 
    1.0620596882031077E+00 
    1.0376480710952034E+00 
    1.0373217305576796E+00 
    1.0616599968992981E+00 
    1.0612821564264692E+00 
    1.0370129470920497E+00 
    1.0367234775317087E+00 
    1.0609282549573686E+00 
    1.0606002272214485E+00 
    1.0364549555536180E+00 
    1.0362088852254809E+00 
    1.0602998484309067E+00 
    1.0600287290725723E+00 
    1.0359866353073568E+00 
    1.0357894342658331E+00 
    1.0597883104817238E+00 
    1.0595798611191074E+00 
    1.0356183659598532E+00 
    1.0354743659594092E+00 
    1.0594044734788810E+00 
    1.0592630615626555E+00 
    1.0353582184613852E+00 
    1.0352705537706646E+00 
    1.0591563588630033E+00 
    1.0590849168085679E+00 
    1.0352118463190878E+00 
    1.0351824131997838E+00 
    1.0590491036320766E+00 
    1.0192673487370110E+00 
    9.9364787609108596E-01 
    9.9362572898400769E-01 
    1.0192411307150566E+00 
    1.0191888710971280E+00 
    9.9358157995221663E-01 
    9.9351571825754370E-01 
    1.0191109213083787E+00 
    1.0190078049313451E+00 
    9.9342857504630167E-01 
    9.9332072008294348E-01 
    1.0188802134729469E+00 
    1.0187290007788683E+00 
    9.9319285744429220E-01 
    9.9304582021717502E-01 
    1.0185551761502445E+00 
    1.0183598962353821E+00 
    9.9288056425325211E-01 
    9.9269816104541431E-01 
    1.0181444557874464E+00 
    1.0179102773964066E+00 
    9.9249978979995668E-01 
    9.9228672878738833E-01 
    1.0176589003188132E+00 
    1.0173919685412045E+00 
    9.9206034606185900E-01 
    9.9182208964448781E-01 
    1.0171112182213560E+00 
    1.0168184646558920E+00 
    9.9157347726919598E-01 
    9.9131608579091601E-01 
    1.0165155889229562E+00 
    1.0162045243449560E+00 
    9.9105154035537246E-01 
    9.9078150342710203E-01 
    1.0158872429093802E+00 
    1.0155657417759452E+00 
    9.9050766376831434E-01 
    9.9023172545577898E-01 
    1.0152420299865166E+00 
    1.0149181154811318E+00 
    9.8995539701654856E-01 
    9.8968038075623099E-01 
    1.0145959925095609E+00 
    1.0142776295138476E+00 
    9.8940836234603058E-01 
    9.8914100072714317E-01 
    1.0139649575435652E+00 
    1.0136598592525483E+00 
    9.8887991838353628E-01 
    9.8862669202686859E-01 
    1.0133641585138524E+00 
    1.0130796106788831E+00 
    9.8838284373044705E-01 
    9.8814983254279209E-01 
    1.0128078934971252E+00 
    1.0125505987047452E+00 
    9.8792904660566083E-01 
    9.8772179579628705E-01 
    1.0123092242835432E+00 
    1.0120851673862503E+00 
    9.8752930490918567E-01 
    9.8735270738906988E-01 
    1.0118797179199268E+00 
    1.0116940527761338E+00 
    9.8719303962328342E-01 
    9.8705123579956400E-01 
    1.0115292306945036E+00 
    1.0113861877452339E+00 
    9.8692812333289781E-01 
    9.8682441886366323E-01 