# vtk DataFile Version 2.0
Pressure Field Data 
ASCII 
DATASET UNSTRUCTURED_GRID 

POINTS 1681 double 

    0.0000000000000000E+00     0.0000000000000000E+00     0.0000000000000000E+00 
    1.0000000000000000E+00     0.0000000000000000E+00     0.0000000000000000E+00 
    1.0000000000000000E+00     1.0000000000000000E+00     0.0000000000000000E+00 
    0.0000000000000000E+00     1.0000000000000000E+00     0.0000000000000000E+00 
    5.2499999999875258E-01     0.0000000000000000E+00     0.0000000000000000E+00 
    7.4999999999856765E-02     0.0000000000000000E+00     0.0000000000000000E+00 
    1.2499999999975850E-01     0.0000000000000000E+00     0.0000000000000000E+00 
    1.7499999999962990E-01     0.0000000000000000E+00     0.0000000000000000E+00 
    2.2499999999948389E-01     0.0000000000000000E+00     0.0000000000000000E+00 
    2.7499999999933789E-01     0.0000000000000000E+00     0.0000000000000000E+00 
    3.2499999999919210E-01     0.0000000000000000E+00     0.0000000000000000E+00 
    3.7499999999904610E-01     0.0000000000000000E+00     0.0000000000000000E+00 
    4.2499999999890020E-01     0.0000000000000000E+00     0.0000000000000000E+00 
    4.7499999999875958E-01     0.0000000000000000E+00     0.0000000000000000E+00 
    2.4999999999949701E-02     0.0000000000000000E+00     0.0000000000000000E+00 
    5.7499999999887907E-01     0.0000000000000000E+00     0.0000000000000000E+00 
    6.2499999999901101E-01     0.0000000000000000E+00     0.0000000000000000E+00 
    6.7499999999914273E-01     0.0000000000000000E+00     0.0000000000000000E+00 
    7.2499999999927467E-01     0.0000000000000000E+00     0.0000000000000000E+00 
    7.7499999999940661E-01     0.0000000000000000E+00     0.0000000000000000E+00 
    8.2499999999953844E-01     0.0000000000000000E+00     0.0000000000000000E+00 
    8.7499999999967026E-01     0.0000000000000000E+00     0.0000000000000000E+00 
    9.2499999999980220E-01     0.0000000000000000E+00     0.0000000000000000E+00 
    9.7499999999993414E-01     0.0000000000000000E+00     0.0000000000000000E+00 
    5.4999999999881310E-01     0.0000000000000000E+00     0.0000000000000000E+00 
    9.9999999999814140E-02     0.0000000000000000E+00     0.0000000000000000E+00 
    1.4999999999970290E-01     0.0000000000000000E+00     0.0000000000000000E+00 
    1.9999999999955689E-01     0.0000000000000000E+00     0.0000000000000000E+00 
    2.4999999999941089E-01     0.0000000000000000E+00     0.0000000000000000E+00 
    2.9999999999926502E-01     0.0000000000000000E+00     0.0000000000000000E+00 
    3.4999999999911913E-01     0.0000000000000000E+00     0.0000000000000000E+00 
    3.9999999999897312E-01     0.0000000000000000E+00     0.0000000000000000E+00 
    4.4999999999882723E-01     0.0000000000000000E+00     0.0000000000000000E+00 
    4.9999999999869210E-01     0.0000000000000000E+00     0.0000000000000000E+00 
    4.9999999999899403E-02     0.0000000000000000E+00     0.0000000000000000E+00 
    5.9999999999894504E-01     0.0000000000000000E+00     0.0000000000000000E+00 
    6.4999999999907687E-01     0.0000000000000000E+00     0.0000000000000000E+00 
    6.9999999999920870E-01     0.0000000000000000E+00     0.0000000000000000E+00 
    7.4999999999934064E-01     0.0000000000000000E+00     0.0000000000000000E+00 
    7.9999999999947247E-01     0.0000000000000000E+00     0.0000000000000000E+00 
    8.4999999999960441E-01     0.0000000000000000E+00     0.0000000000000000E+00 
    8.9999999999973623E-01     0.0000000000000000E+00     0.0000000000000000E+00 
    9.4999999999986817E-01     0.0000000000000000E+00     0.0000000000000000E+00 
    1.0000000000000000E+00     5.2499999999875258E-01     0.0000000000000000E+00 
    1.0000000000000000E+00     7.4999999999856765E-02     0.0000000000000000E+00 
    1.0000000000000000E+00     1.2499999999975850E-01     0.0000000000000000E+00 
    1.0000000000000000E+00     1.7499999999962990E-01     0.0000000000000000E+00 
    1.0000000000000000E+00     2.2499999999948389E-01     0.0000000000000000E+00 
    1.0000000000000000E+00     2.7499999999933789E-01     0.0000000000000000E+00 
    1.0000000000000000E+00     3.2499999999919210E-01     0.0000000000000000E+00 
    1.0000000000000000E+00     3.7499999999904610E-01     0.0000000000000000E+00 
    1.0000000000000000E+00     4.2499999999890020E-01     0.0000000000000000E+00 
    1.0000000000000000E+00     4.7499999999875958E-01     0.0000000000000000E+00 
    1.0000000000000000E+00     2.4999999999949701E-02     0.0000000000000000E+00 
    1.0000000000000000E+00     5.7499999999887907E-01     0.0000000000000000E+00 
    1.0000000000000000E+00     6.2499999999901101E-01     0.0000000000000000E+00 
    1.0000000000000000E+00     6.7499999999914273E-01     0.0000000000000000E+00 
    1.0000000000000000E+00     7.2499999999927467E-01     0.0000000000000000E+00 
    1.0000000000000000E+00     7.7499999999940661E-01     0.0000000000000000E+00 
    1.0000000000000000E+00     8.2499999999953844E-01     0.0000000000000000E+00 
    1.0000000000000000E+00     8.7499999999967026E-01     0.0000000000000000E+00 
    1.0000000000000000E+00     9.2499999999980220E-01     0.0000000000000000E+00 
    1.0000000000000000E+00     9.7499999999993414E-01     0.0000000000000000E+00 
    1.0000000000000000E+00     5.4999999999881310E-01     0.0000000000000000E+00 
    1.0000000000000000E+00     9.9999999999814140E-02     0.0000000000000000E+00 
    1.0000000000000000E+00     1.4999999999970290E-01     0.0000000000000000E+00 
    1.0000000000000000E+00     1.9999999999955689E-01     0.0000000000000000E+00 
    1.0000000000000000E+00     2.4999999999941089E-01     0.0000000000000000E+00 
    1.0000000000000000E+00     2.9999999999926502E-01     0.0000000000000000E+00 
    1.0000000000000000E+00     3.4999999999911913E-01     0.0000000000000000E+00 
    1.0000000000000000E+00     3.9999999999897312E-01     0.0000000000000000E+00 
    1.0000000000000000E+00     4.4999999999882723E-01     0.0000000000000000E+00 
    1.0000000000000000E+00     4.9999999999869210E-01     0.0000000000000000E+00 
    1.0000000000000000E+00     4.9999999999899403E-02     0.0000000000000000E+00 
    1.0000000000000000E+00     5.9999999999894504E-01     0.0000000000000000E+00 
    1.0000000000000000E+00     6.4999999999907687E-01     0.0000000000000000E+00 
    1.0000000000000000E+00     6.9999999999920870E-01     0.0000000000000000E+00 
    1.0000000000000000E+00     7.4999999999934064E-01     0.0000000000000000E+00 
    1.0000000000000000E+00     7.9999999999947247E-01     0.0000000000000000E+00 
    1.0000000000000000E+00     8.4999999999960441E-01     0.0000000000000000E+00 
    1.0000000000000000E+00     8.9999999999973623E-01     0.0000000000000000E+00 
    1.0000000000000000E+00     9.4999999999986817E-01     0.0000000000000000E+00 
    4.7500000000196618E-01     1.0000000000000000E+00     0.0000000000000000E+00 
    9.2499999999968763E-01     1.0000000000000000E+00     0.0000000000000000E+00 
    8.7499999999961831E-01     1.0000000000000000E+00     0.0000000000000000E+00 
    8.2499999999982654E-01     1.0000000000000000E+00     0.0000000000000000E+00 
    7.7500000000017355E-01     1.0000000000000000E+00     0.0000000000000000E+00 
    7.2500000000052045E-01     1.0000000000000000E+00     0.0000000000000000E+00 
    6.7500000000086724E-01     1.0000000000000000E+00     0.0000000000000000E+00 
    6.2500000000121403E-01     1.0000000000000000E+00     0.0000000000000000E+00 
    5.7500000000156093E-01     1.0000000000000000E+00     0.0000000000000000E+00 
    5.2500000000189684E-01     1.0000000000000000E+00     0.0000000000000000E+00 
    9.7499999999989595E-01     1.0000000000000000E+00     0.0000000000000000E+00 
    4.2500000000176902E-01     1.0000000000000000E+00     0.0000000000000000E+00 
    3.7500000000156092E-01     1.0000000000000000E+00     0.0000000000000000E+00 
    3.2500000000135282E-01     1.0000000000000000E+00     0.0000000000000000E+00 
    2.7500000000114472E-01     1.0000000000000000E+00     0.0000000000000000E+00 
    2.2500000000093659E-01     1.0000000000000000E+00     0.0000000000000000E+00 
    1.7500000000072849E-01     1.0000000000000000E+00     0.0000000000000000E+00 
    1.2500000000052039E-01     1.0000000000000000E+00     0.0000000000000000E+00 
    7.5000000000312261E-02     1.0000000000000000E+00     0.0000000000000000E+00 
    2.5000000000104109E-02     1.0000000000000000E+00     0.0000000000000000E+00 
    4.5000000000187301E-01     1.0000000000000000E+00     0.0000000000000000E+00 
    8.9999999999958358E-01     1.0000000000000000E+00     0.0000000000000000E+00 
    8.4999999999965303E-01     1.0000000000000000E+00     0.0000000000000000E+00 
    8.0000000000000004E-01     1.0000000000000000E+00     0.0000000000000000E+00 
    7.5000000000034706E-01     1.0000000000000000E+00     0.0000000000000000E+00 
    7.0000000000069384E-01     1.0000000000000000E+00     0.0000000000000000E+00 
    6.5000000000104063E-01     1.0000000000000000E+00     0.0000000000000000E+00 
    6.0000000000138742E-01     1.0000000000000000E+00     0.0000000000000000E+00 
    5.5000000000173432E-01     1.0000000000000000E+00     0.0000000000000000E+00 
    5.0000000000205946E-01     1.0000000000000000E+00     0.0000000000000000E+00 
    9.4999999999979179E-01     1.0000000000000000E+00     0.0000000000000000E+00 
    4.0000000000166491E-01     1.0000000000000000E+00     0.0000000000000000E+00 
    3.5000000000145681E-01     1.0000000000000000E+00     0.0000000000000000E+00 
    3.0000000000124871E-01     1.0000000000000000E+00     0.0000000000000000E+00 
    2.5000000000104061E-01     1.0000000000000000E+00     0.0000000000000000E+00 
    2.0000000000083251E-01     1.0000000000000000E+00     0.0000000000000000E+00 
    1.5000000000062441E-01     1.0000000000000000E+00     0.0000000000000000E+00 
    1.0000000000041630E-01     1.0000000000000000E+00     0.0000000000000000E+00 
[...]
CELL_DATA 1600 
SCALARS Pressure double 1 
LOOKUP_TABLE default 

    1.2017084140574286E+00 
    1.1548623575723407E+00 
    1.1524050918550881E+00 
    1.1859250512922785E+00 
    1.1732396118343824E+00 
    1.1486750054509454E+00 
    1.1443589188068313E+00 
    1.1628135609772390E+00 
    1.1540547288485312E+00 
    1.1398433343212837E+00 
    1.1353420641934753E+00 
    1.1465521606977025E+00 
    1.1400163261127210E+00 
    1.1309688067932055E+00 
    1.1267796315018896E+00 
    1.1342398473369115E+00 
    1.1290717012019187E+00 
    1.1227978806434251E+00 
    1.1190287447665190E+00 
    1.1244001054604391E+00 
    1.1201410259704039E+00 
    1.1154677576337919E+00 
    1.1121057070006501E+00 
    1.1162303553984672E+00 
    1.1126185167538183E+00 
    1.1089314331885616E+00 
    1.1059333856945164E+00 
    1.1092666876628958E+00 
    1.1061441215606809E+00 
    1.1031004531953861E+00 
    1.1004223723478510E+00 
    1.1032262208359243E+00 
    1.1004931321593181E+00 
    1.0978898962236920E+00 
    1.0954948291599462E+00 
    1.0979287091476511E+00 
    1.0955197367599800E+00 
    1.0932299907078020E+00 
    1.0910891451019546E+00 
    1.0932553445363282E+00 
    1.0911265577628209E+00 
    1.0890669170505263E+00 
    1.0871587053835157E+00 
    1.0891259505690558E+00 
    1.0872473752064959E+00 
    1.0853606006379188E+00 
    1.0836693094652838E+00 
    1.0854857488579195E+00 
    1.0838368842895216E+00 
    1.0820820868951768E+00 
    1.0805966764042552E+00 
    1.0822973541295251E+00 
    1.0808643809468430E+00 
    1.0792112570510444E+00 
    1.0779243963463496E+00 
    1.0795357468214595E+00 
    1.0783097167320861E+00 
    1.0767350066897805E+00 
    1.0756423014490437E+00 
    1.0771849694142666E+00 
    1.0761605258947813E+00 
    1.0746457423930580E+00 
    1.0737449586303551E+00 
    1.0752356554152747E+00 
    1.0744097107740833E+00 
    1.0729395879210686E+00 
    1.0722289276746391E+00 
    1.0736817837293406E+00 
    1.0730499627120398E+00 
    1.0716111720972361E+00 
    1.0710818366127406E+00 
    1.0725098079687116E+00 
    1.0720514055834083E+00 
    1.0706306783922468E+00 
    1.0702402014593020E+00 
    1.0716577109908969E+00 
    1.0713595290366869E+00 
    1.0699451067874468E+00 
    1.0698015638044471E+00 
    1.0712137793148131E+00 
    1.1304732490528511E+00 
    1.1125741824583573E+00 
    1.1121879010134563E+00 
    1.1296808242474672E+00 
    1.1282214748421213E+00 
    1.1114397103698164E+00 
    1.1103719616531154E+00 
    1.1262540044953759E+00 
    1.1239265508986707E+00 
    1.1090352050264431E+00 
    1.1074814082674971E+00 
    1.1213623336103760E+00 
    1.1186576503600989E+00 
    1.1057596703805670E+00 
    1.1039139430407277E+00 
    1.1158848161187742E+00 
    1.1130965887287192E+00 
    1.1019821422120455E+00 
    1.0999961230243624E+00 
    1.1103305597748188E+00 
    1.1076129346672394E+00 
    1.0979821327391310E+00 
    1.0959614856247217E+00 
    1.1049615650272813E+00 
    1.1023882826498868E+00 
    1.0939513021051503E+00 
    1.0919652230229568E+00 
    1.0999006486426615E+00 
    1.0975032404354124E+00 
    1.0900140543436740E+00 
    1.0881063248538834E+00 
    1.0951985861567310E+00 
    1.0929878359813470E+00 
    1.0862487550022784E+00 
    1.0844466431916111E+00 
    1.0908712403178913E+00 
    1.0888484877183142E+00 
    1.0827041794515639E+00 
    1.0810246974224218E+00 
    1.0869189417560638E+00 
    1.0850818056128715E+00 
    1.0794108751678209E+00 
    1.0778648942471027E+00 
    1.0833362352189133E+00 
    1.0816814159539034E+00 
    1.0763885651394944E+00 
    1.0749834257522237E+00 
    1.0801166136409950E+00 
    1.0786412074404743E+00 
    1.0736508184686122E+00 
    1.0723919500253813E+00 
    1.0772547099433425E+00 
    1.0759567779950350E+00 
    1.0712079374109849E+00 
    1.0700998418268763E+00 
    1.0747472162698628E+00 
    1.0736259739924994E+00 
    1.0690686912605847E+00 
    1.0681154896485237E+00 
    1.0725931327277158E+00 
    1.0716488779700599E+00 
    1.0672412049484439E+00 
    1.0664467144234431E+00 
    1.0707934344403038E+00 
    1.0700269136643601E+00 
    1.0657326519867474E+00 
    1.0650990345684648E+00 
    1.0693489565287924E+00 
    1.0687579409702144E+00 
    1.0645444306467295E+00 
    1.0640642292060121E+00 
    1.0682493384017080E+00 
    1.0678124458125973E+00 
    1.0636471081852841E+00 
    1.0632751512872689E+00 
    1.0674293743131762E+00 
    1.0671413128003675E+00 
    1.0629976101885688E+00 
    1.0628651644055189E+00 
    1.0670023595267473E+00 
    1.0973465951132773E+00 
    1.0833794017043596E+00 
    1.0832255021501147E+00 
    1.0971160035161447E+00 
    1.0966623348177873E+00 
    1.0829208043595389E+00 
    1.0824718250014074E+00 
    1.0960004314078811E+00 
    1.0951501663083603E+00 
    1.0818877652202068E+00 
    1.0811798735511595E+00 
    1.0941344243721551E+00 
    1.0929773327263190E+00 
    1.0803607810438205E+00 
    1.0794438836639544E+00 
    1.0917028867106835E+00 
    1.0903339875196152E+00 
    1.0784428148961738E+00 
    1.0773710263166676E+00 
    1.0888918412255866E+00 
    1.0873956438554651E+00 
    1.0762414764428725E+00 
    1.0750664176465308E+00 
    1.0858624757403794E+00 
    1.0843073381844432E+00 
    1.0738572657666379E+00 
    1.0726245355952280E+00 
    1.0827432791961960E+00 
    1.0811815686491988E+00 
    1.0713778261984492E+00 
    1.0701258420082351E+00 
    1.0796318949995802E+00 
    1.0781025650346630E+00 
    1.0688764380530760E+00 
    1.0676366801455486E+00 
    1.0766006951319722E+00 
    1.0751323875144154E+00 
    1.0664129130667412E+00 
    1.0652108316751325E+00 
    1.0737028884106925E+00 
    1.0723167272623719E+00 
    1.0640355513938480E+00 
    1.0628916757147668E+00 
    1.0709778374903276E+00 
    1.0696896601014350E+00 
    1.0617833592405441E+00 
    1.0607143654097124E+00 
    1.0684552317712368E+00 
    1.0672772591093733E+00 
    1.0596881184513824E+00 
    1.0587077493102579E+00 
    1.0661581806759457E+00 
    1.0651002179812057E+00 
    1.0577761352449564E+00 
    1.0568959324212284E+00 
    1.0641054160876882E+00 
    1.0631756732659554E+00 
    1.0560695997687952E+00 
    1.0552994097245834E+00 
    1.0623127566404460E+00 
    1.0615182946713602E+00 
    1.0545874347043966E+00 
    1.0539354811069981E+00 
    1.0607937219713699E+00 
    1.0601401162513981E+00 
    1.0533449044747571E+00 
    1.0528161682485739E+00 
    1.0595577976201367E+00 
    1.0590454446686115E+00 
    1.0523478876307908E+00 
    1.0519348066936360E+00 
    1.0585982451599385E+00 
    1.0582039804833883E+00 
    1.0515632869516862E+00 
    1.0512203285553452E+00 
    1.0578458414509153E+00 
    1.0575818431662261E+00 
    1.0509725426059291E+00 
    1.0508571003239808E+00 
    1.0574573442635957E+00 
    1.0700069159037104E+00 
    1.0568673005225668E+00 
    1.0567844718541310E+00 
    1.0698967368543717E+00 
    1.0696779309209345E+00 
    1.0566197095986005E+00 
    1.0563749990738374E+00 
    1.0693538769315480E+00 
    1.0689294669271585E+00 
    1.0560532456945915E+00 
    1.0556581807332530E+00 
    1.0684108763203291E+00 
    1.0678052973114267E+00 
    1.0551942435593029E+00 
    1.0546664519202511E+00 
    1.0671206639615936E+00 
    1.0663653898294785E+00 
    1.0540802693125164E+00 
    1.0534414766050215E+00 
    1.0655481322534055E+00 
    1.0646775912672100E+00 
    1.0527560532089268E+00 
    1.0520300712925552E+00 
    1.0637623462011747E+00 
    1.0628107294022398E+00 
    1.0512696049518502E+00 
    1.0504806549471719E+00 
    1.0618307341335120E+00 
    1.0608299523744551E+00 
    1.0496690886337863E+00 
    1.0488405940307897E+00 
    1.0598155376894123E+00 
    1.0587941883236964E+00 
    1.0480006465510285E+00 
    1.0471544867015117E+00 
    1.0577721460214382E+00 
    1.0567552065817569E+00 
    1.0463071070071346E+00 
    1.0454632464619653E+00 
    1.0557487387674553E+00 
    1.0547577087780480E+00 
    1.0446273909305126E+00 
    1.0438037780720342E+00 
    1.0537867080491370E+00 
    1.0528399826148567E+00 
    1.0429964055154888E+00 
    1.0422090411446252E+00 
    1.0519214626516382E+00 
    1.0510347910936237E+00 
    1.0414452344315070E+00 
    1.0407083277356026E+00 
    1.0501833503447235E+00 
    1.0493702860453098E+00 
    1.0400014662730714E+00 
    1.0393276048502016E+00 
    1.0485985264247837E+00 
    1.0478707945745527E+00 
    1.0386895079270675E+00 
    1.0380897357645109E+00 
    1.0471896078958547E+00 
    1.0465572510735099E+00 
    1.0375305999052553E+00 
    1.0370140491356614E+00 
    1.0459756896450556E+00 
    1.0454463501396742E+00 
    1.0365414025283000E+00 
    1.0361127675942488E+00 
    1.0449696190107207E+00 
    1.0445437780516493E+00 
    1.0357258178778590E+00 
    1.0353730244850183E+00 
    1.0441626965295789E+00 
    1.0438103294132737E+00 
    1.0350346382669717E+00 
    1.0347204205615543E+00 
    1.0434822600004383E+00 
    1.0432529088986857E+00 
    1.0345104382714807E+00 
    1.0344152906544217E+00 
    1.0431474869329622E+00 
    1.0437455277909455E+00 
    1.0305061151550541E+00 
    1.0304541669589784E+00 
    1.0436809134952472E+00 
    1.0435522618903517E+00 
    1.0303506773659667E+00 
    1.0301965479078283E+00 
    1.0433608593389192E+00 
    1.0431085919668237E+00 
    1.0299930952194394E+00 
    1.0297420294435322E+00 
    1.0427979026162428E+00 
    1.0424317335924276E+00 
    1.0294454238354946E+00 
    1.0291056786098114E+00 
    1.0420134607157796E+00 
    1.0415468228037570E+00 
    1.0287254811106061E+00 
    1.0283077640320561E+00 
    1.0410358500341572E+00 
    1.0404847940457109E+00 
    1.0278556631882709E+00 
    1.0273724761089076E+00 
    1.0398980620123739E+00 
    1.0392801563083349E+00 
    1.0268616224990741E+00 
    1.0263266073587902E+00 
    1.0386356208018388E+00 
    1.0379689943085577E+00 
    1.0257709873217973E+00 
    1.0251983405573264E+00 
    1.0372847713167836E+00 
    1.0365873697717718E+00 
    1.0246122403892817E+00 
    1.0240162326289324E+00 
    1.0358811054705488E+00 
    1.0351701724606308E+00 
    1.0234138164899333E+00 
    1.0228084288556489E+00 
    1.0344586287421855E+00 
    1.0337503865274580E+00 
    1.0222034315933159E+00 
    1.0216021015498886E+00 
    1.0330492062970791E+00 
    1.0323586938922373E+00 
    1.0210076228095193E+00 
    1.0204230807251957E+00 
    1.0316822998728676E+00 
    1.0310233203237185E+00 
    1.0198514571267998E+00 
    1.0192956258945947E+00 
    1.0303848981477928E+00 
    1.0297700235380554E+00 
    1.0187583476378197E+00 
    1.0182422612126625E+00 
    1.0291815315039539E+00 
    1.0286220923969986E+00 
    1.0177498674467316E+00 
    1.0172834947355296E+00 
    1.0280941866637208E+00 
    1.0276000436960917E+00 
    1.0168452229370863E+00 
    1.0164367143454511E+00 
    1.0271414995978407E+00 
    1.0267196807869425E+00 
    1.0160588497554013E+00 
    1.0157109701399094E+00 
    1.0263343344181879E+00 
    1.0259824126279200E+00 
    1.0153892274995344E+00 
    1.0150822078444381E+00 
    1.0256546454746602E+00 
    1.0253270821598210E+00 
    1.0147641950613062E+00 
    1.0144806923215166E+00 
    1.0250270320188644E+00 
    1.0248350929803720E+00 
    1.0143046969319007E+00 
    1.0142244250751165E+00 
    1.0247486646893862E+00 
    1.0170604143217521E+00 
    1.0033491654338513E+00 
    1.0033129113658155E+00 
    1.0170175386225948E+00 
    1.0169320953641492E+00 
    1.0032406502486770E+00 
    1.0031329121976238E+00 
    1.0168047580156732E+00 
    1.0166365025360604E+00 
    1.0029904579324054E+00 
    1.0028142715957977E+00 
    1.0164285955156871E+00 
    1.0161825766806420E+00 
    1.0026055498877975E+00 
    1.0023656886322472E+00 
    1.0159002375924489E+00 
    1.0155835977166683E+00 
    1.0020962675022893E+00 
    1.0017990334376172E+00 
    1.0152348787837149E+00 
    1.0148564782508571E+00 
    1.0014758832109438E+00 
    1.0011288455548575E+00 
    1.0144509425828250E+00 
    1.0140209409730290E+00 
    1.0007600632177627E+00 
    1.0003717752720405E+00 
    1.0135692400246943E+00 
    1.0130986798044526E+00 
    9.9996629994801389E-01 
    9.9954601821487554E-01 
    1.0126121515748805E+00 
    1.0121125774112882E+00 
    9.9911335827586301E-01 
    9.9867078109085905E-01 
    1.0116028918148043E+00 
    1.0110860253498211E+00 
    9.9822076698553242E-01 
    9.9776580335121301E-01 
    1.0105648902588680E+00 
    1.0100423679395911E+00 
    9.9730837338104261E-01 
    9.9685094571938981E-01 
    1.0095212981016246E+00 
    1.0090044693463520E+00 
    9.9639596481123616E-01 
    9.9594584160270050E-01 
    1.0084946108122141E+00 
    1.0079943843674752E+00 
    9.9550294401540707E-01 
    9.9506958619242081E-01 
    1.0075063765371097E+00 
    1.0070330887505430E+00 
    9.9464801465643327E-01 
    9.9424038767823486E-01 
    1.0065769231808692E+00 
    1.0061401584063165E+00 
    9.9384874004339352E-01 
    9.9347491630584317E-01 
    1.0057249020474530E+00 
    1.0053329919292737E+00 
    9.9312043667832839E-01 
    9.9278622366881586E-01 
    1.0049657864658965E+00 
    1.0046237287021920E+00 
    9.9247204847397086E-01 
    9.9217537285452373E-01 
    1.0043054441681933E+00 
    1.0040056764568142E+00 
    9.9188849753739239E-01 
    9.9158915202256170E-01 
    1.0037091553639867E+00 
    1.0033964730773368E+00 
    9.9127572989932788E-01 
    9.9103550028161469E-01 
    1.0031334432587200E+00 
    1.0029741440117859E+00 
    9.9089429981264698E-01 
    9.9082562599366419E-01 
    1.0028992654261082E+00 
    9.8933252365525348E-01 
    9.7498405376756681E-01 
    9.7495625366695504E-01 
    9.8930114462398766E-01 
    9.8923859357686017E-01 
    9.7490083313559683E-01 
    9.7481816360623064E-01 
    9.8914530624396679E-01 
    9.8902190146456248E-01 
    9.7470876754627145E-01 
    9.7457331474468867E-01 
    9.8886917632470228E-01 
    9.8868809890023546E-01 
    9.7441261711414551E-01 
    9.7422762223092108E-01 
    9.8847979922139284E-01 
    9.8824555893980048E-01 
    9.7401940594259195E-01 
    9.7378916426225659E-01 
    9.8798680002879735E-01 
    9.8770507279000286E-01 
    9.7353820472112140E-01 
    9.7326793732932415E-01 
    9.8740204340977322E-01 
    9.8707948128703960E-01 
    9.7297986528092351E-01 
    9.7267557552667749E-01 
    9.8673924633190391E-01 
    9.8638327641004675E-01 
    9.7235672932503403E-01 
    9.7202505286669816E-01 
    9.8601357508103493E-01 
    9.8563219974907568E-01 
    9.7168232805060950E-01 
    9.7133038346862310E-01 
    9.8524125031263732E-01 
    9.8484285836410712E-01 
    9.7097108563146362E-01 
    9.7060633043753075E-01 
    9.8443917695061245E-01 
    9.8403237085875184E-01 
    9.7023803484468774E-01 
    9.6986812864498761E-01 
    9.8362460732195178E-01 
    9.8321804695510717E-01 
    9.6949854614662145E-01 
    9.6913121740157693E-01 
    9.8281483456795138E-01 
    9.8241708923488347E-01 
    9.6876805830658930E-01 
    9.6841095828160928E-01 
    9.8202689246934849E-01 
    9.8164627225796641E-01 
    9.6806176291816071E-01 
    9.6772224615836866E-01 
    9.8127717835165207E-01 
    9.8092143904771067E-01 
    9.6739406048802457E-01 
    9.6707864111522512E-01 
    9.8058067869102716E-01 
    9.8025615317553216E-01 
    9.6677701586718312E-01 
    9.6648942540317673E-01 
    9.7994841932202059E-01 
    9.7965666616178093E-01 
    9.6621454192163125E-01 
    9.6594763587279542E-01 
    9.7937725656737074E-01 
    9.7909974876283090E-01 
    9.6567486561598503E-01 
    9.6536359893430124E-01 
    9.7879376685822717E-01 
    9.7848087205966106E-01 
    9.6505971352640341E-01 
    9.6485086079462912E-01 
    9.7825868631548141E-01 
    9.7812947112219506E-01 
    9.6472551292695385E-01 
    9.6466297902387421E-01 
    9.7806527625643347E-01 
    9.6028698221475384E-01 
    9.4523181658098299E-01 
    9.4520836058182267E-01 
    9.6026175912963629E-01 
    9.6021147336137269E-01 
    9.4516159522494236E-01 
    9.4509181615745819E-01 
    9.6013645165571204E-01 
    9.6003715000915502E-01 
    9.4499943376264439E-01 
    9.4488497017528983E-01 
    9.5991415049073769E-01 
    9.5976815726162723E-01 
    9.4474905603573212E-01 
    9.4459242656915443E-01 
    9.5959999167987642E-01 
    9.5941058671746948E-01 
    9.4441591714049622E-01 
    9.4422045839450586E-01 
    9.5920098084168315E-01 
    9.5897231147426409E-01 
    9.4400707105915116E-01 
    9.4377686047489473E-01 
    9.5872580812378472E-01 
    9.5846278527603479E-01 
    9.4353101090347113E-01 
    9.4327077966303174E-01 
    9.5818463511892660E-01 
    9.5789282016965227E-01 
    9.4299749112956710E-01 
    9.4271253063579941E-01 
    9.5758886586144099E-01 
    9.5727435313416365E-01 
    9.4241733828692420E-01 
    9.4211340269589328E-01 
    9.5695091105596031E-01 
    9.5662020947987925E-01 
    9.4180225461614508E-01 
    9.4148546041137815E-01 
    9.5628395170653913E-01 
    9.5594386707444845E-01 
    9.4116461524046291E-01 
    9.4084133573223661E-01 
    9.5560170332098082E-01 
    9.5525921842375072E-01 
    9.4051725174302281E-01 
    9.4019399645636592E-01 
    9.5491817139310609E-01 
    9.5458031103389107E-01 
    9.3987319344972586E-01 
    9.3955643810548350E-01 
    9.5424736079693462E-01 
    9.5392099600168778E-01 
    9.3924526824367494E-01 
    9.3894111382539402E-01 
    9.5360280589428259E-01 
    9.5329422518183060E-01 
    9.3864520560747511E-01 
    9.3835840324659070E-01 
    9.5299640421607767E-01 
    9.5270995716542994E-01 
    9.3808086456917161E-01 
    9.3781138482261628E-01 
    9.5243446429473266E-01 
    9.5216742029336965E-01 
    9.3754592305397921E-01 
    9.3727342265471891E-01 
    9.5190154763161827E-01 
    9.5161536148128290E-01 
    9.3696044301503323E-01 
    9.3661614169532148E-01 
    9.5129009897753469E-01 
    9.5100519730850885E-01 
    9.3635025327079457E-01 
    9.3617817165887829E-01 
    9.5081535353812974E-01 
    9.5069532093557618E-01 
    9.3606476712185760E-01 
    9.3600792499596364E-01 
    9.5063534278126216E-01 
    9.2981484627412336E-01 
    9.1403724972096156E-01 
    9.1401532842978517E-01 
    9.2979246827334117E-01 
    9.2974784919000819E-01 
    9.1397161624370860E-01 
    9.1390637475174186E-01 
    9.2968126363574033E-01 
    9.2959309191162465E-01 
    9.1381996659497533E-01 
    9.1371285233272637E-01 
    9.2948381701446825E-01 
    9.2935402183179150E-01 
    9.1358558788879096E-01 
    9.1343882161396073E-01 
    9.2920438583164133E-01 
    9.2903568133558145E-01 
    9.1327329099930743E-01 
    9.1308981909978282E-01 
    9.2884876945552564E-01 
    9.2864459575020586E-01 
    9.1288931070856627E-01 
    9.1267274830984702E-01 
    9.2842418564318652E-01 
    9.2818863963632492E-01 
    9.1244118782987271E-01 
    9.1219575420010091E-01 
    9.2793912834666281E-01 
    9.2767688738864595E-01 
    9.1193763673986794E-01 
    9.1166808435685420E-01 
    9.2740321211562415E-01 
    9.2711945222331771E-01 
    9.1138840054961778E-01 
    9.1109993817546087E-01 
    9.2682700620150693E-01 
    9.2652731559496371E-01 
    9.1080409391375550E-01 
    9.1050230229962648E-01 
    9.2622185899402165E-01 
    9.2591214560792079E-01 
    9.1019602910944375E-01 
    9.0988676371645638E-01 
    9.2559970815809045E-01 
    9.2528609461993905E-01 
    9.0957600974120367E-01 
    9.0926527277935409E-01 
    9.2497285795358963E-01 
    9.2466154221924701E-01 
    9.0895604296805588E-01 
    9.0864976819652377E-01 
    9.2435366201140312E-01 
    9.2405066924496360E-01 
    9.0834780998963893E-01 
    9.0805136679427056E-01 
    9.2375389558492471E-01 
    9.2346444758016255E-01 
    9.0776133517657687E-01 
    9.0747805016219263E-01 
    9.2318300941589493E-01 
    9.2290946012134778E-01 
    9.0720077503084140E-01 
    9.0692658428316464E-01 
    9.2264207762043748E-01 
    9.2237558358845240E-01 
    9.0664732504042567E-01 
    9.0633842847359736E-01 
    9.2209473272463394E-01 
    9.2175888689603547E-01 
    9.0597268260416597E-01 
    9.0563284746000505E-01 