# vtk DataFile Version 2.0
Pressure Field Data 
ASCII 
DATASET UNSTRUCTURED_GRID 

POINTS 1681 double 

    0.0000000000000000E+00     0.0000000000000000E+00     0.0000000000000000E+00 
    1.0000000000000000E+00     0.0000000000000000E+00     0.0000000000000000E+00 
    1.0000000000000000E+00     1.0000000000000000E+00     0.0000000000000000E+00 
    0.0000000000000000E+00     1.0000000000000000E+00     0.0000000000000000E+00 
    5.2499999999875258E-01     0.0000000000000000E+00     0.0000000000000000E+00 
    7.4999999999856765E-02     0.0000000000000000E+00     0.0000000000000000E+00 
    1.2499999999975850E-01     0.0000000000000000E+00     0.0000000000000000E+00 
    1.7499999999962990E-01     0.0000000000000000E+00     0.0000000000000000E+00 
    2.2499999999948389E-01     0.0000000000000000E+00     0.0000000000000000E+00 
    2.7499999999933789E-01     0.0000000000000000E+00     0.0000000000000000E+00 
    3.2499999999919210E-01     0.0000000000000000E+00     0.0000000000000000E+00 
    3.7499999999904610E-01     0.0000000000000000E+00     0.0000000000000000E+00 
    4.2499999999890020E-01     0.0000000000000000E+00     0.0000000000000000E+00 
    4.7499999999875958E-01     0.0000000000000000E+00     0.0000000000000000E+00 
    2.4999999999949701E-02     0.0000000000000000E+00     0.0000000000000000E+00 
    5.7499999999887907E-01     0.0000000000000000E+00     0.0000000000000000E+00 
    6.2499999999901101E-01     0.0000000000000000E+00     0.0000000000000000E+00 
    6.7499999999914273E-01     0.0000000000000000E+00     0.0000000000000000E+00 
    7.2499999999927467E-01     0.0000000000000000E+00     0.0000000000000000E+00 
    7.7499999999940661E-01     0.0000000000000000E+00     0.0000000000000000E+00 
    8.2499999999953844E-01     0.0000000000000000E+00     0.0000000000000000E+00 
    8.7499999999967026E-01     0.0000000000000000E+00     0.0000000000000000E+00 
    9.2499999999980220E-01     0.0000000000000000E+00     0.0000000000000000E+00 
    9.7499999999993414E-01     0.0000000000000000E+00     0.0000000000000000E+00 
    5.4999999999881310E-01     0.0000000000000000E+00     0.0000000000000000E+00 
    9.9999999999814140E-02     0.0000000000000000E+00     0.0000000000000000E+00 
    1.4999999999970290E-01     0.0000000000000000E+00     0.0000000000000000E+00 
    1.9999999999955689E-01     0.0000000000000000E+00     0.0000000000000000E+00 
    2.4999999999941089E-01     0.0000000000000000E+00     0.0000000000000000E+00 
    2.9999999999926502E-01     0.0000000000000000E+00     0.0000000000000000E+00 
    3.4999999999911913E-01     0.0000000000000000E+00     0.0000000000000000E+00 
    3.9999999999897312E-01     0.0000000000000000E+00     0.0000000000000000E+00 
    4.4999999999882723E-01     0.0000000000000000E+00     0.0000000000000000E+00 
    4.9999999999869210E-01     0.0000000000000000E+00     0.0000000000000000E+00 
    4.9999999999899403E-02     0.0000000000000000E+00     0.0000000000000000E+00 
    5.9999999999894504E-01     0.0000000000000000E+00     0.0000000000000000E+00 
    6.4999999999907687E-01     0.0000000000000000E+00     0.0000000000000000E+00 
    6.9999999999920870E-01     0.0000000000000000E+00     0.0000000000000000E+00 
    7.4999999999934064E-01     0.0000000000000000E+00     0.0000000000000000E+00 
    7.9999999999947247E-01     0.0000000000000000E+00     0.0000000000000000E+00 
    8.4999999999960441E-01     0.0000000000000000E+00     0.0000000000000000E+00 
    8.9999999999973623E-01     0.0000000000000000E+00     0.0000000000000000E+00 
    9.4999999999986817E-01     0.0000000000000000E+00     0.0000000000000000E+00 
    1.0000000000000000E+00     5.2499999999875258E-01     0.0000000000000000E+00 
    1.0000000000000000E+00     7.4999999999856765E-02     0.0000000000000000E+00 
    1.0000000000000000E+00     1.2499999999975850E-01     0.0000000000000000E+00 
    1.0000000000000000E+00     1.7499999999962990E-01     0.0000000000000000E+00 
    1.0000000000000000E+00     2.2499999999948389E-01     0.0000000000000000E+00 
    1.0000000000000000E+00     2.7499999999933789E-01     0.0000000000000000E+00 
    1.0000000000000000E+00     3.2499999999919210E-01     0.0000000000000000E+00 
    1.0000000000000000E+00     3.7499999999904610E-01     0.0000000000000000E+00 
    1.0000000000000000E+00     4.2499999999890020E-01     0.0000000000000000E+00 
    1.0000000000000000E+00     4.7499999999875958E-01     0.0000000000000000E+00 
    1.0000000000000000E+00     2.4999999999949701E-02     0.0000000000000000E+00 
    1.0000000000000000E+00     5.7499999999887907E-01     0.0000000000000000E+00 
    1.0000000000000000E+00     6.2499999999901101E-01     0.0000000000000000E+00 
    1.0000000000000000E+00     6.7499999999914273E-01     0.0000000000000000E+00 
    1.0000000000000000E+00     7.2499999999927467E-01     0.0000000000000000E+00 
    1.0000000000000000E+00     7.7499999999940661E-01     0.0000000000000000E+00 
    1.0000000000000000E+00     8.2499999999953844E-01     0.0000000000000000E+00 
    1.0000000000000000E+00     8.7499999999967026E-01     0.0000000000000000E+00 
    1.0000000000000000E+00     9.2499999999980220E-01     0.0000000000000000E+00 
    1.0000000000000000E+00     9.7499999999993414E-01     0.0000000000000000E+00 
    1.0000000000000000E+00     5.4999999999881310E-01     0.0000000000000000E+00 
    1.0000000000000000E+00     9.9999999999814140E-02     0.0000000000000000E+00 
    1.0000000000000000E+00     1.4999999999970290E-01     0.0000000000000000E+00 
    1.0000000000000000E+00     1.9999999999955689E-01     0.0000000000000000E+00 
    1.0000000000000000E+00     2.4999999999941089E-01     0.0000000000000000E+00 
    1.0000000000000000E+00     2.9999999999926502E-01     0.0000000000000000E+00 
    1.0000000000000000E+00     3.4999999999911913E-01     0.0000000000000000E+00 
    1.0000000000000000E+00     3.9999999999897312E-01     0.0000000000000000E+00 
    1.0000000000000000E+00     4.4999999999882723E-01     0.0000000000000000E+00 
    1.0000000000000000E+00     4.9999999999869210E-01     0.0000000000000000E+00 
    1.0000000000000000E+00     4.9999999999899403E-02     0.0000000000000000E+00 
    1.0000000000000000E+00     5.9999999999894504E-01     0.0000000000000000E+00 
    1.0000000000000000E+00     6.4999999999907687E-01     0.0000000000000000E+00 
    1.0000000000000000E+00     6.9999999999920870E-01     0.0000000000000000E+00 
    1.0000000000000000E+00     7.4999999999934064E-01     0.0000000000000000E+00 
    1.0000000000000000E+00     7.9999999999947247E-01     0.0000000000000000E+00 
    1.0000000000000000E+00     8.4999999999960441E-01     0.0000000000000000E+00 
    1.0000000000000000E+00     8.9999999999973623E-01     0.0000000000000000E+00 
    1.0000000000000000E+00     9.4999999999986817E-01     0.0000000000000000E+00 
    4.7500000000196618E-01     1.0000000000000000E+00     0.0000000000000000E+00 
    9.2499999999968763E-01     1.0000000000000000E+00     0.0000000000000000E+00 
    8.7499999999961831E-01     1.0000000000000000E+00     0.0000000000000000E+00 
    8.2499999999982654E-01     1.0000000000000000E+00     0.0000000000000000E+00 
    7.7500000000017355E-01     1.0000000000000000E+00     0.0000000000000000E+00 
    7.2500000000052045E-01     1.0000000000000000E+00     0.0000000000000000E+00 
    6.7500000000086724E-01     1.0000000000000000E+00     0.0000000000000000E+00 
    6.2500000000121403E-01     1.0000000000000000E+00     0.0000000000000000E+00 
    5.7500000000156093E-01     1.0000000000000000E+00     0.0000000000000000E+00 
    5.2500000000189684E-01     1.0000000000000000E+00     0.0000000000000000E+00 
    9.7499999999989595E-01     1.0000000000000000E+00     0.0000000000000000E+00 
    4.2500000000176902E-01     1.0000000000000000E+00     0.0000000000000000E+00 
    3.7500000000156092E-01     1.0000000000000000E+00     0.0000000000000000E+00 
    3.2500000000135282E-01     1.0000000000000000E+00     0.0000000000000000E+00 
    2.7500000000114472E-01     1.0000000000000000E+00     0.0000000000000000E+00 
    2.2500000000093659E-01     1.0000000000000000E+00     0.0000000000000000E+00 
    1.7500000000072849E-01     1.0000000000000000E+00     0.0000000000000000E+00 
    1.2500000000052039E-01     1.0000000000000000E+00     0.0000000000000000E+00 
    7.5000000000312261E-02     1.0000000000000000E+00     0.0000000000000000E+00 
    2.5000000000104109E-02     1.0000000000000000E+00     0.0000000000000000E+00 
    4.5000000000187301E-01     1.0000000000000000E+00     0.0000000000000000E+00 
    8.9999999999958358E-01     1.0000000000000000E+00     0.0000000000000000E+00 
    8.4999999999965303E-01     1.0000000000000000E+00     0.0000000000000000E+00 
    8.0000000000000004E-01     1.0000000000000000E+00     0.0000000000000000E+00 
    7.5000000000034706E-01     1.0000000000000000E+00     0.0000000000000000E+00 
    7.0000000000069384E-01     1.0000000000000000E+00     0.0000000000000000E+00 
    6.5000000000104063E-01     1.0000000000000000E+00     0.0000000000000000E+00 
    6.0000000000138742E-01     1.0000000000000000E+00     0.0000000000000000E+00 
    5.5000000000173432E-01     1.0000000000000000E+00     0.0000000000000000E+00 
    5.0000000000205946E-01     1.0000000000000000E+00     0.0000000000000000E+00 
    9.4999999999979179E-01     1.0000000000000000E+00     0.0000000000000000E+00 
    4.0000000000166491E-01     1.0000000000000000E+00     0.0000000000000000E+00 
    3.5000000000145681E-01     1.0000000000000000E+00     0.0000000000000000E+00 
    3.0000000000124871E-01     1.0000000000000000E+00     0.0000000000000000E+00 
    2.5000000000104061E-01     1.0000000000000000E+00     0.0000000000000000E+00 
    2.0000000000083251E-01     1.0000000000000000E+00     0.0000000000000000E+00 
    1.5000000000062441E-01     1.0000000000000000E+00     0.0000000000000000E+00 
    1.0000000000041630E-01     1.0000000000000000E+00     0.0000000000000000E+00 
[...]
CELL_DATA 1600 
SCALARS Pressure double 1 
LOOKUP_TABLE default 

    1.2163991197061752E+00 
    1.1697938652695359E+00 
    1.1673539033183933E+00 
    1.2006536836816073E+00 
    1.1880194573802150E+00 
    1.1636549226353154E+00 
    1.1593803250417940E+00 
    1.1776514447734230E+00 
    1.1689562066228696E+00 
    1.1549146985051157E+00 
    1.1504704490460977E+00 
    1.1615219956653855E+00 
    1.1550586513878942E+00 
    1.1461601562574524E+00 
    1.1420389518071521E+00 
    1.1493582360724743E+00 
    1.1442692036553834E+00 
    1.1381293651151483E+00 
    1.1344358667080638E+00 
    1.1396792741350286E+00 
    1.1355039371292683E+00 
    1.1309533436972306E+00 
    1.1276719976676304E+00 
    1.1316786300850461E+00 
    1.1281533422319188E+00 
    1.1245801340770434E+00 
    1.1216657119067444E+00 
    1.1248888392550969E+00 
    1.1218539845226787E+00 
    1.1189171681179217E+00 
    1.1163238218628242E+00 
    1.1190238118377909E+00 
    1.1163781199963345E+00 
    1.1138760390240208E+00 
    1.1115652636968587E+00 
    1.1139004343968024E+00 
    1.1115772301971125E+00 
    1.1093839791938931E+00 
    1.1073256349248302E+00 
    1.1093973442183420E+00 
    1.1073515247550030E+00 
    1.1053845599088288E+00 
    1.1035558744330258E+00 
    1.1054320833615858E+00 
    1.1036326229217914E+00 
    1.1018354059293207E+00 
    1.1002196119706154E+00 
    1.1019478234107929E+00 
    1.1003732717395096E+00 
    1.0987055114673732E+00 
    1.0972906241164271E+00 
    1.0989053255844865E+00 
    1.0975410035877788E+00 
    1.0959729175676285E+00 
    1.0947507613926197E+00 
    1.0962778960229722E+00 
    1.0951140910834234E+00 
    1.0936228865524142E+00 
    1.0925883483601244E+00 
    1.0940481122732508E+00 
    1.0930788614459133E+00 
    1.0916464892275115E+00 
    1.0907968928678824E+00 
    1.0922055581125529E+00 
    1.0914276539363343E+00 
    1.0900393090801173E+00 
    1.0893734969775239E+00 
    1.0907446712400102E+00 
    1.0901558497814670E+00 
    1.0887988686908967E+00 
    1.0883137009662538E+00 
    1.0896593726794950E+00 
    1.0892507604693145E+00 
    1.0879134925893443E+00 
    1.0875880766419226E+00 
    1.0889200674739441E+00 
    1.0886607963272563E+00 
    1.0873316307297114E+00 
    1.0871956971595857E+00 
    1.0885234069226080E+00 
    1.1457417289767517E+00 
    1.1282492069638492E+00 
    1.1278709055139262E+00 
    1.1449598302242336E+00 
    1.1435211914342076E+00 
    1.1271386297148800E+00 
    1.1260944015482244E+00 
    1.1415836819113925E+00 
    1.1392944748561775E+00 
    1.1247883258118578E+00 
    1.1232718511926620E+00 
    1.1367758574582640E+00 
    1.1341232464416247E+00 
    1.1215935145607199E+00 
    1.1197966843600888E+00 
    1.1314081316641997E+00 
    1.1286825013531523E+00 
    1.1179186879532879E+00 
    1.1159907977700119E+00 
    1.1259832310163786E+00 
    1.1233358610157635E+00 
    1.1140386922600289E+00 
    1.1120831362594807E+00 
    1.1207576261560215E+00 
    1.1182597866400648E+00 
    1.1101407237000538E+00 
    1.1082245939357516E+00 
    1.1158493740520372E+00 
    1.1135304751367792E+00 
    1.1063450773641301E+00 
    1.1045102531812905E+00 
    1.1113051629519672E+00 
    1.1091741650693177E+00 
    1.1027264176564040E+00 
    1.1009984694262462E+00 
    1.1071373387533665E+00 
    1.1051940060427603E+00 
    1.0993302218946712E+00 
    1.0977246537905099E+00 
    1.1033431880118809E+00 
    1.1015837669746169E+00 
    1.0961841085013921E+00 
    1.0947104516965964E+00 
    1.0999145974937026E+00 
    1.0983345812254557E+00 
    1.0933051954062780E+00 
    1.0919695953690252E+00 
    1.0968427163672632E+00 
    1.0954381293788760E+00 
    1.0907047272068249E+00 
    1.0895115458748379E+00 
    1.0941200943979374E+00 
    1.0928880441111495E+00 
    1.0883909318526073E+00 
    1.0873437266391226E+00 
    1.0917415745596200E+00 
    1.0906804452243541E+00 
    1.0863707591611786E+00 
    1.0854728634061035E+00 
    1.0897045744109655E+00 
    1.0888140276641727E+00 
    1.0846508851595826E+00 
    1.0839056699921816E+00 
    1.0880089916450031E+00 
    1.0872897123459371E+00 
    1.0832380101447052E+00 
    1.0826484940881091E+00 
    1.0866563438943349E+00 
    1.0861085875162895E+00 
    1.0821371356275511E+00 
    1.0817025455830134E+00 
    1.0856448857938454E+00 
    1.0852607380235824E+00 
    1.0813401928799451E+00 
    1.0810392755030767E+00 
    1.0849457129675251E+00 
    1.0846955175758317E+00 
    1.0807981050893645E+00 
    1.0806708996829710E+00 
    1.0845630501610839E+00 
    1.1134899239303619E+00 
    1.1000472406302715E+00 
    1.0998990051796778E+00 
    1.1132659188706178E+00 
    1.1128254013846293E+00 
    1.0996056115385129E+00 
    1.0991734593978704E+00 
    1.1121830431170914E+00 
    1.1113584659531117E+00 
    1.0986115785411967E+00 
    1.0979309972100464E+00 
    1.1103742376382157E+00 
    1.1092541168840717E+00 
    1.0971440839562403E+00 
    1.0962639372680287E+00 
    1.1080216928796636E+00 
    1.1066994348919892E+00 
    1.0953038653617353E+00 
    1.0942769735729083E+00 
    1.1053081014955541E+00 
    1.1038664341324933E+00 
    1.0931958594455633E+00 
    1.0920724051870416E+00 
    1.1023910583347794E+00 
    1.1008965258043903E+00 
    1.0909176520716803E+00 
    1.0897417399614899E+00 
    1.0993954442660054E+00 
    1.0978986556369061E+00 
    1.0885538959366952E+00 
    1.0873624580260577E+00 
    1.0964154348183670E+00 
    1.0949536907505251E+00 
    1.0861749224753734E+00 
    1.0849980054500221E+00 
    1.0935201583645884E+00 
    1.0921205750569964E+00 
    1.0838377122931964E+00 
    1.0826994093490387E+00 
    1.0907598387174273E+00 
    1.0894421465605879E+00 
    1.0815878948853024E+00 
    1.0805074668348589E+00 
    1.0881711153724392E+00 
    1.0869498845455470E+00 
    1.0794619859622649E+00 
    1.0784549336988334E+00 
    1.0857812036394150E+00 
    1.0846675062971993E+00 
    1.0774894643216149E+00 
    1.0765684514111638E+00 
    1.0836109722695453E+00 
    1.0826135790850469E+00 
    1.0756945286223492E+00 
    1.0748701247161290E+00 
    1.0816771445605100E+00 
    1.0808033607726493E+00 
    1.0740974924169764E+00 
    1.0733787296473569E+00 
    1.0799938190261258E+00 
    1.0792500229074973E+00 
    1.0727157890926997E+00 
    1.0721104652993989E+00 
    1.0785733803662754E+00 
    1.0779651502704655E+00 
    1.0715643317888681E+00 
    1.0710785643180598E+00 
    1.0774262838034416E+00 
    1.0769570342955539E+00 
    1.0706535196839915E+00 
    1.0702878203433666E+00 
    1.0765560945437684E+00 
    1.0762187732495254E+00 
    1.0699763914440781E+00 
    1.0697067344059052E+00 
    1.0759336363753749E+00 
    1.0757031054016517E+00 
    1.0694872621774740E+00 
    1.0693743588739573E+00 
    1.0755825913740897E+00 
    1.0872516557136427E+00 
    1.0747386986744514E+00 
    1.0746603585040171E+00 
    1.0871464723163020E+00 
    1.0869376309075178E+00 
    1.0745045453538660E+00 
    1.0742731662018949E+00 
    1.0866284178041508E+00 
    1.0862235930842052E+00 
    1.0739690176194998E+00 
    1.0735956933925463E+00 
    1.0857291635021311E+00 
    1.0851521194677869E+00 
    1.0731574689857428E+00 
    1.0726591743990266E+00 
    1.0845001642076244E+00 
    1.0837814557315006E+00 
    1.0721060643263729E+00 
    1.0715036926640802E+00 
    1.0830043754740126E+00 
    1.0821773314380700E+00 
    1.0708577965666262E+00 
    1.0701741934717501E+00 
    1.0813085987742990E+00 
    1.0804061971492687E+00 
    1.0694586929445944E+00 
    1.0687170239073323E+00 
    1.0794778019129305E+00 
    1.0785306847636031E+00 
    1.0679547768524138E+00 
    1.0671773599688028E+00 
    1.0775716790768226E+00 
    1.0766071650730700E+00 
    1.0663899677008952E+00 
    1.0655975600578633E+00 
    1.0756430703474908E+00 
    1.0746848818169474E+00 
    1.0648048509446939E+00 
    1.0640163038475572E+00 
    1.0737376657451909E+00 
    1.0728060931116257E+00 
    1.0632361333352700E+00 
    1.0624683110032442E+00 
    1.0718944681477545E+00 
    1.0710067583529350E+00 
    1.0617165746614279E+00 
    1.0609844397331596E+00 
    1.0701466247051161E+00 
    1.0693174510963652E+00 
    1.0602752119693502E+00 
    1.0595920006699890E+00 
    1.0685223722392876E+00 
    1.0677642993881353E+00 
    1.0589377316057751E+00 
    1.0583151586693007E+00 
    1.0670459431416914E+00 
    1.0663698321955977E+00 
    1.0577268727714650E+00 
    1.0571753051486692E+00 
    1.0657383257869519E+00 
    1.0651536146170193E+00 
    1.0566627187750914E+00 
    1.0561911729018705E+00 
    1.0646176974224686E+00 
    1.0641323021692155E+00 
    1.0557624259792242E+00 
    1.0553777033664737E+00 
    1.0636986831570279E+00 
    1.0633171580679417E+00 
    1.0550371876631890E+00 
    1.0547389377451390E+00 
    1.0629861183786589E+00 
    1.0626998485724917E+00 
    1.0544763990600745E+00 
    1.0542337770079342E+00 
    1.0624442997561154E+00 
    1.0622356871766794E+00 
    1.0540360963440103E+00 
    1.0539390122093109E+00 
    1.0621307535512730E+00 
    1.0622914824095502E+00 
    1.0497731699217896E+00 
    1.0497250068233321E+00 
    1.0622309625781403E+00 
    1.0621104721436079E+00 
    1.0496290605686385E+00 
    1.0494861714757882E+00 
    1.0619312288422893E+00 
    1.0616950254287008E+00 
    1.0492975741630262E+00 
    1.0490648773109905E+00 
    1.0614041881441758E+00 
    1.0610615210443577E+00 
    1.0487900344915893E+00 
    1.0484753093456090E+00 
    1.0606702418377831E+00 
    1.0602339132989536E+00 
    1.0481232371741145E+00 
    1.0477365846369147E+00 
    1.0597563736455773E+00 
    1.0592416686818984E+00 
    1.0473183090269806E+00 
    1.0468715183699835E+00 
    1.0586939878983141E+00 
    1.0581176061059858E+00 
    1.0463994333643529E+00 
    1.0459053519382251E+00 
    1.0575168316142121E+00 
    1.0568959614591626E+00 
    1.0453926169687593E+00 
    1.0448645874980280E+00 
    1.0562592437822471E+00 
    1.0556108471396102E+00 
    1.0443246135958704E+00 
    1.0437760148676245E+00 
    1.0549548362964227E+00 
    1.0542951539103269E+00 
    1.0432220624841935E+00 
    1.0426659645214904E+00 
    1.0536356074241191E+00 
    1.0529798604539642E+00 
    1.0421108543321389E+00 
    1.0415597816290614E+00 
    1.0523314279616793E+00 
    1.0516936745239935E+00 
    1.0410157059315079E+00 
    1.0404814920001106E+00 
    1.0510698150439337E+00 
    1.0504629172731073E+00 
    1.0399599068551730E+00 
    1.0394536179079363E+00 
    1.0498759055048226E+00 
    1.0493115647133178E+00 
    1.0389651915899800E+00 
    1.0384970915323295E+00 
    1.0487725441610571E+00 
    1.0482613588495107E+00 
    1.0380516745541526E+00 
    1.0376311807848180E+00 
    1.0477803855694812E+00 
    1.0473318462422037E+00 
    1.0372377095018193E+00 
    1.0368731613162541E+00 
    1.0469177614501182E+00 
    1.0465398358771461E+00 
    1.0365391049228971E+00 
    1.0362364863678191E+00 
    1.0461991977989886E+00 
    1.0458958436421335E+00 
    1.0359650214269054E+00 
    1.0357218657066445E+00 
    1.0456274521617892E+00 
    1.0453864753746276E+00 
    1.0354980784515944E+00 
    1.0352779043077913E+00 
    1.0451560171216610E+00 
    1.0449699212835386E+00 
    1.0351042016354015E+00 
    1.0350221329570892E+00 
    1.0448803537716977E+00 
    1.0370940902617669E+00 
    1.0241941812192532E+00 
    1.0241612806748770E+00 
    1.0370547567496113E+00 
    1.0369763723499172E+00 
    1.0240957026676527E+00 
    1.0239979272794291E+00 
    1.0368595553622775E+00 
    1.0367052086058277E+00 
    1.0238686493387521E+00 
    1.0237087724413312E+00 
    1.0365145088282268E+00 
    1.0362888902108696E+00 
    1.0235193989316715E+00 
    1.0233018173155786E+00 
    1.0360300241112841E+00 
    1.0357397962256338E+00 
    1.0230574878567416E+00 
    1.0227880268848544E+00 
    1.0354202820789915E+00 
    1.0350737216349624E+00 
    1.0224951902632364E+00 
    1.0221808564180765E+00 
    1.0347024937262124E+00 
    1.0343090909142385E+00 
    1.0218470092902971E+00 
    1.0214957215272542E+00 
    1.0338960952865610E+00 
    1.0334661555956686E+00 
    1.0211291381841199E+00 
    1.0207494611550540E+00 
    1.0330219660413205E+00 
    1.0325662469005827E+00 
    1.0203589345038926E+00 
    1.0199598308145998E+00 
    1.0321017271215174E+00 
    1.0316311289186246E+00 
    1.0195544386342184E+00 
    1.0191450510357301E+00 
    1.0311571543415252E+00 
    1.0306824737320490E+00 
    1.0187339552844210E+00 
    1.0183234235467933E+00 
    1.0302097159366390E+00 
    1.0297414600964763E+00 
    1.0179157045313085E+00 
    1.0175130158866599E+00 
    1.0292802287896121E+00 
    1.0288284822341855E+00 
    1.0171175370889733E+00 
    1.0167314023898124E+00 
    1.0283886131527893E+00 
    1.0279629416876181E+00 
    1.0163566930964261E+00 
    1.0159954278388843E+00 
    1.0275537093096072E+00 
    1.0271630696504421E+00 
    1.0156495481245649E+00 
    1.0153208934006768E+00 
    1.0267930717840910E+00 
    1.0264456258327606E+00 
    1.0150111529567278E+00 
    1.0147217677199791E+00 
    1.0261224283853099E+00 
    1.0258248011808269E+00 
    1.0144537283779724E+00 
    1.0142071669517148E+00 
    1.0255533537283610E+00 
    1.0253072865319097E+00 
    1.0139805094774899E+00 
    1.0137683980546117E+00 
    1.0250827940340490E+00 
    1.0248684379044761E+00 
    1.0135552593626054E+00 
    1.0133420352435603E+00 
    1.0246541041035080E+00 
    1.0244934596156610E+00 
    1.0131942700987235E+00 
    1.0131291838966692E+00 
    1.0244196589950587E+00 
    1.0110329429642555E+00 
    9.9758338354578091E-01 
    9.9755869172110456E-01 
    1.0110047747003525E+00 
    1.0109486229422362E+00 
    9.9750946723067724E-01 
    9.9743603994679608E-01 
    1.0108648778706966E+00 
    1.0107540985365093E+00 
    9.9733887780177033E-01 
    9.9721858416553688E-01 
    1.0106170091435827E+00 
    1.0104544925260261E+00 
    9.9707589329375290E-01 
    9.9691166446587742E-01 
    1.0102675818169389E+00 
    1.0100574508275770E+00 
    9.9672687518768011E-01 
    9.9652261368154549E-01 
    1.0098254034685465E+00 
    1.0095728624814522E+00 
    9.9630007083511862E-01 
    9.9606053175646803E-01 
    1.0093013577199403E+00 
    1.0090125141978510E+00 
    9.9580536707087208E-01 
    9.9553602408343367E-01 
    1.0087080401015192E+00 
    1.0083897149407766E+00 
    9.9525401792049439E-01 
    9.9496092275036796E-01 
    1.0080593779886595E+00 
    1.0077189171335104E+00 
    9.9465836317005141E-01 
    9.9434800582921479E-01 
    1.0073702582395463E+00 
    1.0070153550832806E+00 
    9.9403155134576271E-01 
    9.9371072654804238E-01 
    1.0066561799031022E+00 
    1.0062947145667096E+00 
    9.9338727705604424E-01 
    9.9306296018495421E-01 
    1.0059329423232515E+00 
    1.0055728400586550E+00 
    9.9273953811352400E-01 
    9.9241877119559840E-01 
    1.0052163709032091E+00 
    1.0048654769290861E+00 
    9.9210241118195064E-01 
    9.9179219390951745E-01 
    1.0045220714781276E+00 
    1.0041880302796702E+00 
    9.9148983058948537E-01 
    9.9119699591658295E-01 
    1.0038651797310585E+00 
    1.0035552789997211E+00 
    9.9091530922314564E-01 
    9.9064630053716118E-01 
    1.0032599888100837E+00 
    1.0029808116403245E+00 
    9.9039134435266329E-01 
    9.9015152665133044E-01 
    1.0027189719553715E+00 
    1.0024751756483148E+00 
    9.8992737890576921E-01 
    9.8971833989621771E-01 
    1.0022491284416217E+00 
    1.0020385062063888E+00 
    9.8952153470760940E-01 
    9.8932814179268569E-01 
    1.0018361951463099E+00 
    1.0016217061578885E+00 
    9.8911417801262447E-01 
    9.8890661915300582E-01 
    1.0014094378782064E+00 
    1.0012721106291207E+00 
    9.8877658245989808E-01 
    9.8872030833538849E-01 
    1.0012133994934260E+00 
    9.8382823648127582E-01 
    9.6975755471567870E-01 
    9.6973710990678108E-01 
    9.8380605582035374E-01 
    9.8376183613000301E-01 
    9.6969634989220599E-01 
    9.6963553565825411E-01 
    9.8369586619688909E-01 
    9.8360855208362941E-01 
    9.6955503174888436E-01 
    9.6945530425583659E-01 
    9.8350041498499319E-01 
    9.8337208782197927E-01 
    9.6933691808703237E-01 
    9.6920053349697133E-01 
    9.8322431086277751E-01 
    9.8305792664546221E-01 
    9.6904690207768418E-01 
    9.6887686232714221E-01 
    9.8287387436112761E-01 
    9.8267318381175706E-01 
    9.6869133487518511E-01 
    9.6849131743122452E-01 
    9.8245696903867219E-01 
    9.8222642170790475E-01 
    9.6827787951020450E-01 
    9.6805215698829938E-01 
    9.8198280433215723E-01 
    9.8172744340272355E-01 
    9.6781534653541590E-01 
    9.6756869996662909E-01 
    9.8146172249783037E-01 
    9.8118707542588202E-01 
    9.6731351854852343E-01 
    9.6705114728831609E-01 
    9.8090497945264599E-01 
    9.8061694865008808E-01 
    9.6678296922264995E-01 
    9.6651039970744101E-01 
    9.8032452739051412E-01 
    9.8002928399126144E-01 
    9.6623488068737806E-01 
    9.6595787488842000E-01 
    9.7973280448922484E-01 
    9.7943668648446114E-01 
    9.6568085981900764E-01 
    9.6540532136617152E-01 
    9.7914253292467002E-01 
    9.7885194557907940E-01 
    9.6513274659104942E-01 
    9.6486461497903087E-01 
    9.7856651770845027E-01 
    9.7828782493652744E-01 
    9.6460238669806064E-01 
    9.6434748496754652E-01 
    9.7801741224954264E-01 
    9.7775677270328898E-01 
    9.6410126662263751E-01 
    9.6386496883985051E-01 
    9.7750730843040912E-01 
    9.7727025457283689E-01 
    9.6363960820257333E-01 
    9.6342578622500186E-01 
    9.7704652819295390E-01 
    9.7683642829090778E-01 
    9.6322330820733182E-01 
    9.6303037214722065E-01 
    9.7663901573645084E-01 
    9.7645058650582439E-01 
    9.6284139731626606E-01 
    9.6263967159053299E-01 
    9.7625969957287984E-01 
    9.7604385998201870E-01 
    9.6241342991683243E-01 
    9.6222613529444367E-01 
    9.7584477978397244E-01 
    9.7572244528601648E-01 
    9.6211560250279671E-01 
    9.6206341556763741E-01 
    9.7566729766546101E-01 
    9.5536719134501158E-01 
    9.4065789081336881E-01 
    9.4063902050932147E-01 
    9.5534782723386391E-01 
    9.5530922062045420E-01 
    9.4060139673510579E-01 
    9.4054525241754572E-01 
    9.5525161452787821E-01 
    9.5517534712842933E-01 
    9.4047091151245965E-01 
    9.4037878671181641E-01 
    9.5508084966057627E-01 
    9.5496864408650162E-01 
    9.4026937730673521E-01 
    9.4014326660678671E-01 
    9.5483934018076655E-01 
    9.5469363218495884E-01 
    9.4000111899313399E-01 
    9.3984367667133006E-01 
    9.5453229511607229E-01 
    9.5435618078678508E-01 
    9.3967175616720033E-01 
    9.3948624459780461E-01 
    9.5416621358222742E-01 
    9.5396338603113173E-01 
    9.3928809574376282E-01 
    9.3907832594587326E-01 
    9.5374875420510452E-01 
    9.5352343297617381E-01 
    9.3885800984621148E-01 
    9.3862827599065057E-01 
    9.5328859115857723E-01 
    9.5304544655514822E-01 
    9.3839030230520692E-01 
    9.3814531145180857E-01 
    9.5279526092061817E-01 
    9.5253933484224329E-01 
    9.3789456605855626E-01 
    9.3763936380253354E-01 
    9.5227900251994224E-01 
    9.5201562639945259E-01 
    9.3738103229528402E-01 
    9.3712092367359268E-01 
    9.5175059156536290E-01 
    9.5148529972192319E-01 
    9.3686040871475318E-01 
    9.3660087014359428E-01 
    9.5122116245064048E-01 
    9.5095959317935763E-01 
    9.3634369451278887E-01 
    9.3609026148383800E-01 
    9.5070199681311407E-01 
    9.5044975502400353E-01 
    9.3584192823789847E-01 
    9.3560000455130610E-01 
    9.5020420328474720E-01 
    9.4996659189532795E-01 
    9.3536570972884381E-01 
    9.3514009420047817E-01 
    9.4973801574345185E-01 
    9.4951928330898461E-01 
    9.3492389253396602E-01 
    9.3471724085470509E-01 
    9.4931066768313799E-01 
    9.4911141481655570E-01 
    9.3451909646085896E-01 
    9.3432581285262317E-01 
    9.4891864052814789E-01 
    9.4872411436594362E-01 
    9.3412659702359302E-01 
    9.3389102013633074E-01 