# vtk DataFile Version 2.0
Pressure Field Data 
ASCII 
DATASET UNSTRUCTURED_GRID 

POINTS 1681 double 

    0.0000000000000000E+00     0.0000000000000000E+00     0.0000000000000000E+00 
    1.0000000000000000E+00     0.0000000000000000E+00     0.0000000000000000E+00 
    1.0000000000000000E+00     1.0000000000000000E+00     0.0000000000000000E+00 
    0.0000000000000000E+00     1.0000000000000000E+00     0.0000000000000000E+00 
    5.2499999999875258E-01     0.0000000000000000E+00     0.0000000000000000E+00 
    7.4999999999856765E-02     0.0000000000000000E+00     0.0000000000000000E+00 
    1.2499999999975850E-01     0.0000000000000000E+00     0.0000000000000000E+00 
    1.7499999999962990E-01     0.0000000000000000E+00     0.0000000000000000E+00 
    2.2499999999948389E-01     0.0000000000000000E+00     0.0000000000000000E+00 
    2.7499999999933789E-01     0.0000000000000000E+00     0.0000000000000000E+00 
    3.2499999999919210E-01     0.0000000000000000E+00     0.0000000000000000E+00 
    3.7499999999904610E-01     0.0000000000000000E+00     0.0000000000000000E+00 
    4.2499999999890020E-01     0.0000000000000000E+00     0.0000000000000000E+00 
    4.7499999999875958E-01     0.0000000000000000E+00     0.0000000000000000E+00 
    2.4999999999949701E-02     0.0000000000000000E+00     0.0000000000000000E+00 
    5.7499999999887907E-01     0.0000000000000000E+00     0.0000000000000000E+00 
    6.2499999999901101E-01     0.0000000000000000E+00     0.0000000000000000E+00 
    6.7499999999914273E-01     0.0000000000000000E+00     0.0000000000000000E+00 
    7.2499999999927467E-01     0.0000000000000000E+00     0.0000000000000000E+00 
    7.7499999999940661E-01     0.0000000000000000E+00     0.0000000000000000E+00 
    8.2499999999953844E-01     0.0000000000000000E+00     0.0000000000000000E+00 
    8.7499999999967026E-01     0.0000000000000000E+00     0.0000000000000000E+00 
    9.2499999999980220E-01     0.0000000000000000E+00     0.0000000000000000E+00 
    9.7499999999993414E-01     0.0000000000000000E+00     0.0000000000000000E+00 
    5.4999999999881310E-01     0.0000000000000000E+00     0.0000000000000000E+00 
    9.9999999999814140E-02     0.0000000000000000E+00     0.0000000000000000E+00 
    1.4999999999970290E-01     0.0000000000000000E+00     0.0000000000000000E+00 
    1.9999999999955689E-01     0.0000000000000000E+00     0.0000000000000000E+00 
    2.4999999999941089E-01     0.0000000000000000E+00     0.0000000000000000E+00 
    2.9999999999926502E-01     0.0000000000000000E+00     0.0000000000000000E+00 
    3.4999999999911913E-01     0.0000000000000000E+00     0.0000000000000000E+00 
    3.9999999999897312E-01     0.0000000000000000E+00     0.0000000000000000E+00 
    4.4999999999882723E-01     0.0000000000000000E+00     0.0000000000000000E+00 
    4.9999999999869210E-01     0.0000000000000000E+00     0.0000000000000000E+00 
    4.9999999999899403E-02     0.0000000000000000E+00     0.0000000000000000E+00 
    5.9999999999894504E-01     0.0000000000000000E+00     0.0000000000000000E+00 
    6.4999999999907687E-01     0.0000000000000000E+00     0.0000000000000000E+00 
    6.9999999999920870E-01     0.0000000000000000E+00     0.0000000000000000E+00 
    7.4999999999934064E-01     0.0000000000000000E+00     0.0000000000000000E+00 
    7.9999999999947247E-01     0.0000000000000000E+00     0.0000000000000000E+00 
    8.4999999999960441E-01     0.0000000000000000E+00     0.0000000000000000E+00 
    8.9999999999973623E-01     0.0000000000000000E+00     0.0000000000000000E+00 
    9.4999999999986817E-01     0.0000000000000000E+00     0.0000000000000000E+00 
    1.0000000000000000E+00     5.2499999999875258E-01     0.0000000000000000E+00 
    1.0000000000000000E+00     7.4999999999856765E-02     0.0000000000000000E+00 
    1.0000000000000000E+00     1.2499999999975850E-01     0.0000000000000000E+00 
    1.0000000000000000E+00     1.7499999999962990E-01     0.0000000000000000E+00 
    1.0000000000000000E+00     2.2499999999948389E-01     0.0000000000000000E+00 
    1.0000000000000000E+00     2.7499999999933789E-01     0.0000000000000000E+00 
    1.0000000000000000E+00     3.2499999999919210E-01     0.0000000000000000E+00 
    1.0000000000000000E+00     3.7499999999904610E-01     0.0000000000000000E+00 
    1.0000000000000000E+00     4.2499999999890020E-01     0.0000000000000000E+00 
    1.0000000000000000E+00     4.7499999999875958E-01     0.0000000000000000E+00 
    1.0000000000000000E+00     2.4999999999949701E-02     0.0000000000000000E+00 
    1.0000000000000000E+00     5.7499999999887907E-01     0.0000000000000000E+00 
    1.0000000000000000E+00     6.2499999999901101E-01     0.0000000000000000E+00 
    1.0000000000000000E+00     6.7499999999914273E-01     0.0000000000000000E+00 
    1.0000000000000000E+00     7.2499999999927467E-01     0.0000000000000000E+00 
    1.0000000000000000E+00     7.7499999999940661E-01     0.0000000000000000E+00 
    1.0000000000000000E+00     8.2499999999953844E-01     0.0000000000000000E+00 
    1.0000000000000000E+00     8.7499999999967026E-01     0.0000000000000000E+00 
    1.0000000000000000E+00     9.2499999999980220E-01     0.0000000000000000E+00 
    1.0000000000000000E+00     9.7499999999993414E-01     0.0000000000000000E+00 
    1.0000000000000000E+00     5.4999999999881310E-01     0.0000000000000000E+00 
    1.0000000000000000E+00     9.9999999999814140E-02     0.0000000000000000E+00 
    1.0000000000000000E+00     1.4999999999970290E-01     0.0000000000000000E+00 
    1.0000000000000000E+00     1.9999999999955689E-01     0.0000000000000000E+00 
    1.0000000000000000E+00     2.4999999999941089E-01     0.0000000000000000E+00 
    1.0000000000000000E+00     2.9999999999926502E-01     0.0000000000000000E+00 
    1.0000000000000000E+00     3.4999999999911913E-01     0.0000000000000000E+00 
    1.0000000000000000E+00     3.9999999999897312E-01     0.0000000000000000E+00 
    1.0000000000000000E+00     4.4999999999882723E-01     0.0000000000000000E+00 
    1.0000000000000000E+00     4.9999999999869210E-01     0.0000000000000000E+00 
    1.0000000000000000E+00     4.9999999999899403E-02     0.0000000000000000E+00 
    1.0000000000000000E+00     5.9999999999894504E-01     0.0000000000000000E+00 
    1.0000000000000000E+00     6.4999999999907687E-01     0.0000000000000000E+00 
    1.0000000000000000E+00     6.9999999999920870E-01     0.0000000000000000E+00 
    1.0000000000000000E+00     7.4999999999934064E-01     0.0000000000000000E+00 
    1.0000000000000000E+00     7.9999999999947247E-01     0.0000000000000000E+00 
    1.0000000000000000E+00     8.4999999999960441E-01     0.0000000000000000E+00 
    1.0000000000000000E+00     8.9999999999973623E-01     0.0000000000000000E+00 
    1.0000000000000000E+00     9.4999999999986817E-01     0.0000000000000000E+00 
    4.7500000000196618E-01     1.0000000000000000E+00     0.0000000000000000E+00 
    9.2499999999968763E-01     1.0000000000000000E+00     0.0000000000000000E+00 
    8.7499999999961831E-01     1.0000000000000000E+00     0.0000000000000000E+00 
    8.2499999999982654E-01     1.0000000000000000E+00     0.0000000000000000E+00 
    7.7500000000017355E-01     1.0000000000000000E+00     0.0000000000000000E+00 
    7.2500000000052045E-01     1.0000000000000000E+00     0.0000000000000000E+00 
    6.7500000000086724E-01     1.0000000000000000E+00     0.0000000000000000E+00 
    6.2500000000121403E-01     1.0000000000000000E+00     0.0000000000000000E+00 
    5.7500000000156093E-01     1.0000000000000000E+00     0.0000000000000000E+00 
    5.2500000000189684E-01     1.0000000000000000E+00     0.0000000000000000E+00 
    9.7499999999989595E-01     1.0000000000000000E+00     0.0000000000000000E+00 
    4.2500000000176902E-01     1.0000000000000000E+00     0.0000000000000000E+00 
    3.7500000000156092E-01     1.0000000000000000E+00     0.0000000000000000E+00 
    3.2500000000135282E-01     1.0000000000000000E+00     0.0000000000000000E+00 
    2.7500000000114472E-01     1.0000000000000000E+00     0.0000000000000000E+00 
    2.2500000000093659E-01     1.0000000000000000E+00     0.0000000000000000E+00 
    1.7500000000072849E-01     1.0000000000000000E+00     0.0000000000000000E+00 
    1.2500000000052039E-01     1.0000000000000000E+00     0.0000000000000000E+00 
    7.5000000000312261E-02     1.0000000000000000E+00     0.0000000000000000E+00 
    2.5000000000104109E-02     1.0000000000000000E+00     0.0000000000000000E+00 
    4.5000000000187301E-01     1.0000000000000000E+00     0.0000000000000000E+00 
    8.9999999999958358E-01     1.0000000000000000E+00     0.0000000000000000E+00 
    8.4999999999965303E-01     1.0000000000000000E+00     0.0000000000000000E+00 
    8.0000000000000004E-01     1.0000000000000000E+00     0.0000000000000000E+00 
    7.5000000000034706E-01     1.0000000000000000E+00     0.0000000000000000E+00 
    7.0000000000069384E-01     1.0000000000000000E+00     0.0000000000000000E+00 
    6.5000000000104063E-01     1.0000000000000000E+00     0.0000000000000000E+00 
    6.0000000000138742E-01     1.0000000000000000E+00     0.0000000000000000E+00 
    5.5000000000173432E-01     1.0000000000000000E+00     0.0000000000000000E+00 
    5.0000000000205946E-01     1.0000000000000000E+00     0.0000000000000000E+00 
    9.4999999999979179E-01     1.0000000000000000E+00     0.0000000000000000E+00 
    4.0000000000166491E-01     1.0000000000000000E+00     0.0000000000000000E+00 
    3.5000000000145681E-01     1.0000000000000000E+00     0.0000000000000000E+00 
    3.0000000000124871E-01     1.0000000000000000E+00     0.0000000000000000E+00 
    2.5000000000104061E-01     1.0000000000000000E+00     0.0000000000000000E+00 
    2.0000000000083251E-01     1.0000000000000000E+00     0.0000000000000000E+00 
    1.5000000000062441E-01     1.0000000000000000E+00     0.0000000000000000E+00 
    1.0000000000041630E-01     1.0000000000000000E+00     0.0000000000000000E+00 
[...]
CELL_DATA 1600 
SCALARS Pressure double 1 
LOOKUP_TABLE default 

    1.0598971660738099E+00 
    1.0135539419285200E+00 
    1.0111323836495698E+00 
    1.0441924972494641E+00 
    1.0316126949772773E+00 
    1.0074663437705151E+00 
    1.0032355701896898E+00 
    1.0213060623585366E+00 
    1.0126778947374435E+00 
    9.9882262160967394E-01 
    9.9443843703314672E-01 
    1.0053156719839484E+00 
    9.9892862316427333E-01 
    9.9019444367276255E-01 
    9.8614481447900648E-01 
    9.9330826529156602E-01 
    9.8830253715882987E-01 
    9.8231124943702131E-01 
    9.7869748258943456E-01 
    9.8379866124969928E-01 
    9.7971164385899390E-01 
    9.7529773578144729E-01 
    9.7210160272193225E-01 
    9.7597645343739958E-01 
    9.7254262582390039E-01 
    9.6909682901175631E-01 
    9.6627085504646326E-01 
    9.6937049026394295E-01 
    9.6642849161097544E-01 
    9.6361163533672489E-01 
    9.6110803861740324E-01 
    9.6369126355461765E-01 
    9.6113822317312936E-01 
    9.5875000897611118E-01 
    9.5652859440764604E-01 
    9.5875253213366862E-01 
    9.5652031912983682E-01 
    9.5443590524354671E-01 
    9.5246503872944743E-01 
    9.5443009084836428E-01 
    9.5247228070589696E-01 
    9.5060999045721328E-01 
    9.4886556413676126E-01 
    9.5063889949482949E-01 
    9.4892326230399404E-01 
    9.4722728576629089E-01 
    9.4569132510328213E-01 
    9.4731977317908456E-01 
    9.4582375396949381E-01 
    9.4425442553592076E-01 
    9.4291384245304799E-01 
    9.4443130733932834E-01 
    9.4313920644197935E-01 
    9.4166728967393620E-01 
    9.4051289321611442E-01 
    9.4194480555929905E-01 
    9.4084596726483072E-01 
    9.3944915150135166E-01 
    9.3847490088059926E-01 
    9.3984100245454616E-01 
    9.3892861979786502E-01 
    9.3758928484972381E-01 
    9.3679172389660592E-01 
    9.3810788028078440E-01 
    9.3737814884698922E-01 
    9.3608187874811077E-01 
    9.3545958796551198E-01 
    9.3673902393748520E-01 
    9.3619019605248510E-01 
    9.3492473035425772E-01 
    9.3447689484331842E-01 
    9.3573111936027764E-01 
    9.3536025193540484E-01 
    9.3411461162371046E-01 
    9.3383371328150266E-01 
    9.3507343774125873E-01 
    9.3486238701486757E-01 
    9.3362582667968375E-01 
    9.3350759030366770E-01 
    9.3474278550909318E-01 
    9.8987266694792597E-01 
    9.7283164840641057E-01 
    9.7246171734079578E-01 
    9.8910186497623287E-01 
    9.8768504571726246E-01 
    9.7174614053753805E-01 
    9.7072659921257909E-01 
    9.8577908200108788E-01 
    9.8353012810720175E-01 
    9.6945273625742123E-01 
    9.6797546261061551E-01 
    9.8105949535550818E-01 
    9.7846168512618548E-01 
    9.6634273353301814E-01 
    9.6459731421489980E-01 
    9.7580733388028706E-01 
    9.7314763507846747E-01 
    9.6277592261028322E-01 
    9.6090922646830201E-01 
    9.7051872389521165E-01 
    9.6794545078695315E-01 
    9.5902231192774656E-01 
    9.5713536915856900E-01 
    9.6544440741956639E-01 
    9.6302625422739985E-01 
    9.5526443856309029E-01 
    9.5342212922723535E-01 
    9.6069746317720317E-01 
    9.5846159845746548E-01 
    9.5161826561444773E-01 
    9.4986044559220673E-01 
    9.5632024465564558E-01 
    9.5427367210520375E-01 
    9.4815450837986515E-01 
    9.4650491908293233E-01 
    9.5232130934362846E-01 
    9.5046207561923191E-01 
    9.4491508003136826E-01 
    9.4338758008105106E-01 
    9.4869461273463496E-01 
    9.4701744499584672E-01 
    9.4192439257954830E-01 
    9.4052703157585149E-01 
    9.4542908813579452E-01 
    9.4392812224852674E-01 
    9.3919667449636868E-01 
    9.3793425814903975E-01 
    9.4251323951296262E-01 
    9.4118327440087035E-01 
    9.3674055366879661E-01 
    9.3561622492513008E-01 
    9.3993722183791450E-01 
    9.3877424717739344E-01 
    9.3456187397900026E-01 
    9.3357807637714174E-01 
    9.3769369066597386E-01 
    9.3669506817010928E-01 
    9.3266540835383682E-01 
    9.3182446726506429E-01 
    9.3577806911833961E-01 
    9.3494255161155604E-01 
    9.3105588554783325E-01 
    9.3036033646289573E-01 
    9.3418853276647673E-01 
    9.3351616765909018E-01 
    9.2973852482395447E-01 
    9.2919114269677205E-01 
    9.3292569767858424E-01 
    9.3241731776304837E-01 
    9.2871873802559579E-01 
    9.2832137680885141E-01 
    9.3199084408035715E-01 
    9.3164493624747668E-01 
    9.2799785417481173E-01 
    9.2774402082461760E-01 
    9.3137544240575054E-01 
    9.3117394073855475E-01 
    9.2755138420439920E-01 
    9.2744017156965919E-01 
    9.3105864504698443E-01 
    9.5859572335354870E-01 
    9.4574178013309351E-01 
    9.4559945055519545E-01 
    9.5837860501690864E-01 
    9.5795184515996412E-01 
    9.4531784938543117E-01 
    9.4490326138007974E-01 
    9.5732994464276289E-01 
    9.5653227042259692E-01 
    9.4436454462713937E-01 
    9.4371250407065355E-01 
    9.5558106603783921E-01 
    9.5449971185209725E-01 
    9.4295924009258703E-01 
    9.4211754542094184E-01 
    9.5331137843654767E-01 
    9.5203808828306868E-01 
    9.4120039218357698E-01 
    9.4022052620381447E-01 
    9.5070013531722986E-01 
    9.4931578700411590E-01 
    9.3919016843461534E-01 
    9.3812081308595463E-01 
    9.4790119252802829E-01 
    9.4647043041069945E-01 
    9.3702310697755042E-01 
    9.3590679327849180E-01 
    9.4503564265555107E-01 
    9.4360721613305809E-01 
    9.3478070365171828E-01 
    9.3365278484039815E-01 
    9.4219398367489693E-01 
    9.4080342667184347E-01 
    9.3253014819596802E-01 
    9.3141913311317981E-01 
    9.3944186794920492E-01 
    9.3811464866976990E-01 
    9.3032537756674505E-01 
    9.2925389083207566E-01 
    9.3682628640653876E-01 
    9.3558061373134904E-01 
    9.2820912499658070E-01 
    9.2719504305107336E-01 
    9.3438089801396396E-01 
    9.3322994388127301E-01 
    9.2621518223765842E-01 
    9.2527271197178385E-01 
    9.3213018014369509E-01 
    9.3108373309639891E-01 
    9.2437048610052863E-01 
    9.2351108954755412E-01 
    9.3009248804270872E-01 
    9.2915814072630754E-01 
    9.2269687955672897E-01 
    9.2193002179356687E-01 
    9.2828224012604010E-01 
    9.2746622375252108E-01 
    9.2121252147727173E-01 
    9.2054624940646967E-01 
    9.2671144611023748E-01 
    9.2601920009801375E-01 
    9.1993296192593721E-01 
    9.1937431173023410E-01 
    9.2539072905802044E-01 
    9.2482722182378518E-01 
    9.1887184065956984E-01 
    9.1842693108425466E-01 
    9.2432976925018329E-01 
    9.2389922816253078E-01 
    9.1804065959163961E-01 
    9.1771343202496269E-01 
    9.2353587244221591E-01 
    9.2323858763917510E-01 
    9.1744415626376452E-01 
    9.1722849302280873E-01 
    9.2300316746656730E-01 
    9.2282097865153268E-01 
    9.1705761650894102E-01 
    9.1695656738336129E-01 
    9.2271458597165645E-01 
    9.3359572640326693E-01 
    9.2178982274748023E-01 
    9.2171613276069253E-01 
    9.3349573642653594E-01 
    9.3329725832880983E-01 
    9.2156959402471617E-01 
    9.2135203614123129E-01 
    9.3300348770194863E-01 
    9.3261905281446356E-01 
    9.2106614655010088E-01 
    9.2071537958171445E-01 
    9.3214978984263863E-01 
    9.3160248327623807E-01 
    9.2030384299500412E-01 
    9.1983617334306933E-01 
    9.3098459912303044E-01 
    9.3030403120930316E-01 
    9.1931740889984681E-01 
    9.1875286706741854E-01 
    9.2956887422044021E-01 
    9.2878723114454131E-01 
    9.1814803136168965E-01 
    9.1750845131719905E-01 
    9.2796705793225576E-01 
    9.2711604464161068E-01 
    9.1683965709688664E-01 
    9.1614708932485900E-01 
    9.2624153002446696E-01 
    9.2535044522468923E-01 
    9.1543604370639053E-01 
    9.1471162934392058E-01 
    9.2444928174700791E-01 
    9.2354407888093815E-01 
    9.1397873925998308E-01 
    9.1324203144652460E-01 
    9.2264042612507313E-01 
    9.2174347669903800E-01 
    9.1250591872280651E-01 
    9.1177456575383320E-01 
    9.2085796884317817E-01 
    9.1998825221674285E-01 
    9.1105189171856005E-01 
    9.1034157729090270E-01 
    9.1913831726985729E-01 
    9.1831182595982885E-01 
    9.0964707478359108E-01 
    9.0897162048816194E-01 
    9.1751214259869363E-01 
    9.1674236395508824E-01 
    9.0831824841148612E-01 
    9.0768980474961536E-01 
    9.1600534799118027E-01 
    9.1530374079381993E-01 
    9.0708896254040372E-01 
    9.0651823597401959E-01 
    9.1464000134747792E-01 
    9.1401642375593817E-01 
    9.0597999376122873E-01 
    9.0547647062432080E-01 
    9.1343515623586524E-01 
    9.1289821535041493E-01 
    9.0500977500544055E-01 
    9.0458188845771947E-01 
    9.1240749160214962E-01 
    9.1196473627789143E-01 
    9.0419464540316263E-01 
    9.0384966602637540E-01 
    9.1157150416999355E-01 
    9.1122899384995970E-01 
    9.0354818242086099E-01 
    9.0329063743488835E-01 
    9.1093766442681279E-01 
    9.1069638348523330E-01 
    9.0307580620543615E-01 
    9.0289890569795572E-01 
    9.1050061628876033E-01 
    9.1034141322619822E-01 
    9.0275117729334164E-01 
    9.0266224642851034E-01 
    9.1024620331246464E-01 
    9.1010480115333059E-01 
    8.9840203321601930E-01 
    8.9835775841423859E-01 
    9.1004850642950297E-01 
    9.0993643932443669E-01 
    8.9826956190253182E-01 
    8.9813822196504411E-01 
    9.0976974899972540E-01 
    9.0955013383331285E-01 
    8.9796488942072072E-01 
    8.9775106842714880E-01 
    9.0927980102726280E-01 
    9.0896141238379713E-01 
    8.9749858842710839E-01 
    8.9720957061274698E-01 
    9.0859802187145378E-01 
    9.0819300894814103E-01 
    8.9688639092331468E-01 
    8.9653164122758144E-01 
    9.0775001095824925E-01 
    9.0727285734709340E-01 
    8.9614809012498309E-01 
    8.9573864458481633E-01 
    9.0676550783360843E-01 
    9.0623199607864324E-01 
    8.9530631341314770E-01 
    8.9485417330196559E-01 
    9.0567637982287741E-01 
    9.0510269797674170E-01 
    8.9438533798819664E-01 
    8.9390293084307892E-01 
    9.0451493474185973E-01 
    9.0391699053397290E-01 
    8.9341006103285181E-01 
    8.9290980324372060E-01 
    9.0331265925649340E-01 
    9.0270561133136351E-01 
    8.9240518084835241E-01 
    8.9189915230603156E-01 
    9.0209938181654203E-01 
    9.0149736291322580E-01 
    8.9139460053078690E-01 
    8.9089432492689546E-01 
    9.0090280017737179E-01 
    9.0031879178712415E-01 
    8.9040103577430874E-01 
    8.8991735064210475E-01 
    8.9974829026944825E-01 
    8.9919410614560247E-01 
    8.8944579250950895E-01 
    8.8898878927222591E-01 
    8.9865891300509260E-01 
    8.9814525354604580E-01 
    8.8854867429108364E-01 
    8.8812768756846583E-01 
    8.9765554609803455E-01 
    8.9719209100703678E-01 
    8.8772797694076599E-01 
    8.8735159816113629E-01 
    8.9675707584845077E-01 
    8.9635257730734408E-01 
    8.8700051141608616E-01 
    8.8667656843986220E-01 
    8.9598055459855142E-01 
    8.9564282192747413E-01 
    8.8638147635819153E-01 
    8.8611670739276793E-01 
    8.9534097103666199E-01 
    8.9507618280760026E-01 
    8.8588329183429659E-01 
    8.8568137115008927E-01 
    8.9484880763996633E-01 
    8.9465745273816688E-01 
    8.8550922003355248E-01 
    8.8536101114491284E-01 
    8.9449697266424388E-01 
    8.9435951457926643E-01 
    8.8523109811662271E-01 
    8.8515453751527218E-01 
    8.9427698561142754E-01 
    8.8659044663949360E-01 
    8.7460883406592216E-01 
    8.7457934341092769E-01 
    8.8655473388984951E-01 
    8.8648356478937895E-01 
    8.7452055992340572E-01 
    8.7443291127764988E-01 
    8.8637750084246214E-01 
    8.8623736917365403E-01 
    8.7431702309717818E-01 
    8.7417371397860943E-01 
    8.8606425294793190E-01 
    8.8585947579516122E-01 
    8.7400398626091791E-01 
    8.7380901426606405E-01 
    8.8562458256490761E-01 
    8.8536131757659575E-01 
    8.7359013076833081E-01 
    8.7334881220719562E-01 
    8.8507160124854534E-01 
    8.8475750587635082E-01 
    8.7308666307896610E-01 
    8.7280539989797257E-01 
    8.8442123124382876E-01 
    8.8406508065887590E-01 
    8.7250683507840598E-01 
    8.7219286104553939E-01 
    8.8369143790865923E-01 
    8.8330274552701948E-01 
    8.7186543483924261E-01 
    8.7152656342474188E-01 
    8.8290148466676066E-01 
    8.8249015677507558E-01 
    8.7117828987734847E-01 
    8.7082268056112611E-01 
    8.8207126718507178E-01 
    8.8164731066233293E-01 
    8.7046181337752571E-01 
    8.7009776711972442E-01 
    8.8122075888351203E-01 
    8.8079404977394937E-01 
    8.6973261193190821E-01 
    8.6936840083954026E-01 
    8.8036957859206311E-01 
    8.7994969061778672E-01 
    8.6900716228527242E-01 
    8.6865089357270509E-01 
    8.7953667527735191E-01 
    8.7913276151223618E-01 
    8.6830155508126239E-01 
    8.6796106505963411E-01 
    8.7874011416725517E-01 
    8.7836083111420316E-01 
    8.6763129471097467E-01 
    8.6731406310258896E-01 
    8.7799694070529843E-01 
    8.7765039887440233E-01 
    8.6701113105273409E-01 
    8.6672419228736075E-01 
    8.7732308454429997E-01 
    8.7701679037535341E-01 
    8.6645485814350309E-01 
    8.6620462744858651E-01 
    8.7673320195610560E-01 
    8.7647384965603214E-01 
    8.6597482325634390E-01 
    8.6576645896208237E-01 
    8.7623999951341824E-01 
    8.7603241692997191E-01 
    8.6557996085439015E-01 
    8.6541458907007962E-01 
    8.7585086882937402E-01 
    8.7569300864994126E-01 
    8.6526708690109277E-01 
    8.6512819224777182E-01 
    8.7555168343568679E-01 
    8.7542536936321758E-01 
    8.6500236159542521E-01 
    8.6493499189466072E-01 
    8.7535388125796887E-01 
    8.6241571449373811E-01 
    8.4998321207456962E-01 
    8.4996164739909497E-01 
    8.6239079342484470E-01 
    8.6234111194733976E-01 
    8.4991865432552205E-01 
    8.4985451735252637E-01 
    8.6226701160110941E-01 
    8.6216898756866700E-01 
    8.4976964498588636E-01 
    8.4966456811538349E-01 
    8.6204768595978642E-01 
    8.6190389798220068E-01 
    8.4953993608589995E-01 
    8.4939651143574113E-01 
    8.6173855230744290E-01 
    8.6155270617085900E-01 
    8.4923516370916785E-01 
    8.4905686256712931E-01 
    8.6134753553256171E-01 
    8.6112432456045818E-01 
    8.4886267036318197E-01 
    8.4865373432905222E-01 
    8.6088445466742847E-01 
    8.6062939331438548E-01 
    8.4843127850177535E-01 
    8.4819659551422166E-01 
    8.6036068277124300E-01 
    8.6007992900645458E-01 
    8.4795103836050667E-01 
    8.4769601223651558E-01 
    8.5978879085258753E-01 
    8.5948896957080734E-01 
    8.4743296654341072E-01 
    8.4716338712869343E-01 
    8.5918219891186254E-01 
    8.5887023574574384E-01 
    8.4688878882530350E-01 
    8.4661070833437158E-01 
    8.5855485130696185E-01 
    8.5823782307727647E-01 
    8.4633069748131617E-01 
    8.4605031685716681E-01 
    8.5792092730200076E-01 
    8.5760593210805580E-01 
    8.4577112983554170E-01 
    8.4549469692701762E-01 
    8.5729459115845275E-01 
    8.5698863773241418E-01 
    8.4522257038962123E-01 
    8.4495628894222263E-01 
    8.5668977905017274E-01 
    8.5639969053981513E-01 
    8.4469737229528374E-01 
    8.4444731494972103E-01 
    8.5612000951073475E-01 
    8.5585232721406834E-01 
    8.4420757815339886E-01 
    8.4397957765795839E-01 
    8.5559817719866849E-01 
    8.5535901543792647E-01 
    8.4376466213675438E-01 
    8.4356407119139831E-01 
    8.5513618232978883E-01 
    8.5493082569936563E-01 
    8.4337885025157566E-01 
    8.4320967837241823E-01 
    8.5474374343178683E-01 
    8.5457506462609756E-01 
    8.4305652049592827E-01 
    8.4291787146475927E-01 
    8.5442357704243543E-01 
    8.5428507187487934E-01 
    8.4278878062040108E-01 
    8.4265521048078118E-01 
    8.5414777963625177E-01 
    8.5402257599946407E-01 
    8.4253320125298681E-01 
    8.4247225434662087E-01 
    8.5395862732524919E-01 
    8.3729322164708819E-01 
    8.2433495763849107E-01 
    8.2431751702754574E-01 
    8.3727408753201527E-01 
    8.3723593928667439E-01 
    8.2428274495428577E-01 
    8.2423086228501219E-01 
    8.3717902315471338E-01 
    8.3710368946069802E-01 
    8.2416218083390214E-01 
    8.2407710233921527E-01 
    8.3701039146076028E-01 
    8.3689968250449664E-01 
    8.2397611625469980E-01 
    8.2385979674860832E-01 
    8.3677221218250486E-01 
    8.3662872177618941E-01 
    8.2372879915754482E-01 
    8.2358385601930739E-01 
    8.3647003917311269E-01 
    8.3629707336139691E-01 
    8.2342577276590501E-01 
    8.2325542314150357E-01 
    8.3611080859775033E-01 
    8.3591229833470382E-01 
    8.2307374440286951E-01 
    8.2288173235600526E-01 
    8.3570265898683038E-01 
    8.3548306361061031E-01 
    8.2268043627990983E-01 
    8.2247095378580448E-01 
    8.3525473556725449E-01 
    8.3501894223193385E-01 
    8.2225442565737250E-01 
    8.2203203071441022E-01 
    8.3477698880636197E-01 
    8.3453021228459023E-01 
    8.2180498073865427E-01 
    8.2157451549630878E-01 
    8.3427997561405742E-01 
    8.3402766208514589E-01 
    8.2134189788656997E-01 
    8.2110840923841300E-01 
    8.3377466997190164E-01 
    8.3352240743255890E-01 
    8.2087534476736856E-01 
    8.2064400918613312E-01 
    8.3327228765746364E-01 
    8.3302572421657073E-01 
    8.2041571242955691E-01 
    8.2019176538779137E-01 
    8.3278412649287825E-01 
    8.3254889495645068E-01 
    8.1997347540026377E-01 
    8.1976214095342137E-01 
    8.3232141575427399E-01 
    8.3210305347367308E-01 
    8.1955904433049476E-01 
    8.1936543940872908E-01 
    8.3189513954911520E-01 
    8.3169895072722455E-01 
    8.1918252846238826E-01 
    8.1901141518923115E-01 
    8.3151566570028113E-01 
    8.3134627613687961E-01 
    8.1885300904897396E-01 
    8.1870783322722329E-01 
    8.3119140665715008E-01 
    8.3105094795966206E-01 
    8.1857562743383505E-01 
    8.1845438881397103E-01 
    8.3092322068474100E-01 
    8.3080266424487448E-01 
    8.1833761056980436E-01 
    8.1821030586338284E-01 
    8.3067379397515428E-01 
    8.3055674699382831E-01 
    8.1809820905808306E-01 
    8.1804326357092805E-01 
    8.3049861789619206E-01 
    8.1110339097689477E-01 
    7.9759829310897445E-01 
    7.9758246192669158E-01 
    8.1108702769978136E-01 
    8.1105440341447776E-01 
    7.9755089806929946E-01 
    7.9750379799995752E-01 
    8.1100572305034968E-01 
    8.1094127441134489E-01 
    7.9744143703027781E-01 
    7.9736416798791254E-01 
    8.1086142706729014E-01 
    8.1076663049704789E-01 
    7.9727241953458472E-01 
    7.9716669397035578E-01 
    8.1065741159898486E-01 
    8.1053437175718257E-01 
    7.9704756465870041E-01 
    7.9691567314770084E-01 
    8.1039818355992310E-01 
    8.1024958723062546E-01 
    7.9677172603298485E-01 
    7.9661649159551451E-01 
    8.1008938681701259E-01 
    8.0991844617806774E-01 
    7.9645079624178006E-01 
    7.9627552077112262E-01 
    8.0973768480522834E-01 
    8.0954807351226710E-01 
    7.9609159649303940E-01 
    7.9590000121550175E-01 
    8.0935063002654617E-01 
    8.0914641451232439E-01 
    7.9570175512301833E-01 
    7.9549791655990310E-01 
    8.0893652505426139E-01 
    8.0872209312590826E-01 
    7.9528957772941533E-01 
    7.9507786031224048E-01 
    8.0850427906337430E-01 
    8.0828426755779448E-01 
    7.9486391099683940E-01 
    7.9464889689713347E-01 
    8.0806326317036381E-01 
    8.0784248585794283E-01 
    7.9443400080555882E-01 
    7.9422041618367467E-01 
    8.0762316647035448E-01 
    8.0740654213170171E-01 
    7.9400934171249715E-01 
    7.9380197507829287E-01 
    8.0719385132415400E-01 
    8.0698632830242112E-01 
    7.9359950538846280E-01 
    7.9340310305032424E-01 
    8.0678519606580890E-01 
    8.0659165624863949E-01 
    7.9321390479460752E-01 
    7.9303298917204657E-01 
    8.0640687242970788E-01 
    8.0623193952756178E-01 
    7.9286133320248042E-01 
    7.9269973215560607E-01 
    8.0606782459904913E-01 
    8.0591525104146378E-01 
    7.9254864823576032E-01 
    7.9240791679263445E-01 
    8.0577447105421807E-01 
    8.0564478669404271E-01 
    7.9227611050336344E-01 
    7.9214885270605517E-01 