# vtk DataFile Version 2.0
Pressure Field Data 
ASCII 
DATASET UNSTRUCTURED_GRID 

POINTS 1681 double 

    0.0000000000000000E+00     0.0000000000000000E+00     0.0000000000000000E+00 
    1.0000000000000000E+00     0.0000000000000000E+00     0.0000000000000000E+00 
    1.0000000000000000E+00     1.0000000000000000E+00     0.0000000000000000E+00 
    0.0000000000000000E+00     1.0000000000000000E+00     0.0000000000000000E+00 
    5.2499999999875258E-01     0.0000000000000000E+00     0.0000000000000000E+00 
    7.4999999999856765E-02     0.0000000000000000E+00     0.0000000000000000E+00 
    1.2499999999975850E-01     0.0000000000000000E+00     0.0000000000000000E+00 
    1.7499999999962990E-01     0.0000000000000000E+00     0.0000000000000000E+00 
    2.2499999999948389E-01     0.0000000000000000E+00     0.0000000000000000E+00 
    2.7499999999933789E-01     0.0000000000000000E+00     0.0000000000000000E+00 
    3.2499999999919210E-01     0.0000000000000000E+00     0.0000000000000000E+00 
    3.7499999999904610E-01     0.0000000000000000E+00     0.0000000000000000E+00 
    4.2499999999890020E-01     0.0000000000000000E+00     0.0000000000000000E+00 
    4.7499999999875958E-01     0.0000000000000000E+00     0.0000000000000000E+00 
    2.4999999999949701E-02     0.0000000000000000E+00     0.0000000000000000E+00 
    5.7499999999887907E-01     0.0000000000000000E+00     0.0000000000000000E+00 
    6.2499999999901101E-01     0.0000000000000000E+00     0.0000000000000000E+00 
    6.7499999999914273E-01     0.0000000000000000E+00     0.0000000000000000E+00 
    7.2499999999927467E-01     0.0000000000000000E+00     0.0000000000000000E+00 
    7.7499999999940661E-01     0.0000000000000000E+00     0.0000000000000000E+00 
    8.2499999999953844E-01     0.0000000000000000E+00     0.0000000000000000E+00 
    8.7499999999967026E-01     0.0000000000000000E+00     0.0000000000000000E+00 
    9.2499999999980220E-01     0.0000000000000000E+00     0.0000000000000000E+00 
    9.7499999999993414E-01     0.0000000000000000E+00     0.0000000000000000E+00 
    5.4999999999881310E-01     0.0000000000000000E+00     0.0000000000000000E+00 
    9.9999999999814140E-02     0.0000000000000000E+00     0.0000000000000000E+00 
    1.4999999999970290E-01     0.0000000000000000E+00     0.0000000000000000E+00 
    1.9999999999955689E-01     0.0000000000000000E+00     0.0000000000000000E+00 
    2.4999999999941089E-01     0.0000000000000000E+00     0.0000000000000000E+00 
    2.9999999999926502E-01     0.0000000000000000E+00     0.0000000000000000E+00 
    3.4999999999911913E-01     0.0000000000000000E+00     0.0000000000000000E+00 
    3.9999999999897312E-01     0.0000000000000000E+00     0.0000000000000000E+00 
    4.4999999999882723E-01     0.0000000000000000E+00     0.0000000000000000E+00 
    4.9999999999869210E-01     0.0000000000000000E+00     0.0000000000000000E+00 
    4.9999999999899403E-02     0.0000000000000000E+00     0.0000000000000000E+00 
    5.9999999999894504E-01     0.0000000000000000E+00     0.0000000000000000E+00 
    6.4999999999907687E-01     0.0000000000000000E+00     0.0000000000000000E+00 
    6.9999999999920870E-01     0.0000000000000000E+00     0.0000000000000000E+00 
    7.4999999999934064E-01     0.0000000000000000E+00     0.0000000000000000E+00 
    7.9999999999947247E-01     0.0000000000000000E+00     0.0000000000000000E+00 
    8.4999999999960441E-01     0.0000000000000000E+00     0.0000000000000000E+00 
    8.9999999999973623E-01     0.0000000000000000E+00     0.0000000000000000E+00 
    9.4999999999986817E-01     0.0000000000000000E+00     0.0000000000000000E+00 
    1.0000000000000000E+00     5.2499999999875258E-01     0.0000000000000000E+00 
    1.0000000000000000E+00     7.4999999999856765E-02     0.0000000000000000E+00 
    1.0000000000000000E+00     1.2499999999975850E-01     0.0000000000000000E+00 
    1.0000000000000000E+00     1.7499999999962990E-01     0.0000000000000000E+00 
    1.0000000000000000E+00     2.2499999999948389E-01     0.0000000000000000E+00 
    1.0000000000000000E+00     2.7499999999933789E-01     0.0000000000000000E+00 
    1.0000000000000000E+00     3.2499999999919210E-01     0.0000000000000000E+00 
    1.0000000000000000E+00     3.7499999999904610E-01     0.0000000000000000E+00 
    1.0000000000000000E+00     4.2499999999890020E-01     0.0000000000000000E+00 
    1.0000000000000000E+00     4.7499999999875958E-01     0.0000000000000000E+00 
    1.0000000000000000E+00     2.4999999999949701E-02     0.0000000000000000E+00 
    1.0000000000000000E+00     5.7499999999887907E-01     0.0000000000000000E+00 
    1.0000000000000000E+00     6.2499999999901101E-01     0.0000000000000000E+00 
    1.0000000000000000E+00     6.7499999999914273E-01     0.0000000000000000E+00 
    1.0000000000000000E+00     7.2499999999927467E-01     0.0000000000000000E+00 
    1.0000000000000000E+00     7.7499999999940661E-01     0.0000000000000000E+00 
    1.0000000000000000E+00     8.2499999999953844E-01     0.0000000000000000E+00 
    1.0000000000000000E+00     8.7499999999967026E-01     0.0000000000000000E+00 
    1.0000000000000000E+00     9.2499999999980220E-01     0.0000000000000000E+00 
    1.0000000000000000E+00     9.7499999999993414E-01     0.0000000000000000E+00 
    1.0000000000000000E+00     5.4999999999881310E-01     0.0000000000000000E+00 
    1.0000000000000000E+00     9.9999999999814140E-02     0.0000000000000000E+00 
    1.0000000000000000E+00     1.4999999999970290E-01     0.0000000000000000E+00 
    1.0000000000000000E+00     1.9999999999955689E-01     0.0000000000000000E+00 
    1.0000000000000000E+00     2.4999999999941089E-01     0.0000000000000000E+00 
    1.0000000000000000E+00     2.9999999999926502E-01     0.0000000000000000E+00 
    1.0000000000000000E+00     3.4999999999911913E-01     0.0000000000000000E+00 
    1.0000000000000000E+00     3.9999999999897312E-01     0.0000000000000000E+00 
    1.0000000000000000E+00     4.4999999999882723E-01     0.0000000000000000E+00 
    1.0000000000000000E+00     4.9999999999869210E-01     0.0000000000000000E+00 
    1.0000000000000000E+00     4.9999999999899403E-02     0.0000000000000000E+00 
    1.0000000000000000E+00     5.9999999999894504E-01     0.0000000000000000E+00 
    1.0000000000000000E+00     6.4999999999907687E-01     0.0000000000000000E+00 
    1.0000000000000000E+00     6.9999999999920870E-01     0.0000000000000000E+00 
    1.0000000000000000E+00     7.4999999999934064E-01     0.0000000000000000E+00 
    1.0000000000000000E+00     7.9999999999947247E-01     0.0000000000000000E+00 
    1.0000000000000000E+00     8.4999999999960441E-01     0.0000000000000000E+00 
    1.0000000000000000E+00     8.9999999999973623E-01     0.0000000000000000E+00 
    1.0000000000000000E+00     9.4999999999986817E-01     0.0000000000000000E+00 
    4.7500000000196618E-01     1.0000000000000000E+00     0.0000000000000000E+00 
    9.2499999999968763E-01     1.0000000000000000E+00     0.0000000000000000E+00 
    8.7499999999961831E-01     1.0000000000000000E+00     0.0000000000000000E+00 
    8.2499999999982654E-01     1.0000000000000000E+00     0.0000000000000000E+00 
    7.7500000000017355E-01     1.0000000000000000E+00     0.0000000000000000E+00 
    7.2500000000052045E-01     1.0000000000000000E+00     0.0000000000000000E+00 
    6.7500000000086724E-01     1.0000000000000000E+00     0.0000000000000000E+00 
    6.2500000000121403E-01     1.0000000000000000E+00     0.0000000000000000E+00 
    5.7500000000156093E-01     1.0000000000000000E+00     0.0000000000000000E+00 
    5.2500000000189684E-01     1.0000000000000000E+00     0.0000000000000000E+00 
    9.7499999999989595E-01     1.0000000000000000E+00     0.0000000000000000E+00 
    4.2500000000176902E-01     1.0000000000000000E+00     0.0000000000000000E+00 
    3.7500000000156092E-01     1.0000000000000000E+00     0.0000000000000000E+00 
    3.2500000000135282E-01     1.0000000000000000E+00     0.0000000000000000E+00 
    2.7500000000114472E-01     1.0000000000000000E+00     0.0000000000000000E+00 
    2.2500000000093659E-01     1.0000000000000000E+00     0.0000000000000000E+00 
    1.7500000000072849E-01     1.0000000000000000E+00     0.0000000000000000E+00 
    1.2500000000052039E-01     1.0000000000000000E+00     0.0000000000000000E+00 
    7.5000000000312261E-02     1.0000000000000000E+00     0.0000000000000000E+00 
    2.5000000000104109E-02     1.0000000000000000E+00     0.0000000000000000E+00 
    4.5000000000187301E-01     1.0000000000000000E+00     0.0000000000000000E+00 
    8.9999999999958358E-01     1.0000000000000000E+00     0.0000000000000000E+00 
    8.4999999999965303E-01     1.0000000000000000E+00     0.0000000000000000E+00 
    8.0000000000000004E-01     1.0000000000000000E+00     0.0000000000000000E+00 
    7.5000000000034706E-01     1.0000000000000000E+00     0.0000000000000000E+00 
    7.0000000000069384E-01     1.0000000000000000E+00     0.0000000000000000E+00 
    6.5000000000104063E-01     1.0000000000000000E+00     0.0000000000000000E+00 
    6.0000000000138742E-01     1.0000000000000000E+00     0.0000000000000000E+00 
    5.5000000000173432E-01     1.0000000000000000E+00     0.0000000000000000E+00 
    5.0000000000205946E-01     1.0000000000000000E+00     0.0000000000000000E+00 
    9.4999999999979179E-01     1.0000000000000000E+00     0.0000000000000000E+00 
    4.0000000000166491E-01     1.0000000000000000E+00     0.0000000000000000E+00 
    3.5000000000145681E-01     1.0000000000000000E+00     0.0000000000000000E+00 
    3.0000000000124871E-01     1.0000000000000000E+00     0.0000000000000000E+00 
    2.5000000000104061E-01     1.0000000000000000E+00     0.0000000000000000E+00 
    2.0000000000083251E-01     1.0000000000000000E+00     0.0000000000000000E+00 
    1.5000000000062441E-01     1.0000000000000000E+00     0.0000000000000000E+00 
    1.0000000000041630E-01     1.0000000000000000E+00     0.0000000000000000E+00 
[...]
CELL_DATA 1600 
SCALARS Pressure double 1 
LOOKUP_TABLE default 

    1.5349382004576138E+00 
    1.4792082942728069E+00 
    1.4759862671251207E+00 
    1.5176857951540179E+00 
    1.5027230143236285E+00 
    1.4708221471599774E+00 
    1.4645698143973802E+00 
    1.4896253043346406E+00 
    1.4778994486495813E+00 
    1.4577085870005873E+00 
    1.4505244360546159E+00 
    1.4671946997219467E+00 
    1.4572636090667586E+00 
    1.4431885604679950E+00 
    1.4358029462337145E+00 
    1.4479300772158448E+00 
    1.4390670398402274E+00 
    1.4284274115070450E+00 
    1.4210958047754794E+00 
    1.4305812395952748E+00 
    1.4224027761222000E+00 
    1.4138256741660509E+00 
    1.4066238663361628E+00 
    1.4144777638094013E+00 
    1.4067629026533264E+00 
    1.3994893920457137E+00 
    1.3924140916544727E+00 
    1.3992210174402768E+00 
    1.3918165951361936E+00 
    1.3853807729830339E+00 
    1.3783568296925635E+00 
    1.3845098204578812E+00 
    1.3772457086751089E+00 
    1.3712760838740001E+00 
    1.3639818843012974E+00 
    1.3699278699232951E+00 
    1.3623381583306622E+00 
    1.3562444914492566E+00 
    1.3482198962306544E+00 
    1.3541327315579572E+00 
    1.3461229767011542E+00 
    1.3408178627347129E+00 
    1.3342723265773284E+00 
    1.3391600908564598E+00 
    1.3328651260476549E+00 
    1.3282425408830560E+00 
    1.3226433697952904E+00 
    1.3270326517173494E+00 
    1.3216391055792445E+00 
    1.3174555786717808E+00 
    1.3126620488688352E+00 
    1.3166639121318799E+00 
    1.3120889050108138E+00 
    1.3082474887945199E+00 
    1.3041982547996611E+00 
    1.3078980395113708E+00 
    1.3040771524830927E+00 
    1.3005021961755949E+00 
    1.2971485210252232E+00 
    1.3006137610855590E+00 
    1.2974968936940525E+00 
    1.2941276803292578E+00 
    1.2914312679624711E+00 
    1.2947169476390201E+00 
    1.2922655695516374E+00 
    1.2890519347673650E+00 
    1.2869833150885333E+00 
    1.2901355549426752E+00 
    1.2883207643191155E+00 
    1.2852199644242019E+00 
    1.2837573070711026E+00 
    1.2868160536850390E+00 
    1.2856172177123502E+00 
    1.2825915928313185E+00 
    1.2817198620202375E+00 
    1.2847209442277614E+00 
    1.2841247789639254E+00 
    1.2811399181671517E+00 
    1.2808503079381814E+00 
    1.2838270997797674E+00 
    1.4431446955832192E+00 
    1.4119736039467599E+00 
    1.4111965203626329E+00 
    1.4418555831094080E+00 
    1.4394122715202249E+00 
    1.4096681932887776E+00 
    1.4074469294006640E+00 
    1.4360168826156596E+00 
    1.4318640725856424E+00 
    1.4046045792263837E+00 
    1.4012170370192691E+00 
    1.4271223371146080E+00 
    1.4219299095783913E+00 
    1.3973579824320244E+00 
    1.3930950493480847E+00 
    1.4163965770149280E+00 
    1.4106075625283072E+00 
    1.3884876478318358E+00 
    1.3835857084747827E+00 
    1.4046276622933693E+00 
    1.3985047989390877E+00 
    1.3784286296067756E+00 
    1.3730435116404585E+00 
    1.3922725518643382E+00 
    1.3859512402251173E+00 
    1.3674410605700578E+00 
    1.3616046146319445E+00 
    1.3795466751332268E+00 
    1.3730439784735688E+00 
    1.3554544834464528E+00 
    1.3489017049790806E+00 
    1.3663882077064906E+00 
    1.3594237238841227E+00 
    1.3419600219712613E+00 
    1.3349823988985203E+00 
    1.3520576811373433E+00 
    1.3444748129364112E+00 
    1.3284151646499520E+00 
    1.3223937860059802E+00 
    1.3372745570509696E+00 
    1.3308063563542403E+00 
    1.3168152512528355E+00 
    1.3115617167091822E+00 
    1.3248650266976230E+00 
    1.3193146270785696E+00 
    1.3066261055649240E+00 
    1.3020023149062765E+00 
    1.3141402882306075E+00 
    1.3093294385586041E+00 
    1.2976843041171247E+00 
    1.2936661907364559E+00 
    1.3048704883194258E+00 
    1.3007528117835976E+00 
    1.2899423234506957E+00 
    1.2865073364125892E+00 
    1.2969667163799621E+00 
    1.2935034051310887E+00 
    1.2833561887010410E+00 
    1.2804841921944750E+00 
    1.2903549364207638E+00 
    1.2875141836726167E+00 
    1.2778870305700438E+00 
    1.2755607716277038E+00 
    1.2849747965690577E+00 
    1.2827311648202877E+00 
    1.2735018746955120E+00 
    1.2717071945037810E+00 
    1.2807783850892822E+00 
    1.2791122314168921E+00 
    1.2701739826150211E+00 
    1.2688998872545090E+00 
    1.2777291293239510E+00 
    1.2766261336632332E+00 
    1.2678829521926580E+00 
    1.2671216151759204E+00 
    1.2758009102327619E+00 
    1.2752517211292267E+00 
    1.2666147062791695E+00 
    1.2663614464524395E+00 
    1.2749774138069048E+00 
    1.3819183049384067E+00 
    1.3514059530830698E+00 
    1.3509442099380036E+00 
    1.3813525163757971E+00 
    1.3802281906099831E+00 
    1.3500214434044471E+00 
    1.3486452744570443E+00 
    1.3785670787279847E+00 
    1.3763991319076760E+00 
    1.3468271887767786E+00 
    1.3445805290652124E+00 
    1.3737591217450882E+00 
    1.3706835487980613E+00 
    1.3419180817481797E+00 
    1.3388484292646496E+00 
    1.3672078146930327E+00 
    1.3633634761782671E+00 
    1.3353690883992511E+00 
    1.3314571061162359E+00 
    1.3591751388865942E+00 
    1.3546557017343350E+00 
    1.3270810618384348E+00 
    1.3222601452177905E+00 
    1.3497949077389038E+00 
    1.3445381232183475E+00 
    1.3170707790956526E+00 
    1.3116776224653679E+00 
    1.3388433427541973E+00 
    1.3327609469420454E+00 
    1.3063824550649015E+00 
    1.3013677783578541E+00 
    1.3264601943795473E+00 
    1.3203250136586229E+00 
    1.2966758222148880E+00 
    1.2922371359762912E+00 
    1.3146284254149601E+00 
    1.3093353748438776E+00 
    1.2879590458446963E+00 
    1.2838426238946055E+00 
    1.3043384191110130E+00 
    1.2995858091754013E+00 
    1.2798966322188523E+00 
    1.2761281995956524E+00 
    1.2950791727277382E+00 
    1.2908193791951372E+00 
    1.2725430805812707E+00 
    1.2691458807472884E+00 
    1.2868065428869420E+00 
    1.2830401955907753E+00 
    1.2659402479668913E+00 
    1.2629290354395473E+00 
    1.2795194322043590E+00 
    1.2762430326412109E+00 
    1.2601144408164555E+00 
    1.2574981249149011E+00 
    1.2732095631795861E+00 
    1.2704174602211262E+00 
    1.2550813128998839E+00 
    1.2528648803586315E+00 
    1.2678650991467952E+00 
    1.2655508506465087E+00 
    1.2508494263369998E+00 
    1.2490353351122701E+00 
    1.2634731265848160E+00 
    1.2616304171660855E+00 
    1.2474228282253392E+00 
    1.2460120080758095E+00 
    1.2600213208884834E+00 
    1.2586445685306120E+00 
    1.2448028941894946E+00 
    1.2437954530950337E+00 
    1.2574990421984060E+00 
    1.2565837902709227E+00 
    1.2429896225913932E+00 
    1.2423853310485828E+00 
    1.2558980389192167E+00 
    1.2554412007289038E+00 
    1.2419825122572914E+00 
    1.2417811162273191E+00 
    1.2552128808307261E+00 
    1.3193253472169675E+00 
    1.2843734364028692E+00 
    1.2838986311902090E+00 
    1.3189011985229155E+00 
    1.3180484607870031E+00 
    1.2829526850859647E+00 
    1.2815488278587612E+00 
    1.3167642740927645E+00 
    1.3150438432151141E+00 
    1.2797129438758097E+00 
    1.2774879760333215E+00 
    1.3128768912110398E+00 
    1.3102482432402878E+00 
    1.2749342903091798E+00 
    1.2721311522811569E+00 
    1.3071510636072894E+00 
    1.3036109455796119E+00 
    1.2691790145537352E+00 
    1.2661837242790830E+00 
    1.2996935059015189E+00 
    1.2955023418770142E+00 
    1.2632279585600161E+00 
    1.2603564609356921E+00 
    1.2912109265370502E+00 
    1.2870026709538260E+00 
    1.2575578971217269E+00 
    1.2547785995275529E+00 
    1.2829758703816709E+00 
    1.2791602813614820E+00 
    1.2519868399226717E+00 
    1.2491909205961973E+00 
    1.2754943802214247E+00 
    1.2719062272394688E+00 
    1.2464095412359268E+00 
    1.2436594225963640E+00 
    1.2683919072364735E+00 
    1.2649663134367310E+00 
    1.2409555180485710E+00 
    1.2383111649392438E+00 
    1.2616425259350108E+00 
    1.2584318647369219E+00 
    1.2357382288897032E+00 
    1.2332472396592904E+00 
    1.2553440903753736E+00 
    1.2523875901634061E+00 
    1.2308475185422951E+00 
    1.2285472970728111E+00 
    1.2495695480717630E+00 
    1.2468960978124617E+00 
    1.2263538268677183E+00 
    1.2242734805809636E+00 
    1.2443724596321908E+00 
    1.2420030617763056E+00 
    1.2223118440921592E+00 
    1.2204738001783408E+00 
    1.2397916477848192E+00 
    1.2377413708409710E+00 
    1.2187636040108396E+00 
    1.2171849508805781E+00 
    1.2358548763742430E+00 
    1.2341343740584405E+00 
    1.2157410365891796E+00 
    1.2144346109553077E+00 
    1.2325817002617065E+00 
    1.2311983719105533E+00 
    1.2132680248805223E+00 
    1.2122432714008622E+00 
    1.2299856326309224E+00 
    1.2289444919298036E+00 
    1.2113620211226828E+00 
    1.2106256524067232E+00 
    1.2280757580834245E+00 
    1.2273800653035520E+00 
    1.2100352766249118E+00 
    1.2095917587717024E+00 
    1.2268578956627585E+00 
    1.2265095961724881E+00 
    1.2092957336667800E+00 
    1.2091476179396718E+00 
    1.2263353913243089E+00 
    1.2465590996275011E+00 
    1.2119377364321993E+00 
    1.2117715100161253E+00 
    1.2461749829375417E+00 
    1.2454381838726554E+00 
    1.2114491600156529E+00 
    1.2109840603108621E+00 
    1.2443965534200796E+00 
    1.2431054228834610E+00 
    1.2103860560503623E+00 
    1.2096579312435454E+00 
    1.2416259652899244E+00 
    1.2400200028502641E+00 
    1.2087971171779113E+00 
    1.2078019065658281E+00 
    1.2383396198319854E+00 
    1.2366135493900752E+00 
    1.2066773141232074E+00 
    1.2054356347968260E+00 
    1.2348392277085065E+00 
    1.2329944263591655E+00 
    1.2040924406766407E+00 
    1.2026631872338627E+00 
    1.2310642332969535E+00 
    1.2290552915276038E+00 
    1.2011626362292012E+00 
    1.1996051168448958E+00 
    1.2269862986667319E+00 
    1.2248762118062029E+00 
    1.1980044354878299E+00 
    1.1963737562523249E+00 
    1.2227422397858041E+00 
    1.2206002480377152E+00 
    1.1947255473500658E+00 
    1.1930715491173556E+00 
    1.2184647970385711E+00 
    1.2163492082757708E+00 
    1.1914227601755387E+00 
    1.1897894373958804E+00 
    1.2142656333457151E+00 
    1.2122251248512983E+00 
    1.1881811062914716E+00 
    1.1866065791657174E+00 
    1.2102377078090314E+00 
    1.2083124504460705E+00 
    1.1850739788815097E+00 
    1.1835907665293350E+00 
    1.2064575334299439E+00 
    1.2046803167395916E+00 
    1.1821637716015414E+00 
    1.1807992235467726E+00 
    1.2029874035502313E+00 
    1.2013847006581433E+00 
    1.1795027837978638E+00 
    1.1782795775481911E+00 
    1.1998774751086811E+00 
    1.1984704068083016E+00 
    1.1771342247023351E+00 
    1.1760708695518560E+00 
    1.1971676369982645E+00 
    1.1959728125446361E+00 
    1.1750932088299282E+00 
    1.1742045178826215E+00 
    1.1948891260580228E+00 
    1.1939193518992199E+00 
    1.1734076747625370E+00 
    1.1727051821045640E+00 
    1.1930658781559538E+00 
    1.1923307346933329E+00 
    1.1720991866858976E+00 
    1.1715914966048970E+00 
    1.1917156173885186E+00 
    1.1912219086602445E+00 
    1.1711835960375379E+00 
    1.1708766575475704E+00 
    1.1908506943977739E+00 
    1.1906027773829306E+00 
    1.1706715519382964E+00 
    1.1705688556412692E+00 
    1.1904786872841657E+00 
    1.1818299984615641E+00 
    1.1531522544385644E+00 
    1.1530677481117040E+00 
    1.1817284863067288E+00 
    1.1815209067896690E+00 
    1.1528986126108103E+00 
    1.1526450254858827E+00 
    1.1812028566631954E+00 
    1.1807728518430132E+00 
    1.1523078765138703E+00 
    1.1518889663513883E+00 
    1.1802322584694385E+00 
    1.1795847060230118E+00 
    1.1513910531113316E+00 
    1.1508178141104666E+00 
    1.1788355371556734E+00 
    1.1779915339499427E+00 
    1.1501737686074787E+00 
    1.1494641748295849E+00 
    1.1770607308387204E+00 
    1.1760520929556806E+00 
    1.1486949033551859E+00 
    1.1478722991638888E+00 
    1.1749751392606382E+00 
    1.1738396647779490E+00 
    1.1470030487725180E+00 
    1.1460940603520020E+00 
    1.1726555547506781E+00 
    1.1714326379538538E+00 
    1.1451523581261684E+00 
    1.1441849910405983E+00 
    1.1701805693864009E+00 
    1.1689087399669360E+00 
    1.1431989551863508E+00 
    1.1422011289947254E+00 
    1.1676262082872180E+00 
    1.1663416504537361E+00 
    1.1411982199983361E+00 
    1.1401967218747491E+00 
    1.1650633246936151E+00 
    1.1637990479451590E+00 
    1.1392028804964813E+00 
    1.1382226677692220E+00 
    1.1625561821069439E+00 
    1.1613416279966244E+00 
    1.1372617621256134E+00 
    1.1363255346402126E+00 
    1.1601618253849177E+00 
    1.1590227577332401E+00 
    1.1354190398333837E+00 
    1.1345470103324629E+00 
    1.1579299604847184E+00 
    1.1568885319452171E+00 
    1.1337138546543901E+00 
    1.1329236574634551E+00 
    1.1559031459495337E+00 
    1.1549780656425928E+00 
    1.1321801817400241E+00 
    1.1314868723708245E+00 
    1.1541171578199341E+00 
    1.1533239073689938E+00 
    1.1308468607386957E+00 
    1.1302629699499136E+00 
    1.1526014314349895E+00 
    1.1519524930047291E+00 
    1.1297377203907355E+00 
    1.1292733353522006E+00 
    1.1513795136600873E+00 
    1.1508845853017844E+00 
    1.1288717465039806E+00 
    1.1285345990348479E+00 
    1.1504694806848490E+00 
    1.1501356626409081E+00 
    1.1282632563096222E+00 
    1.1280588039209485E+00 
    1.1498842918904331E+00 
    1.1497162333711930E+00 
    1.1279220530394347E+00 
    1.1278535429881906E+00 
    1.1496320610284183E+00 
    1.1253201654307361E+00 
    1.0981532905065543E+00 
    1.0981012456305923E+00 
    1.1252536440223242E+00 
    1.1251209520441514E+00 
    1.0979975003772011E+00 
    1.0978427494416831E+00 
    1.1249228391760080E+00 
    1.1246605166503094E+00 
    1.0976380455055781E+00 
    1.0973848045642407E+00 
    1.1243357052527276E+00 
    1.1239506578141281E+00 
    1.0970848054068740E+00 
    1.0967401815112683E+00 
    1.1235081560865339E+00 
    1.1230114860140730E+00 
    1.0963534049817278E+00 
    1.0959272630740615E+00 
    1.1224643957855067E+00 
    1.1218710409236770E+00 
    1.0954648284318040E+00 
    1.0949694245073243E+00 
    1.1212359210678844E+00 
    1.1205638130585476E+00 
    1.0944445877716391E+00 
    1.0938940282470917E+00 
    1.1198597040065055E+00 
    1.1191287268958556E+00 
    1.0933215897018664E+00 
    1.0927312105999547E+00 
    1.1183761003815740E+00 
    1.1176070737795523E+00 
    1.0921268866492859E+00 
    1.0915126355578137E+00 
    1.1168268777498782E+00 
    1.1160406808149261E+00 
    1.0908924644040057E+00 
    1.0902703398584594E+00 
    1.1152535516027262E+00 
    1.1144704265377530E+00 
    1.0896501613568168E+00 
    1.0890357372180008E+00 
    1.1136960825950033E+00 
    1.1129351146725319E+00 
    1.0884307636221582E+00 
    1.0878388063053768E+00 
    1.1121919171097907E+00 
    1.1114706688744491E+00 
    1.0872632847892785E+00 
    1.0867074589393160E+00 
    1.1107753219517313E+00 
    1.1101095924921820E+00 
    1.0861744176329138E+00 
    1.0856670693147810E+00 
    1.1094769543023386E+00 
    1.1088806342951396E+00 
    1.0851881342196441E+00 
    1.0847401380505037E+00 
    1.1083236095510016E+00 
    1.1078086056749312E+00 
    1.0843254069118580E+00 
    1.0839460633111051E+00 
    1.1073380961687911E+00 
    1.1069143025703068E+00 
    1.0836040230566073E+00 
    1.0833009928970612E+00 
    1.1065391951411498E+00 
    1.1062144939152954E+00 
    1.0830384687633743E+00 
    1.0828177344908609E+00 
    1.1059416699457640E+00 
    1.1057219466128139E+00 
    1.0826398609159980E+00 
    1.0825057052581137E+00 
    1.1055563008798641E+00 
    1.1054454644049807E+00 
    1.0824159107121176E+00 
    1.0823709061937328E+00 
    1.1053899244359380E+00 
    1.0715068643413841E+00 
    1.0452705714579513E+00 
    1.0452377779296018E+00 
    1.0714658510131461E+00 
    1.0713841055315174E+00 
    1.0451724140524483E+00 
    1.0450749248024216E+00 
    1.0712621897132273E+00 
    1.0711009444131718E+00 
    1.0449459740914506E+00 
    1.0447864402769773E+00 
    1.0709014860360480E+00 
    1.0706652003820119E+00 
    1.0445974098833921E+00 
    1.0443801694198873E+00 
    1.0703937332753513E+00 
    1.0700889777306455E+00 
    1.0441361952536656E+00 
    1.0438671415855918E+00 
    1.0697530577085297E+00 
    1.0693883087621543E+00 
    1.0435748266620972E+00 
    1.0432612174315914E+00 
    1.0689972560588197E+00 
    1.0685825903733581E+00 
    1.0429284129094334E+00 
    1.0425786265500572E+00 
    1.0681471426944613E+00 
    1.0676938580747424E+00 
    1.0422141679387911E+00 
    1.0418374241119586E+00 
    1.0672257693059057E+00 
    1.0667459709270595E+00 
    1.0414508407958651E+00 
    1.0410569038272575E+00 
    1.0662575939891104E+00 
    1.0657637819104773E+00 
    1.0406581209836134E+00 
    1.0402570044143813E+00 
    1.0652676676751784E+00 
    1.0647723525476329E+00 
    1.0398560538265884E+00 
    1.0394577405419976E+00 
    1.0642808864112749E+00 
    1.0637962497811726E+00 
    1.0390644925094947E+00 
    1.0386786803264565E+00 
    1.0633213374941397E+00 
    1.0628589440427516E+00 
    1.0383026042968755E+00 
    1.0379384825321534E+00 
    1.0624117504912993E+00 
    1.0619823128909600E+00 
    1.0375884400825970E+00 
    1.0372544990735262E+00 
    1.0615730520972622E+00 
    1.0611862448841860E+00 
    1.0369385698092317E+00 
    1.0366424428003980E+00 
    1.0608240162450595E+00 
    1.0604883327698547E+00 
    1.0363677816656833E+00 
    1.0361161168555248E+00 
    1.0601809969908664E+00 
    1.0599036425933883E+00 
    1.0358888401455695E+00 
    1.0356871998480925E+00 
    1.0596577303943699E+00 
    1.0594445449997099E+00 
    1.0355122966920687E+00 
    1.0353650803259353E+00 
    1.0592651920594471E+00 
    1.0591205960493939E+00 
    1.0352463464013484E+00 
    1.0351567342011516E+00 
    1.0590114985174848E+00 
    1.0589384567431461E+00 
    1.0350967247802332E+00 
    1.0350666395938011E+00 
    1.0589018427682015E+00 
    1.0193622138573339E+00 
    9.9372191148839928E-01 
    9.9369930382604010E-01 
    1.0193354083340940E+00 
    1.0192819763021084E+00 
    9.9365423624242188E-01 
    9.9358700315220694E-01 
    1.0192022745010569E+00 
    1.0190968348047544E+00 
    9.9349804351228788E-01 
    9.9338793763447542E-01 
    1.0189663603090289E+00 
    1.0188117200839639E+00 
    9.9325740295752696E-01 
    9.9310728880358179E-01 
    1.0186339425916000E+00 
    1.0184342077952091E+00 
    9.9293857015629949E-01 
    9.9275234051178951E-01 
    1.0182138380168637E+00 
    1.0179742876321529E+00 
    9.9254980386771607E-01 
    9.9233226592959756E-01 
    1.0177171317208922E+00 
    1.0174440538176910E+00 
    9.9210112462529587E-01 
    9.9185786002823417E-01 
    1.0171568329245555E+00 
    1.0168573299585022E+00 
    9.9160402379649970E-01 
    9.9134122823848791E-01 
    1.0165474738106206E+00 
    1.0162292471898189E+00 
    9.9107113511622491E-01 
    9.9079544429517141E-01 
    1.0159046724157714E+00 
    1.0155757973126367E+00 
    9.9051588234464272E-01 
    9.9023419118637002E-01 
    1.0152446813392038E+00 
    1.0149133820735374E+00 
    9.8995211688075779E-01 
    9.8967139863149356E-01 
    1.0145839421518450E+00 
    1.0142583767431725E+00 
    9.8939375807980678E-01 
    9.8912088895023620E-01 
    1.0139386616242050E+00 
    1.0136267219024093E+00 
    9.8885444710055037E-01 
    9.8859604101973753E-01 
    1.0133244214213530E+00 
    1.0130335528693779E+00 
    9.8834722280990484E-01 
    9.8810947968062091E-01 
    1.0127558286020284E+00 
    1.0124928721796698E+00 
    9.8788422597777104E-01 
    9.8767279576339362E-01 
    1.0122462106145447E+00 
    1.0120172673159493E+00 
    9.8747643595822276E-01 
    9.8729630005472035E-01 
    1.0118073557181528E+00 
    1.0116176735729625E+00 
    9.8713344240522238E-01 
    9.8698881308735098E-01 
    1.0114492978872851E+00 
    1.0113031804855199E+00 
    9.8686325334698832E-01 
    9.8675749161782067E-01 