# vtk DataFile Version 2.0
Pressure Field Data 
ASCII 
DATASET UNSTRUCTURED_GRID 

POINTS 1681 double 

    0.0000000000000000E+00     0.0000000000000000E+00     0.0000000000000000E+00 
    1.0000000000000000E+00     0.0000000000000000E+00     0.0000000000000000E+00 
    1.0000000000000000E+00     1.0000000000000000E+00     0.0000000000000000E+00 
    0.0000000000000000E+00     1.0000000000000000E+00     0.0000000000000000E+00 
    5.2499999999875258E-01     0.0000000000000000E+00     0.0000000000000000E+00 
    7.4999999999856765E-02     0.0000000000000000E+00     0.0000000000000000E+00 
    1.2499999999975850E-01     0.0000000000000000E+00     0.0000000000000000E+00 
    1.7499999999962990E-01     0.0000000000000000E+00     0.0000000000000000E+00 
    2.2499999999948389E-01     0.0000000000000000E+00     0.0000000000000000E+00 
    2.7499999999933789E-01     0.0000000000000000E+00     0.0000000000000000E+00 
    3.2499999999919210E-01     0.0000000000000000E+00     0.0000000000000000E+00 
    3.7499999999904610E-01     0.0000000000000000E+00     0.0000000000000000E+00 
    4.2499999999890020E-01     0.0000000000000000E+00     0.0000000000000000E+00 
    4.7499999999875958E-01     0.0000000000000000E+00     0.0000000000000000E+00 
    2.4999999999949701E-02     0.0000000000000000E+00     0.0000000000000000E+00 
    5.7499999999887907E-01     0.0000000000000000E+00     0.0000000000000000E+00 
    6.2499999999901101E-01     0.0000000000000000E+00     0.0000000000000000E+00 
    6.7499999999914273E-01     0.0000000000000000E+00     0.0000000000000000E+00 
    7.2499999999927467E-01     0.0000000000000000E+00     0.0000000000000000E+00 
    7.7499999999940661E-01     0.0000000000000000E+00     0.0000000000000000E+00 
    8.2499999999953844E-01     0.0000000000000000E+00     0.0000000000000000E+00 
    8.7499999999967026E-01     0.0000000000000000E+00     0.0000000000000000E+00 
    9.2499999999980220E-01     0.0000000000000000E+00     0.0000000000000000E+00 
    9.7499999999993414E-01     0.0000000000000000E+00     0.0000000000000000E+00 
    5.4999999999881310E-01     0.0000000000000000E+00     0.0000000000000000E+00 
    9.9999999999814140E-02     0.0000000000000000E+00     0.0000000000000000E+00 
    1.4999999999970290E-01     0.0000000000000000E+00     0.0000000000000000E+00 
    1.9999999999955689E-01     0.0000000000000000E+00     0.0000000000000000E+00 
    2.4999999999941089E-01     0.0000000000000000E+00     0.0000000000000000E+00 
    2.9999999999926502E-01     0.0000000000000000E+00     0.0000000000000000E+00 
    3.4999999999911913E-01     0.0000000000000000E+00     0.0000000000000000E+00 
    3.9999999999897312E-01     0.0000000000000000E+00     0.0000000000000000E+00 
    4.4999999999882723E-01     0.0000000000000000E+00     0.0000000000000000E+00 
    4.9999999999869210E-01     0.0000000000000000E+00     0.0000000000000000E+00 
    4.9999999999899403E-02     0.0000000000000000E+00     0.0000000000000000E+00 
    5.9999999999894504E-01     0.0000000000000000E+00     0.0000000000000000E+00 
    6.4999999999907687E-01     0.0000000000000000E+00     0.0000000000000000E+00 
    6.9999999999920870E-01     0.0000000000000000E+00     0.0000000000000000E+00 
    7.4999999999934064E-01     0.0000000000000000E+00     0.0000000000000000E+00 
    7.9999999999947247E-01     0.0000000000000000E+00     0.0000000000000000E+00 
    8.4999999999960441E-01     0.0000000000000000E+00     0.0000000000000000E+00 
    8.9999999999973623E-01     0.0000000000000000E+00     0.0000000000000000E+00 
    9.4999999999986817E-01     0.0000000000000000E+00     0.0000000000000000E+00 
    1.0000000000000000E+00     5.2499999999875258E-01     0.0000000000000000E+00 
    1.0000000000000000E+00     7.4999999999856765E-02     0.0000000000000000E+00 
    1.0000000000000000E+00     1.2499999999975850E-01     0.0000000000000000E+00 
    1.0000000000000000E+00     1.7499999999962990E-01     0.0000000000000000E+00 
    1.0000000000000000E+00     2.2499999999948389E-01     0.0000000000000000E+00 
    1.0000000000000000E+00     2.7499999999933789E-01     0.0000000000000000E+00 
    1.0000000000000000E+00     3.2499999999919210E-01     0.0000000000000000E+00 
    1.0000000000000000E+00     3.7499999999904610E-01     0.0000000000000000E+00 
    1.0000000000000000E+00     4.2499999999890020E-01     0.0000000000000000E+00 
    1.0000000000000000E+00     4.7499999999875958E-01     0.0000000000000000E+00 
    1.0000000000000000E+00     2.4999999999949701E-02     0.0000000000000000E+00 
    1.0000000000000000E+00     5.7499999999887907E-01     0.0000000000000000E+00 
    1.0000000000000000E+00     6.2499999999901101E-01     0.0000000000000000E+00 
    1.0000000000000000E+00     6.7499999999914273E-01     0.0000000000000000E+00 
    1.0000000000000000E+00     7.2499999999927467E-01     0.0000000000000000E+00 
    1.0000000000000000E+00     7.7499999999940661E-01     0.0000000000000000E+00 
    1.0000000000000000E+00     8.2499999999953844E-01     0.0000000000000000E+00 
    1.0000000000000000E+00     8.7499999999967026E-01     0.0000000000000000E+00 
    1.0000000000000000E+00     9.2499999999980220E-01     0.0000000000000000E+00 
    1.0000000000000000E+00     9.7499999999993414E-01     0.0000000000000000E+00 
    1.0000000000000000E+00     5.4999999999881310E-01     0.0000000000000000E+00 
    1.0000000000000000E+00     9.9999999999814140E-02     0.0000000000000000E+00 
    1.0000000000000000E+00     1.4999999999970290E-01     0.0000000000000000E+00 
    1.0000000000000000E+00     1.9999999999955689E-01     0.0000000000000000E+00 
    1.0000000000000000E+00     2.4999999999941089E-01     0.0000000000000000E+00 
    1.0000000000000000E+00     2.9999999999926502E-01     0.0000000000000000E+00 
    1.0000000000000000E+00     3.4999999999911913E-01     0.0000000000000000E+00 
    1.0000000000000000E+00     3.9999999999897312E-01     0.0000000000000000E+00 
    1.0000000000000000E+00     4.4999999999882723E-01     0.0000000000000000E+00 
    1.0000000000000000E+00     4.9999999999869210E-01     0.0000000000000000E+00 
    1.0000000000000000E+00     4.9999999999899403E-02     0.0000000000000000E+00 
    1.0000000000000000E+00     5.9999999999894504E-01     0.0000000000000000E+00 
    1.0000000000000000E+00     6.4999999999907687E-01     0.0000000000000000E+00 
    1.0000000000000000E+00     6.9999999999920870E-01     0.0000000000000000E+00 
    1.0000000000000000E+00     7.4999999999934064E-01     0.0000000000000000E+00 
    1.0000000000000000E+00     7.9999999999947247E-01     0.0000000000000000E+00 
    1.0000000000000000E+00     8.4999999999960441E-01     0.0000000000000000E+00 
    1.0000000000000000E+00     8.9999999999973623E-01     0.0000000000000000E+00 
    1.0000000000000000E+00     9.4999999999986817E-01     0.0000000000000000E+00 
    4.7500000000196618E-01     1.0000000000000000E+00     0.0000000000000000E+00 
    9.2499999999968763E-01     1.0000000000000000E+00     0.0000000000000000E+00 
    8.7499999999961831E-01     1.0000000000000000E+00     0.0000000000000000E+00 
    8.2499999999982654E-01     1.0000000000000000E+00     0.0000000000000000E+00 
    7.7500000000017355E-01     1.0000000000000000E+00     0.0000000000000000E+00 
    7.2500000000052045E-01     1.0000000000000000E+00     0.0000000000000000E+00 
    6.7500000000086724E-01     1.0000000000000000E+00     0.0000000000000000E+00 
    6.2500000000121403E-01     1.0000000000000000E+00     0.0000000000000000E+00 
    5.7500000000156093E-01     1.0000000000000000E+00     0.0000000000000000E+00 
    5.2500000000189684E-01     1.0000000000000000E+00     0.0000000000000000E+00 
    9.7499999999989595E-01     1.0000000000000000E+00     0.0000000000000000E+00 
    4.2500000000176902E-01     1.0000000000000000E+00     0.0000000000000000E+00 
    3.7500000000156092E-01     1.0000000000000000E+00     0.0000000000000000E+00 
    3.2500000000135282E-01     1.0000000000000000E+00     0.0000000000000000E+00 
    2.7500000000114472E-01     1.0000000000000000E+00     0.0000000000000000E+00 
    2.2500000000093659E-01     1.0000000000000000E+00     0.0000000000000000E+00 
    1.7500000000072849E-01     1.0000000000000000E+00     0.0000000000000000E+00 
    1.2500000000052039E-01     1.0000000000000000E+00     0.0000000000000000E+00 
    7.5000000000312261E-02     1.0000000000000000E+00     0.0000000000000000E+00 
    2.5000000000104109E-02     1.0000000000000000E+00     0.0000000000000000E+00 
    4.5000000000187301E-01     1.0000000000000000E+00     0.0000000000000000E+00 
    8.9999999999958358E-01     1.0000000000000000E+00     0.0000000000000000E+00 
    8.4999999999965303E-01     1.0000000000000000E+00     0.0000000000000000E+00 
    8.0000000000000004E-01     1.0000000000000000E+00     0.0000000000000000E+00 
    7.5000000000034706E-01     1.0000000000000000E+00     0.0000000000000000E+00 
    7.0000000000069384E-01     1.0000000000000000E+00     0.0000000000000000E+00 
    6.5000000000104063E-01     1.0000000000000000E+00     0.0000000000000000E+00 
    6.0000000000138742E-01     1.0000000000000000E+00     0.0000000000000000E+00 
    5.5000000000173432E-01     1.0000000000000000E+00     0.0000000000000000E+00 
    5.0000000000205946E-01     1.0000000000000000E+00     0.0000000000000000E+00 
    9.4999999999979179E-01     1.0000000000000000E+00     0.0000000000000000E+00 
    4.0000000000166491E-01     1.0000000000000000E+00     0.0000000000000000E+00 
    3.5000000000145681E-01     1.0000000000000000E+00     0.0000000000000000E+00 
    3.0000000000124871E-01     1.0000000000000000E+00     0.0000000000000000E+00 
    2.5000000000104061E-01     1.0000000000000000E+00     0.0000000000000000E+00 
    2.0000000000083251E-01     1.0000000000000000E+00     0.0000000000000000E+00 
    1.5000000000062441E-01     1.0000000000000000E+00     0.0000000000000000E+00 
    1.0000000000041630E-01     1.0000000000000000E+00     0.0000000000000000E+00 
[...]
CELL_DATA 1600 
SCALARS Pressure double 1 
LOOKUP_TABLE default 

    1.0394181861235092E+00 
    9.9311358354761092E-01 
    9.9069469781327790E-01 
    1.0237194773670315E+00 
    1.0111475746126690E+00 
    9.8703342803066529E-01 
    9.8280898922240389E-01 
    1.0008498224270139E+00 
    9.9223133982251366E-01 
    9.7840364572851102E-01 
    9.7402812599562094E-01 
    9.8487950075748110E-01 
    9.7850345121991622E-01 
    9.6979369335408372E-01 
    9.6575438524045210E-01 
    9.7289463389582620E-01 
    9.6790091689818958E-01 
    9.6193178470456653E-01 
    9.5832952191029330E-01 
    9.6340945384755872E-01 
    9.5933518350102631E-01 
    9.5494172460547877E-01 
    9.5175790013748307E-01 
    9.5561300814964711E-01 
    9.5219239909083420E-01 
    9.4876571413406674E-01 
    9.4595253246957534E-01 
    9.4903362291035653E-01 
    9.4610506390140292E-01 
    9.4330623989909013E-01 
    9.4081563963822701E-01 
    9.4338129743984689E-01 
    9.4084168461171136E-01 
    9.3847061406381360E-01 
    9.3626215290789172E-01 
    9.3846933342471550E-01 
    9.3625032120544249E-01 
    9.3418231137339014E-01 
    9.3222413443130914E-01 
    9.3417310548643362E-01 
    9.3222807263557006E-01 
    9.3038156799870164E-01 
    9.2864936847798329E-01 
    9.3040718837649439E-01 
    9.2870372457418504E-01 
    9.2702301671420617E-01 
    9.2549863927235743E-01 
    9.2711204375767353E-01 
    9.2562742783323049E-01 
    9.2407293813580549E-01 
    9.2274312892786059E-01 
    9.2424594097306845E-01 
    9.2296431918886657E-01 
    9.2150688722570673E-01 
    9.2036230226082161E-01 
    9.2177988090775409E-01 
    9.2069045414211592E-01 
    9.1930783713870556E-01 
    9.1834229452981408E-01 
    9.1969431666472190E-01 
    9.1879014590030827E-01 
    9.1746478636959894E-01 
    9.1667470492834913E-01 
    9.1797697460619754E-01 
    9.1725414541945749E-01 
    9.1597168913900284E-01 
    9.1535557005994506E-01 
    9.1662124789369470E-01 
    9.1607799583766958E-01 
    9.1482625280605967E-01 
    9.1438343094558339E-01 
    9.1562394210831155E-01 
    9.1525780700056880E-01 
    9.1402590818322982E-01 
    9.1375011729659961E-01 
    9.1497601224046266E-01 
    9.1477095738103986E-01 
    9.1354840285776473E-01 
    9.1343304835518235E-01 
    9.1465410014990389E-01 
    9.6948737241157901E-01 
    9.5251378130653275E-01 
    9.5214505429474527E-01 
    9.6871817230347079E-01 
    9.6730450135928070E-01 
    9.5143188010889856E-01 
    9.5041589129139625E-01 
    9.6540308724904600E-01 
    9.6315993675346878E-01 
    9.4914666470062792E-01 
    9.4767503449785628E-01 
    9.6069622084294892E-01 
    9.5810630997693347E-01 
    9.4604887302136154E-01 
    9.4431085952152338E-01 
    9.5546071902004448E-01 
    9.5281052840363567E-01 
    9.4249762512860569E-01 
    9.4063975135487843E-01 
    9.5019176802015981E-01 
    9.4762919006745605E-01 
    9.3876223970888917E-01 
    9.3688519803780668E-01 
    9.4513929436167743E-01 
    9.4273265536695317E-01 
    9.3502458719516413E-01 
    9.3319293978165407E-01 
    9.4041566448973568E-01 
    9.3819181034038102E-01 
    9.3140000699317516E-01 
    9.2965331669796203E-01 
    9.3606260651371820E-01 
    9.3402825656478883E-01 
    9.2795864135686945E-01 
    9.2632038247244708E-01 
    9.3208812611818115E-01 
    9.3024107504751352E-01 
    9.2474188180098538E-01 
    9.2322567050017457E-01 
    9.2848568901257833E-01 
    9.2682043912304424E-01 
    9.2177366692443907E-01 
    9.2038733265660955E-01 
    9.2524379059791062E-01 
    9.2375427545769451E-01 
    9.1906779500593305E-01 
    9.1781594284144952E-01 
    9.2235054002973338E-01 
    9.2103137496407050E-01 
    9.1663250138153085E-01 
    9.1551809046982380E-01 
    9.1979573323392694E-01 
    9.1864273998999280E-01 
    9.1447326993877098E-01 
    9.1349857487220232E-01 
    9.1757169696628516E-01 
    9.1658208324318902E-01 
    9.1259454288082398E-01 
    9.1176173480531864E-01 
    9.1567355340164136E-01 
    9.1484593320204810E-01 
    9.1100074934254816E-01 
    9.1031223035372988E-01 
    9.1409921130773786E-01 
    9.1343352161769298E-01 
    9.0969686135651595E-01 
    9.0915533045038865E-01 
    9.1284910010189890E-01 
    9.1234617268703622E-01 
    9.0868822091018664E-01 
    9.0829572155347726E-01 
    9.1192466922313908E-01 
    9.1158353902386646E-01 
    9.0797693405025615E-01 
    9.0772837291185671E-01 
    9.1131926081374748E-01 
    9.1112416417766251E-01 
    9.0754232763367426E-01 
    9.0743430116682211E-01 
    9.1101192559035493E-01 
    9.3835633015763265E-01 
    9.2559091507208036E-01 
    9.2544943173166805E-01 
    9.3814020029975254E-01 
    9.3771541582141127E-01 
    9.2516952086704196E-01 
    9.2475745146840460E-01 
    9.3709645379790973E-01 
    9.3630264531316520E-01 
    9.2422205772252897E-01 
    9.2357411323193572E-01 
    9.3535618807048360E-01 
    9.3428040879906948E-01 
    9.2282568053556346E-01 
    9.2198950903598342E-01 
    9.3309841860055598E-01 
    9.3183217636313764E-01 
    9.2107852306901428E-01 
    9.2010541716450955E-01 
    9.3050190970982416E-01 
    9.2912581829310092E-01 
    9.1908235836773799E-01 
    9.1802078516102226E-01 
    9.2771998294250413E-01 
    9.2629841405581570E-01 
    9.1693128751111208E-01 
    9.1582355120283310E-01 
    9.2487318634637283E-01 
    9.2345462068502748E-01 
    9.1470635047998039E-01 
    9.1358757503621602E-01 
    9.2205148552624094E-01 
    9.2067119973333378E-01 
    9.1247427986319551E-01 
    9.1137274892967757E-01 
    9.1932002559487125E-01 
    9.1800324579842207E-01 
    9.1028856589498053E-01 
    9.0922668694797248E-01 
    9.1672532151832375E-01 
    9.1549003097616111E-01 
    9.0819151238641505E-01 
    9.0718695473412081E-01 
    9.1430058917961965E-01 
    9.1315975029934626E-01 
    9.0621650207984761E-01 
    9.0528327596313640E-01 
    9.1206989450038523E-01 
    9.1103310114572356E-01 
    9.0439008357739537E-01 
    9.0353946435099897E-01 
    9.1005121023120161E-01 
    9.0912587375508724E-01 
    9.0273373113372912E-01 
    9.0197500627383620E-01 
    9.0825859850315627E-01 
    9.0745078143790914E-01 
    9.0126525280864112E-01 
    9.0060630073747661E-01 
    9.0670373845602270E-01 
    9.0601872651251736E-01 
    8.9999986766841422E-01 
    8.9944757134092179E-01 
    9.0539695737588000E-01 
    9.0483959678016768E-01 
    8.9895092671311161E-01 
    8.9851130784805167E-01 
    9.0434773091904530E-01 
    9.0392225365358925E-01 
    8.9812982579710487E-01 
    8.9780701452937195E-01 
    9.0356356750562583E-01 
    9.0327087717069232E-01 
    8.9754210425552472E-01 
    8.9733146566254252E-01 
    9.0304066951494588E-01 
    9.0286509669669424E-01 
    8.9716698771410774E-01 
    8.9706880649669829E-01 
    9.0276185847064128E-01 
    9.1354272555058902E-01 
    9.0184350082985310E-01 
    9.0177047489445727E-01 
    9.1344347849951057E-01 
    9.1324648334960778E-01 
    9.0162526090072459E-01 
    9.0140967785295856E-01 
    9.1295492329657835E-01 
    9.1257340833874379E-01 
    9.0112639806223371E-01 
    9.0077885635576627E-01 
    9.1210775078883510E-01 
    9.1156470614266638E-01 
    9.0037113688761983E-01 
    8.9990784884540775E-01 
    9.1095170684015592E-01 
    9.1027660916633557E-01 
    8.9939399975802370E-01 
    8.9883487330508682E-01 
    9.0954746690387334E-01 
    9.0877233937665991E-01 
    8.9823591671129810E-01 
    8.9760264105479592E-01 
    9.0795913668053463E-01 
    9.0711550135781605E-01 
    8.9694053626598169E-01 
    8.9625500132754188E-01 
    9.0624872346419427E-01 
    9.0536568469334877E-01 
    8.9555128923446836E-01 
    8.9483446561904001E-01 
    9.0447282671621143E-01 
    9.0357613891926025E-01 
    8.9410937954930803E-01 
    8.9338064481928492E-01 
    9.0268116108869501E-01 
    9.0179299713034156E-01 
    8.9265263001263584E-01 
    8.9192945569197735E-01 
    9.0091633652853098E-01 
    9.0005548085813958E-01 
    8.9121499720349850E-01 
    8.9051289176046522E-01 
    8.9921437322856046E-01 
    8.9839662903355921E-01 
    8.8982654865604904E-01 
    8.8915916163903541E-01 
    8.9760556679738646E-01 
    8.9684423824422566E-01 
    8.8851372265315709E-01 
    8.8789303628214589E-01 
    8.9611545697740191E-01 
    8.9542182533756387E-01 
    8.8729973434660214E-01 
    8.8673629014555022E-01 
    8.9476575910770184E-01 
    8.9414950971648433E-01 
    8.8620503178004606E-01 
    8.8570815372311185E-01 
    8.9357518336642228E-01 
    8.9304475580951193E-01 
    8.8524772499492088E-01 
    8.8482569010577761E-01 
    8.9256007954048489E-01 
    8.9212287493880094E-01 
    8.8444385319121444E-01 
    8.8410382195835846E-01 
    8.9173468374747455E-01 
    8.9139673394110475E-01 
    8.8380685872903564E-01 
    8.8355352990641678E-01 
    8.9110960732636402E-01 
    8.9087248843986300E-01 
    8.8334293005556086E-01 
    8.8317101115843244E-01 
    8.9068155706793251E-01 
    8.9052836426956439E-01 
    8.8302906327334352E-01 
    8.8294191039886105E-01 
    8.9043550026276608E-01 
    8.9027358598775952E-01 
    8.7869405635046505E-01 
    8.7865033448413010E-01 
    8.9021789343789537E-01 
    8.9010702709453171E-01 
    8.7856324018400356E-01 
    8.7843354313195754E-01 
    8.8994212667689510E-01 
    8.8972487744400708E-01 
    8.7826238244475774E-01 
    8.7805124759067243E-01 
    8.8945746992327823E-01 
    8.8914254587471508E-01 
    8.7780195048137966E-01 
    8.7751659211171873E-01 
    8.8878313609133941E-01 
    8.8838259398572561E-01 
    8.7719752575329557E-01 
    8.7684731834642315E-01 
    8.8794452826874148E-01 
    8.8747273745522726E-01 
    8.7646871151943129E-01 
    8.7606458345057947E-01 
    8.8697114833048107E-01 
    8.8644375990895030E-01 
    8.7563791255882362E-01 
    8.7519174377517772E-01 
    8.8589459385424163E-01 
    8.8532765183890338E-01 
    8.7472915792015160E-01 
    8.7425324450628239E-01 
    8.8474687992050827E-01 
    8.8415613970190687E-01 
    8.7376707810598309E-01 
    8.7327369827770451E-01 
    8.8355918582349069E-01 
    8.8295964919351821E-01 
    8.7277609292854430E-01 
    8.7227718490723594E-01 
    8.8236102528577287E-01 
    8.8176666680800830E-01 
    8.7177982156468103E-01 
    8.7128676698553453E-01 
    8.8117978005640707E-01 
    8.8060342430850513E-01 
    8.7080069657906312E-01 
    8.7032419371521164E-01 
    8.8004051365897229E-01 
    8.7949382075947102E-01 
    8.6985974809645883E-01 
    8.6940975555947497E-01 
    8.7896598197528386E-01 
    8.7845950350361124E-01 
    8.6897651898934292E-01 
    8.6856224997640197E-01 
    8.7797676798682889E-01 
    8.7752004104441317E-01 
    8.6816907068983495E-01 
    8.6779901502604229E-01 
    8.7709147680413746E-01 
    8.7669312057495441E-01 
    8.6745402700150687E-01 
    8.6713595156341849E-01 
    8.7632690432214433E-01 
    8.7599462434762454E-01 
    8.6684650621392179E-01 
    8.6658720708775061E-01 
    8.7569787623042983E-01 
    8.7543789314539056E-01 
    8.6635919483263768E-01 
    8.6616285267100035E-01 
    8.7521517960009021E-01 
    8.7502871174901953E-01 
    8.6599697569811718E-01 
    8.6585691542813115E-01 
    8.7487419195190297E-01 
    8.7474298640270032E-01 
    8.6573485514734261E-01 
    8.6565975686962604E-01 
    8.7466189460409094E-01 
    8.6701360430871610E-01 
    8.5517082788923360E-01 
    8.5514181950478030E-01 
    8.6697840513159696E-01 
    8.6690825953747574E-01 
    8.5508399699567128E-01 
    8.5499778063285348E-01 
    8.6680372108729375E-01 
    8.6666560626672939E-01 
    8.5488378623164274E-01 
    8.5474282029238990E-01 
    8.6649498502009414E-01 
    8.6629316529498368E-01 
    8.5457587087276587E-01 
    8.5438409594194120E-01 
    8.6606167393620526E-01 
    8.6580223508872833E-01 
    8.5416880997207267E-01 
    8.5393146927950814E-01 
    8.6551674698917913E-01 
    8.6520725791335851E-01 
    8.5367365654903582E-01 
    8.5339706493045031E-01 
    8.6487594196065343E-01 
    8.6452507526582756E-01 
    8.5310348205734454E-01 
    8.5279477429600181E-01 
    8.6415701313121673E-01 
    8.6377416847134758E-01 
    8.5247287148680284E-01 
    8.5213975239307505E-01 
    8.6337899186239386E-01 
    8.6297395339519611E-01 
    8.5179743102467675E-01 
    8.5144794395765000E-01 
    8.6256152644620632E-01 
    8.6214417340781668E-01 
    8.5109333872843407E-01 
    8.5073566334232653E-01 
    8.6172433335908205E-01 
    8.6130441160975457E-01 
    8.5037695690153947E-01 
    8.5001924132806272E-01 
    8.6088677101395494E-01 
    8.6047372492296204E-01 
    8.4966451412973920E-01 
    8.4931474213236768E-01 
    8.6006753162691074E-01 
    8.5967039011858659E-01 
    8.4897185607244041E-01 
    8.4863774590653596E-01 
    8.5928443699198276E-01 
    8.5891174425020289E-01 
    8.4831425662822579E-01 
    8.4800318425504362E-01 
    8.5855431771168866E-01 
    8.5821409549879835E-01 
    8.4770627136847421E-01 
    8.4742520093802609E-01 
    8.5789294558499751E-01 
    8.5759266009537682E-01 
    8.4716158559084964E-01 
    8.4691694577557020E-01 
    8.5731494087586879E-01 
    8.5706136348414597E-01 
    8.4669266210693195E-01 
    8.4648987112399077E-01 
    8.5683329155373622E-01 
    8.5663168545433033E-01 
    8.4630924439495214E-01 
    8.4615052695913595E-01 
    8.5645669420088999E-01 
    8.5630675919846977E-01 
    8.4601149620961880E-01 
    8.4588540915632993E-01 
    8.5617653608614841E-01 
    8.5606036770364313E-01 
    8.4577072724312952E-01 
    8.4570512108863349E-01 
    8.5599056606849477E-01 
    8.4312407779965304E-01 
    8.3084532536120115E-01 
    8.3082420022364989E-01 
    8.4309961457228422E-01 
    8.4305084532333852E-01 
    8.3078208289774613E-01 
    8.3071925132804447E-01 
    8.4297810464534173E-01 
    8.4288187858072150E-01 
    8.3063610543006416E-01 
    8.3053316559081070E-01 
    8.4276280202659992E-01 
    8.4262165299575831E-01 
    8.3041106882084548E-01 
    8.3027056357289875E-01 
    8.4245934507681941E-01 
    8.4227691863323262E-01 
    8.3011250363653477E-01 
    8.2993784133210724E-01 
    8.4207553106639454E-01 
    8.4185644640262391E-01 
    8.2974762016987447E-01 
    8.2954296711754516E-01 
    8.4162102443480402E-01 
    8.4137070962928395E-01 
    8.2932508460692622E-01 
    8.2909524240008237E-01 
    8.4110701998900150E-01 
    8.4083153604253191E-01 
    8.2885476942489800E-01 
    8.2860504567837034E-01 
    8.4054589010566327E-01 
    8.4025175593766577E-01 
    8.2834749428320320E-01 
    8.2808357376944086E-01 
    8.3995083888935584E-01 
    8.3964486661497417E-01 
    8.2781477063809439E-01 
    8.2754259224794202E-01 
    8.3933558039522771E-01 
    8.3902472709462339E-01 
    8.2726856004964411E-01 
    8.2699420317216754E-01 
    8.3871405175198821E-01 
    8.3840529077761761E-01 
    8.2672105234359328E-01 
    8.2645063409841579E-01 
    8.3810016570121604E-01 
    8.3780037737670099E-01 
    8.2618446518010302E-01 
    8.2592404697834143E-01 
    8.3750760049298134E-01 
    8.3722347814283637E-01 
    8.2567085971839571E-01 
    8.2542635588624169E-01 
    8.3694961601780693E-01 
    8.3668757541394012E-01 
    8.2519195189006800E-01 
    8.2496901590357874E-01 
    8.3643886338074835E-01 
    8.3620491638826155E-01 
    8.2475884748754658E-01 
    8.2456263951592002E-01 
    8.3598706948534718E-01 
    8.3578649372516112E-01 
    8.2438140278323346E-01 
    8.2421581481334938E-01 
    8.3560406717829416E-01 
    8.3544011205949620E-01 
    8.2406591676871055E-01 
    8.2393047233935024E-01 
    8.3529384773357562E-01 
    8.3516210331243290E-01 
    8.2380537655081321E-01 
    8.2367915126894098E-01 
    8.3503593222383854E-01 
    8.3491968327732968E-01 
    8.2356215402096100E-01 
    8.2350234405717804E-01 
    8.3485727479937077E-01 
    8.1831631922866166E-01 
    8.0552612664886547E-01 
    8.0550910590856906E-01 
    8.1829761204908491E-01 
    8.1826031448108782E-01 
    8.0547517051625717E-01 
    8.0542453541615455E-01 
    8.1820466655574497E-01 
    8.1813101046359060E-01 
    8.0535750465692157E-01 
    8.0527447049958034E-01 
    8.1803978953277212E-01 
    8.1793154546595792E-01 
    8.0517591128061994E-01 
    8.0506238847701195E-01 
    8.1780691455905397E-01 
    8.1766662322260841E-01 
    8.0493454322623037E-01 
    8.0479309242614161E-01 
    8.1751148296911647E-01 
    8.1734238497903267E-01 
    8.0463882449589785E-01 
    8.0447259486245493E-01 
    8.1716029433921156E-01 
    8.1696624403836815E-01 
    8.0429532123015013E-01 
    8.0410797868695261E-01 
    8.1676132879816576E-01 
    8.1654669881314468E-01 
    8.0391159469824447E-01 
    8.0370724403643135E-01 
    8.1632355346696650E-01 
    8.1609313508602632E-01 
    8.0349604369186700E-01 
    8.0327914780737930E-01 
    8.1585672278420396E-01 
    8.1561562644433960E-01 
    8.0305774267492680E-01 
    8.0283304182845472E-01 
    8.1537118087270521E-01 
    8.1512474015188330E-01 
    8.0260628126142253E-01 
    8.0237871478991751E-01 
    8.1487767220410623E-01 
    8.1463135355945926E-01 
    8.0215160957105525E-01 
    8.0192624176790306E-01 
    8.1438716429779734E-01 
    8.1414648309275506E-01 
    8.0170389231915284E-01 
    8.0148584270836976E-01 
    8.1391068221632490E-01 
    8.1368112223203559E-01 
    8.0127337049889535E-01 
    8.0106774412681148E-01 
    8.1345914584396950E-01 
    8.1324606981669034E-01 
    8.0087021584354723E-01 
    8.0068201036779441E-01 
    8.1304317266988180E-01 
    8.1285167319831408E-01 
    8.0050430392766569E-01 
    8.0033818254205913E-01 
    8.1267268932340964E-01 
    8.1250715608857704E-01 
    8.0018455751942363E-01 
    8.0004399605507925E-01 
    8.1235566194399289E-01 
    8.1221811978477543E-01 
    7.9991637598952747E-01 
    7.9980009127214069E-01 
    8.1209304633389967E-01 
    8.1197566952208744E-01 
    7.9968985924743008E-01 
    7.9957045006102512E-01 
    8.1185227096779378E-01 
    8.1173766557305194E-01 
    7.9946002317928677E-01 
    7.9940474385395000E-01 
    8.1168017434080231E-01 
    7.9246956322589146E-01 
    7.7914622952464441E-01 
    7.7913082133917233E-01 
    7.9245361838091188E-01 
    7.9242182802168759E-01 
    7.7910010063952650E-01 
    7.7905425836200271E-01 
    7.9237439138737964E-01 
    7.9231158878842356E-01 
    7.7899356248657947E-01 
    7.7891835684271904E-01 
    7.9223378063336847E-01 
    7.9214140564149549E-01 
    7.7882905949413406E-01 
    7.7872616060132904E-01 
    7.9203497841576986E-01 
    7.9191508657183507E-01 
    7.7861021990484047E-01 
    7.7848186390623109E-01 
    7.9178238752098484E-01 
    7.9163760496788704E-01 
    7.7834178279327670E-01 
    7.7819072714331528E-01 
    7.9148152516947434E-01 
    7.9131499299542796E-01 
    7.7802950443346663E-01 
    7.7785897538409310E-01 
    7.9113890782793972E-01 
    7.9095421933694943E-01 
    7.7768005016068353E-01 
    7.7749368445852962E-01 
    7.9076192316598959E-01 
    7.9056305656271009E-01 
    7.7730087549367133E-01 
    7.7710265792236310E-01 
    7.9035869398694525E-01 
    7.9014994272764316E-01 
    7.7690009970944129E-01 
    7.7669429796305589E-01 
    7.8993793855791539E-01 
    7.8972384145449481E-01 
    7.7648637474856119E-01 
    7.7627747288667492E-01 
    7.8950883140317307E-01 
    7.8929410430357916E-01 
    7.7606875172778433E-01 
    7.7586138287051210E-01 
    7.8908086797123578E-01 
    7.8887033820416030E-01 
    7.7565654574793497E-01 
    7.7545542291691472E-01 
    7.8866373481770635E-01 
    7.8846227741506059E-01 
    7.7525919470590976E-01 
    7.7506903249615722E-01 
    7.8826718036124965E-01 
    7.8807964576166045E-01 
    7.7488608909483137E-01 
    7.7471148292561198E-01 
    7.8790085177592595E-01 
    7.8773193049194157E-01 
    7.7454626923831227E-01 
    7.7439138485840142E-01 
    7.8757392350034139E-01 
    7.8742769225646803E-01 
    7.7424754086834136E-01 
    7.7411501214806655E-01 
    7.8729373908089273E-01 
    7.8717183525640955E-01 
    7.7399319133237221E-01 
    7.7387945152922000E-01 