# vtk DataFile Version 2.0
Pressure Field Data 
ASCII 
DATASET UNSTRUCTURED_GRID 

POINTS 1681 double 

    0.0000000000000000E+00     0.0000000000000000E+00     0.0000000000000000E+00 
    1.0000000000000000E+00     0.0000000000000000E+00     0.0000000000000000E+00 
    1.0000000000000000E+00     1.0000000000000000E+00     0.0000000000000000E+00 
    0.0000000000000000E+00     1.0000000000000000E+00     0.0000000000000000E+00 
    5.2499999999875258E-01     0.0000000000000000E+00     0.0000000000000000E+00 
    7.4999999999856765E-02     0.0000000000000000E+00     0.0000000000000000E+00 
    1.2499999999975850E-01     0.0000000000000000E+00     0.0000000000000000E+00 
    1.7499999999962990E-01     0.0000000000000000E+00     0.0000000000000000E+00 
    2.2499999999948389E-01     0.0000000000000000E+00     0.0000000000000000E+00 
    2.7499999999933789E-01     0.0000000000000000E+00     0.0000000000000000E+00 
    3.2499999999919210E-01     0.0000000000000000E+00     0.0000000000000000E+00 
    3.7499999999904610E-01     0.0000000000000000E+00     0.0000000000000000E+00 
    4.2499999999890020E-01     0.0000000000000000E+00     0.0000000000000000E+00 
    4.7499999999875958E-01     0.0000000000000000E+00     0.0000000000000000E+00 
    2.4999999999949701E-02     0.0000000000000000E+00     0.0000000000000000E+00 
    5.7499999999887907E-01     0.0000000000000000E+00     0.0000000000000000E+00 
    6.2499999999901101E-01     0.0000000000000000E+00     0.0000000000000000E+00 
    6.7499999999914273E-01     0.0000000000000000E+00     0.0000000000000000E+00 
    7.2499999999927467E-01     0.0000000000000000E+00     0.0000000000000000E+00 
    7.7499999999940661E-01     0.0000000000000000E+00     0.0000000000000000E+00 
    8.2499999999953844E-01     0.0000000000000000E+00     0.0000000000000000E+00 
    8.7499999999967026E-01     0.0000000000000000E+00     0.0000000000000000E+00 
    9.2499999999980220E-01     0.0000000000000000E+00     0.0000000000000000E+00 
    9.7499999999993414E-01     0.0000000000000000E+00     0.0000000000000000E+00 
    5.4999999999881310E-01     0.0000000000000000E+00     0.0000000000000000E+00 
    9.9999999999814140E-02     0.0000000000000000E+00     0.0000000000000000E+00 
    1.4999999999970290E-01     0.0000000000000000E+00     0.0000000000000000E+00 
    1.9999999999955689E-01     0.0000000000000000E+00     0.0000000000000000E+00 
    2.4999999999941089E-01     0.0000000000000000E+00     0.0000000000000000E+00 
    2.9999999999926502E-01     0.0000000000000000E+00     0.0000000000000000E+00 
    3.4999999999911913E-01     0.0000000000000000E+00     0.0000000000000000E+00 
    3.9999999999897312E-01     0.0000000000000000E+00     0.0000000000000000E+00 
    4.4999999999882723E-01     0.0000000000000000E+00     0.0000000000000000E+00 
    4.9999999999869210E-01     0.0000000000000000E+00     0.0000000000000000E+00 
    4.9999999999899403E-02     0.0000000000000000E+00     0.0000000000000000E+00 
    5.9999999999894504E-01     0.0000000000000000E+00     0.0000000000000000E+00 
    6.4999999999907687E-01     0.0000000000000000E+00     0.0000000000000000E+00 
    6.9999999999920870E-01     0.0000000000000000E+00     0.0000000000000000E+00 
    7.4999999999934064E-01     0.0000000000000000E+00     0.0000000000000000E+00 
    7.9999999999947247E-01     0.0000000000000000E+00     0.0000000000000000E+00 
    8.4999999999960441E-01     0.0000000000000000E+00     0.0000000000000000E+00 
    8.9999999999973623E-01     0.0000000000000000E+00     0.0000000000000000E+00 
    9.4999999999986817E-01     0.0000000000000000E+00     0.0000000000000000E+00 
    1.0000000000000000E+00     5.2499999999875258E-01     0.0000000000000000E+00 
    1.0000000000000000E+00     7.4999999999856765E-02     0.0000000000000000E+00 
    1.0000000000000000E+00     1.2499999999975850E-01     0.0000000000000000E+00 
    1.0000000000000000E+00     1.7499999999962990E-01     0.0000000000000000E+00 
    1.0000000000000000E+00     2.2499999999948389E-01     0.0000000000000000E+00 
    1.0000000000000000E+00     2.7499999999933789E-01     0.0000000000000000E+00 
    1.0000000000000000E+00     3.2499999999919210E-01     0.0000000000000000E+00 
    1.0000000000000000E+00     3.7499999999904610E-01     0.0000000000000000E+00 
    1.0000000000000000E+00     4.2499999999890020E-01     0.0000000000000000E+00 
    1.0000000000000000E+00     4.7499999999875958E-01     0.0000000000000000E+00 
    1.0000000000000000E+00     2.4999999999949701E-02     0.0000000000000000E+00 
    1.0000000000000000E+00     5.7499999999887907E-01     0.0000000000000000E+00 
    1.0000000000000000E+00     6.2499999999901101E-01     0.0000000000000000E+00 
    1.0000000000000000E+00     6.7499999999914273E-01     0.0000000000000000E+00 
    1.0000000000000000E+00     7.2499999999927467E-01     0.0000000000000000E+00 
    1.0000000000000000E+00     7.7499999999940661E-01     0.0000000000000000E+00 
    1.0000000000000000E+00     8.2499999999953844E-01     0.0000000000000000E+00 
    1.0000000000000000E+00     8.7499999999967026E-01     0.0000000000000000E+00 
    1.0000000000000000E+00     9.2499999999980220E-01     0.0000000000000000E+00 
    1.0000000000000000E+00     9.7499999999993414E-01     0.0000000000000000E+00 
    1.0000000000000000E+00     5.4999999999881310E-01     0.0000000000000000E+00 
    1.0000000000000000E+00     9.9999999999814140E-02     0.0000000000000000E+00 
    1.0000000000000000E+00     1.4999999999970290E-01     0.0000000000000000E+00 
    1.0000000000000000E+00     1.9999999999955689E-01     0.0000000000000000E+00 
    1.0000000000000000E+00     2.4999999999941089E-01     0.0000000000000000E+00 
    1.0000000000000000E+00     2.9999999999926502E-01     0.0000000000000000E+00 
    1.0000000000000000E+00     3.4999999999911913E-01     0.0000000000000000E+00 
    1.0000000000000000E+00     3.9999999999897312E-01     0.0000000000000000E+00 
    1.0000000000000000E+00     4.4999999999882723E-01     0.0000000000000000E+00 
    1.0000000000000000E+00     4.9999999999869210E-01     0.0000000000000000E+00 
    1.0000000000000000E+00     4.9999999999899403E-02     0.0000000000000000E+00 
    1.0000000000000000E+00     5.9999999999894504E-01     0.0000000000000000E+00 
    1.0000000000000000E+00     6.4999999999907687E-01     0.0000000000000000E+00 
    1.0000000000000000E+00     6.9999999999920870E-01     0.0000000000000000E+00 
    1.0000000000000000E+00     7.4999999999934064E-01     0.0000000000000000E+00 
    1.0000000000000000E+00     7.9999999999947247E-01     0.0000000000000000E+00 
    1.0000000000000000E+00     8.4999999999960441E-01     0.0000000000000000E+00 
    1.0000000000000000E+00     8.9999999999973623E-01     0.0000000000000000E+00 
    1.0000000000000000E+00     9.4999999999986817E-01     0.0000000000000000E+00 
    4.7500000000196618E-01     1.0000000000000000E+00     0.0000000000000000E+00 
    9.2499999999968763E-01     1.0000000000000000E+00     0.0000000000000000E+00 
    8.7499999999961831E-01     1.0000000000000000E+00     0.0000000000000000E+00 
    8.2499999999982654E-01     1.0000000000000000E+00     0.0000000000000000E+00 
    7.7500000000017355E-01     1.0000000000000000E+00     0.0000000000000000E+00 
    7.2500000000052045E-01     1.0000000000000000E+00     0.0000000000000000E+00 
    6.7500000000086724E-01     1.0000000000000000E+00     0.0000000000000000E+00 
    6.2500000000121403E-01     1.0000000000000000E+00     0.0000000000000000E+00 
    5.7500000000156093E-01     1.0000000000000000E+00     0.0000000000000000E+00 
    5.2500000000189684E-01     1.0000000000000000E+00     0.0000000000000000E+00 
    9.7499999999989595E-01     1.0000000000000000E+00     0.0000000000000000E+00 
    4.2500000000176902E-01     1.0000000000000000E+00     0.0000000000000000E+00 
    3.7500000000156092E-01     1.0000000000000000E+00     0.0000000000000000E+00 
    3.2500000000135282E-01     1.0000000000000000E+00     0.0000000000000000E+00 
    2.7500000000114472E-01     1.0000000000000000E+00     0.0000000000000000E+00 
    2.2500000000093659E-01     1.0000000000000000E+00     0.0000000000000000E+00 
    1.7500000000072849E-01     1.0000000000000000E+00     0.0000000000000000E+00 
    1.2500000000052039E-01     1.0000000000000000E+00     0.0000000000000000E+00 
    7.5000000000312261E-02     1.0000000000000000E+00     0.0000000000000000E+00 
    2.5000000000104109E-02     1.0000000000000000E+00     0.0000000000000000E+00 
    4.5000000000187301E-01     1.0000000000000000E+00     0.0000000000000000E+00 
    8.9999999999958358E-01     1.0000000000000000E+00     0.0000000000000000E+00 
    8.4999999999965303E-01     1.0000000000000000E+00     0.0000000000000000E+00 
    8.0000000000000004E-01     1.0000000000000000E+00     0.0000000000000000E+00 
    7.5000000000034706E-01     1.0000000000000000E+00     0.0000000000000000E+00 
    7.0000000000069384E-01     1.0000000000000000E+00     0.0000000000000000E+00 
    6.5000000000104063E-01     1.0000000000000000E+00     0.0000000000000000E+00 
    6.0000000000138742E-01     1.0000000000000000E+00     0.0000000000000000E+00 
    5.5000000000173432E-01     1.0000000000000000E+00     0.0000000000000000E+00 
    5.0000000000205946E-01     1.0000000000000000E+00     0.0000000000000000E+00 
    9.4999999999979179E-01     1.0000000000000000E+00     0.0000000000000000E+00 
    4.0000000000166491E-01     1.0000000000000000E+00     0.0000000000000000E+00 
    3.5000000000145681E-01     1.0000000000000000E+00     0.0000000000000000E+00 
    3.0000000000124871E-01     1.0000000000000000E+00     0.0000000000000000E+00 
    2.5000000000104061E-01     1.0000000000000000E+00     0.0000000000000000E+00 
    2.0000000000083251E-01     1.0000000000000000E+00     0.0000000000000000E+00 
    1.5000000000062441E-01     1.0000000000000000E+00     0.0000000000000000E+00 
    1.0000000000041630E-01     1.0000000000000000E+00     0.0000000000000000E+00 
[...]
CELL_DATA 1600 
SCALARS Pressure double 1 
LOOKUP_TABLE default 

    1.1813142057902524E+00 
    1.1345846755799744E+00 
    1.1321358273069264E+00 
    1.1655492468123207E+00 
    1.1528887257523697E+00 
    1.1284208873166144E+00 
    1.1241250143482304E+00 
    1.1424909447963536E+00 
    1.1337631069271725E+00 
    1.1196337783860213E+00 
    1.1151603042400442E+00 
    1.1262938640278293E+00 
    1.1197933726107827E+00 
    1.1108177418585978E+00 
    1.1066617002844585E+00 
    1.1140539771239413E+00 
    1.1089243957469312E+00 
    1.1027151226937688E+00 
    1.0989828463785005E+00 
    1.1042926008713463E+00 
    1.1000743244449172E+00 
    1.0954600883231229E+00 
    1.0921373496998958E+00 
    1.0962052363363459E+00 
    1.0926355479607734E+00 
    1.0890032099148561E+00 
    1.0860458797430841E+00 
    1.0893262366312564E+00 
    1.0862463666541184E+00 
    1.0832540285374881E+00 
    1.0806171907023048E+00 
    1.0833711621789215E+00 
    1.0806806020608863E+00 
    1.0781259321473682E+00 
    1.0757718834257644E+00 
    1.0781583819362677E+00 
    1.0757911379557645E+00 
    1.0735477021890694E+00 
    1.0714470013493897E+00 
    1.0735678593303775E+00 
    1.0714794388108484E+00 
    1.0694642637277236E+00 
    1.0675947547157238E+00 
    1.0695183251384133E+00 
    1.0676782517455199E+00 
    1.0658344390278147E+00 
    1.0641799044405149E+00 
    1.0659540230894271E+00 
    1.0643413449743904E+00 
    1.0626282935822042E+00 
    1.0611772437850842E+00 
    1.0628366887161422E+00 
    1.0614371814459636E+00 
    1.0598248343822538E+00 
    1.0585695403652928E+00 
    1.0601405164831488E+00 
    1.0589448785872044E+00 
    1.0574101907431601E+00 
    1.0563459288069297E+00 
    1.0578488788105214E+00 
    1.0568514916920724E+00 
    1.0553761686975742E+00 
    1.0545005351611993E+00 
    1.0559519808588653E+00 
    1.0551497805203909E+00 
    1.0537187536410164E+00 
    1.0530304119502296E+00 
    1.0544442560457805E+00 
    1.0538341810206691E+00 
    1.0524344273026394E+00 
    1.0519279117221825E+00 
    1.0533166307236081E+00 
    1.0528847731434887E+00 
    1.0515038900847511E+00 
    1.0511481894143178E+00 
    1.0525248562743421E+00 
    1.0522435910758818E+00 
    1.0508698160709569E+00 
    1.0507288180846439E+00 
    1.0521007031871628E+00 
    1.1103581953934474E+00 
    1.0926549113443174E+00 
    1.0922725236997011E+00 
    1.1095709010725270E+00 
    1.1081216475776492E+00 
    1.0915320980016505E+00 
    1.0904758241914458E+00 
    1.1061687841181767E+00 
    1.1038599782510945E+00 
    1.0891540344424213E+00 
    1.0876184424237314E+00 
    1.1013179941206417E+00 
    1.0986386984639667E+00 
    1.0859178719227383E+00 
    1.0840959890933790E+00 
    1.0958940022563708E+00 
    1.0931362864563905E+00 
    1.0821904218579759E+00 
    1.0802327403815164E+00 
    1.0904027921388715E+00 
    1.0877193994841587E+00 
    1.0782489140061760E+00 
    1.0762599888478925E+00 
    1.0851036588589802E+00 
    1.0825671233195007E+00 
    1.0742828286972208E+00 
    1.0723308302821164E+00 
    1.0801170961838586E+00 
    1.0777579164188003E+00 
    1.0704145683964912E+00 
    1.0685423535922263E+00 
    1.0754918913862941E+00 
    1.0733199665965238E+00 
    1.0667207007038872E+00 
    1.0649547146113325E+00 
    1.0712422023702857E+00 
    1.0692581103161385E+00 
    1.0632484032480163E+00 
    1.0616049288463552E+00 
    1.0673668888859600E+00 
    1.0655675867603838E+00 
    1.0600268079872541E+00 
    1.0585160699244978E+00 
    1.0638592149187771E+00 
    1.0622408224135129E+00 
    1.0570743813126271E+00 
    1.0557031441096036E+00 
    1.0607115466004553E+00 
    1.0592706454695224E+00 
    1.0544035721625040E+00 
    1.0531767508486898E+00 
    1.0579175174453312E+00 
    1.0566517123231414E+00 
    1.0520236831137528E+00 
    1.0509453242385887E+00 
    1.0554729356287484E+00 
    1.0543810473554212E+00 
    1.0499426064876436E+00 
    1.0490164529622599E+00 
    1.0533760542307216E+00 
    1.0524580911825714E+00 
    1.0481677762182666E+00 
    1.0473974480165411E+00 
    1.0516273792452675E+00 
    1.0508841259575308E+00 
    1.0467062039039465E+00 
    1.0460943969091527E+00 
    1.0502282865784351E+00 
    1.0496590159473362E+00 
    1.0455614256895600E+00 
    1.0451045132819090E+00 
    1.0491734969632247E+00 
    1.0487645609467060E+00 
    1.0447161886748919E+00 
    1.0443809498590073E+00 
    1.0484174715558590E+00 
    1.0481455421065682E+00 
    1.0441183396184854E+00 
    1.0439875690913853E+00 
    1.0480087017759030E+00 
    1.0776525129982395E+00 
    1.0639372734335109E+00 
    1.0637861415178302E+00 
    1.0774251375965604E+00 
    1.0769778898678954E+00 
    1.0634869666548814E+00 
    1.0630462076269978E+00 
    1.0763255279796531E+00 
    1.0754878014826796E+00 
    1.0624729811312594E+00 
    1.0617784274208646E+00 
    1.0744874395886017E+00 
    1.0733483888020241E+00 
    1.0609750487510132E+00 
    1.0600760953402504E+00 
    1.0720944455263981E+00 
    1.0707482995896764E+00 
    1.0590950415124545E+00 
    1.0580451696238724E+00 
    1.0693309382926126E+00 
    1.0678613356599611E+00 
    1.0569392619789273E+00 
    1.0557893904623592E+00 
    1.0663563501665101E+00 
    1.0648307640562271E+00 
    1.0546067884981674E+00 
    1.0534017885067062E+00 
    1.0632974110828870E+00 
    1.0617673531277678E+00 
    1.0521838088385247E+00 
    1.0509613761485961E+00 
    1.0602500779108066E+00 
    1.0587536993536579E+00 
    1.0497421716154549E+00 
    1.0485330918631066E+00 
    1.0572851491513888E+00 
    1.0558503531078181E+00 
    1.0473403176677232E+00 
    1.0461693854187262E+00 
    1.0544543892043703E+00 
    1.0531016265970352E+00 
    1.0450252578298884E+00 
    1.0439123915809767E+00 
    1.0517958461014929E+00 
    1.0505403434920593E+00 
    1.0428348004556149E+00 
    1.0417961131724498E+00 
    1.0493380172976388E+00 
    1.0481914428611627E+00 
    1.0407996255247443E+00 
    1.0398483466732553E+00 
    1.0471029343205795E+00 
    1.0460745959006514E+00 
    1.0389450394748767E+00 
    1.0380922545125006E+00 
    1.0451083634388048E+00 
    1.0442060362368319E+00 
    1.0372923568184231E+00 
    1.0365475425801041E+00 
    1.0433692976368476E+00 
    1.0425997187504743E+00 
    1.0358598387751468E+00 
    1.0352310675973910E+00 
    1.0418987297524644E+00 
    1.0412675188484148E+00 
    1.0346627314163312E+00 
    1.0341557216358530E+00 
    1.0407067680348718E+00 
    1.0402160454898797E+00 
    1.0337096648271440E+00 
    1.0333215396076152E+00 
    1.0397925144993301E+00 
    1.0394282080346813E+00 
    1.0329826511026494E+00 
    1.0326756140629003E+00 
    1.0391066387290666E+00 
    1.0388554004266439E+00 
    1.0324372782731355E+00 
    1.0323222756166499E+00 
    1.0387321062690555E+00 
    1.0508417060760347E+00 
    1.0380027408787216E+00 
    1.0379221091100788E+00 
    1.0507339699116778E+00 
    1.0505200362318876E+00 
    1.0377617267361592E+00 
    1.0375235403927154E+00 
    1.0502032380945125E+00 
    1.0497884024967647E+00 
    1.0372104019108865E+00 
    1.0368259750422764E+00 
    1.0492816219440400E+00 
    1.0486899896394695E+00 
    1.0363746188120564E+00 
    1.0358612590770009E+00 
    1.0480213265791130E+00 
    1.0472839213247560E+00 
    1.0352912572731794E+00 
    1.0346702834603478E+00 
    1.0464862964325068E+00 
    1.0456370094469574E+00 
    1.0340041989101267E+00 
    1.0332989516993907E+00 
    1.0447444914548418E+00 
    1.0438169225931246E+00 
    1.0325604871899918E+00 
    1.0317946739845063E+00 
    1.0428621415481187E+00 
    1.0418875847569748E+00 
    1.0310072449719099E+00 
    1.0302037524015759E+00 
    1.0409002504802054E+00 
    1.0399066829142929E+00 
    1.0293895355083225E+00 
    1.0285696990041944E+00 
    1.0389129718553916E+00 
    1.0379247639530687E+00 
    1.0277491007018473E+00 
    1.0269323465920182E+00 
    1.0369472821955605E+00 
    1.0359853508706662E+00 
    1.0261237918231956E+00 
    1.0253275461924185E+00 
    1.0350434238030530E+00 
    1.0341256141532629E+00 
    1.0245474829260777E+00 
    1.0237872496865377E+00 
    1.0332357244616408E+00 
    1.0323772759215173E+00 
    1.0230502808621971E+00 
    1.0223398102548060E+00 
    1.0315535360544155E+00 
    1.0307675439976289E+00 
    1.0216588832122642E+00 
    1.0210103669431132E+00 
    1.0300221324045167E+00 
    1.0293199442476910E+00 
    1.0203969568802154E+00 
    1.0198211747134802E+00 
    1.0286634409200219E+00 
    1.0280548930974966E+00 
    1.0192853479574924E+00 
    1.0187915469394289E+00 
    1.0274963334257896E+00 
    1.0269894220839770E+00 
    1.0183414251371730E+00 
    1.0179358542188908E+00 
    1.0265351228448734E+00 
    1.0261329952212257E+00 
    1.0175741467884740E+00 
    1.0172523812631500E+00 
    1.0257796932590466E+00 
    1.0254655057607842E+00 
    1.0169592521078177E+00 
    1.0166804554228435E+00 
    1.0251731704498972E+00 
    1.0249491159643564E+00 
    1.0164720382473293E+00 
    1.0163747890644059E+00 
    1.0248427876103532E+00 
    1.0252044866389343E+00 
    1.0123108372354888E+00 
    1.0122607460988891E+00 
    1.0251418785844864E+00 
    1.0250172257267609E+00 
    1.0121609574295169E+00 
    1.0120123427234686E+00 
    1.0248317806398082E+00 
    1.0245873835762651E+00 
    1.0118161784273871E+00 
    1.0115741250444130E+00 
    1.0242864202073176E+00 
    1.0239317651621960E+00 
    1.0112881973525452E+00 
    1.0109607289106659E+00 
    1.0235267169663222E+00 
    1.0230749284762450E+00 
    1.0105943329293254E+00 
    1.0101918612169318E+00 
    1.0225803362335004E+00 
    1.0220470915670949E+00 
    1.0097563626860737E+00 
    1.0092910426829358E+00 
    1.0214794956584401E+00 
    1.0208819401670088E+00 
    1.0087992241668760E+00 
    1.0082843115258917E+00 
    1.0202588544399622E+00 
    1.0196146598256279E+00 
    1.0077497575803036E+00 
    1.0071990341129038E+00 
    1.0189537311961641E+00 
    1.0182803654637183E+00 
    1.0066356060768165E+00 
    1.0060629094761206E+00 
    1.0175987566422464E+00 
    1.0169129768533351E+00 
    1.0054843327892613E+00 
    1.0049032017089135E+00 
    1.0162269625850602E+00 
    1.0155445054730459E+00 
    1.0043227668995984E+00 
    1.0037461944190800E+00 
    1.0148692468670875E+00 
    1.0142046754594320E+00 
    1.0031765584020600E+00 
    1.0026168355510854E+00 
    1.0135541272648569E+00 
    1.0129207872358561E+00 
    1.0020699008974729E+00 
    1.0015385241429053E+00 
    1.0123076917329465E+00 
    1.0117177308808623E+00 
    1.0010253655836148E+00 
    1.0005329699547614E+00 
    1.0111536493705395E+00 
    1.0106180431277456E+00 
    1.0000637550218756E+00 
    9.9961998816621711E-01 
    1.0101133464619734E+00 
    1.0096417973902592E+00 
    9.9920373577894650E-01 
    9.9881675187562191E-01 
    1.0092053528456626E+00 
    1.0088054931396739E+00 
    9.9846023700425190E-01 
    9.9813433507618721E-01 
    1.0084427976371328E+00 
    1.0081160580601638E+00 
    9.9783708489364253E-01 
    9.9756193618942279E-01 
    1.0078202981514188E+00 
    1.0075414222395065E+00 
    9.9729052780695737E-01 
    9.9702997115361636E-01 
    1.0072731460160058E+00 
    1.0070814790579126E+00 
    9.9685481726855962E-01 
    9.9677694207475043E-01 
    1.0069940019474608E+00 
    9.9923267794776316E-01 
    9.8591038684423471E-01 
    9.8587578335728421E-01 
    9.9919154273730815E-01 
    9.9910956800289707E-01 
    9.8580681179673957E-01 
    9.8570397793248576E-01 
    9.9898740024979205E-01 
    9.9882597971292275E-01 
    9.8556801042119435E-01 
    9.8539985423566567E-01 
    9.9862652914829497E-01 
    9.9839053683831913E-01 
    9.8520066022241459E-01 
    9.8497177208701181E-01 
    9.9811973580788882E-01 
    9.9781608043201175E-01 
    9.8471471154896317E-01 
    9.8443116219716786E-01 
    9.9748172135145963E-01 
    9.9711897949723327E-01 
    9.8412295249924808E-01 
    9.8379203837200513E-01 
    9.9673031993372296E-01 
    9.9631832613612059E-01 
    9.8344048567861408E-01 
    9.8307045297377504E-01 
    9.9588567521622517E-01 
    9.9543511450553790E-01 
    9.8268417477000403E-01 
    9.8228394554780618E-01 
    9.9496943980020935E-01 
    9.9449147547326622E-01 
    9.8187210468134567E-01 
    9.8145102240094884E-01 
    9.9400405656876456E-01 
    9.9351001291167373E-01 
    9.8102308686530404E-01 
    9.8059069236972562E-01 
    9.9301215519649766E-01 
    9.9251326295520303E-01 
    9.8015622867124230E-01 
    9.7972207136359746E-01 
    9.9201607424716021E-01 
    9.9152327685356612E-01 
    9.7929057317943324E-01 
    9.7886405602049431E-01 
    9.9103750068366603E-01 
    9.9056131098622591E-01 
    9.7844480339408013E-01 
    9.7803505270940772E-01 
    9.9009720175886007E-01 
    9.8964758835356470E-01 
    9.7763698643295471E-01 
    9.7725272011126807E-01 
    9.8921479743900276E-01 
    9.8880105058748791E-01 
    9.7688428300926256E-01 
    9.7653358192706163E-01 
    9.8840843335308570E-01 
    9.8803883173823004E-01 
    9.7620232745096058E-01 
    9.7589187958912238E-01 
    9.8769379730945317E-01 
    9.8737426409793450E-01 
    9.7560292922392888E-01 
    9.7533484611213750E-01 
    9.8707996808994514E-01 
    9.8680821217800030E-01 
    9.7508422584248666E-01 
    9.7484070839892023E-01 
    9.8655068158102766E-01 
    9.8628438994529410E-01 
    9.7457927276688006E-01 
    9.7433827775008719E-01 
    9.8603206098419449E-01 
    9.8587088586974714E-01 
    9.7418863219033480E-01 
    9.7412167666084581E-01 
    9.8580005599120613E-01 
    9.7230382731716292E-01 
    9.5838632025714254E-01 
    9.5836005595387042E-01 
    9.7227403155535919E-01 
    9.7221463633864358E-01 
    9.5830769722423170E-01 
    9.5822959550023545E-01 
    9.7212605534552932E-01 
    9.7200887844831818E-01 
    9.5812624696514093E-01 
    9.5799828938365583E-01 
    9.7186386742731479E-01 
    9.7169194907922463E-01 
    9.5784649722405268E-01 
    9.5767177549262950E-01 
    9.7149420652958207E-01 
    9.7127186925012554E-01 
    9.5747515263300964E-01 
    9.5725777271148460E-01 
    9.7102630211288965E-01 
    9.7075899375208408E-01 
    9.5702088705962318E-01 
    9.5676584552316457E-01 
    9.7047154447542583E-01 
    9.7016565394500187E-01 
    9.5649408745260034E-01 
    9.5620713255912015E-01 
    9.6984310882648850E-01 
    9.6950577058238763E-01 
    9.5590657174713289E-01 
    9.5559405802043984E-01 
    9.6915556355955490E-01 
    9.6879446349393916E-01 
    9.5527129754283036E-01 
    9.5494004091491891E-01 
    9.6842448652649704E-01 
    9.6804767879374876E-01 
    9.5460207470663183E-01 
    9.5425921325722474E-01 
    9.6766610662380681E-01 
    9.6728184733223987E-01 
    9.5391329071892117E-01 
    9.5356615327015648E-01 
    9.6689698056804596E-01 
    9.6651358010071131E-01 
    9.5321965134832998E-01 
    9.5287563162684841E-01 
    9.6613370584928260E-01 
    9.6575939580102677E-01 
    9.5253592823961286E-01 
    9.5220235233559958E-01 
    9.6539265717872524E-01 
    9.6503545562700965E-01 
    9.5187667820011090E-01 
    9.5156062240148420E-01 
    9.6468969991347187E-01 
    9.6435721679368080E-01 
    9.5125580862016890E-01 
    9.5096370284751097E-01 
    9.6403970440545950E-01 
    9.6373863951545480E-01 
    9.5068548787755325E-01 
    9.5042181652454194E-01 
    9.6345508922302059E-01 
    9.6318933152220187E-01 
    9.5017232283708097E-01 
    9.4993459154826509E-01 
    9.6294007369263235E-01 
    9.6270258816350873E-01 
    9.4970148529376242E-01 
    9.4945187733558944E-01 
    9.6246271112224802E-01 
    9.6220111418800869E-01 
    9.4918278664081757E-01 
    9.4897473300550417E-01 
    9.6197544263493984E-01 
    9.6183892279822580E-01 
    9.4885375589142462E-01 
    9.4879522948722594E-01 
    9.6177548632791543E-01 
    9.4414088090860626E-01 
    9.2955782782106744E-01 
    9.2953586579458802E-01 
    9.4411716420069691E-01 
    9.4406988231387123E-01 
    9.2949208043164167E-01 
    9.2942675097707239E-01 
    9.4399934386042283E-01 
    9.4390598092737465E-01 
    9.2934026605019293E-01 
    9.2923312113484147E-01 
    9.4379034640800230E-01 
    9.4365311030483423E-01 
    9.2910591558628253E-01 
    9.2895934893290832E-01 
    9.4349505508841691E-01 
    9.4331707036235646E-01 
    9.2879421664598849E-01 
    9.2861140549050014E-01 
    9.4312014698993607E-01 
    9.4290537079624448E-01 
    9.2841188853636458E-01 
    9.2819671989394570E-01 
    9.4267391594152450E-01 
    9.4242703805145867E-01 
    9.2796702922958518E-01 
    9.2772401611147448E-01 
    9.4216606718260709E-01 
    9.4189240069369073E-01 
    9.2746894423106307E-01 
    9.2720313553930334E-01 
    9.4160749608476502E-01 
    9.4131286385575164E-01 
    9.2692796432954772E-01 
    9.2664485128889196E-01 
    9.4101006042246360E-01 
    9.4070068111089877E-01 
    9.2635525752579062E-01 
    9.2606067856137531E-01 
    9.4038635322694220E-01 
    9.4006872916468831E-01 
    9.2576263824072991E-01 
    9.2546268246994368E-01 
    9.3974947946468101E-01 
    9.3943028564854636E-01 
    9.2516237259801093E-01 
    9.2486327810510482E-01 
    9.3911283250899258E-01 
    9.3879879926213450E-01 
    9.2456696795748372E-01 
    9.2427499938768543E-01 
    9.3848984843985228E-01 
    9.3818761032517695E-01 
    9.2398890162135128E-01 
    9.2371014949932151E-01 
    9.3789365849299444E-01 
    9.3760946734038964E-01 
    9.2344011666490589E-01 
    9.2317998754563546E-01 
    9.3733633301514641E-01 
    9.3707522090963535E-01 
    9.2293058739444456E-01 
    9.2269204899056334E-01 
    9.3682646799768587E-01 
    9.3658918746840070E-01 
    9.2246312395038343E-01 
    9.2223950152397516E-01 
    9.3635994148473167E-01 
    9.3612889529356991E-01 
    9.2200827008380759E-01 
    9.2173714491722702E-01 
    9.3586694484950050E-01 
    9.3559177790883719E-01 
    9.2146454119990662E-01 
    9.2127700917227762E-01 
    9.3539655942121369E-01 
    9.3528505612961788E-01 
    9.2116627669757212E-01 
    9.2111106184164115E-01 
    9.3522973760247263E-01 
    9.1463327633494351E-01 
    8.9936824148240568E-01 
    8.9934783919126082E-01 
    9.1461239648945658E-01 
    9.1457076669489756E-01 
    8.9930715893714230E-01 
    8.9924644914232099E-01 
    9.1450864680002886E-01 
    9.1442639732638997E-01 
    8.9916605456101717E-01 
    8.9906641354194805E-01 
    9.1432447691172281E-01 
    9.1420343973125073E-01 
    8.9894805567729130E-01 
    8.9881159904187380E-01 
    9.1406393238443318E-01 
    9.1390669035667726E-01 
    8.9865774707543389E-01 
    8.9848728516974896E-01 
    9.1373253413971400E-01 
    9.1354236506767306E-01 
    8.9830107700238970E-01 
    8.9810006064710168E-01 
    9.1333716091244166E-01 
    9.1311797127479843E-01 
    8.9788524448422735E-01 
    8.9765770293001568E-01 
    9.1288591280303855E-01 
    9.1264216426635425E-01 
    8.9741857199916319E-01 
    8.9716904470892322E-01 
    9.1238796150477930E-01 
    9.1212459227002129E-01 
    8.9691036632419829E-01 
    8.9664382942956178E-01 
    9.1185339096073059E-01 
    9.1157573323953833E-01 
    8.9637076879291899E-01 
    8.9609255595077575E-01 
    9.1129303049379862E-01 
    9.1100672406096972E-01 
    8.9581059338709057E-01 
    8.9552630807818501E-01 
    9.1071827907071623E-01 
    9.1042917763499964E-01 
    8.9524114399993171E-01 
    8.9495655287256393E-01 
    9.1014091089700488E-01 
    9.0985496903209018E-01 
    8.9467398181846303E-01 
    8.9439485546139041E-01 
    9.0957282747685431E-01 
    9.0929592603009601E-01 
    8.9412054777133287E-01 
    8.9385233463632452E-01 
    9.0902563419292903E-01 
    9.0876318963052904E-01 
    8.9359130980536317E-01 
    8.9333823074139784E-01 
    9.0850958410535043E-01 
    9.0826534676753623E-01 
    8.9309322768087773E-01 
    8.9285522426543684E-01 
    9.0803011930585653E-01 
    9.0780174236284294E-01 
    8.9262061751332844E-01 
    8.9237936874697277E-01 
    9.0757380035557056E-01 
    9.0732686801351436E-01 
    8.9210118640718783E-01 
    8.9178819065168691E-01 