# vtk DataFile Version 2.0
Pressure Field Data 
ASCII 
DATASET UNSTRUCTURED_GRID 

POINTS 1681 double 

    0.0000000000000000E+00     0.0000000000000000E+00     0.0000000000000000E+00 
    1.0000000000000000E+00     0.0000000000000000E+00     0.0000000000000000E+00 
    1.0000000000000000E+00     1.0000000000000000E+00     0.0000000000000000E+00 
    0.0000000000000000E+00     1.0000000000000000E+00     0.0000000000000000E+00 
    5.2499999999875258E-01     0.0000000000000000E+00     0.0000000000000000E+00 
    7.4999999999856765E-02     0.0000000000000000E+00     0.0000000000000000E+00 
    1.2499999999975850E-01     0.0000000000000000E+00     0.0000000000000000E+00 
    1.7499999999962990E-01     0.0000000000000000E+00     0.0000000000000000E+00 
    2.2499999999948389E-01     0.0000000000000000E+00     0.0000000000000000E+00 
    2.7499999999933789E-01     0.0000000000000000E+00     0.0000000000000000E+00 
    3.2499999999919210E-01     0.0000000000000000E+00     0.0000000000000000E+00 
    3.7499999999904610E-01     0.0000000000000000E+00     0.0000000000000000E+00 
    4.2499999999890020E-01     0.0000000000000000E+00     0.0000000000000000E+00 
    4.7499999999875958E-01     0.0000000000000000E+00     0.0000000000000000E+00 
    2.4999999999949701E-02     0.0000000000000000E+00     0.0000000000000000E+00 
    5.7499999999887907E-01     0.0000000000000000E+00     0.0000000000000000E+00 
    6.2499999999901101E-01     0.0000000000000000E+00     0.0000000000000000E+00 
    6.7499999999914273E-01     0.0000000000000000E+00     0.0000000000000000E+00 
    7.2499999999927467E-01     0.0000000000000000E+00     0.0000000000000000E+00 
    7.7499999999940661E-01     0.0000000000000000E+00     0.0000000000000000E+00 
    8.2499999999953844E-01     0.0000000000000000E+00     0.0000000000000000E+00 
    8.7499999999967026E-01     0.0000000000000000E+00     0.0000000000000000E+00 
    9.2499999999980220E-01     0.0000000000000000E+00     0.0000000000000000E+00 
    9.7499999999993414E-01     0.0000000000000000E+00     0.0000000000000000E+00 
    5.4999999999881310E-01     0.0000000000000000E+00     0.0000000000000000E+00 
    9.9999999999814140E-02     0.0000000000000000E+00     0.0000000000000000E+00 
    1.4999999999970290E-01     0.0000000000000000E+00     0.0000000000000000E+00 
    1.9999999999955689E-01     0.0000000000000000E+00     0.0000000000000000E+00 
    2.4999999999941089E-01     0.0000000000000000E+00     0.0000000000000000E+00 
    2.9999999999926502E-01     0.0000000000000000E+00     0.0000000000000000E+00 
    3.4999999999911913E-01     0.0000000000000000E+00     0.0000000000000000E+00 
    3.9999999999897312E-01     0.0000000000000000E+00     0.0000000000000000E+00 
    4.4999999999882723E-01     0.0000000000000000E+00     0.0000000000000000E+00 
    4.9999999999869210E-01     0.0000000000000000E+00     0.0000000000000000E+00 
    4.9999999999899403E-02     0.0000000000000000E+00     0.0000000000000000E+00 
    5.9999999999894504E-01     0.0000000000000000E+00     0.0000000000000000E+00 
    6.4999999999907687E-01     0.0000000000000000E+00     0.0000000000000000E+00 
    6.9999999999920870E-01     0.0000000000000000E+00     0.0000000000000000E+00 
    7.4999999999934064E-01     0.0000000000000000E+00     0.0000000000000000E+00 
    7.9999999999947247E-01     0.0000000000000000E+00     0.0000000000000000E+00 
    8.4999999999960441E-01     0.0000000000000000E+00     0.0000000000000000E+00 
    8.9999999999973623E-01     0.0000000000000000E+00     0.0000000000000000E+00 
    9.4999999999986817E-01     0.0000000000000000E+00     0.0000000000000000E+00 
    1.0000000000000000E+00     5.2499999999875258E-01     0.0000000000000000E+00 
    1.0000000000000000E+00     7.4999999999856765E-02     0.0000000000000000E+00 
    1.0000000000000000E+00     1.2499999999975850E-01     0.0000000000000000E+00 
    1.0000000000000000E+00     1.7499999999962990E-01     0.0000000000000000E+00 
    1.0000000000000000E+00     2.2499999999948389E-01     0.0000000000000000E+00 
    1.0000000000000000E+00     2.7499999999933789E-01     0.0000000000000000E+00 
    1.0000000000000000E+00     3.2499999999919210E-01     0.0000000000000000E+00 
    1.0000000000000000E+00     3.7499999999904610E-01     0.0000000000000000E+00 
    1.0000000000000000E+00     4.2499999999890020E-01     0.0000000000000000E+00 
    1.0000000000000000E+00     4.7499999999875958E-01     0.0000000000000000E+00 
    1.0000000000000000E+00     2.4999999999949701E-02     0.0000000000000000E+00 
    1.0000000000000000E+00     5.7499999999887907E-01     0.0000000000000000E+00 
    1.0000000000000000E+00     6.2499999999901101E-01     0.0000000000000000E+00 
    1.0000000000000000E+00     6.7499999999914273E-01     0.0000000000000000E+00 
    1.0000000000000000E+00     7.2499999999927467E-01     0.0000000000000000E+00 
    1.0000000000000000E+00     7.7499999999940661E-01     0.0000000000000000E+00 
    1.0000000000000000E+00     8.2499999999953844E-01     0.0000000000000000E+00 
    1.0000000000000000E+00     8.7499999999967026E-01     0.0000000000000000E+00 
    1.0000000000000000E+00     9.2499999999980220E-01     0.0000000000000000E+00 
    1.0000000000000000E+00     9.7499999999993414E-01     0.0000000000000000E+00 
    1.0000000000000000E+00     5.4999999999881310E-01     0.0000000000000000E+00 
    1.0000000000000000E+00     9.9999999999814140E-02     0.0000000000000000E+00 
    1.0000000000000000E+00     1.4999999999970290E-01     0.0000000000000000E+00 
    1.0000000000000000E+00     1.9999999999955689E-01     0.0000000000000000E+00 
    1.0000000000000000E+00     2.4999999999941089E-01     0.0000000000000000E+00 
    1.0000000000000000E+00     2.9999999999926502E-01     0.0000000000000000E+00 
    1.0000000000000000E+00     3.4999999999911913E-01     0.0000000000000000E+00 
    1.0000000000000000E+00     3.9999999999897312E-01     0.0000000000000000E+00 
    1.0000000000000000E+00     4.4999999999882723E-01     0.0000000000000000E+00 
    1.0000000000000000E+00     4.9999999999869210E-01     0.0000000000000000E+00 
    1.0000000000000000E+00     4.9999999999899403E-02     0.0000000000000000E+00 
    1.0000000000000000E+00     5.9999999999894504E-01     0.0000000000000000E+00 
    1.0000000000000000E+00     6.4999999999907687E-01     0.0000000000000000E+00 
    1.0000000000000000E+00     6.9999999999920870E-01     0.0000000000000000E+00 
    1.0000000000000000E+00     7.4999999999934064E-01     0.0000000000000000E+00 
    1.0000000000000000E+00     7.9999999999947247E-01     0.0000000000000000E+00 
    1.0000000000000000E+00     8.4999999999960441E-01     0.0000000000000000E+00 
    1.0000000000000000E+00     8.9999999999973623E-01     0.0000000000000000E+00 
    1.0000000000000000E+00     9.4999999999986817E-01     0.0000000000000000E+00 
    4.7500000000196618E-01     1.0000000000000000E+00     0.0000000000000000E+00 
    9.2499999999968763E-01     1.0000000000000000E+00     0.0000000000000000E+00 
    8.7499999999961831E-01     1.0000000000000000E+00     0.0000000000000000E+00 
    8.2499999999982654E-01     1.0000000000000000E+00     0.0000000000000000E+00 
    7.7500000000017355E-01     1.0000000000000000E+00     0.0000000000000000E+00 
    7.2500000000052045E-01     1.0000000000000000E+00     0.0000000000000000E+00 
    6.7500000000086724E-01     1.0000000000000000E+00     0.0000000000000000E+00 
    6.2500000000121403E-01     1.0000000000000000E+00     0.0000000000000000E+00 
    5.7500000000156093E-01     1.0000000000000000E+00     0.0000000000000000E+00 
    5.2500000000189684E-01     1.0000000000000000E+00     0.0000000000000000E+00 
    9.7499999999989595E-01     1.0000000000000000E+00     0.0000000000000000E+00 
    4.2500000000176902E-01     1.0000000000000000E+00     0.0000000000000000E+00 
    3.7500000000156092E-01     1.0000000000000000E+00     0.0000000000000000E+00 
    3.2500000000135282E-01     1.0000000000000000E+00     0.0000000000000000E+00 
    2.7500000000114472E-01     1.0000000000000000E+00     0.0000000000000000E+00 
    2.2500000000093659E-01     1.0000000000000000E+00     0.0000000000000000E+00 
    1.7500000000072849E-01     1.0000000000000000E+00     0.0000000000000000E+00 
    1.2500000000052039E-01     1.0000000000000000E+00     0.0000000000000000E+00 
    7.5000000000312261E-02     1.0000000000000000E+00     0.0000000000000000E+00 
    2.5000000000104109E-02     1.0000000000000000E+00     0.0000000000000000E+00 
    4.5000000000187301E-01     1.0000000000000000E+00     0.0000000000000000E+00 
    8.9999999999958358E-01     1.0000000000000000E+00     0.0000000000000000E+00 
    8.4999999999965303E-01     1.0000000000000000E+00     0.0000000000000000E+00 
    8.0000000000000004E-01     1.0000000000000000E+00     0.0000000000000000E+00 
    7.5000000000034706E-01     1.0000000000000000E+00     0.0000000000000000E+00 
    7.0000000000069384E-01     1.0000000000000000E+00     0.0000000000000000E+00 
    6.5000000000104063E-01     1.0000000000000000E+00     0.0000000000000000E+00 
    6.0000000000138742E-01     1.0000000000000000E+00     0.0000000000000000E+00 
    5.5000000000173432E-01     1.0000000000000000E+00     0.0000000000000000E+00 
    5.0000000000205946E-01     1.0000000000000000E+00     0.0000000000000000E+00 
    9.4999999999979179E-01     1.0000000000000000E+00     0.0000000000000000E+00 
    4.0000000000166491E-01     1.0000000000000000E+00     0.0000000000000000E+00 
    3.5000000000145681E-01     1.0000000000000000E+00     0.0000000000000000E+00 
    3.0000000000124871E-01     1.0000000000000000E+00     0.0000000000000000E+00 
    2.5000000000104061E-01     1.0000000000000000E+00     0.0000000000000000E+00 
    2.0000000000083251E-01     1.0000000000000000E+00     0.0000000000000000E+00 
    1.5000000000062441E-01     1.0000000000000000E+00     0.0000000000000000E+00 
    1.0000000000041630E-01     1.0000000000000000E+00     0.0000000000000000E+00 
[...]
CELL_DATA 1600 
SCALARS Pressure double 1 
LOOKUP_TABLE default 

    1.4595102700407814E+00 
    1.4084003877641749E+00 
    1.4055950981387297E+00 
    1.4430186608043034E+00 
    1.4292984752994788E+00 
    1.4012233020133213E+00 
    1.3960423469192136E+00 
    1.4176710790514122E+00 
    1.4075815476679883E+00 
    1.3904791786812649E+00 
    1.3847790916564602E+00 
    1.3986427051074546E+00 
    1.3905829167501200E+00 
    1.3790814199393300E+00 
    1.3734634883238606E+00 
    1.3832092742764102E+00 
    1.3763828781975136E+00 
    1.3679664037627677E+00 
    1.3626102692894451E+00 
    1.3700022971744275E+00 
    1.3639924261150864E+00 
    1.3574031806227387E+00 
    1.3523465434365503E+00 
    1.3582969046490962E+00 
    1.3528728963317243E+00 
    1.3474382009473753E+00 
    1.3426742518234376E+00 
    1.3476874451540779E+00 
    1.3427148940817888E+00 
    1.3380500803120081E+00 
    1.3335609076210702E+00 
    1.3379350225222741E+00 
    1.3333316695572466E+00 
    1.3292020446508148E+00 
    1.3249689447775355E+00 
    1.3288916783350235E+00 
    1.3246040360105884E+00 
    1.3208570983970709E+00 
    1.3168617604192683E+00 
    1.3204590974317207E+00 
    1.3164477649790205E+00 
    1.3129774369988543E+00 
    1.3091969388042914E+00 
    1.3125604305518059E+00 
    1.3087853029274727E+00 
    1.3055095292976999E+00 
    1.3018969126067523E+00 
    1.3051052367431522E+00 
    1.3014905872018823E+00 
    1.2983231102453272E+00 
    1.2947025503922103E+00 
    1.2978795357760382E+00 
    1.2941154410489479E+00 
    1.2908503910652913E+00 
    1.2869727112728020E+00 
    1.2901537856694314E+00 
    1.2865958712411052E+00 
    1.2835938125293114E+00 
    1.2806572664318105E+00 
    1.2835858588664188E+00 
    1.2808772007704754E+00 
    1.2780086966255961E+00 
    1.2756394242361762E+00 
    1.2784553931693587E+00 
    1.2763151824615553E+00 
    1.2735447293924427E+00 
    1.2717205099204449E+00 
    1.2744520170606577E+00 
    1.2728620023737716E+00 
    1.2701632443709023E+00 
    1.2688699625957727E+00 
    1.2715418634871649E+00 
    1.2704889146896927E+00 
    1.2678382222965563E+00 
    1.2670660905375721E+00 
    1.2697010351315310E+00 
    1.2691766500327659E+00 
    1.2665521295609419E+00 
    1.2662953864653586E+00 
    1.2689147169811839E+00 
    1.3783686869859724E+00 
    1.3539847280415918E+00 
    1.3534265849004885E+00 
    1.3773549537619496E+00 
    1.3754585215688790E+00 
    1.3523358383991964E+00 
    1.3507622030437341E+00 
    1.3728573019325170E+00 
    1.3697198970296840E+00 
    1.3487660584998429E+00 
    1.3464106738511452E+00 
    1.3661897426940646E+00 
    1.3623823339604924E+00 
    1.3437571784316997E+00 
    1.3408617218404080E+00 
    1.3583877543157499E+00 
    1.3542749101577660E+00 
    1.3377741761664872E+00 
    1.3345378265627139E+00 
    1.3500958729030068E+00 
    1.3458897016072049E+00 
    1.3311896387125712E+00 
    1.3277608221096495E+00 
    1.3416855711531870E+00 
    1.3375052265537033E+00 
    1.3242775086196634E+00 
    1.3207614363020765E+00 
    1.3333648555031721E+00 
    1.3292764854906713E+00 
    1.3172305741501573E+00 
    1.3136996498530580E+00 
    1.3252490009787883E+00 
    1.3212888551358086E+00 
    1.3101805537350195E+00 
    1.3066825884587565E+00 
    1.3174005245751477E+00 
    1.3135867233039173E+00 
    1.3032125112047841E+00 
    1.2997742560560497E+00 
    1.3098483451877923E+00 
    1.3061840192710241E+00 
    1.2963680782694091E+00 
    1.2929884637130153E+00 
    1.3025889732105342E+00 
    1.2990523941285810E+00 
    1.2896188456291808E+00 
    1.2862156684275161E+00 
    1.2955508252262906E+00 
    1.2920281107090594E+00 
    1.2826558971138042E+00 
    1.2788587763950980E+00 
    1.2883356755218109E+00 
    1.2844338179324755E+00 
    1.2751683692981624E+00 
    1.2719269555055659E+00 
    1.2808109926612659E+00 
    1.2776858604910810E+00 
    1.2690425812103547E+00 
    1.2664139217140071E+00 
    1.2748818563010045E+00 
    1.2723472186135834E+00 
    1.2640347514023582E+00 
    1.2619021201824836E+00 
    1.2700776798460789E+00 
    1.2680695226059198E+00 
    1.2600133339211002E+00 
    1.2583659760048047E+00 
    1.2663194635555857E+00 
    1.2648246486238348E+00 
    1.2569579203455812E+00 
    1.2557873389494043E+00 
    1.2635826469451967E+00 
    1.2625914445010751E+00 
    1.2548527060743624E+00 
    1.2541528003067837E+00 
    1.2618494381200744E+00 
    1.2613554302786532E+00 
    1.2536867054315799E+00 
    1.2534538106726594E+00 
    1.2611086249937102E+00 
    1.3315227035017803E+00 
    1.3096145234860102E+00 
    1.3093338437261830E+00 
    1.3311476179081163E+00 
    1.3304056637630155E+00 
    1.3087761282837318E+00 
    1.3079504589177364E+00 
    1.3293156668309571E+00 
    1.3279031020858758E+00 
    1.3068696580630599E+00 
    1.3055494538631416E+00 
    1.3261976753561195E+00 
    1.3242311876896311E+00 
    1.3040076260151725E+00 
    1.3022631980600496E+00 
    1.3220358269995771E+00 
    1.3196429146862059E+00 
    1.3003357258071235E+00 
    1.2982447047129662E+00 
    1.3170820615354375E+00 
    1.3143806558141096E+00 
    1.2960090979733536E+00 
    1.2936469726893722E+00 
    1.3115636003975251E+00 
    1.3086532221822316E+00 
    1.2911752219988792E+00 
    1.2886093440112767E+00 
    1.3056692877098330E+00 
    1.3026290687338407E+00 
    1.2859632404988879E+00 
    1.2832489846781223E+00 
    1.2995474067608603E+00 
    1.2964367223579933E+00 
    1.2804764788320133E+00 
    1.2776528552348776E+00 
    1.2933068957094447E+00 
    1.2901648916337962E+00 
    1.2747813060614823E+00 
    1.2718585393021817E+00 
    1.2870138635390320E+00 
    1.2838510836480146E+00 
    1.2688681952298297E+00 
    1.2657596394424240E+00 
    1.2806627241964827E+00 
    1.2774078448824591E+00 
    1.2624346317404933E+00 
    1.2588708814672895E+00 
    1.2739711806044565E+00 
    1.2702925583098310E+00 
    1.2553709431114051E+00 
    1.2522297562358422E+00 
    1.2666644342077857E+00 
    1.2634202263751535E+00 
    1.2494029980950947E+00 
    1.2468008996791697E+00 
    1.2605243662909280E+00 
    1.2578728139235564E+00 
    1.2444047117275885E+00 
    1.2422131040498969E+00 
    1.2554510953514990E+00 
    1.2532568932733479E+00 
    1.2402248377569265E+00 
    1.2384387697769856E+00 
    1.2512881109339338E+00 
    1.2495428617853566E+00 
    1.2368538571851107E+00 
    1.2354691612044668E+00 
    1.2480194658832260E+00 
    1.2467164494368070E+00 
    1.2342838510097471E+00 
    1.2332972072811570E+00 
    1.2456325457422117E+00 
    1.2447666965729984E+00 
    1.2325086254120026E+00 
    1.2319176182809093E+00 
    1.2441180535697465E+00 
    1.2436859794216741E+00 
    1.2315238185232800E+00 
    1.2313269802600910E+00 
    1.2434700487624513E+00 
    1.2876005113222078E+00 
    1.2650924701328004E+00 
    1.2649030751108770E+00 
    1.2873756597784203E+00 
    1.2869278705832112E+00 
    1.2645252974960983E+00 
    1.2639621702935888E+00 
    1.2862622413879385E+00 
    1.2853861104767130E+00 
    1.2632181608318169E+00 
    1.2622989785975058E+00 
    1.2843087012652639E+00 
    1.2830407357920595E+00 
    1.2612113576042168E+00 
    1.2599628154582079E+00 
    1.2815940335005289E+00 
    1.2799811171405249E+00 
    1.2585613952046042E+00 
    1.2570153915839564E+00 
    1.2782148402974653E+00 
    1.2763080422653716E+00 
    1.2553330560217684E+00 
    1.2535222635472540E+00 
    1.2742732268781196E+00 
    1.2721222517159982E+00 
    1.2515901068734838E+00 
    1.2495423487057034E+00 
    1.2698660005300462E+00 
    1.2675139890357521E+00 
    1.2473825772987601E+00 
    1.2451106921573056E+00 
    1.2650738094374057E+00 
    1.2625502225239955E+00 
    1.2427199117627803E+00 
    1.2401888104542083E+00 
    1.2599434293640623E+00 
    1.2572451706221095E+00 
    1.2374579822834060E+00 
    1.2344811176816954E+00 
    1.2544282272067835E+00 
    1.2514139956150327E+00 
    1.2312891371058177E+00 
    1.2280793242487769E+00 
    1.2481616796415880E+00 
    1.2447439847019848E+00 
    1.2250860114049844E+00 
    1.2223905742966288E+00 
    1.2414393468739178E+00 
    1.2384851987754937E+00 
    1.2199281940564479E+00 
    1.2176185146817828E+00 
    1.2358093220643800E+00 
    1.2333244663137997E+00 
    1.2154586823651632E+00 
    1.2134497679174283E+00 
    1.2310183363027991E+00 
    1.2288908067926967E+00 
    1.2115926856730996E+00 
    1.2098882127447297E+00 
    1.2269416989010633E+00 
    1.2251707991101777E+00 
    1.2083370062628287E+00 
    1.2069396186617123E+00 
    1.2235778747393502E+00 
    1.2221626864725204E+00 
    1.2056965111527533E+00 
    1.2046080655176343E+00 
    1.2209249986664057E+00 
    1.2198645879213568E+00 
    1.2036745943389107E+00 
    1.2028963497670448E+00 
    1.2189812502257098E+00 
    1.2182748068703817E+00 
    1.2022735309048931E+00 
    1.2018062898741062E+00 
    1.2177451092574394E+00 
    1.2173920426804836E+00 
    1.2014947366134490E+00 
    1.2013389424466496E+00 
    1.2172155291259519E+00 
    1.2418118532402320E+00 
    1.2175035986969667E+00 
    1.2173499210557179E+00 
    1.2416452172076222E+00 
    1.2413122843303839E+00 
    1.2170421438323258E+00 
    1.2165805797835954E+00 
    1.2408146957031925E+00 
    1.2401550393611172E+00 
    1.2159661235867087E+00 
    1.2152000792193343E+00 
    1.2393367086851244E+00 
    1.2383637254561672E+00 
    1.2142839039540321E+00 
    1.2132188516103293E+00 
    1.2372405278219141E+00 
    1.2359717187620658E+00 
    1.2120054908715143E+00 
    1.2106430877253263E+00 
    1.2345617604635306E+00 
    1.2330145760809872E+00 
    1.2091287096569552E+00 
    1.2074550985683363E+00 
    1.2313329716975743E+00 
    1.2295177306384781E+00 
    1.2056048900197751E+00 
    1.2035435675578774E+00 
    1.2275661580971384E+00 
    1.2254690595941775E+00 
    1.2012386985178292E+00 
    1.1987069241189188E+00 
    1.2232012043901672E+00 
    1.2207100637632111E+00 
    1.1960119575989643E+00 
    1.1932845896264206E+00 
    1.2179698580251652E+00 
    1.2150249648889266E+00 
    1.1906937024882587E+00 
    1.1883242961375289E+00 
    1.2120141813703491E+00 
    1.2091522815861246E+00 
    1.1861715328277840E+00 
    1.1841613362480330E+00 
    1.2065553135728790E+00 
    1.2041934865743773E+00 
    1.1822394975438408E+00 
    1.1804049607903009E+00 
    1.2019861947857513E+00 
    1.1998974605391513E+00 
    1.1786616100263159E+00 
    1.1770129186497424E+00 
    1.1979292379999846E+00 
    1.1960837197276617E+00 
    1.1754619966637401E+00 
    1.1740116258225290E+00 
    1.1943628774979800E+00 
    1.1927684713938980E+00 
    1.1726642887759777E+00 
    1.1714221939612448E+00 
    1.1913020621236867E+00 
    1.1899650246076143E+00 
    1.1702872972430312E+00 
    1.1692613208909903E+00 
    1.1887585616624776E+00 
    1.1876837170945642E+00 
    1.1683457702542115E+00 
    1.1675419483651761E+00 
    1.1867413878048656E+00 
    1.1859323346878559E+00 
    1.1668509686331003E+00 
    1.1662737657436240E+00 
    1.1852571922112136E+00 
    1.1847164766257454E+00 
    1.1658111048545790E+00 
    1.1654635891586058E+00 
    1.1843105927894790E+00 
    1.1840398396078369E+00 
    1.1652316658686526E+00 
    1.1651156306698505E+00 
    1.1839044140995520E+00 
    1.1918534498472486E+00 
    1.1643317183149073E+00 
    1.1641610442790433E+00 
    1.1917018051688699E+00 
    1.1913968360186393E+00 
    1.1638157972230194E+00 
    1.1632900617552844E+00 
    1.1909369063508479E+00 
    1.1903204704180201E+00 
    1.1625753382310757E+00 
    1.1616606441383182E+00 
    1.1895457415674890E+00 
    1.1886101120490329E+00 
    1.1605358135089132E+00 
    1.1591988383554277E+00 
    1.1875088521860535E+00 
    1.1862324043950210E+00 
    1.1576640097533222E+00 
    1.1559640897805379E+00 
    1.1847628942426904E+00 
    1.1830758546007545E+00 
    1.1541458703604477E+00 
    1.1522688079317760E+00 
    1.1811571595309514E+00 
    1.1790262061674233E+00 
    1.1504034029944450E+00 
    1.1486157858581119E+00 
    1.1767355425374473E+00 
    1.1743671562562539E+00 
    1.1469513895738226E+00 
    1.1454196911282264E+00 
    1.1720380174710849E+00 
    1.1698478129039245E+00 
    1.1439810006580811E+00 
    1.1425814643362497E+00 
    1.1678435547316546E+00 
    1.1660102020756533E+00 
    1.1411992534019653E+00 
    1.1398380981038272E+00 
    1.1642781305093710E+00 
    1.1626014095291972E+00 
    1.1385051277651312E+00 
    1.1372066089525943E+00 
    1.1609777838739341E+00 
    1.1594129207635571E+00 
    1.1359482515165549E+00 
    1.1347352469773011E+00 
    1.1579118668998518E+00 
    1.1564791656393572E+00 
    1.1335723111031200E+00 
    1.1324637221011065E+00 
    1.1551189053937907E+00 
    1.1538347621518976E+00 
    1.1314133547353740E+00 
    1.1304247106701792E+00 
    1.1526300362004724E+00 
    1.1515076838398710E+00 
    1.1295009453603990E+00 
    1.1286448918123420E+00 
    1.1504703448336056E+00 
    1.1495203662167017E+00 
    1.1278590815195844E+00 
    1.1271457628491648E+00 
    1.1486598229668765E+00 
    1.1478905359364102E+00 
    1.1265069171194280E+00 
    1.1259442725763327E+00 
    1.1472140873558614E+00 
    1.1466318341523314E+00 
    1.1254593164424869E+00 
    1.1250533051837492E+00 
    1.1461449192717073E+00 
    1.1457542811526860E+00 
    1.1247272731121092E+00 
    1.1244820394207085E+00 
    1.1454606614675331E+00 
    1.1452646112179554E+00 
    1.1243182137267305E+00 
    1.1242362001801196E+00 
    1.1451664952524310E+00 
    1.1338762289676618E+00 
    1.1021206642944970E+00 
    1.1019751265114872E+00 
    1.1336456862216537E+00 
    1.1331972808234907E+00 
    1.1016979680112238E+00 
    1.1013104825002207E+00 
    1.1325505069378019E+00 
    1.1317281251556219E+00 
    1.1008376160040731E+00 
    1.1003063473516324E+00 
    1.1307561421235275E+00 
    1.1296636479240212E+00 
    1.0997423282496437E+00 
    1.0991642812015945E+00 
    1.1284833606795719E+00 
    1.1272525661001409E+00 
    1.0985780881516747E+00 
    1.0979753916807244E+00 
    1.1260123226812908E+00 
    1.1248028812642252E+00 
    1.0973405557357521E+00 
    1.0966622243048436E+00 
    1.1236536366750700E+00 
    1.1225683695665709E+00 
    1.0959396194442221E+00 
    1.0951794576281031E+00 
    1.1215206710263630E+00 
    1.1204751566499238E+00 
    1.0943899093686074E+00 
    1.0935782040930890E+00 
    1.1194141711198462E+00 
    1.1183398849186807E+00 
    1.0927509954635484E+00 
    1.0919146561095474E+00 
    1.1172605679123044E+00 
    1.1161837539607957E+00 
    1.0910752262175920E+00 
    1.0902383973619787E+00 
    1.1151162428397818E+00 
    1.1140643307401468E+00 
    1.0894095174574228E+00 
    1.0885935964873084E+00 
    1.1130338202662891E+00 
    1.1120300533016994E+00 
    1.0877953144176979E+00 
    1.0870190304421568E+00 
    1.1110579404040244E+00 
    1.1101219878452089E+00 
    1.0862687929951209E+00 
    1.0855483501155128E+00 
    1.1092263224456109E+00 
    1.1083747143134739E+00 
    1.0848611598475171E+00 
    1.0842104004444995E+00 
    1.1075705975857424E+00 
    1.1068170892636913E+00 
    1.0835989802026287E+00 
    1.0830295467975395E+00 
    1.1061170062380756E+00 
    1.1054728805990868E+00 
    1.0825044960333980E+00 
    1.0820259799412384E+00 
    1.1048869733246161E+00 
    1.1043612864360277E+00 
    1.0815959141841476E+00 
    1.0812159847421663E+00 
    1.1038975737042873E+00 
    1.1034973499815530E+00 
    1.0808876538608183E+00 
    1.0806121652549010E+00 
    1.1031618992247978E+00 
    1.1028922812691364E+00 
    1.0803905485643290E+00 
    1.0802236230620752E+00 
    1.1026893373996580E+00 
    1.1025536947618333E+00 
    1.0801120006160145E+00 
    1.0800560879072147E+00 
    1.1024857696421009E+00 
    1.0733372800045093E+00 
    1.0467366828812787E+00 
    1.0467013058989050E+00 
    1.0733013378664682E+00 
    1.0732257653643618E+00 
    1.0466292354780522E+00 
    1.0465187931132212E+00 
    1.0731058311227764E+00 
    1.0729368308029199E+00 
    1.0463686368944585E+00 
    1.0461780086336712E+00 
    1.0727143806179840E+00 
    1.0724356889741256E+00 
    1.0459468801206977E+00 
    1.0456760305455461E+00 
    1.0721008024085952E+00 
    1.0717126561904418E+00 
    1.0453670181538077E+00 
    1.0450220387645821E+00 
    1.0712758226264425E+00 
    1.0707951062040544E+00 
    1.0446437429848567E+00 
    1.0442350996213643E+00 
    1.0702750679645161E+00 
    1.0697203159775219E+00 
    1.0437993230165128E+00 
    1.0433398237404004E+00 
    1.0691357330297171E+00 
    1.0685263685512492E+00 
    1.0428601538175319E+00 
    1.0423639500789186E+00 
    1.0678972714644173E+00 
    1.0672534132532685E+00 
    1.0418548846007878E+00 
    1.0413366233475048E+00 
    1.0665996496863404E+00 
    1.0659406881109768E+00 
    1.0408127916242045E+00 
    1.0402869454450390E+00 
    1.0652810623736293E+00 
    1.0646251148303081E+00 
    1.0397625480401396E+00 
    1.0392429507519876E+00 
    1.0639769837032944E+00 
    1.0633405945930106E+00 
    1.0387313776431937E+00 
    1.0382309132154135E+00 
    1.0627196551952398E+00 
    1.0621176524707603E+00 
    1.0377444927162722E+00 
    1.0372748945834889E+00 
    1.0615378516692942E+00 
    1.0609832967317876E+00 
    1.0368247346409454E+00 
    1.0363964617195609E+00 
    1.0604568116917925E+00 
    1.0599610027737496E+00 
    1.0359923544266789E+00 
    1.0356145188316557E+00 
    1.0594982609475261E+00 
    1.0590707647478883E+00 
    1.0352648868731549E+00 
    1.0349452153259888E+00 
    1.0586804832071728E+00 
    1.0583291787811691E+00 
    1.0346570851928656E+00 
    1.0344019014097947E+00 
    1.0580184101736978E+00 
    1.0577495349857693E+00 
    1.0341808927737328E+00 
    1.0339951120178543E+00 
    1.0575237121315388E+00 
    1.0573419039763405E+00 
    1.0338454359741291E+00 
    1.0337325657750533E+00 
    1.0572048781625640E+00 
    1.0571132090975877E+00 
    1.0336570270568544E+00 
    1.0336191701355797E+00 
    1.0570672790848421E+00 
    1.0205288767140144E+00 
    9.9464111463670379E-01 
    9.9461353913389616E-01 
    1.0204968723644496E+00 
    1.0204327580155872E+00 
    9.9455847992251500E-01 
    9.9447613700266535E-01 
    1.0203364237381964E+00 
    1.0202078811982214E+00 
    9.9436684422858546E-01 
    9.9423109619770678E-01 
    1.0200473667857075E+00 
    1.0198554152472026E+00 
    9.9406957084509107E-01 
    9.9388314438799585E-01 
    1.0196329016615597E+00 
    1.0193810509148749E+00 
    9.9367289711171736E-01 
    9.9344011019398193E-01 
    1.0191014188246124E+00 
    1.0187958556034162E+00 
    9.9318625512613190E-01 
    9.9291297788301758E-01 
    1.0184664636918048E+00 
    1.0181155567681159E+00 
    9.9262207977749872E-01 
    9.9231549637605132E-01 
    1.0177456209186495E+00 
    1.0173592772412683E+00 
    9.9199527541793453E-01 
    9.9166355445911125E-01 
    1.0169592460885941E+00 
    1.0165483136998368E+00 
    9.9132253882117150E-01 
    9.9097448028797319E-01 
    1.0161293017088509E+00 
    1.0157050396960881E+00 
    9.9062165686321724E-01 
    9.9026635379259920E-01 
    1.0152783407738006E+00 
    1.0148519800825107E+00 
    9.8991084596600654E-01 
    9.8955738174689079E-01 
    1.0144286760071095E+00 
    1.0140110738832426E+00 
    9.8920816822502999E-01 
    9.8886535785262064E-01 
    1.0136017319492028E+00 
    1.0132031092982001E+00 
    9.8853103639919526E-01 
    9.8820721214575025E-01 
    1.0128175555952912E+00 
    1.0124473023385168E+00 
    9.8789580623047113E-01 
    9.8759864405573827E-01 
    1.0120944554623041E+00 
    1.0117609891010224E+00 
    9.8731744766721874E-01 
    9.8705382901960947E-01 
    1.0114487403505559E+00 
    1.0111594048850741E+00 
    9.8680928404911394E-01 
    9.8658518747929447E-01 
    1.0108945333043802E+00 
    1.0106555281040341E+00 
    9.8638278829406922E-01 
    9.8620320581893384E-01 
    1.0104436411758011E+00 
    1.0102599717598550E+00 
    9.8604742635872988E-01 
    9.8591630034730338E-01 