# vtk DataFile Version 2.0
Pressure Field Data 
ASCII 
DATASET UNSTRUCTURED_GRID 

POINTS 1681 double 

    0.0000000000000000E+00     0.0000000000000000E+00     0.0000000000000000E+00 
    1.0000000000000000E+00     0.0000000000000000E+00     0.0000000000000000E+00 
    1.0000000000000000E+00     1.0000000000000000E+00     0.0000000000000000E+00 
    0.0000000000000000E+00     1.0000000000000000E+00     0.0000000000000000E+00 
    5.2499999999875258E-01     0.0000000000000000E+00     0.0000000000000000E+00 
    7.4999999999856765E-02     0.0000000000000000E+00     0.0000000000000000E+00 
    1.2499999999975850E-01     0.0000000000000000E+00     0.0000000000000000E+00 
    1.7499999999962990E-01     0.0000000000000000E+00     0.0000000000000000E+00 
    2.2499999999948389E-01     0.0000000000000000E+00     0.0000000000000000E+00 
    2.7499999999933789E-01     0.0000000000000000E+00     0.0000000000000000E+00 
    3.2499999999919210E-01     0.0000000000000000E+00     0.0000000000000000E+00 
    3.7499999999904610E-01     0.0000000000000000E+00     0.0000000000000000E+00 
    4.2499999999890020E-01     0.0000000000000000E+00     0.0000000000000000E+00 
    4.7499999999875958E-01     0.0000000000000000E+00     0.0000000000000000E+00 
    2.4999999999949701E-02     0.0000000000000000E+00     0.0000000000000000E+00 
    5.7499999999887907E-01     0.0000000000000000E+00     0.0000000000000000E+00 
    6.2499999999901101E-01     0.0000000000000000E+00     0.0000000000000000E+00 
    6.7499999999914273E-01     0.0000000000000000E+00     0.0000000000000000E+00 
    7.2499999999927467E-01     0.0000000000000000E+00     0.0000000000000000E+00 
    7.7499999999940661E-01     0.0000000000000000E+00     0.0000000000000000E+00 
    8.2499999999953844E-01     0.0000000000000000E+00     0.0000000000000000E+00 
    8.7499999999967026E-01     0.0000000000000000E+00     0.0000000000000000E+00 
    9.2499999999980220E-01     0.0000000000000000E+00     0.0000000000000000E+00 
    9.7499999999993414E-01     0.0000000000000000E+00     0.0000000000000000E+00 
    5.4999999999881310E-01     0.0000000000000000E+00     0.0000000000000000E+00 
    9.9999999999814140E-02     0.0000000000000000E+00     0.0000000000000000E+00 
    1.4999999999970290E-01     0.0000000000000000E+00     0.0000000000000000E+00 
    1.9999999999955689E-01     0.0000000000000000E+00     0.0000000000000000E+00 
    2.4999999999941089E-01     0.0000000000000000E+00     0.0000000000000000E+00 
    2.9999999999926502E-01     0.0000000000000000E+00     0.0000000000000000E+00 
    3.4999999999911913E-01     0.0000000000000000E+00     0.0000000000000000E+00 
    3.9999999999897312E-01     0.0000000000000000E+00     0.0000000000000000E+00 
    4.4999999999882723E-01     0.0000000000000000E+00     0.0000000000000000E+00 
    4.9999999999869210E-01     0.0000000000000000E+00     0.0000000000000000E+00 
    4.9999999999899403E-02     0.0000000000000000E+00     0.0000000000000000E+00 
    5.9999999999894504E-01     0.0000000000000000E+00     0.0000000000000000E+00 
    6.4999999999907687E-01     0.0000000000000000E+00     0.0000000000000000E+00 
    6.9999999999920870E-01     0.0000000000000000E+00     0.0000000000000000E+00 
    7.4999999999934064E-01     0.0000000000000000E+00     0.0000000000000000E+00 
    7.9999999999947247E-01     0.0000000000000000E+00     0.0000000000000000E+00 
    8.4999999999960441E-01     0.0000000000000000E+00     0.0000000000000000E+00 
    8.9999999999973623E-01     0.0000000000000000E+00     0.0000000000000000E+00 
    9.4999999999986817E-01     0.0000000000000000E+00     0.0000000000000000E+00 
    1.0000000000000000E+00     5.2499999999875258E-01     0.0000000000000000E+00 
    1.0000000000000000E+00     7.4999999999856765E-02     0.0000000000000000E+00 
    1.0000000000000000E+00     1.2499999999975850E-01     0.0000000000000000E+00 
    1.0000000000000000E+00     1.7499999999962990E-01     0.0000000000000000E+00 
    1.0000000000000000E+00     2.2499999999948389E-01     0.0000000000000000E+00 
    1.0000000000000000E+00     2.7499999999933789E-01     0.0000000000000000E+00 
    1.0000000000000000E+00     3.2499999999919210E-01     0.0000000000000000E+00 
    1.0000000000000000E+00     3.7499999999904610E-01     0.0000000000000000E+00 
    1.0000000000000000E+00     4.2499999999890020E-01     0.0000000000000000E+00 
    1.0000000000000000E+00     4.7499999999875958E-01     0.0000000000000000E+00 
    1.0000000000000000E+00     2.4999999999949701E-02     0.0000000000000000E+00 
    1.0000000000000000E+00     5.7499999999887907E-01     0.0000000000000000E+00 
    1.0000000000000000E+00     6.2499999999901101E-01     0.0000000000000000E+00 
    1.0000000000000000E+00     6.7499999999914273E-01     0.0000000000000000E+00 
    1.0000000000000000E+00     7.2499999999927467E-01     0.0000000000000000E+00 
    1.0000000000000000E+00     7.7499999999940661E-01     0.0000000000000000E+00 
    1.0000000000000000E+00     8.2499999999953844E-01     0.0000000000000000E+00 
    1.0000000000000000E+00     8.7499999999967026E-01     0.0000000000000000E+00 
    1.0000000000000000E+00     9.2499999999980220E-01     0.0000000000000000E+00 
    1.0000000000000000E+00     9.7499999999993414E-01     0.0000000000000000E+00 
    1.0000000000000000E+00     5.4999999999881310E-01     0.0000000000000000E+00 
    1.0000000000000000E+00     9.9999999999814140E-02     0.0000000000000000E+00 
    1.0000000000000000E+00     1.4999999999970290E-01     0.0000000000000000E+00 
    1.0000000000000000E+00     1.9999999999955689E-01     0.0000000000000000E+00 
    1.0000000000000000E+00     2.4999999999941089E-01     0.0000000000000000E+00 
    1.0000000000000000E+00     2.9999999999926502E-01     0.0000000000000000E+00 
    1.0000000000000000E+00     3.4999999999911913E-01     0.0000000000000000E+00 
    1.0000000000000000E+00     3.9999999999897312E-01     0.0000000000000000E+00 
    1.0000000000000000E+00     4.4999999999882723E-01     0.0000000000000000E+00 
    1.0000000000000000E+00     4.9999999999869210E-01     0.0000000000000000E+00 
    1.0000000000000000E+00     4.9999999999899403E-02     0.0000000000000000E+00 
    1.0000000000000000E+00     5.9999999999894504E-01     0.0000000000000000E+00 
    1.0000000000000000E+00     6.4999999999907687E-01     0.0000000000000000E+00 
    1.0000000000000000E+00     6.9999999999920870E-01     0.0000000000000000E+00 
    1.0000000000000000E+00     7.4999999999934064E-01     0.0000000000000000E+00 
    1.0000000000000000E+00     7.9999999999947247E-01     0.0000000000000000E+00 
    1.0000000000000000E+00     8.4999999999960441E-01     0.0000000000000000E+00 
    1.0000000000000000E+00     8.9999999999973623E-01     0.0000000000000000E+00 
    1.0000000000000000E+00     9.4999999999986817E-01     0.0000000000000000E+00 
    4.7500000000196618E-01     1.0000000000000000E+00     0.0000000000000000E+00 
    9.2499999999968763E-01     1.0000000000000000E+00     0.0000000000000000E+00 
    8.7499999999961831E-01     1.0000000000000000E+00     0.0000000000000000E+00 
    8.2499999999982654E-01     1.0000000000000000E+00     0.0000000000000000E+00 
    7.7500000000017355E-01     1.0000000000000000E+00     0.0000000000000000E+00 
    7.2500000000052045E-01     1.0000000000000000E+00     0.0000000000000000E+00 
    6.7500000000086724E-01     1.0000000000000000E+00     0.0000000000000000E+00 
    6.2500000000121403E-01     1.0000000000000000E+00     0.0000000000000000E+00 
    5.7500000000156093E-01     1.0000000000000000E+00     0.0000000000000000E+00 
    5.2500000000189684E-01     1.0000000000000000E+00     0.0000000000000000E+00 
    9.7499999999989595E-01     1.0000000000000000E+00     0.0000000000000000E+00 
    4.2500000000176902E-01     1.0000000000000000E+00     0.0000000000000000E+00 
    3.7500000000156092E-01     1.0000000000000000E+00     0.0000000000000000E+00 
    3.2500000000135282E-01     1.0000000000000000E+00     0.0000000000000000E+00 
    2.7500000000114472E-01     1.0000000000000000E+00     0.0000000000000000E+00 
    2.2500000000093659E-01     1.0000000000000000E+00     0.0000000000000000E+00 
    1.7500000000072849E-01     1.0000000000000000E+00     0.0000000000000000E+00 
    1.2500000000052039E-01     1.0000000000000000E+00     0.0000000000000000E+00 
    7.5000000000312261E-02     1.0000000000000000E+00     0.0000000000000000E+00 
    2.5000000000104109E-02     1.0000000000000000E+00     0.0000000000000000E+00 
    4.5000000000187301E-01     1.0000000000000000E+00     0.0000000000000000E+00 
    8.9999999999958358E-01     1.0000000000000000E+00     0.0000000000000000E+00 
    8.4999999999965303E-01     1.0000000000000000E+00     0.0000000000000000E+00 
    8.0000000000000004E-01     1.0000000000000000E+00     0.0000000000000000E+00 
    7.5000000000034706E-01     1.0000000000000000E+00     0.0000000000000000E+00 
    7.0000000000069384E-01     1.0000000000000000E+00     0.0000000000000000E+00 
    6.5000000000104063E-01     1.0000000000000000E+00     0.0000000000000000E+00 
    6.0000000000138742E-01     1.0000000000000000E+00     0.0000000000000000E+00 
    5.5000000000173432E-01     1.0000000000000000E+00     0.0000000000000000E+00 
    5.0000000000205946E-01     1.0000000000000000E+00     0.0000000000000000E+00 
    9.4999999999979179E-01     1.0000000000000000E+00     0.0000000000000000E+00 
    4.0000000000166491E-01     1.0000000000000000E+00     0.0000000000000000E+00 
    3.5000000000145681E-01     1.0000000000000000E+00     0.0000000000000000E+00 
    3.0000000000124871E-01     1.0000000000000000E+00     0.0000000000000000E+00 
    2.5000000000104061E-01     1.0000000000000000E+00     0.0000000000000000E+00 
    2.0000000000083251E-01     1.0000000000000000E+00     0.0000000000000000E+00 
    1.5000000000062441E-01     1.0000000000000000E+00     0.0000000000000000E+00 
    1.0000000000041630E-01     1.0000000000000000E+00     0.0000000000000000E+00 
[...]
CELL_DATA 1600 
SCALARS Pressure double 1 
LOOKUP_TABLE default 

    1.2140035727660941E+00 
    1.1670836180139177E+00 
    1.1646209729243535E+00 
    1.1982084921194367E+00 
    1.1855071223388636E+00 
    1.1608811927553351E+00 
    1.1565521590712167E+00 
    1.1750629701160071E+00 
    1.1662842758553853E+00 
    1.1520209714390097E+00 
    1.1475018846478116E+00 
    1.1587603437847105E+00 
    1.1522018498047393E+00 
    1.1431089515470310E+00 
    1.1388985396125946E+00 
    1.1464015987189229E+00 
    1.1412087365518597E+00 
    1.1348942496306411E+00 
    1.1311015005584537E+00 
    1.1365116406982265E+00 
    1.1322264283798478E+00 
    1.1275160304753551E+00 
    1.1241288114093191E+00 
    1.1282891356809488E+00 
    1.1246503211483536E+00 
    1.1209288508810309E+00 
    1.1179047508308535E+00 
    1.1212712901426507E+00 
    1.1181214162097397E+00 
    1.1150455395109511E+00 
    1.1123410818680288E+00 
    1.1151762145224915E+00 
    1.1124159376006513E+00 
    1.1097822493308489E+00 
    1.1073609558291828E+00 
    1.1098245384308556E+00 
    1.1073888953516051E+00 
    1.1050701227594024E+00 
    1.1029036093396458E+00 
    1.1050982257862783E+00 
    1.1029436378848907E+00 
    1.1008561291685157E+00 
    1.0989231645327329E+00 
    1.1009177840600144E+00 
    1.0990145906454099E+00 
    1.0971008845423804E+00 
    1.0953860699706439E+00 
    1.0972290450031568E+00 
    1.0955570263557675E+00 
    1.0937760458077124E+00 
    1.0922686214282513E+00 
    1.0939951700688832E+00 
    1.0925407574526707E+00 
    1.0908620375315792E+00 
    1.0895549183201014E+00 
    1.0911916245700133E+00 
    1.0899460839591231E+00 
    1.0883462263167190E+00 
    1.0872352149385547E+00 
    1.0888028520043693E+00 
    1.0877609699768096E+00 
    1.0862213682356074E+00 
    1.0853043021941480E+00 
    1.0868196930209073E+00 
    1.0859782862491982E+00 
    1.0844835649271323E+00 
    1.0837581962055172E+00 
    1.0852355928276081E+00 
    1.0845891145490987E+00 
    1.0831257791238091E+00 
    1.0825805096696974E+00 
    1.0840331519950668E+00 
    1.0835553077997551E+00 
    1.0821095178463871E+00 
    1.0816951350597994E+00 
    1.0831379353355211E+00 
    1.0828310176343134E+00 
    1.0813916120741005E+00 
    1.0812469517547139E+00 
    1.0826840497269135E+00 
    1.1425917787478799E+00 
    1.1245694302357376E+00 
    1.1241806493569424E+00 
    1.1417960658658231E+00 
    1.1403302448350043E+00 
    1.1234274749796986E+00 
    1.1223523622770268E+00 
    1.1383534097941044E+00 
    1.1360139998937742E+00 
    1.1210060020123713E+00 
    1.1194405258653930E+00 
    1.1334355275572126E+00 
    1.1307145682481716E+00 
    1.1177052103613625E+00 
    1.1158441912852837E+00 
    1.1279236975406357E+00 
    1.1251159163895188E+00 
    1.1138955701997397E+00 
    1.1118913856397257E+00 
    1.1223290422795600E+00 
    1.1195894898983394E+00 
    1.1098580634683148E+00 
    1.1078170899706656E+00 
    1.1169153043152595E+00 
    1.1143184958837922E+00 
    1.1057857498682193E+00 
    1.1037778399486819E+00 
    1.1118067904188813E+00 
    1.1093849172972516E+00 
    1.1018043135195998E+00 
    1.0998738381380762E+00 
    1.1070555449355137E+00 
    1.1048199532157097E+00 
    1.0979932646841437E+00 
    1.0961680140192602E+00 
    1.1026785127023859E+00 
    1.1006310235146577E+00 
    1.0944023911069651E+00 
    1.0926998374836649E+00 
    1.0986769530887035E+00 
    1.0968156015627908E+00 
    1.0910631325644249E+00 
    1.0894945531864877E+00 
    1.0950462156233058E+00 
    1.0933680658115021E+00 
    1.0879959994569899E+00 
    1.0865690936084380E+00 
    1.0917804980092143E+00 
    1.0902829666841856E+00 
    1.0852152572789406E+00 
    1.0839357714428064E+00 
    1.0888750551431401E+00 
    1.0875564862191101E+00 
    1.0827318220669495E+00 
    1.0816045333044602E+00 
    1.0863271252013664E+00 
    1.0851869749517584E+00 
    1.0805549882851599E+00 
    1.0795842343639117E+00 
    1.0841361601037727E+00 
    1.0831748905862220E+00 
    1.0786932624038676E+00 
    1.0778829315503937E+00 
    1.0823033781481501E+00 
    1.0815216399794236E+00 
    1.0771537687627051E+00 
    1.0765054905913543E+00 
    1.0808290439960511E+00 
    1.0802233200340270E+00 
    1.0759359612969830E+00 
    1.0754390395675084E+00 
    1.0796985335735263E+00 
    1.0792411454013255E+00 
    1.0750002650812662E+00 
    1.0746048374583290E+00 
    1.0788341679638289E+00 
    1.0785384067253030E+00 
    1.0743208851862680E+00 
    1.0741876628264333E+00 
    1.0783984712440260E+00 
    1.1092003534403267E+00 
    1.0950750942900396E+00 
    1.0949194144232921E+00 
    1.1089676951621830E+00 
    1.1085099011240307E+00 
    1.0946111644817271E+00 
    1.0941568990232799E+00 
    1.1078418686243363E+00 
    1.1069835508049455E+00 
    1.0935658741501910E+00 
    1.0928494086080252E+00 
    1.1059579332583553E+00 
    1.1047892598190598E+00 
    1.0920202167389350E+00 
    1.0910917885666005E+00 
    1.1035016541782332E+00 
    1.1021181537025315E+00 
    1.0900778600986420E+00 
    1.0889919917228663E+00 
    1.1006601051913727E+00 
    1.0991468472423525E+00 
    1.0878472550716471E+00 
    1.0866560181792766E+00 
    1.0975956024148983E+00 
    1.0960215121902257E+00 
    1.0854298135852893E+00 
    1.0841792725568080E+00 
    1.0944377614152601E+00 
    1.0928557525368718E+00 
    1.0829141093805006E+00 
    1.0816431416393824E+00 
    1.0912853016940254E+00 
    1.0897348380844205E+00 
    1.0803743348175967E+00 
    1.0791148620223969E+00 
    1.0882115950317566E+00 
    1.0867217861913825E+00 
    1.0778711718334317E+00 
    1.0766490591758273E+00 
    1.0852707637604417E+00 
    1.0838631577951681E+00 
    1.0754537356386431E+00 
    1.0742898968421060E+00 
    1.0825029971116544E+00 
    1.0811938130140986E+00 
    1.0731617853338689E+00 
    1.0720732481072313E+00 
    1.0799387274440273E+00 
    1.0787405272013701E+00 
    1.0710277882137469E+00 
    1.0700286100950716E+00 
    1.0776017257201573E+00 
    1.0765246134845101E+00 
    1.0690786581393859E+00 
    1.0681806474179665E+00 
    1.0755112974263310E+00 
    1.0745637281820555E+00 
    1.0673370841317196E+00 
    1.0665502697514131E+00 
    1.0736837108470230E+00 
    1.0728728869044892E+00 
    1.0658222737845902E+00 
    1.0651548377414448E+00 
    1.0721326550598989E+00 
    1.0714639536765116E+00 
    1.0645491245008698E+00 
    1.0640051403683179E+00 
    1.0708667435628914E+00 
    1.0703388903081772E+00 
    1.0635205031754005E+00 
    1.0630878003334092E+00 
    1.0698738234379281E+00 
    1.0694556524839518E+00 
    1.0626888007924555E+00 
    1.0623239439630685E+00 
    1.0690747698259835E+00 
    1.0688063134921992E+00 
    1.0620740546938165E+00 
    1.0619588547976402E+00 
    1.0686814472326083E+00 
    1.0815290653039169E+00 
    1.0682011733260002E+00 
    1.0681169274863129E+00 
    1.0814173128710183E+00 
    1.0811953692360736E+00 
    1.0679493400741964E+00 
    1.0677004216180708E+00 
    1.0808666431603533E+00 
    1.0804360690072503E+00 
    1.0673731123201751E+00 
    1.0669711871457861E+00 
    1.0799098759343497E+00 
    1.0792953201393356E+00 
    1.0664991373227481E+00 
    1.0659620397852065E+00 
    1.0786004086108858E+00 
    1.0778336353750495E+00 
    1.0653654236475345E+00 
    1.0647151409063780E+00 
    1.0770037443849454E+00 
    1.0761195270926536E+00 
    1.0640172466939799E+00 
    1.0632778926060698E+00 
    1.0751896577918112E+00 
    1.0742225661902292E+00 
    1.0625032350334904E+00 
    1.0616993591219879E+00 
    1.0732263442872958E+00 
    1.0722086832835176E+00 
    1.0608722179962851E+00 
    1.0600275861975459E+00 
    1.0711768356886384E+00 
    1.0701375977806609E+00 
    1.0591710258573297E+00 
    1.0583078639147321E+00 
    1.0690973078985744E+00 
    1.0680618565703490E+00 
    1.0574431786238458E+00 
    1.0565817936473607E+00 
    1.0670367050721206E+00 
    1.0660269096084229E+00 
    1.0557282781473338E+00 
    1.0548869514308419E+00 
    1.0650371488483439E+00 
    1.0640717530187287E+00 
    1.0540618908564159E+00 
    1.0532569418275990E+00 
    1.0631347331222083E+00 
    1.0622298090927462E+00 
    1.0524757287566451E+00 
    1.0517216658153634E+00 
    1.0613604357848803E+00 
    1.0605298255254627E+00 
    1.0509979659821540E+00 
    1.0503076460679543E+00 
    1.0597409653214325E+00 
    1.0589966251530520E+00 
    1.0496535233547239E+00 
    1.0490381943527849E+00 
    1.0582993495707709E+00 
    1.0576514141308577E+00 
    1.0484639734873504E+00 
    1.0479327407119834E+00 
    1.0570547027573365E+00 
    1.0565104098791736E+00 
    1.0474455910181206E+00 
    1.0470020797651867E+00 
    1.0560183794162330E+00 
    1.0555757091924236E+00 
    1.0465986227685664E+00 
    1.0462247009419168E+00 
    1.0551736352144583E+00 
    1.0547904858717696E+00 
    1.0458550395682831E+00 
    1.0455244242775963E+00 
    1.0544422014224382E+00 
    1.0542125042876771E+00 
    1.0453143191289218E+00 
    1.0452183149341836E+00 
    1.0541074563284536E+00 
    1.0548769058620877E+00 
    1.0414211483317271E+00 
    1.0413679970324736E+00 
    1.0548109948703224E+00 
    1.0546797588254602E+00 
    1.0412621097393475E+00 
    1.0411044073546409E+00 
    1.0544845060054264E+00 
    1.0542271522118016E+00 
    1.0408962323949438E+00 
    1.0406393269110372E+00 
    1.0539101771744912E+00 
    1.0535365667702459E+00 
    1.0403358016839379E+00 
    1.0399880996384165E+00 
    1.0531097464931436E+00 
    1.0526335103152060E+00 
    1.0395989555569203E+00 
    1.0391713538284857E+00 
    1.0521119484067678E+00 
    1.0515493765890958E+00 
    1.0387084857412912E+00 
    1.0382137076031932E+00 
    1.0509502697699473E+00 
    1.0503192009909172E+00 
    1.0376905007355393E+00 
    1.0371424341407218E+00 
    1.0496607871338897E+00 
    1.0489796418239528E+00 
    1.0365731304067243E+00 
    1.0359862351937379E+00 
    1.0482803356450432E+00 
    1.0475673634571501E+00 
    1.0353853904564745E+00 
    1.0347742113946774E+00 
    1.0468451183654570E+00 
    1.0461178717314898E+00 
    1.0341562669934936E+00 
    1.0335350639117586E+00 
    1.0453897585198810E+00 
    1.0446647672256399E+00 
    1.0329140333938969E+00 
    1.0322965208110195E+00 
    1.0439467336086166E+00 
    1.0432393374550073E+00 
    1.0316857773652770E+00 
    1.0310849533963666E+00 
    1.0425461015661630E+00 
    1.0418703921060453E+00 
    1.0304970925701613E+00 
    1.0299251259250557E+00 
    1.0412154192534111E+00 
    1.0405842366597713E+00 
    1.0293718641184897E+00 
    1.0288399848083791E+00 
    1.0399797371667192E+00 
    1.0394046397083012E+00 
    1.0283320088025421E+00 
    1.0278502507347227E+00 
    1.0388614560836853E+00 
    1.0383524113508802E+00 
    1.0273967121452476E+00 
    1.0269728486378724E+00 
    1.0378792595179525E+00 
    1.0374428766554651E+00 
    1.0265790767038123E+00 
    1.0262137451338957E+00 
    1.0370424022804130E+00 
    1.0366733765114113E+00 
    1.0258707994481775E+00 
    1.0255330906453777E+00 
    1.0363229332494657E+00 
    1.0359653352940861E+00 
    1.0251835595495220E+00 
    1.0248974429277800E+00 
    1.0356549656132159E+00 
    1.0354630588563751E+00 
    1.0247245798550777E+00 
    1.0246423003813681E+00 
    1.0353741561429357E+00 
    1.0277455244929379E+00 
    1.0137909829716729E+00 
    1.0137536530962090E+00 
    1.0277015180602804E+00 
    1.0276138212784960E+00 
    1.0136792476857137E+00 
    1.0135683123410308E+00 
    1.0274831248947986E+00 
    1.0273104277544618E+00 
    1.0134216281973223E+00 
    1.0132402043310706E+00 
    1.0270970244989073E+00 
    1.0268444877372591E+00 
    1.0130252666147319E+00 
    1.0127782440102693E+00 
    1.0265546464079780E+00 
    1.0262295614968040E+00 
    1.0125007530164378E+00 
    1.0121945808036041E+00 
    1.0258715000380283E+00 
    1.0254829082129386E+00 
    1.0118616674960785E+00 
    1.0115040880156800E+00 
    1.0250663842673569E+00 
    1.0246246518739934E+00 
    1.0111240338573715E+00 
    1.0107237951216401E+00 
    1.0241605344616020E+00 
    1.0236769309249336E+00 
    1.0103057430780615E+00 
    1.0098723134811809E+00 
    1.0231767930218312E+00 
    1.0226631046606267E+00 
    1.0094259908049459E+00 
    1.0089692935064765E+00 
    1.0221388631849599E+00 
    1.0216070626752813E+00 
    1.0085047603740773E+00 
    1.0080349379568898E+00 
    1.0210706792054471E+00 
    1.0205326579153491E+00 
    1.0075623690108422E+00 
    1.0070895818201295E+00 
    1.0199959016789271E+00 
    1.0194632610474708E+00 
    1.0066190801504649E+00 
    1.0061533334297952E+00 
    1.0189375250048445E+00 
    1.0184214118327324E+00 
    1.0056947664708300E+00 
    1.0052457475067305E+00 
    1.0179175589401208E+00 
    1.0174285096105187E+00 
    1.0048085721798505E+00 
    1.0043854386334510E+00 
    1.0169566926599365E+00 
    1.0165043865338497E+00 
    1.0039784032525874E+00 
    1.0035892942934799E+00 
    1.0160736492057467E+00 
    1.0156661734785757E+00 
    1.0032195355199327E+00 
    1.0028697844072192E+00 
    1.0152829852224923E+00 
    1.0149238225409813E+00 
    1.0025391911817598E+00 
    1.0022237810084458E+00 
    1.0145858307013955E+00 
    1.0142603834311004E+00 
    1.0019121006310141E+00 
    1.0015720354227131E+00 
    1.0139230327985518E+00 
    1.0135770789869663E+00 
    1.0012321339678372E+00 
    1.0009923955310631E+00 
    1.0133167988002265E+00 
    1.0131631404442081E+00 
    1.0008510293096708E+00 
    1.0007806511975186E+00 
    1.0130878615872490E+00 
    9.9951784436591273E-01 
    9.8489980893821283E-01 
    9.8487099999471606E-01 
    9.9948542957912656E-01 
    9.9942081369247893E-01 
    9.8481356778727247E-01 
    9.8472789622643564E-01 
    9.9932444634101691E-01 
    9.9919696467160335E-01 
    9.8461452423921048E-01 
    9.8447414170078940E-01 
    9.9903918809782155E-01 
    9.9885211080284730E-01 
    9.8430758402722485E-01 
    9.8411582552305232E-01 
    9.9863689247742415E-01 
    9.9839484775989462E-01 
    9.8389997179906286E-01 
    9.8366125147722794E-01 
    9.9812743470830290E-01 
    9.9783624257857839E-01 
    9.8340100735461677E-01 
    9.8312068717616319E-01 
    9.9752297915358445E-01 
    9.9718945784531676E-01 
    9.8282183415167068E-01 
    9.8250607733929329E-01 
    9.9683758476988427E-01 
    9.9646934596987269E-01 
    9.8217512200330725E-01 
    9.8183074003713844E-01 
    9.9608679493083940E-01 
    9.9569204050797766E-01 
    9.8147476052239457E-01 
    9.8110906046995616E-01 
    9.9528723534531383E-01 
    9.9487456483237935E-01 
    9.8073555575786686E-01 
    9.8035619223906201E-01 
    9.9445623660014049E-01 
    9.9403447050479499E-01 
    9.7997293693270993E-01 
    9.7958776912224133E-01 
    9.9361148897612284E-01 
    9.9318950749877011E-01 
    9.7920267103343495E-01 
    9.7881961750125634E-01 
    9.9277072481353734E-01 
    9.9235731209190092E-01 
    9.7844056353545450E-01 
    9.7806742770195831E-01 
    9.9195139967032353E-01 
    9.9155505851684744E-01 
    9.7770206718032870E-01 
    9.7734623601611093E-01 
    9.9117027049632866E-01 
    9.9079887467484717E-01 
    9.7700150901351568E-01 
    9.7666913547812295E-01 
    9.9044246251659451E-01 
    9.9010216656447980E-01 
    9.7634975168773108E-01 
    9.7604280723424675E-01 
    9.8977823269396892E-01 
    9.8946913528579195E-01 
    9.7574535069296930E-01 
    9.7544895493984596E-01 
    9.8916951213987436E-01 
    9.8886385740920391E-01 
    9.7512910803048614E-01 
    9.7477301181184595E-01 
    9.8852049781665829E-01 
    9.8819552892437723E-01 
    9.7447237026498623E-01 
    9.7427298600304757E-01 
    9.8797315922181106E-01 
    9.8783741218459176E-01 
    9.7414510667784138E-01 
    9.7408115019187802E-01 
    9.8776966026898949E-01 
    9.6992021692339514E-01 
    9.5456967286159256E-01 
    9.5454522646313122E-01 
    9.6989399989418057E-01 
    9.6984173157914166E-01 
    9.5449648497157979E-01 
    9.5442375395079448E-01 
    9.6976374988505498E-01 
    9.6966052560647731E-01 
    9.5432745704707111E-01 
    9.5420813270614013E-01 
    9.6953265892027529E-01 
    9.6938087522070970E-01 
    9.5406643076345776E-01 
    9.5390310837750680E-01 
    9.6920602005814893E-01 
    9.6900905339410948E-01 
    9.5371902544335296E-01 
    9.5351513959424394E-01 
    9.6879104332267307E-01 
    9.6855315937137276E-01 
    9.5329250086885209E-01 
    9.5305224610579609E-01 
    9.6829666547638749E-01 
    9.6802291271588747E-01 
    9.5279559311764339E-01 
    9.5252383468912627E-01 
    9.6773333187621402E-01 
    9.6742942591576309E-01 
    9.5223833243638067E-01 
    9.5194051055395690E-01 
    9.6711276237945121E-01 
    9.6678496580121609E-01 
    9.5163184946263235E-01 
    9.5131387935168421E-01 
    9.6644771011131947E-01 
    9.6610271103625556E-01 
    9.5098817358039722E-01 
    9.5065634185848791E-01 
    9.6575171843643104E-01 
    9.6539650846079572E-01 
    9.5032002305204888E-01 
    9.4998087733701642E-01 
    9.6503887528918098E-01 
    9.6468062204423788E-01 
    9.4964057719869843E-01 
    9.4930079635839637E-01 
    9.6432355010856829E-01 
    9.6396944541691454E-01 
    9.4896319489840875E-01 
    9.4862939724309170E-01 
    9.6362005896285607E-01 
    9.6327707603746660E-01 
    9.4830095639584100E-01 
    9.4797929127783809E-01 
    9.6294206311959807E-01 
    9.6261637002245648E-01 
    9.4766557104681193E-01 
    9.4736049466515004E-01 
    9.6230094266481592E-01 
    9.6199595751237577E-01 
    9.4706385888840416E-01 
    9.4677365518028700E-01 
    9.6170008406858820E-01 
    9.6140883364597030E-01 
    9.4648384803493535E-01 
    9.4617711411186090E-01 
    9.6110989393306834E-01 
    9.6076652234396842E-01 
    9.4581379797582266E-01 
    9.4544644234018838E-01 
    9.6039688582645955E-01 
    9.6011699530791006E-01 
    9.4517952794587556E-01 
    9.4499909363263268E-01 
    9.5993457197422982E-01 
    9.5981366595902673E-01 
    9.4487907450176545E-01 
    9.4481909328380220E-01 
    9.5975307525546594E-01 
    9.3884454831348474E-01 
    9.2274608807967129E-01 
    9.2272315032052965E-01 
    9.3882117240110108E-01 
    9.3877456146201110E-01 
    9.2267740843359247E-01 
    9.2260913149958734E-01 
    9.3870499881525915E-01 
    9.3861287656125736E-01 
    9.2251869250996033E-01 
    9.2240656499854545E-01 
    9.3849869232023320E-01 
    9.3836304628095946E-01 
    9.2227332035688814E-01 
    9.2211962477662113E-01 
    9.3820663775941515E-01 
    9.3803026134469603E-01 
    9.2194623584538715E-01 
    9.2175399885538900E-01 
    9.3783480271151987E-01 
    9.3762123415416010E-01 
    9.2154384286402447E-01 
    9.2131677653198396E-01 
    9.3739060988197476E-01 
    9.3714406110762882E-01 
    9.2107388375489208E-01 
    9.2081631909696793E-01 
    9.3688279095182847E-01 
    9.3660806918032002E-01 
    9.2054530302661908E-01 
    9.2026211694098059E-01 
    9.3632122677775653E-01 
    9.3602365034662216E-01 
    9.1996809794612211E-01 
    9.1966463332912574E-01 
    9.3571677629496142E-01 
    9.3540208473820563E-01 
    9.1935315460968914E-01 
    9.1903513097690737E-01 
    9.3508109297695952E-01 
    9.3475534830572915E-01 
    9.1871206177664022E-01 
    9.1838546746790062E-01 
    9.3442641972078078E-01 
    9.3409588775723063E-01 
    9.1805687801946612E-01 
    9.1772781689072447E-01 
    9.3376533105670401E-01 
    9.3343630706912006E-01 
    9.1739977718494126E-01 
    9.1707418360009763E-01 
    9.3311032197208044E-01 
    9.3278878035737245E-01 
    9.1675232810380103E-01 
    9.1643525621371535E-01 
    9.3247289638451292E-01 
    9.3216353077948533E-01 
    9.1612355863355488E-01 
    9.1581697387564176E-01 
    9.3186088252808652E-01 
    9.3156387899195103E-01 
    9.1551357339158990E-01 
    9.1520782035063786E-01 
    9.3126883909591351E-01 
    9.3096585649698149E-01 
    9.1488460472207456E-01 
    9.1449834330815272E-01 
    9.3062544910974110E-01 
    9.3023067732551068E-01 
    9.1407183143950355E-01 
    9.1374005385772838E-01 