# vtk DataFile Version 2.0
Pressure Field Data 
ASCII 
DATASET UNSTRUCTURED_GRID 

POINTS 1681 double 

    0.0000000000000000E+00     0.0000000000000000E+00     0.0000000000000000E+00 
    1.0000000000000000E+00     0.0000000000000000E+00     0.0000000000000000E+00 
    1.0000000000000000E+00     1.0000000000000000E+00     0.0000000000000000E+00 
    0.0000000000000000E+00     1.0000000000000000E+00     0.0000000000000000E+00 
    5.2499999999875258E-01     0.0000000000000000E+00     0.0000000000000000E+00 
    7.4999999999856765E-02     0.0000000000000000E+00     0.0000000000000000E+00 
    1.2499999999975850E-01     0.0000000000000000E+00     0.0000000000000000E+00 
    1.7499999999962990E-01     0.0000000000000000E+00     0.0000000000000000E+00 
    2.2499999999948389E-01     0.0000000000000000E+00     0.0000000000000000E+00 
    2.7499999999933789E-01     0.0000000000000000E+00     0.0000000000000000E+00 
    3.2499999999919210E-01     0.0000000000000000E+00     0.0000000000000000E+00 
    3.7499999999904610E-01     0.0000000000000000E+00     0.0000000000000000E+00 
    4.2499999999890020E-01     0.0000000000000000E+00     0.0000000000000000E+00 
    4.7499999999875958E-01     0.0000000000000000E+00     0.0000000000000000E+00 
    2.4999999999949701E-02     0.0000000000000000E+00     0.0000000000000000E+00 
    5.7499999999887907E-01     0.0000000000000000E+00     0.0000000000000000E+00 
    6.2499999999901101E-01     0.0000000000000000E+00     0.0000000000000000E+00 
    6.7499999999914273E-01     0.0000000000000000E+00     0.0000000000000000E+00 
    7.2499999999927467E-01     0.0000000000000000E+00     0.0000000000000000E+00 
    7.7499999999940661E-01     0.0000000000000000E+00     0.0000000000000000E+00 
    8.2499999999953844E-01     0.0000000000000000E+00     0.0000000000000000E+00 
    8.7499999999967026E-01     0.0000000000000000E+00     0.0000000000000000E+00 
    9.2499999999980220E-01     0.0000000000000000E+00     0.0000000000000000E+00 
    9.7499999999993414E-01     0.0000000000000000E+00     0.0000000000000000E+00 
    5.4999999999881310E-01     0.0000000000000000E+00     0.0000000000000000E+00 
    9.9999999999814140E-02     0.0000000000000000E+00     0.0000000000000000E+00 
    1.4999999999970290E-01     0.0000000000000000E+00     0.0000000000000000E+00 
    1.9999999999955689E-01     0.0000000000000000E+00     0.0000000000000000E+00 
    2.4999999999941089E-01     0.0000000000000000E+00     0.0000000000000000E+00 
    2.9999999999926502E-01     0.0000000000000000E+00     0.0000000000000000E+00 
    3.4999999999911913E-01     0.0000000000000000E+00     0.0000000000000000E+00 
    3.9999999999897312E-01     0.0000000000000000E+00     0.0000000000000000E+00 
    4.4999999999882723E-01     0.0000000000000000E+00     0.0000000000000000E+00 
    4.9999999999869210E-01     0.0000000000000000E+00     0.0000000000000000E+00 
    4.9999999999899403E-02     0.0000000000000000E+00     0.0000000000000000E+00 
    5.9999999999894504E-01     0.0000000000000000E+00     0.0000000000000000E+00 
    6.4999999999907687E-01     0.0000000000000000E+00     0.0000000000000000E+00 
    6.9999999999920870E-01     0.0000000000000000E+00     0.0000000000000000E+00 
    7.4999999999934064E-01     0.0000000000000000E+00     0.0000000000000000E+00 
    7.9999999999947247E-01     0.0000000000000000E+00     0.0000000000000000E+00 
    8.4999999999960441E-01     0.0000000000000000E+00     0.0000000000000000E+00 
    8.9999999999973623E-01     0.0000000000000000E+00     0.0000000000000000E+00 
    9.4999999999986817E-01     0.0000000000000000E+00     0.0000000000000000E+00 
    1.0000000000000000E+00     5.2499999999875258E-01     0.0000000000000000E+00 
    1.0000000000000000E+00     7.4999999999856765E-02     0.0000000000000000E+00 
    1.0000000000000000E+00     1.2499999999975850E-01     0.0000000000000000E+00 
    1.0000000000000000E+00     1.7499999999962990E-01     0.0000000000000000E+00 
    1.0000000000000000E+00     2.2499999999948389E-01     0.0000000000000000E+00 
    1.0000000000000000E+00     2.7499999999933789E-01     0.0000000000000000E+00 
    1.0000000000000000E+00     3.2499999999919210E-01     0.0000000000000000E+00 
    1.0000000000000000E+00     3.7499999999904610E-01     0.0000000000000000E+00 
    1.0000000000000000E+00     4.2499999999890020E-01     0.0000000000000000E+00 
    1.0000000000000000E+00     4.7499999999875958E-01     0.0000000000000000E+00 
    1.0000000000000000E+00     2.4999999999949701E-02     0.0000000000000000E+00 
    1.0000000000000000E+00     5.7499999999887907E-01     0.0000000000000000E+00 
    1.0000000000000000E+00     6.2499999999901101E-01     0.0000000000000000E+00 
    1.0000000000000000E+00     6.7499999999914273E-01     0.0000000000000000E+00 
    1.0000000000000000E+00     7.2499999999927467E-01     0.0000000000000000E+00 
    1.0000000000000000E+00     7.7499999999940661E-01     0.0000000000000000E+00 
    1.0000000000000000E+00     8.2499999999953844E-01     0.0000000000000000E+00 
    1.0000000000000000E+00     8.7499999999967026E-01     0.0000000000000000E+00 
    1.0000000000000000E+00     9.2499999999980220E-01     0.0000000000000000E+00 
    1.0000000000000000E+00     9.7499999999993414E-01     0.0000000000000000E+00 
    1.0000000000000000E+00     5.4999999999881310E-01     0.0000000000000000E+00 
    1.0000000000000000E+00     9.9999999999814140E-02     0.0000000000000000E+00 
    1.0000000000000000E+00     1.4999999999970290E-01     0.0000000000000000E+00 
    1.0000000000000000E+00     1.9999999999955689E-01     0.0000000000000000E+00 
    1.0000000000000000E+00     2.4999999999941089E-01     0.0000000000000000E+00 
    1.0000000000000000E+00     2.9999999999926502E-01     0.0000000000000000E+00 
    1.0000000000000000E+00     3.4999999999911913E-01     0.0000000000000000E+00 
    1.0000000000000000E+00     3.9999999999897312E-01     0.0000000000000000E+00 
    1.0000000000000000E+00     4.4999999999882723E-01     0.0000000000000000E+00 
    1.0000000000000000E+00     4.9999999999869210E-01     0.0000000000000000E+00 
    1.0000000000000000E+00     4.9999999999899403E-02     0.0000000000000000E+00 
    1.0000000000000000E+00     5.9999999999894504E-01     0.0000000000000000E+00 
    1.0000000000000000E+00     6.4999999999907687E-01     0.0000000000000000E+00 
    1.0000000000000000E+00     6.9999999999920870E-01     0.0000000000000000E+00 
    1.0000000000000000E+00     7.4999999999934064E-01     0.0000000000000000E+00 
    1.0000000000000000E+00     7.9999999999947247E-01     0.0000000000000000E+00 
    1.0000000000000000E+00     8.4999999999960441E-01     0.0000000000000000E+00 
    1.0000000000000000E+00     8.9999999999973623E-01     0.0000000000000000E+00 
    1.0000000000000000E+00     9.4999999999986817E-01     0.0000000000000000E+00 
    4.7500000000196618E-01     1.0000000000000000E+00     0.0000000000000000E+00 
    9.2499999999968763E-01     1.0000000000000000E+00     0.0000000000000000E+00 
    8.7499999999961831E-01     1.0000000000000000E+00     0.0000000000000000E+00 
    8.2499999999982654E-01     1.0000000000000000E+00     0.0000000000000000E+00 
    7.7500000000017355E-01     1.0000000000000000E+00     0.0000000000000000E+00 
    7.2500000000052045E-01     1.0000000000000000E+00     0.0000000000000000E+00 
    6.7500000000086724E-01     1.0000000000000000E+00     0.0000000000000000E+00 
    6.2500000000121403E-01     1.0000000000000000E+00     0.0000000000000000E+00 
    5.7500000000156093E-01     1.0000000000000000E+00     0.0000000000000000E+00 
    5.2500000000189684E-01     1.0000000000000000E+00     0.0000000000000000E+00 
    9.7499999999989595E-01     1.0000000000000000E+00     0.0000000000000000E+00 
    4.2500000000176902E-01     1.0000000000000000E+00     0.0000000000000000E+00 
    3.7500000000156092E-01     1.0000000000000000E+00     0.0000000000000000E+00 
    3.2500000000135282E-01     1.0000000000000000E+00     0.0000000000000000E+00 
    2.7500000000114472E-01     1.0000000000000000E+00     0.0000000000000000E+00 
    2.2500000000093659E-01     1.0000000000000000E+00     0.0000000000000000E+00 
    1.7500000000072849E-01     1.0000000000000000E+00     0.0000000000000000E+00 
    1.2500000000052039E-01     1.0000000000000000E+00     0.0000000000000000E+00 
    7.5000000000312261E-02     1.0000000000000000E+00     0.0000000000000000E+00 
    2.5000000000104109E-02     1.0000000000000000E+00     0.0000000000000000E+00 
    4.5000000000187301E-01     1.0000000000000000E+00     0.0000000000000000E+00 
    8.9999999999958358E-01     1.0000000000000000E+00     0.0000000000000000E+00 
    8.4999999999965303E-01     1.0000000000000000E+00     0.0000000000000000E+00 
    8.0000000000000004E-01     1.0000000000000000E+00     0.0000000000000000E+00 
    7.5000000000034706E-01     1.0000000000000000E+00     0.0000000000000000E+00 
    7.0000000000069384E-01     1.0000000000000000E+00     0.0000000000000000E+00 
    6.5000000000104063E-01     1.0000000000000000E+00     0.0000000000000000E+00 
    6.0000000000138742E-01     1.0000000000000000E+00     0.0000000000000000E+00 
    5.5000000000173432E-01     1.0000000000000000E+00     0.0000000000000000E+00 
    5.0000000000205946E-01     1.0000000000000000E+00     0.0000000000000000E+00 
    9.4999999999979179E-01     1.0000000000000000E+00     0.0000000000000000E+00 
    4.0000000000166491E-01     1.0000000000000000E+00     0.0000000000000000E+00 
    3.5000000000145681E-01     1.0000000000000000E+00     0.0000000000000000E+00 
    3.0000000000124871E-01     1.0000000000000000E+00     0.0000000000000000E+00 
    2.5000000000104061E-01     1.0000000000000000E+00     0.0000000000000000E+00 
    2.0000000000083251E-01     1.0000000000000000E+00     0.0000000000000000E+00 
    1.5000000000062441E-01     1.0000000000000000E+00     0.0000000000000000E+00 
    1.0000000000041630E-01     1.0000000000000000E+00     0.0000000000000000E+00 
[...]
CELL_DATA 1600 
SCALARS Pressure double 1 
LOOKUP_TABLE default 

    1.4981383995524025E+00 
    1.4450422488365842E+00 
    1.4420609904381656E+00 
    1.4813155407258345E+00 
    1.4670700122090987E+00 
    1.4373572836069639E+00 
    1.4317274155506583E+00 
    1.4548233034984623E+00 
    1.4440449895868475E+00 
    1.4256200663146994E+00 
    1.4192975790546623E+00 
    1.4343627587958283E+00 
    1.4255151991590991E+00 
    1.4129128693008828E+00 
    1.4065540264314722E+00 
    1.4173168111555090E+00 
    1.4096342004133948E+00 
    1.4002706087094119E+00 
    1.3940892779701202E+00 
    1.4023700607900542E+00 
    1.3954523533658911E+00 
    1.3880231369435936E+00 
    1.3820773023316282E+00 
    1.3888269196189607E+00 
    1.3824523624697318E+00 
    1.3762521984382181E+00 
    1.3705454420527576E+00 
    1.3762964212615523E+00 
    1.3703333148197605E+00 
    1.3649528173104792E+00 
    1.3594685960186659E+00 
    1.3645416725641639E+00 
    1.3589027373470419E+00 
    1.3540852657986682E+00 
    1.3487925024815626E+00 
    1.3533984967383725E+00 
    1.3480092180840038E+00 
    1.3435748062045503E+00 
    1.3384061341052864E+00 
    1.3427092999362302E+00 
    1.3374585923562325E+00 
    1.3332362255044787E+00 
    1.3279479559576484E+00 
    1.3321798621831933E+00 
    1.3266872291479881E+00 
    1.3223185571332068E+00 
    1.3165211601521354E+00 
    1.3207653943929625E+00 
    1.3152029750904521E+00 
    1.3113066842641536E+00 
    1.3067283427276242E+00 
    1.3104405817301501E+00 
    1.3061034390316753E+00 
    1.3025242103043078E+00 
    1.2986628375167595E+00 
    1.3021242294173661E+00 
    1.2984911589931121E+00 
    1.2951339941469058E+00 
    1.2919285634014408E+00 
    1.2951938050534735E+00 
    1.2922229752790324E+00 
    1.2890384492494238E+00 
    1.2864565003269466E+00 
    1.2895705981075469E+00 
    1.2872296307141160E+00 
    1.2841764447824648E+00 
    1.2821928346151381E+00 
    1.2851939819138443E+00 
    1.2834584478434321E+00 
    1.2805009983938289E+00 
    1.2790970014831682E+00 
    1.2820186587179727E+00 
    1.2808710353159876E+00 
    1.2779776130826375E+00 
    1.2771402795270184E+00 
    1.2800127541373347E+00 
    1.2794417204197142E+00 
    1.2765831034146031E+00 
    1.2763048282315088E+00 
    1.2791565484026051E+00 
    1.4124371050451896E+00 
    1.3851690114391939E+00 
    1.3845201346708429E+00 
    1.4113082328771234E+00 
    1.4091835309126379E+00 
    1.3832483102015194E+00 
    1.3814070609375826E+00 
    1.4062509850794336E+00 
    1.4026900876618154E+00 
    1.3790618246245998E+00 
    1.3762815400350283E+00 
    1.3986548987853262E+00 
    1.3942707432601611E+00 
    1.3731331666279833E+00 
    1.3696785079444584E+00 
    1.3896364603035032E+00 
    1.3848285226966857E+00 
    1.3659726677728738E+00 
    1.3620635599126656E+00 
    1.3799053628564570E+00 
    1.3749112267405315E+00 
    1.3579920306210695E+00 
    1.3537922777863094E+00 
    1.3698793386853920E+00 
    1.3648343605206443E+00 
    1.3494923406650741E+00 
    1.3451144806736399E+00 
    1.3597941957830419E+00 
    1.3547711844579597E+00 
    1.3406752639635384E+00 
    1.3361850516148257E+00 
    1.3497726729434760E+00 
    1.3448008028364016E+00 
    1.3316462755754290E+00 
    1.3270488434926742E+00 
    1.3398510316489090E+00 
    1.3349079875645777E+00 
    1.3223572605876870E+00 
    1.3174686183545068E+00 
    1.3299341466145578E+00 
    1.3248338337745562E+00 
    1.3122835912542197E+00 
    1.3068785752441849E+00 
    1.3194348795310809E+00 
    1.3137736774089088E+00 
    1.3017130686166345E+00 
    1.2971004165412809E+00 
    1.3084532843164423E+00 
    1.3037551901592412E+00 
    1.2928941838913950E+00 
    1.2889820826218106E+00 
    1.2994741383899986E+00 
    1.2955174220356058E+00 
    1.2853561761878078E+00 
    1.2820112432208703E+00 
    1.2918761514391466E+00 
    1.2885427030567487E+00 
    1.2789424005613117E+00 
    1.2761451247146547E+00 
    1.2855101558148732E+00 
    1.2827722709243585E+00 
    1.2736152652743613E+00 
    1.2713490524966435E+00 
    1.2803234687663321E+00 
    1.2781588050792081E+00 
    1.2693431007352054E+00 
    1.2675944090513862E+00 
    1.2762739478561536E+00 
    1.2746651558376680E+00 
    1.2661003600031857E+00 
    1.2648587173728405E+00 
    1.2733292591470080E+00 
    1.2722636424001430E+00 
    1.2638676234037063E+00 
    1.2631255959714918E+00 
    1.2714662304846700E+00 
    1.2709354771162802E+00 
    1.2626315260020133E+00 
    1.2623846753595320E+00 
    1.2706703562294848E+00 
    1.3595173752990928E+00 
    1.3340783817613742E+00 
    1.3337276720076252E+00 
    1.3590647396965796E+00 
    1.3581677440861200E+00 
    1.3330296147163709E+00 
    1.3319939441141899E+00 
    1.3568469930086542E+00 
    1.3551305062482788E+00 
    1.3306345715269061E+00 
    1.3289685656649217E+00 
    1.3530510120251258E+00 
    1.3506435625882245E+00 
    1.3270151105346641E+00 
    1.3247944873971094E+00 
    1.3479435951649963E+00 
    1.3449854610750380E+00 
    1.3223271138571333E+00 
    1.3196326319221574E+00 
    1.3418013652265888E+00 
    1.3384206144466977E+00 
    1.3167289860758020E+00 
    1.3136313498433903E+00 
    1.3348690472265550E+00 
    1.3311684864099846E+00 
    1.3103505965098630E+00 
    1.3068907084533188E+00 
    1.3273359898852515E+00 
    1.3233824932749960E+00 
    1.3032434088648914E+00 
    1.2993722560104486E+00 
    1.3193099068174168E+00 
    1.3151041903396785E+00 
    1.2952011264975027E+00 
    1.2907227514900450E+00 
    1.3107141822161050E+00 
    1.3060352874213537E+00 
    1.2860192398240635E+00 
    1.2813945877732247E+00 
    1.3010525857078608E+00 
    1.2959863077274931E+00 
    1.2771241202462800E+00 
    1.2732032217405662E+00 
    1.2911866097718379E+00 
    1.2868418581901389E+00 
    1.2695514489890143E+00 
    1.2661032221966886E+00 
    1.2828529378783733E+00 
    1.2791165057917284E+00 
    1.2628587796380679E+00 
    1.2598186300203391E+00 
    1.2756280785114809E+00 
    1.2723851956693109E+00 
    1.2569830241345488E+00 
    1.2543520031506441E+00 
    1.2693854319287639E+00 
    1.2666264299368146E+00 
    1.2519254432534073E+00 
    1.2497030960480791E+00 
    1.2641059295507526E+00 
    1.2618217929985640E+00 
    1.2476846245453856E+00 
    1.2458696347783822E+00 
    1.2597720260641097E+00 
    1.2579547956149713E+00 
    1.2442577032495463E+00 
    1.2428484004855473E+00 
    1.2563684438903482E+00 
    1.2550114999900945E+00 
    1.2416413110102471E+00 
    1.2406360500489004E+00 
    1.2538826889865113E+00 
    1.2529809390380520E+00 
    1.2398322772587906E+00 
    1.2392297077511805E+00 
    1.2523053868309513E+00 
    1.2518553816177735E+00 
    1.2388281206313099E+00 
    1.2386273652406385E+00 
    1.2516304880648188E+00 
    1.3081079796144026E+00 
    1.2810529010933953E+00 
    1.2807924056358797E+00 
    1.3078159303482708E+00 
    1.3072329123390303E+00 
    1.2802705816270796E+00 
    1.2794884529185198E+00 
    1.3063636011165880E+00 
    1.3052150821687827E+00 
    1.2784481857251730E+00 
    1.2771524205488407E+00 
    1.3037962852593092E+00 
    1.3021173358926055E+00 
    1.2756034583397202E+00 
    1.2738021301379887E+00 
    1.3001888036370044E+00 
    1.2980207951167466E+00 
    1.2717456461298884E+00 
    1.2694230802590258E+00 
    1.2956217912586097E+00 
    1.2929970546424145E+00 
    1.2668096929363832E+00 
    1.2638752845340255E+00 
    1.2901459559713280E+00 
    1.2870554207454690E+00 
    1.2606228983959054E+00 
    1.2571078443379193E+00 
    1.2836868686525955E+00 
    1.2799938580084949E+00 
    1.2534331603700979E+00 
    1.2497891385163016E+00 
    1.2759964825338186E+00 
    1.2717757200960464E+00 
    1.2463359803982115E+00 
    1.2431328525751388E+00 
    1.2675609548662043E+00 
    1.2635859166616004E+00 
    1.2401481183337812E+00 
    1.2372948882993475E+00 
    1.2599282520280579E+00 
    1.2565346196161118E+00 
    1.2345396373446769E+00 
    1.2318886923568027E+00 
    1.2533077723894381E+00 
    1.2502333953506846E+00 
    1.2293488830264985E+00 
    1.2269261955135511E+00 
    1.2473156641805352E+00 
    1.2445581240754677E+00 
    1.2246258661189366E+00 
    1.2224524660313190E+00 
    1.2419637442097922E+00 
    1.2395350035809081E+00 
    1.2204099774893189E+00 
    1.2185018616592815E+00 
    1.2372739635058172E+00 
    1.2351823296508957E+00 
    1.2167311188177774E+00 
    1.2151003415088764E+00 
    1.2332615055190330E+00 
    1.2315126387352795E+00 
    1.2136117613309130E+00 
    1.2122672899524762E+00 
    1.2299366611109503E+00 
    1.2285343232357226E+00 
    1.2110685548898519E+00 
    1.2100169305102941E+00 
    1.2273062241936976E+00 
    1.2262528368908225E+00 
    1.2091135646619449E+00 
    1.2083594012732062E+00 
    1.2253745293988894E+00 
    1.2246715826545211E+00 
    1.2077551992115674E+00 
    1.2073015476435502E+00 
    1.2241442047940201E+00 
    1.2237925423528502E+00 
    1.2069988780925740E+00 
    1.2068474733493681E+00 
    1.2236166885098623E+00 
    1.2523015765034764E+00 
    1.2208939167274870E+00 
    1.2205826524739396E+00 
    1.2520441691039048E+00 
    1.2515262062359369E+00 
    1.2199612315996016E+00 
    1.2190346257908247E+00 
    1.2507446068324573E+00 
    1.2496950216477685E+00 
    1.2178142205301572E+00 
    1.2163221926352810E+00 
    1.2483695208638703E+00 
    1.2467548249271165E+00 
    1.2145933102099133E+00 
    1.2126739120861145E+00 
    1.2448348001874519E+00 
    1.2426023284177468E+00 
    1.2106216637449345E+00 
    1.2085050818309342E+00 
    1.2400765258872004E+00 
    1.2373078071818613E+00 
    1.2063945449994504E+00 
    1.2043469976137691E+00 
    1.2343736792649833E+00 
    1.2313883083694406E+00 
    1.2023919228543414E+00 
    1.2005158833411165E+00 
    1.2284765726090598E+00 
    1.2257171519873808E+00 
    1.1986725011280239E+00 
    1.1968272353522122E+00 
    1.2231364378886169E+00 
    1.2206938808844292E+00 
    1.1949776715559921E+00 
    1.1931352203636416E+00 
    1.2183204964789933E+00 
    1.2159918000364320E+00 
    1.1913110680288850E+00 
    1.1895153236573091E+00 
    1.2137156628397101E+00 
    1.2115016370353040E+00 
    1.1877571915503122E+00 
    1.1860450384690640E+00 
    1.2093582557484681E+00 
    1.2072931525287398E+00 
    1.1843864584887782E+00 
    1.1827883328658819E+00 
    1.2053131456632320E+00 
    1.2034243150924273E+00 
    1.1812568853154539E+00 
    1.1797977329902190E+00 
    1.2016320723966687E+00 
    1.1999412242780896E+00 
    1.1784159333879534E+00 
    1.1771160273764376E+00 
    1.1983560299274008E+00 
    1.1968802526586193E+00 
    1.1759020785046002E+00 
    1.1747777087574023E+00 
    1.1955172061893229E+00 
    1.1942697959312627E+00 
    1.1737461309050219E+00 
    1.1728101775908697E+00 
    1.1931405556358605E+00 
    1.1921316797132939E+00 
    1.1719723272963380E+00 
    1.1712347273122685E+00 
    1.1912450515147657E+00 
    1.1904822678369313E+00 
    1.1705992138378121E+00 
    1.1700673293167065E+00 
    1.1898446598765051E+00 
    1.1893333108323876E+00 
    1.1696403371092177E+00 
    1.1693192335853504E+00 
    1.1889490703226682E+00 
    1.1886925657545924E+00 
    1.1691047577115499E+00 
    1.1689973981892325E+00 
    1.1885642107570222E+00 
    1.1865696999998692E+00 
    1.1544793497864672E+00 
    1.1543708722474684E+00 
    1.1863045537568726E+00 
    1.1857958083568005E+00 
    1.1541620161967918E+00 
    1.1538642250582685E+00 
    1.1850753137704784E+00 
    1.1841790326468087E+00 
    1.1534871736552170E+00 
    1.1530350912231537E+00 
    1.1831471312601456E+00 
    1.1820230436760093E+00 
    1.1525059746719479E+00 
    1.1518947224969045E+00 
    1.1808494346978122E+00 
    1.1796599399159204E+00 
    1.1511985541412462E+00 
    1.1504206368946077E+00 
    1.1784685349164601E+00 
    1.1772649535285915E+00 
    1.1495692749965127E+00 
    1.1486545520667328E+00 
    1.1760258976001075E+00 
    1.1747356348952229E+00 
    1.1476861750256053E+00 
    1.1466733583174196E+00 
    1.1733955819902540E+00 
    1.1720170636499270E+00 
    1.1456251235143939E+00 
    1.1445502520086372E+00 
    1.1706122480361218E+00 
    1.1691921335776785E+00 
    1.1434571874862387E+00 
    1.1423539984365636E+00 
    1.1677669599305800E+00 
    1.1663462563895783E+00 
    1.1412483549441925E+00 
    1.1401475146100428E+00 
    1.1649388618291858E+00 
    1.1635529558079007E+00 
    1.1390583161313541E+00 
    1.1379871786634033E+00 
    1.1621960901800343E+00 
    1.1608752208749287E+00 
    1.1369401055208721E+00 
    1.1359226910839064E+00 
    1.1595967393438438E+00 
    1.1583665032865493E+00 
    1.1349401300094482E+00 
    1.1339972280308268E+00 
    1.1571898663540749E+00 
    1.1560717065903112E+00 
    1.1330984137712670E+00 
    1.1322477511097384E+00 
    1.1550164534286875E+00 
    1.1540281131041836E+00 
    1.1314489517275579E+00 
    1.1307053875365252E+00 
    1.1531102923773004E+00 
    1.1522662204964844E+00 
    1.1300201027479404E+00 
    1.1293958253894487E+00 
    1.1514987693496681E+00 
    1.1508104717747536E+00 
    1.1288349781154023E+00 
    1.1283396881880372E+00 
    1.1502035380136151E+00 
    1.1496798703051669E+00 
    1.1279117965324497E+00 
    1.1275528657892928E+00 
    1.1492410756207248E+00 
    1.1488884765498266E+00 
    1.1272641873060649E+00 
    1.1270467870216450E+00 
    1.1486231203473654E+00 
    1.1484457861536774E+00 
    1.1269014302098979E+00 
    1.1268286250573232E+00 
    1.1483569903985804E+00 
    1.1261388011651277E+00 
    1.0988233513453924E+00 
    1.0987702295533237E+00 
    1.1260790686542415E+00 
    1.1259554889969450E+00 
    1.0986636492646140E+00 
    1.0985032905118834E+00 
    1.1257636820592993E+00 
    1.1255012477785804E+00 
    1.0982892014365870E+00 
    1.0980219852091360E+00 
    1.1251678108571104E+00 
    1.1247646364734374E+00 
    1.0977028657580077E+00 
    1.0973336830849063E+00 
    1.1242941779542044E+00 
    1.1237598410722196E+00 
    1.0969168601111101E+00 
    1.0964553571826949E+00 
    1.1231659448795861E+00 
    1.1225176389567590E+00 
    1.0959526102380195E+00 
    1.0954124510973466E+00 
    1.1218206723126427E+00 
    1.1210811398146743E+00 
    1.0948390204646243E+00 
    1.0942366855473324E+00 
    1.1203053157306182E+00 
    1.1194995504062113E+00 
    1.0936099666402941E+00 
    1.0929634725002562E+00 
    1.1186701861475778E+00 
    1.1178234866675718E+00 
    1.0923018440293517E+00 
    1.0916297058511621E+00 
    1.1169655813695218E+00 
    1.1161024219166042E+00 
    1.0909516251626055E+00 
    1.0902720771484966E+00 
    1.1152397488363288E+00 
    1.1143830663474679E+00 
    1.0895954162238319E+00 
    1.0889258523871479E+00 
    1.1135376238925849E+00 
    1.1127084031111640E+00 
    1.0882674320098995E+00 
    1.0876240224404188E+00 
    1.1119001091988991E+00 
    1.1111171657739818E+00 
    1.0869992998594900E+00 
    1.0863967398835286E+00 
    1.1103637125169674E+00 
    1.1096436049719114E+00 
    1.0858196104680682E+00 
    1.0852709667173606E+00 
    1.1089604159973043E+00 
    1.1083174384394485E+00 
    1.0847536472546604E+00 
    1.0842702718520116E+00 
    1.1077176886712603E+00 
    1.1071639106984703E+00 
    1.0838232400581171E+00 
    1.0834147305984383E+00 
    1.1066585805847684E+00 
    1.1062039109892314E+00 
    1.0830467013533303E+00 
    1.0827208897481628E+00 
    1.1058018556446667E+00 
    1.1054541136354143E+00 
    1.0824388134143765E+00 
    1.0822017710026648E+00 
    1.1051621333585613E+00 
    1.1049271160742244E+00 
    1.0820108430493087E+00 
    1.0818668928144828E+00 
    1.1047500189691946E+00 
    1.1046315576743908E+00 
    1.0817705670274256E+00 
    1.0817222964880306E+00 
    1.1045722081907332E+00 
    1.0720397095442231E+00 
    1.0456897972565975E+00 
    1.0456547207517712E+00 
    1.0719963365928096E+00 
    1.0719097359294512E+00 
    1.0455847628096799E+00 
    1.0454803203170875E+00 
    1.0717802412445530E+00 
    1.0716084337256686E+00 
    1.0453420024429945E+00 
    1.0451706409096795E+00 
    1.0713951925639598E+00 
    1.0711417273031609E+00 
    1.0449672970382102E+00 
    1.0447332638357234E+00 
    1.0708495912233731E+00 
    1.0705206786961967E+00 
    1.0444700624873626E+00 
    1.0441794333278780E+00 
    1.0701572096484127E+00 
    1.0697617034792535E+00 
    1.0438633217959623E+00 
    1.0435238601634302E+00 
    1.0693369448025476E+00 
    1.0688859439602743E+00 
    1.0431633460207717E+00 
    1.0427842185595311E+00 
    1.0684118952615163E+00 
    1.0679181352043758E+00 
    1.0423890336247699E+00 
    1.0419804383714280E+00 
    1.0674081021616040E+00 
    1.0668852984639847E+00 
    1.0415611461974807E+00 
    1.0411339124702335E+00 
    1.0663532554364801E+00 
    1.0658155016641331E+00 
    1.0407015114210794E+00 
    1.0402667144634272E+00 
    1.0652755345662448E+00 
    1.0647367952204148E+00 
    1.0398322700892793E+00 
    1.0394008854209513E+00 
    1.0642026462873579E+00 
    1.0636763528309634E+00 
    1.0389752094335056E+00 
    1.0385578178179595E+00 
    1.0631610657964214E+00 
    1.0626598078953264E+00 
    1.0381511994226638E+00 
    1.0377577441879584E+00 
    1.0621754616450816E+00 
    1.0617107593167050E+00 
    1.0373797324751899E+00 
    1.0370193256835614E+00 
    1.0612682745573438E+00 
    1.0608504154693594E+00 
    1.0366785580456177E+00 
    1.0363593294931555E+00 
    1.0604594189452194E+00 
    1.0600973460756065E+00 
    1.0360633994890442E+00 
    1.0357923817260579E+00 
    1.0597660784663987E+00 
    1.0594673153180210E+00 
    1.0355477396007573E+00 
    1.0353307823782467E+00 
    1.0592025711378388E+00 
    1.0589731739725827E+00 
    1.0351426619719564E+00 
    1.0349843702711776E+00 
    1.0587802640632094E+00 
    1.0586247928390931E+00 
    1.0348567369577715E+00 
    1.0347604277621385E+00 
    1.0585075221820874E+00 
    1.0584290239038374E+00 
    1.0346959431171190E+00 
    1.0346636171769710E+00 
    1.0583896793919001E+00 
    1.0196906500165508E+00 
    9.9397881010749545E-01 
    9.9395465136785910E-01 
    1.0196619192833796E+00 
    1.0196046351949211E+00 
    9.9390648659849490E-01 
    9.9383462071015061E-01 
    1.0195191532046293E+00 
    1.0194060077525395E+00 
    9.9373950969714031E-01 
    9.9362175874332337E-01 
    1.0192659126369441E+00 
    1.0190997600834373E+00 
    9.9348211935983111E-01 
    9.9332148538209764E-01 
    1.0189086179068134E+00 
    1.0186937243897702E+00 
    9.9314088770286890E-01 
    9.9294148768251356E-01 
    1.0184564807316583E+00 
    1.0181984411188389E+00 
    9.9272456924612662E-01 
    9.9249152973995647E-01 
    1.0179213006255787E+00 
    1.0176268812670959E+00 
    9.9224386967201839E-01 
    9.9198318150032272E-01 
    1.0173171165927530E+00 
    1.0169940352309759E+00 
    9.9171113765610153E-01 
    9.9142947799978065E-01 
    1.0166597437873071E+00 
    1.0163164094639794E+00 
    9.9113999690638588E-01 
    9.9084453016722451E-01 
    1.0159662427230614E+00 
    1.0156114802630103E+00 
    9.9054494187873621E-01 
    9.9024311146971011E-01 
    1.0152543685255806E+00 
    1.0148971478999540E+00 
    9.8994092099660702E-01 
    9.8964024281502139E-01 
    1.0145420377457310E+00 
    1.0141912223170573E+00 
    9.8934292771447552E-01 
    9.8905079358449066E-01 
    1.0138468376369971E+00 
    1.0135109593440916E+00 
    9.8876561466268076E-01 
    9.8848911140066587E-01 
    1.0131855915114700E+00 
    1.0128726564222803E+00 
    9.8822294097095786E-01 
    9.8796868842754382E-01 
    1.0125739852729323E+00 
    1.0122913097670601E+00 
    9.8772785852454004E-01 
    9.8750186819080343E-01 
    1.0120262545575847E+00 
    1.0117803304912301E+00 
    9.8729203965355683E-01 
    9.8709959420067894E-01 
    1.0115549286088610E+00 
    1.0113513148555908E+00 
    9.8692564656911030E-01 
    9.8677119994565166E-01 
    1.0111706254564514E+00 
    1.0110138629162122E+00 
    9.8663714156605387E-01 
    9.8652423889861940E-01 