# vtk DataFile Version 2.0
Pressure Field Data 
ASCII 
DATASET UNSTRUCTURED_GRID 

POINTS 1681 double 

    0.0000000000000000E+00     0.0000000000000000E+00     0.0000000000000000E+00 
    1.0000000000000000E+00     0.0000000000000000E+00     0.0000000000000000E+00 
    1.0000000000000000E+00     1.0000000000000000E+00     0.0000000000000000E+00 
    0.0000000000000000E+00     1.0000000000000000E+00     0.0000000000000000E+00 
    5.2499999999875258E-01     0.0000000000000000E+00     0.0000000000000000E+00 
    7.4999999999856765E-02     0.0000000000000000E+00     0.0000000000000000E+00 
    1.2499999999975850E-01     0.0000000000000000E+00     0.0000000000000000E+00 
    1.7499999999962990E-01     0.0000000000000000E+00     0.0000000000000000E+00 
    2.2499999999948389E-01     0.0000000000000000E+00     0.0000000000000000E+00 
    2.7499999999933789E-01     0.0000000000000000E+00     0.0000000000000000E+00 
    3.2499999999919210E-01     0.0000000000000000E+00     0.0000000000000000E+00 
    3.7499999999904610E-01     0.0000000000000000E+00     0.0000000000000000E+00 
    4.2499999999890020E-01     0.0000000000000000E+00     0.0000000000000000E+00 
    4.7499999999875958E-01     0.0000000000000000E+00     0.0000000000000000E+00 
    2.4999999999949701E-02     0.0000000000000000E+00     0.0000000000000000E+00 
    5.7499999999887907E-01     0.0000000000000000E+00     0.0000000000000000E+00 
    6.2499999999901101E-01     0.0000000000000000E+00     0.0000000000000000E+00 
    6.7499999999914273E-01     0.0000000000000000E+00     0.0000000000000000E+00 
    7.2499999999927467E-01     0.0000000000000000E+00     0.0000000000000000E+00 
    7.7499999999940661E-01     0.0000000000000000E+00     0.0000000000000000E+00 
    8.2499999999953844E-01     0.0000000000000000E+00     0.0000000000000000E+00 
    8.7499999999967026E-01     0.0000000000000000E+00     0.0000000000000000E+00 
    9.2499999999980220E-01     0.0000000000000000E+00     0.0000000000000000E+00 
    9.7499999999993414E-01     0.0000000000000000E+00     0.0000000000000000E+00 
    5.4999999999881310E-01     0.0000000000000000E+00     0.0000000000000000E+00 
    9.9999999999814140E-02     0.0000000000000000E+00     0.0000000000000000E+00 
    1.4999999999970290E-01     0.0000000000000000E+00     0.0000000000000000E+00 
    1.9999999999955689E-01     0.0000000000000000E+00     0.0000000000000000E+00 
    2.4999999999941089E-01     0.0000000000000000E+00     0.0000000000000000E+00 
    2.9999999999926502E-01     0.0000000000000000E+00     0.0000000000000000E+00 
    3.4999999999911913E-01     0.0000000000000000E+00     0.0000000000000000E+00 
    3.9999999999897312E-01     0.0000000000000000E+00     0.0000000000000000E+00 
    4.4999999999882723E-01     0.0000000000000000E+00     0.0000000000000000E+00 
    4.9999999999869210E-01     0.0000000000000000E+00     0.0000000000000000E+00 
    4.9999999999899403E-02     0.0000000000000000E+00     0.0000000000000000E+00 
    5.9999999999894504E-01     0.0000000000000000E+00     0.0000000000000000E+00 
    6.4999999999907687E-01     0.0000000000000000E+00     0.0000000000000000E+00 
    6.9999999999920870E-01     0.0000000000000000E+00     0.0000000000000000E+00 
    7.4999999999934064E-01     0.0000000000000000E+00     0.0000000000000000E+00 
    7.9999999999947247E-01     0.0000000000000000E+00     0.0000000000000000E+00 
    8.4999999999960441E-01     0.0000000000000000E+00     0.0000000000000000E+00 
    8.9999999999973623E-01     0.0000000000000000E+00     0.0000000000000000E+00 
    9.4999999999986817E-01     0.0000000000000000E+00     0.0000000000000000E+00 
    1.0000000000000000E+00     5.2499999999875258E-01     0.0000000000000000E+00 
    1.0000000000000000E+00     7.4999999999856765E-02     0.0000000000000000E+00 
    1.0000000000000000E+00     1.2499999999975850E-01     0.0000000000000000E+00 
    1.0000000000000000E+00     1.7499999999962990E-01     0.0000000000000000E+00 
    1.0000000000000000E+00     2.2499999999948389E-01     0.0000000000000000E+00 
    1.0000000000000000E+00     2.7499999999933789E-01     0.0000000000000000E+00 
    1.0000000000000000E+00     3.2499999999919210E-01     0.0000000000000000E+00 
    1.0000000000000000E+00     3.7499999999904610E-01     0.0000000000000000E+00 
    1.0000000000000000E+00     4.2499999999890020E-01     0.0000000000000000E+00 
    1.0000000000000000E+00     4.7499999999875958E-01     0.0000000000000000E+00 
    1.0000000000000000E+00     2.4999999999949701E-02     0.0000000000000000E+00 
    1.0000000000000000E+00     5.7499999999887907E-01     0.0000000000000000E+00 
    1.0000000000000000E+00     6.2499999999901101E-01     0.0000000000000000E+00 
    1.0000000000000000E+00     6.7499999999914273E-01     0.0000000000000000E+00 
    1.0000000000000000E+00     7.2499999999927467E-01     0.0000000000000000E+00 
    1.0000000000000000E+00     7.7499999999940661E-01     0.0000000000000000E+00 
    1.0000000000000000E+00     8.2499999999953844E-01     0.0000000000000000E+00 
    1.0000000000000000E+00     8.7499999999967026E-01     0.0000000000000000E+00 
    1.0000000000000000E+00     9.2499999999980220E-01     0.0000000000000000E+00 
    1.0000000000000000E+00     9.7499999999993414E-01     0.0000000000000000E+00 
    1.0000000000000000E+00     5.4999999999881310E-01     0.0000000000000000E+00 
    1.0000000000000000E+00     9.9999999999814140E-02     0.0000000000000000E+00 
    1.0000000000000000E+00     1.4999999999970290E-01     0.0000000000000000E+00 
    1.0000000000000000E+00     1.9999999999955689E-01     0.0000000000000000E+00 
    1.0000000000000000E+00     2.4999999999941089E-01     0.0000000000000000E+00 
    1.0000000000000000E+00     2.9999999999926502E-01     0.0000000000000000E+00 
    1.0000000000000000E+00     3.4999999999911913E-01     0.0000000000000000E+00 
    1.0000000000000000E+00     3.9999999999897312E-01     0.0000000000000000E+00 
    1.0000000000000000E+00     4.4999999999882723E-01     0.0000000000000000E+00 
    1.0000000000000000E+00     4.9999999999869210E-01     0.0000000000000000E+00 
    1.0000000000000000E+00     4.9999999999899403E-02     0.0000000000000000E+00 
    1.0000000000000000E+00     5.9999999999894504E-01     0.0000000000000000E+00 
    1.0000000000000000E+00     6.4999999999907687E-01     0.0000000000000000E+00 
    1.0000000000000000E+00     6.9999999999920870E-01     0.0000000000000000E+00 
    1.0000000000000000E+00     7.4999999999934064E-01     0.0000000000000000E+00 
    1.0000000000000000E+00     7.9999999999947247E-01     0.0000000000000000E+00 
    1.0000000000000000E+00     8.4999999999960441E-01     0.0000000000000000E+00 
    1.0000000000000000E+00     8.9999999999973623E-01     0.0000000000000000E+00 
    1.0000000000000000E+00     9.4999999999986817E-01     0.0000000000000000E+00 
    4.7500000000196618E-01     1.0000000000000000E+00     0.0000000000000000E+00 
    9.2499999999968763E-01     1.0000000000000000E+00     0.0000000000000000E+00 
    8.7499999999961831E-01     1.0000000000000000E+00     0.0000000000000000E+00 
    8.2499999999982654E-01     1.0000000000000000E+00     0.0000000000000000E+00 
    7.7500000000017355E-01     1.0000000000000000E+00     0.0000000000000000E+00 
    7.2500000000052045E-01     1.0000000000000000E+00     0.0000000000000000E+00 
    6.7500000000086724E-01     1.0000000000000000E+00     0.0000000000000000E+00 
    6.2500000000121403E-01     1.0000000000000000E+00     0.0000000000000000E+00 
    5.7500000000156093E-01     1.0000000000000000E+00     0.0000000000000000E+00 
    5.2500000000189684E-01     1.0000000000000000E+00     0.0000000000000000E+00 
    9.7499999999989595E-01     1.0000000000000000E+00     0.0000000000000000E+00 
    4.2500000000176902E-01     1.0000000000000000E+00     0.0000000000000000E+00 
    3.7500000000156092E-01     1.0000000000000000E+00     0.0000000000000000E+00 
    3.2500000000135282E-01     1.0000000000000000E+00     0.0000000000000000E+00 
    2.7500000000114472E-01     1.0000000000000000E+00     0.0000000000000000E+00 
    2.2500000000093659E-01     1.0000000000000000E+00     0.0000000000000000E+00 
    1.7500000000072849E-01     1.0000000000000000E+00     0.0000000000000000E+00 
    1.2500000000052039E-01     1.0000000000000000E+00     0.0000000000000000E+00 
    7.5000000000312261E-02     1.0000000000000000E+00     0.0000000000000000E+00 
    2.5000000000104109E-02     1.0000000000000000E+00     0.0000000000000000E+00 
    4.5000000000187301E-01     1.0000000000000000E+00     0.0000000000000000E+00 
    8.9999999999958358E-01     1.0000000000000000E+00     0.0000000000000000E+00 
    8.4999999999965303E-01     1.0000000000000000E+00     0.0000000000000000E+00 
    8.0000000000000004E-01     1.0000000000000000E+00     0.0000000000000000E+00 
    7.5000000000034706E-01     1.0000000000000000E+00     0.0000000000000000E+00 
    7.0000000000069384E-01     1.0000000000000000E+00     0.0000000000000000E+00 
    6.5000000000104063E-01     1.0000000000000000E+00     0.0000000000000000E+00 
    6.0000000000138742E-01     1.0000000000000000E+00     0.0000000000000000E+00 
    5.5000000000173432E-01     1.0000000000000000E+00     0.0000000000000000E+00 
    5.0000000000205946E-01     1.0000000000000000E+00     0.0000000000000000E+00 
    9.4999999999979179E-01     1.0000000000000000E+00     0.0000000000000000E+00 
    4.0000000000166491E-01     1.0000000000000000E+00     0.0000000000000000E+00 
    3.5000000000145681E-01     1.0000000000000000E+00     0.0000000000000000E+00 
    3.0000000000124871E-01     1.0000000000000000E+00     0.0000000000000000E+00 
    2.5000000000104061E-01     1.0000000000000000E+00     0.0000000000000000E+00 
    2.0000000000083251E-01     1.0000000000000000E+00     0.0000000000000000E+00 
    1.5000000000062441E-01     1.0000000000000000E+00     0.0000000000000000E+00 
    1.0000000000041630E-01     1.0000000000000000E+00     0.0000000000000000E+00 
[...]
CELL_DATA 1600 
SCALARS Pressure double 1 
LOOKUP_TABLE default 

    1.0706828281811074E+00 
    1.0243196920470476E+00 
    1.0218967518183941E+00 
    1.0549750815309304E+00 
    1.0423911940459956E+00 
    1.0182282439621251E+00 
    1.0139941916734305E+00 
    1.0320799659495221E+00 
    1.0234467845246176E+00 
    1.0095773058959816E+00 
    1.0051886347673975E+00 
    1.0160791850617448E+00 
    1.0096864401710373E+00 
    1.0009396906090664E+00 
    9.9688471684313629E-01 
    1.0040601058185841E+00 
    9.9904815779548517E-01 
    9.9304547430524448E-01 
    9.8942575109625341E-01 
    9.9453785457196564E-01 
    9.9044423767141843E-01 
    9.8601981800734018E-01 
    9.8281731363377101E-01 
    9.8670230998984410E-01 
    9.8326164090858315E-01 
    9.7980602510031178E-01 
    9.7697343145180571E-01 
    9.8008259218210514E-01 
    9.7713364003410930E-01 
    9.7430752333402437E-01 
    9.7179720338283537E-01 
    9.7438944831703644E-01 
    9.7182946303305984E-01 
    9.6943244758070279E-01 
    9.6720433400400896E-01 
    9.6943687353533670E-01 
    9.6719783499256051E-01 
    9.6510500142099798E-01 
    9.6312757401945082E-01 
    9.6510087940204092E-01 
    9.6313646438627365E-01 
    9.6126607297495115E-01 
    9.5951532634680281E-01 
    9.6129662390674708E-01 
    9.5957469525640082E-01 
    9.5787088336129811E-01 
    9.5632893598471114E-01 
    9.5796510379175881E-01 
    9.5646319184773587E-01 
    9.5488624888467177E-01 
    9.5354009787563998E-01 
    9.5506508180871164E-01 
    9.5376756582942634E-01 
    9.5228821640498640E-01 
    9.5112874934846936E-01 
    9.5256801649698197E-01 
    9.5146431397461506E-01 
    9.5006021319596101E-01 
    9.4908146146663397E-01 
    9.5045478593085886E-01 
    9.4953815671448216E-01 
    9.4819165362859281E-01 
    9.4739022421915275E-01 
    9.4871350121385323E-01 
    9.4798019478651419E-01 
    9.4667684428653154E-01 
    9.4605135442853761E-01 
    9.4733783844627273E-01 
    9.4678610668949303E-01 
    9.4551361605479856E-01 
    9.4506315627900928E-01 
    9.4632439484975805E-01 
    9.4595101063154163E-01 
    9.4469834901276961E-01 
    9.4441469040640136E-01 
    9.4566147374615295E-01 
    9.4544715892038378E-01 
    9.4420346077616368E-01 
    9.4408372773593707E-01 
    9.4532611828760227E-01 
    1.0006100699983389E+00 
    9.8353438040223684E-01 
    9.8316382553348092E-01 
    9.9983843872096279E-01 
    9.9841998938875165E-01 
    9.8244700402380780E-01 
    9.8142562234196573E-01 
    9.9651166984122463E-01 
    9.9425971067439212E-01 
    9.8014935763384292E-01 
    9.7866916067825027E-01 
    9.9178549592488852E-01 
    9.8918359488517305E-01 
    9.7703302978012441E-01 
    9.7528377475034145E-01 
    9.8652470714616836E-01 
    9.8386008487873211E-01 
    9.7345815862490626E-01 
    9.7158689392429010E-01 
    9.8122591794949876E-01 
    9.7864710784785824E-01 
    9.6969511071109737E-01 
    9.6780304186214494E-01 
    9.7614029392193358E-01 
    9.7371618120697012E-01 
    9.6592676902401842E-01 
    9.6407894091256052E-01 
    9.7138128343138785E-01 
    9.6913920392921149E-01 
    9.6226941992706649E-01 
    9.6050584015221141E-01 
    9.6699156402601760E-01 
    9.6493866858260247E-01 
    9.5879407532292715E-01 
    9.5713862340645062E-01 
    9.6297997863850371E-01 
    9.6111444409343527E-01 
    9.5554291801027658E-01 
    9.5400957776807205E-01 
    9.5934073571455125E-01 
    9.5765740523829768E-01 
    9.5254060439895094E-01 
    9.5113753901510512E-01 
    9.5606299443544818E-01 
    9.5455610817505721E-01 
    9.4980158489612165E-01 
    9.4853370358820044E-01 
    9.5313546226534840E-01 
    9.5179991376459683E-01 
    9.4733468993759928E-01 
    9.4620523057409511E-01 
    9.5054847922787167E-01 
    9.4938034474368205E-01 
    9.4514594942417807E-01 
    9.4415744302909521E-01 
    9.4829487042915062E-01 
    9.4729159113093586E-01 
    9.4324030771318457E-01 
    9.4239515987623190E-01 
    9.4637021424137524E-01 
    9.4553061447647846E-01 
    9.4162264958611852E-01 
    9.4092346544089611E-01 
    9.4477282341708990E-01 
    9.4409700648779482E-01 
    9.4029832315572837E-01 
    9.3974791600168228E-01 
    9.4350340642556330E-01 
    9.4299219876152618E-01 
    9.3927277101085282E-01 
    9.3887288428660043E-01 
    9.4256313357653321E-01 
    9.4221470616524661E-01 
    9.3854687904327860E-01 
    9.3829023751698304E-01 
    9.4194241236889087E-01 
    9.4173747455815382E-01 
    9.3809411171791846E-01 
    9.3798131760134462E-01 
    9.4162061971538380E-01 
    9.6925813745011691E-01 
    9.5635873728238707E-01 
    9.5621596892976946E-01 
    9.6904050676618936E-01 
    9.6861272310749857E-01 
    9.5593349139972117E-01 
    9.5551759769854605E-01 
    9.6798929973989378E-01 
    9.6718962229149363E-01 
    9.5497715838209563E-01 
    9.5432299471539195E-01 
    9.6623595813402463E-01 
    9.6515171550543355E-01 
    9.5356722676510619E-01 
    9.5272266977667341E-01 
    9.6396009587153497E-01 
    9.6268315475361532E-01 
    9.5180232069869752E-01 
    9.5081895197538902E-01 
    9.6134122049319104E-01 
    9.5995259573759006E-01 
    9.4978481251819424E-01 
    9.4871142541915621E-01 
    9.5853346511468307E-01 
    9.5709794244814461E-01 
    9.4760946694174208E-01 
    9.4648870995123280E-01 
    9.5565820458791562E-01 
    9.5422467255873811E-01 
    9.4535801580108414E-01 
    9.4422536070929708E-01 
    9.5280621248304653E-01 
    9.5141033806266539E-01 
    9.4309788512065207E-01 
    9.4198195701576559E-01 
    9.5004340338358739E-01 
    9.4871077978532070E-01 
    9.4088324235700760E-01 
    9.3980677774930221E-01 
    9.4741701392962807E-01 
    9.4616596640830530E-01 
    9.3875704191805842E-01 
    9.3773802378987181E-01 
    9.4496093157895911E-01 
    9.4380474007347070E-01 
    9.3675328584875506E-01 
    9.3580602208211239E-01 
    9.4269984578161481E-01 
    9.4164839921265708E-01 
    9.3489911027485428E-01 
    9.3403515869744891E-01 
    9.4065230907650244E-01 
    9.3971329376263657E-01 
    9.3321654739283899E-01 
    9.3244546430855568E-01 
    9.3883292415659858E-01 
    9.3801265890653751E-01 
    9.3172393642096041E-01 
    9.3105385565766352E-01 
    9.3725387274790817E-01 
    9.3655787753159347E-01 
    9.3043699852957040E-01 
    9.2987503602501964E-01 
    9.3592593334881646E-01 
    9.3535924129365022E-01 
    9.2936952405020645E-01 
    9.2892184896980656E-01 
    9.3485889438982195E-01 
    9.3442572851580752E-01 
    9.2853306786122836E-01 
    9.2820351558451886E-01 
    9.3405994587510222E-01 
    9.3376025533956941E-01 
    9.2793192251833101E-01 
    9.2771355976736802E-01 
    9.3352206907409563E-01 
    9.3333642666148342E-01 
    9.2753936161952211E-01 
    9.2743698646609563E-01 
    9.3322852202738149E-01 
    9.4416245359717721E-01 
    9.3230181163892833E-01 
    9.3222777712949467E-01 
    9.4406207829117739E-01 
    9.4386283109128644E-01 
    9.3208055113012200E-01 
    9.3186196879019512E-01 
    9.4356791408147767E-01 
    9.4318196506891794E-01 
    9.3157472544815245E-01 
    9.3122228559719233E-01 
    9.4271083266417088E-01 
    9.4216131644372902E-01 
    9.3080876927900880E-01 
    9.3033882727019457E-01 
    9.4154089986331069E-01 
    9.4085749624448911E-01 
    9.2981751380912192E-01 
    9.2925016379263148E-01 
    9.4011922149556748E-01 
    9.3933420124184341E-01 
    9.2864227954773260E-01 
    9.2799943052508704E-01 
    9.3851041518730649E-01 
    9.3765557798284316E-01 
    9.2732716770489643E-01 
    9.2663095323691202E-01 
    9.3677705356172825E-01 
    9.3588179861488086E-01 
    9.2591610488149700E-01 
    9.2518775416230037E-01 
    9.3497633036585215E-01 
    9.3406671382979600E-01 
    9.2445081674248075E-01 
    9.2370997334431981E-01 
    9.3315856410083720E-01 
    9.3225705975368689E-01 
    9.2296965949428256E-01 
    9.2223406244496464E-01 
    9.3136696405784536E-01 
    9.3049265131329750E-01 
    9.2150712376243260E-01 
    9.2079254624110818E-01 
    9.2963813618118740E-01 
    9.2880710437828828E-01 
    9.2009380399530205E-01 
    9.1941415475970167E-01 
    9.2800294352053991E-01 
    9.2722877323695818E-01 
    9.1875665359799674E-01 
    9.1812416735848079E-01 
    9.2648747393215003E-01 
    9.2578171375199836E-01 
    9.1751938931407018E-01 
    9.1694485345642840E-01 
    9.2511397339015122E-01 
    9.2448656831924680E-01 
    9.1640294782079379E-01 
    9.1589592584701585E-01 
    9.2390166771403559E-01 
    9.2336130839256725E-01 
    9.1542591371599769E-01 
    9.1499490871971334E-01 
    9.2286739952549801E-01 
    9.2242170707580728E-01 
    9.1460475634375815E-01 
    9.1425707664805322E-01 
    9.2202579048499722E-01 
    9.2168082924761296E-01 
    9.1395307607517129E-01 
    9.1369311744593507E-01 
    9.2138721162146975E-01 
    9.2114362665691873E-01 
    9.1347578206422786E-01 
    9.1329584862150059E-01 
    9.2094513994884875E-01 
    9.2078275275105070E-01 
    9.1314486668649719E-01 
    9.1305509320396949E-01 
    9.2068647647302038E-01 
    9.2055773898851867E-01 
    9.0879175636652920E-01 
    9.0874719452581887E-01 
    9.2050113175599935E-01 
    9.2038844152336896E-01 
    9.0865842585679235E-01 
    9.0852623313875702E-01 
    9.2022082239109193E-01 
    9.1999997958424728E-01 
    9.0835177329592565E-01 
    9.0813655813884542E-01 
    9.1972812899299206E-01 
    9.1940794284869309E-01 
    9.0788242623392446E-01 
    9.0759150927551924E-01 
    9.1904248716681636E-01 
    9.1863515493175973E-01 
    9.0726619498134298E-01 
    9.0690908816568305E-01 
    9.1818959834642444E-01 
    9.1770966289416256E-01 
    9.0652297142703564E-01 
    9.0611076667157908E-01 
    9.1719932535762438E-01 
    9.1666263733484110E-01 
    9.0567549846387085E-01 
    9.0522025996070132E-01 
    9.1610367522899472E-01 
    9.1552649719612667E-01 
    9.0474818195673390E-01 
    9.0426240536304892E-01 
    9.1493510713161352E-01 
    9.1433342546615148E-01 
    9.0376605725971659E-01 
    9.0326223051502874E-01 
    9.1372526632065154E-01 
    9.1311432042647889E-01 
    9.0275396684771503E-01 
    9.0224424312266127E-01 
    9.1250414313965533E-01 
    9.1189814685093795E-01 
    9.0173596061196171E-01 
    9.0123193691713310E-01 
    9.1129959710468111E-01 
    9.1071161177584714E-01 
    9.0073490022996683E-01 
    9.0024748560294954E-01 
    9.1013716270551182E-01 
    9.0957907925040449E-01 
    8.9977223289850849E-01 
    8.9931158607959216E-01 
    9.0904005325009296E-01 
    9.0852264493990365E-01 
    8.9886789347505647E-01 
    8.9844340856655336E-01 
    9.0802928930768334E-01 
    9.0756230223757528E-01 
    8.9804029061572932E-01 
    8.9766060386889124E-01 
    9.0712388532452448E-01 
    9.0671612699944459E-01 
    8.9730631258697247E-01 
    8.9697926540202844E-01 
    9.0634099434570270E-01 
    9.0600030195912240E-01 
    8.9668115370158907E-01 
    8.9641341038280997E-01 
    9.0569562653191471E-01 
    9.0542810193616030E-01 
    8.9617698139593394E-01 
    8.9597183638925226E-01 
    9.0519796687750653E-01 
    9.0500358069605080E-01 
    8.9579589095492329E-01 
    8.9564250360254127E-01 
    9.0483923992214566E-01 
    9.0469800900635333E-01 
    8.9550785814798750E-01 
    8.9543049728279334E-01 
    9.0461472291020217E-01 
    8.9691290944823099E-01 
    8.8486008816613282E-01 
    8.8483034697226692E-01 
    8.9687693000577828E-01 
    8.9680522942339846E-01 
    8.8477106426528107E-01 
    8.8468267157733871E-01 
    8.9669837335158020E-01 
    8.9655719446185733E-01 
    8.8456579963946602E-01 
    8.8442127334220277E-01 
    8.9638278280490868E-01 
    8.9617647017169733E-01 
    8.8425010245080415E-01 
    8.8405346978704957E-01 
    8.9593981077581941E-01 
    8.9567455942452467E-01 
    8.8383271763576676E-01 
    8.8358933289213903E-01 
    8.9538264806397583E-01 
    8.9506616147079077E-01 
    8.8332493138610590E-01 
    8.8304124177554844E-01 
    8.9472731277437123E-01 
    8.9436841940340617E-01 
    8.8274008936015580E-01 
    8.8242338012539245E-01 
    8.9399187995178064E-01 
    8.9360015235733858E-01 
    8.8209308528005226E-01 
    8.8175122650279569E-01 
    8.9319573368643435E-01 
    8.9278114172241296E-01 
    8.8139986206466658E-01 
    8.8104107394759279E-01 
    8.9235889847042094E-01 
    8.9193151561631068E-01 
    8.8067695603462903E-01 
    8.8030960340693143E-01 
    8.9150148191467726E-01 
    8.9107125242998153E-01 
    8.7994110274527559E-01 
    8.7957352379966935E-01 
    8.9064323951394431E-01 
    8.9021980536973755E-01 
    8.7920891185757621E-01 
    8.7884928110612015E-01 
    8.8980325602525367E-01 
    8.8939583650827392E-01 
    8.7849660874029478E-01 
    8.7815282960578278E-01 
    8.8899972697549989E-01 
    8.8861703947548532E-01 
    8.7781983105713957E-01 
    8.7749944750584952E-01 
    8.8824981487940069E-01 
    8.8790001919100492E-01 
    8.7719345370040869E-01 
    8.7690355480855919E-01 
    8.8756953769047886E-01 
    8.8726016353000869E-01 
    8.7663136910989736E-01 
    8.7637839394545802E-01 
    8.8697357300148971E-01 
    8.8671126990477100E-01 
    8.7614593465686408E-01 
    8.7593495544195854E-01 
    8.8647446201448798E-01 
    8.8626379714039361E-01 
    8.7574577216408578E-01 
    8.7557740912217830E-01 
    8.8607880902549285E-01 
    8.8591665941156073E-01 
    8.7542606859613215E-01 
    8.7528109259793707E-01 
    8.8576903119705575E-01 
    8.8563725559613393E-01 
    8.7515036516137013E-01 
    8.7508222727187279E-01 
    8.8556492775344275E-01 
    8.7259189555338057E-01 
    8.6008053208775814E-01 
    8.6005873884606165E-01 
    8.7256673652216921E-01 
    8.7251658091591811E-01 
    8.6001529036418534E-01 
    8.5995047453869922E-01 
    8.7244177388638533E-01 
    8.7234281536571123E-01 
    8.5986470432719053E-01 
    8.5975851605875664E-01 
    8.7222035728635661E-01 
    8.7207519770433317E-01 
    8.5963256546212041E-01 
    8.5948762236161536E-01 
    8.7190827311601371E-01 
    8.7172064950704464E-01 
    8.5932456444647365E-01 
    8.5914437033770519E-01 
    8.7151351246086495E-01 
    8.7128815658875214E-01 
    8.5894811212008337E-01 
    8.5873694748426954E-01 
    8.7104597451422672E-01 
    8.7078844562430235E-01 
    8.5851211161162388E-01 
    8.5827490892420144E-01 
    8.7051712478037302E-01 
    8.7023363116021857E-01 
    8.5802670481224630E-01 
    8.5776891744039774E-01 
    8.6993963737948432E-01 
    8.6963685901650334E-01 
    8.5750300972171745E-01 
    8.5723048153571368E-01 
    8.6932704463919674E-01 
    8.6901196640754197E-01 
    8.5695286225294298E-01 
    8.5667170361460232E-01 
    8.6869341130011068E-01 
    8.6837317298829930E-01 
    8.5638857300053584E-01 
    8.5610504710253343E-01 
    8.6805304435641273E-01 
    8.6773481063793390E-01 
    8.5582270599995125E-01 
    8.5554312760797224E-01 
    8.6742024310458288E-01 
    8.6711109319826074E-01 
    8.5526788242789520E-01 
    8.5499852845834701E-01 
    8.6680908692276093E-01 
    8.6651591918291371E-01 
    8.5473660599249124E-01 
    8.5448363175210362E-01 
    8.6623324750772102E-01 
    8.6596268406593158E-01 
    8.5424109121328817E-01 
    8.5401042663752957E-01 
    8.6570578370620677E-01 
    8.6546402308374693E-01 
    8.5379301531999308E-01 
    8.5359012620088759E-01 
    8.6523876007666956E-01 
    8.6503115086420623E-01 
    8.5340283066086164E-01 
    8.5323182089750860E-01 
    8.6484198012880786E-01 
    8.6467131666928188E-01 
    8.5307704123668215E-01 
    8.5293687311712740E-01 
    8.6451777950974418E-01 
    8.6437668700412562E-01 
    8.5280594844286617E-01 
    8.5266921115643168E-01 
    8.6423492324150197E-01 
    8.6410659267543877E-01 
    8.5254561221965075E-01 
    8.5248427916078739E-01 
    8.6404204115993866E-01 
    8.4730796561926758E-01 
    8.3426348400405004E-01 
    8.3424582488052557E-01 
    8.4728860938895578E-01 
    8.4725001856217608E-01 
    8.3421061735821866E-01 
    8.3415808535907521E-01 
    8.4719244259469773E-01 
    8.4711623601548458E-01 
    8.3408854470400673E-01 
    8.3400240201915299E-01 
    8.4702185720907697E-01 
    8.4690986553736447E-01 
    8.3390015248916072E-01 
    8.3378237682105938E-01 
    8.4678091744904715E-01 
    8.4663576189092982E-01 
    8.3364973766268291E-01 
    8.3350297559928133E-01 
    8.4647523518420575E-01 
    8.4630025547941312E-01 
    8.3334290480933193E-01 
    8.3317040844413015E-01 
    8.4611181688486858E-01 
    8.4591098335438364E-01 
    8.3298643378843851E-01 
    8.3279198725545767E-01 
    8.4569888241426749E-01 
    8.4547669880451426E-01 
    8.3258812926639247E-01 
    8.3237596906201872E-01 
    8.4524566810377100E-01 
    8.4500707040187739E-01 
    8.3215665949046824E-01 
    8.3193139181177289E-01 
    8.4476222407739654E-01 
    8.4451247973064836E-01 
    8.3170139055536041E-01 
    8.3146790846145180E-01 
    8.4425921431525308E-01 
    8.4400382550284103E-01 
    8.3123222153069332E-01 
    8.3099562419737139E-01 
    8.4374772630564199E-01 
    8.4349233996851702E-01 
    8.3075942462813968E-01 
    8.3052494012597877E-01 
    8.4323909512203121E-01 
    8.4298942115372788E-01 
    8.3029349257891072E-01 
    8.3006640381443320E-01 
    8.4274474368894237E-01 
    8.4250647993709360E-01 
    8.2984499055789462E-01 
    8.2963055834067423E-01 
    8.4227603336558077E-01 
    8.4205478650354593E-01 
    8.2942439292189185E-01 
    8.2922774605562077E-01 
    8.4184408918277320E-01 
    8.4164523623348431E-01 
    8.2904180875303957E-01 
    8.2886765794421091E-01 
    8.4145942191816181E-01 
    8.4128764584144222E-01 
    8.2870614928974473E-01 
    8.2855770366486736E-01 
    8.4113052216129824E-01 
    8.4098788835528870E-01 
    8.2842186323336819E-01 
    8.2829619381794273E-01 
    8.4085789342770945E-01 
    8.4073441556175899E-01 
    8.2817306657227630E-01 
    8.2803925338500250E-01 
    8.4060179328665230E-01 
    8.4048377359517168E-01 
    8.2792657846749018E-01 
    8.2787259388030743E-01 
    8.4042565583491347E-01 
    8.2094213552743356E-01 
    8.0734377667875135E-01 
    8.0732772530668551E-01 
    8.2092555444719262E-01 
    8.2089249606573544E-01 
    8.0729572252385218E-01 
    8.0724796763597739E-01 
    8.2084316824411707E-01 
    8.2077786264865649E-01 
    8.0718473972857674E-01 
    8.0710639626293168E-01 
    8.2069695357117955E-01 
    8.2060089603599995E-01 
    8.0701337136010820E-01 
    8.0690617357608063E-01 
    8.2049022327808985E-01 
    8.2036554377698401E-01 
    8.0678538329825933E-01 
    8.0665164983798898E-01 
    8.2022753794220504E-01 
    8.2007695451005003E-01 
    8.0650568826442359E-01 
    8.0634827601274806E-01 
    8.1991460669716176E-01 
    8.1974136814993126E-01 
    8.0618024929409826E-01 
    8.0600249933159818E-01 
    8.1955816872543064E-01 
    8.1936599013723832E-01 
    8.0581596844488501E-01 
    8.0562164600340547E-01 
    8.1916586149726089E-01 
    8.1895885478195274E-01 
    8.0542056426604736E-01 
    8.0521379412079641E-01 
    8.1874608024781248E-01 
    8.1852868181622940E-01 
    8.0500244073234861E-01 
    8.0478763909695339E-01 
    8.1830783244107186E-01 
    8.1808472946277022E-01 
    8.0457054949053397E-01 
    8.0435235277545414E-01 
    8.1786058993824018E-01 
    8.1763664591332008E-01 
    8.0413424549807089E-01 
    8.0391743465377696E-01 
    8.1741413956686981E-01 
    8.1719431808991372E-01 
    8.0370313190004616E-01 
    8.0349254682318927E-01 
    8.1697842804128695E-01 
    8.1676770868259596E-01 
    8.0328687853202541E-01 
    8.0308730419381824E-01 
    8.1656338330660250E-01 
    8.1636664654398439E-01 
    8.0289496179468955E-01 
    8.0271092171065828E-01 
    8.1617864346699298E-01 
    8.1600043191355054E-01 
    8.0253613640005983E-01 
    8.0237134768273821E-01 
    8.1583291110895739E-01 
    8.1567668442507668E-01 
    8.0221691241092707E-01 
    8.0207246253764053E-01 
    8.1553179176550339E-01 
    8.1539714161947041E-01 
    8.0193615538584795E-01 
    8.0180263437805066E-01 