# vtk DataFile Version 2.0
Pressure Field Data 
ASCII 
DATASET UNSTRUCTURED_GRID 

POINTS 1681 double 

    0.0000000000000000E+00     0.0000000000000000E+00     0.0000000000000000E+00 
    1.0000000000000000E+00     0.0000000000000000E+00     0.0000000000000000E+00 
    1.0000000000000000E+00     1.0000000000000000E+00     0.0000000000000000E+00 
    0.0000000000000000E+00     1.0000000000000000E+00     0.0000000000000000E+00 
    5.2499999999875258E-01     0.0000000000000000E+00     0.0000000000000000E+00 
    7.4999999999856765E-02     0.0000000000000000E+00     0.0000000000000000E+00 
    1.2499999999975850E-01     0.0000000000000000E+00     0.0000000000000000E+00 
    1.7499999999962990E-01     0.0000000000000000E+00     0.0000000000000000E+00 
    2.2499999999948389E-01     0.0000000000000000E+00     0.0000000000000000E+00 
    2.7499999999933789E-01     0.0000000000000000E+00     0.0000000000000000E+00 
    3.2499999999919210E-01     0.0000000000000000E+00     0.0000000000000000E+00 
    3.7499999999904610E-01     0.0000000000000000E+00     0.0000000000000000E+00 
    4.2499999999890020E-01     0.0000000000000000E+00     0.0000000000000000E+00 
    4.7499999999875958E-01     0.0000000000000000E+00     0.0000000000000000E+00 
    2.4999999999949701E-02     0.0000000000000000E+00     0.0000000000000000E+00 
    5.7499999999887907E-01     0.0000000000000000E+00     0.0000000000000000E+00 
    6.2499999999901101E-01     0.0000000000000000E+00     0.0000000000000000E+00 
    6.7499999999914273E-01     0.0000000000000000E+00     0.0000000000000000E+00 
    7.2499999999927467E-01     0.0000000000000000E+00     0.0000000000000000E+00 
    7.7499999999940661E-01     0.0000000000000000E+00     0.0000000000000000E+00 
    8.2499999999953844E-01     0.0000000000000000E+00     0.0000000000000000E+00 
    8.7499999999967026E-01     0.0000000000000000E+00     0.0000000000000000E+00 
    9.2499999999980220E-01     0.0000000000000000E+00     0.0000000000000000E+00 
    9.7499999999993414E-01     0.0000000000000000E+00     0.0000000000000000E+00 
    5.4999999999881310E-01     0.0000000000000000E+00     0.0000000000000000E+00 
    9.9999999999814140E-02     0.0000000000000000E+00     0.0000000000000000E+00 
    1.4999999999970290E-01     0.0000000000000000E+00     0.0000000000000000E+00 
    1.9999999999955689E-01     0.0000000000000000E+00     0.0000000000000000E+00 
    2.4999999999941089E-01     0.0000000000000000E+00     0.0000000000000000E+00 
    2.9999999999926502E-01     0.0000000000000000E+00     0.0000000000000000E+00 
    3.4999999999911913E-01     0.0000000000000000E+00     0.0000000000000000E+00 
    3.9999999999897312E-01     0.0000000000000000E+00     0.0000000000000000E+00 
    4.4999999999882723E-01     0.0000000000000000E+00     0.0000000000000000E+00 
    4.9999999999869210E-01     0.0000000000000000E+00     0.0000000000000000E+00 
    4.9999999999899403E-02     0.0000000000000000E+00     0.0000000000000000E+00 
    5.9999999999894504E-01     0.0000000000000000E+00     0.0000000000000000E+00 
    6.4999999999907687E-01     0.0000000000000000E+00     0.0000000000000000E+00 
    6.9999999999920870E-01     0.0000000000000000E+00     0.0000000000000000E+00 
    7.4999999999934064E-01     0.0000000000000000E+00     0.0000000000000000E+00 
    7.9999999999947247E-01     0.0000000000000000E+00     0.0000000000000000E+00 
    8.4999999999960441E-01     0.0000000000000000E+00     0.0000000000000000E+00 
    8.9999999999973623E-01     0.0000000000000000E+00     0.0000000000000000E+00 
    9.4999999999986817E-01     0.0000000000000000E+00     0.0000000000000000E+00 
    1.0000000000000000E+00     5.2499999999875258E-01     0.0000000000000000E+00 
    1.0000000000000000E+00     7.4999999999856765E-02     0.0000000000000000E+00 
    1.0000000000000000E+00     1.2499999999975850E-01     0.0000000000000000E+00 
    1.0000000000000000E+00     1.7499999999962990E-01     0.0000000000000000E+00 
    1.0000000000000000E+00     2.2499999999948389E-01     0.0000000000000000E+00 
    1.0000000000000000E+00     2.7499999999933789E-01     0.0000000000000000E+00 
    1.0000000000000000E+00     3.2499999999919210E-01     0.0000000000000000E+00 
    1.0000000000000000E+00     3.7499999999904610E-01     0.0000000000000000E+00 
    1.0000000000000000E+00     4.2499999999890020E-01     0.0000000000000000E+00 
    1.0000000000000000E+00     4.7499999999875958E-01     0.0000000000000000E+00 
    1.0000000000000000E+00     2.4999999999949701E-02     0.0000000000000000E+00 
    1.0000000000000000E+00     5.7499999999887907E-01     0.0000000000000000E+00 
    1.0000000000000000E+00     6.2499999999901101E-01     0.0000000000000000E+00 
    1.0000000000000000E+00     6.7499999999914273E-01     0.0000000000000000E+00 
    1.0000000000000000E+00     7.2499999999927467E-01     0.0000000000000000E+00 
    1.0000000000000000E+00     7.7499999999940661E-01     0.0000000000000000E+00 
    1.0000000000000000E+00     8.2499999999953844E-01     0.0000000000000000E+00 
    1.0000000000000000E+00     8.7499999999967026E-01     0.0000000000000000E+00 
    1.0000000000000000E+00     9.2499999999980220E-01     0.0000000000000000E+00 
    1.0000000000000000E+00     9.7499999999993414E-01     0.0000000000000000E+00 
    1.0000000000000000E+00     5.4999999999881310E-01     0.0000000000000000E+00 
    1.0000000000000000E+00     9.9999999999814140E-02     0.0000000000000000E+00 
    1.0000000000000000E+00     1.4999999999970290E-01     0.0000000000000000E+00 
    1.0000000000000000E+00     1.9999999999955689E-01     0.0000000000000000E+00 
    1.0000000000000000E+00     2.4999999999941089E-01     0.0000000000000000E+00 
    1.0000000000000000E+00     2.9999999999926502E-01     0.0000000000000000E+00 
    1.0000000000000000E+00     3.4999999999911913E-01     0.0000000000000000E+00 
    1.0000000000000000E+00     3.9999999999897312E-01     0.0000000000000000E+00 
    1.0000000000000000E+00     4.4999999999882723E-01     0.0000000000000000E+00 
    1.0000000000000000E+00     4.9999999999869210E-01     0.0000000000000000E+00 
    1.0000000000000000E+00     4.9999999999899403E-02     0.0000000000000000E+00 
    1.0000000000000000E+00     5.9999999999894504E-01     0.0000000000000000E+00 
    1.0000000000000000E+00     6.4999999999907687E-01     0.0000000000000000E+00 
    1.0000000000000000E+00     6.9999999999920870E-01     0.0000000000000000E+00 
    1.0000000000000000E+00     7.4999999999934064E-01     0.0000000000000000E+00 
    1.0000000000000000E+00     7.9999999999947247E-01     0.0000000000000000E+00 
    1.0000000000000000E+00     8.4999999999960441E-01     0.0000000000000000E+00 
    1.0000000000000000E+00     8.9999999999973623E-01     0.0000000000000000E+00 
    1.0000000000000000E+00     9.4999999999986817E-01     0.0000000000000000E+00 
    4.7500000000196618E-01     1.0000000000000000E+00     0.0000000000000000E+00 
    9.2499999999968763E-01     1.0000000000000000E+00     0.0000000000000000E+00 
    8.7499999999961831E-01     1.0000000000000000E+00     0.0000000000000000E+00 
    8.2499999999982654E-01     1.0000000000000000E+00     0.0000000000000000E+00 
    7.7500000000017355E-01     1.0000000000000000E+00     0.0000000000000000E+00 
    7.2500000000052045E-01     1.0000000000000000E+00     0.0000000000000000E+00 
    6.7500000000086724E-01     1.0000000000000000E+00     0.0000000000000000E+00 
    6.2500000000121403E-01     1.0000000000000000E+00     0.0000000000000000E+00 
    5.7500000000156093E-01     1.0000000000000000E+00     0.0000000000000000E+00 
    5.2500000000189684E-01     1.0000000000000000E+00     0.0000000000000000E+00 
    9.7499999999989595E-01     1.0000000000000000E+00     0.0000000000000000E+00 
    4.2500000000176902E-01     1.0000000000000000E+00     0.0000000000000000E+00 
    3.7500000000156092E-01     1.0000000000000000E+00     0.0000000000000000E+00 
    3.2500000000135282E-01     1.0000000000000000E+00     0.0000000000000000E+00 
    2.7500000000114472E-01     1.0000000000000000E+00     0.0000000000000000E+00 
    2.2500000000093659E-01     1.0000000000000000E+00     0.0000000000000000E+00 
    1.7500000000072849E-01     1.0000000000000000E+00     0.0000000000000000E+00 
    1.2500000000052039E-01     1.0000000000000000E+00     0.0000000000000000E+00 
    7.5000000000312261E-02     1.0000000000000000E+00     0.0000000000000000E+00 
    2.5000000000104109E-02     1.0000000000000000E+00     0.0000000000000000E+00 
    4.5000000000187301E-01     1.0000000000000000E+00     0.0000000000000000E+00 
    8.9999999999958358E-01     1.0000000000000000E+00     0.0000000000000000E+00 
    8.4999999999965303E-01     1.0000000000000000E+00     0.0000000000000000E+00 
    8.0000000000000004E-01     1.0000000000000000E+00     0.0000000000000000E+00 
    7.5000000000034706E-01     1.0000000000000000E+00     0.0000000000000000E+00 
    7.0000000000069384E-01     1.0000000000000000E+00     0.0000000000000000E+00 
    6.5000000000104063E-01     1.0000000000000000E+00     0.0000000000000000E+00 
    6.0000000000138742E-01     1.0000000000000000E+00     0.0000000000000000E+00 
    5.5000000000173432E-01     1.0000000000000000E+00     0.0000000000000000E+00 
    5.0000000000205946E-01     1.0000000000000000E+00     0.0000000000000000E+00 
    9.4999999999979179E-01     1.0000000000000000E+00     0.0000000000000000E+00 
    4.0000000000166491E-01     1.0000000000000000E+00     0.0000000000000000E+00 
    3.5000000000145681E-01     1.0000000000000000E+00     0.0000000000000000E+00 
    3.0000000000124871E-01     1.0000000000000000E+00     0.0000000000000000E+00 
    2.5000000000104061E-01     1.0000000000000000E+00     0.0000000000000000E+00 
    2.0000000000083251E-01     1.0000000000000000E+00     0.0000000000000000E+00 
    1.5000000000062441E-01     1.0000000000000000E+00     0.0000000000000000E+00 
    1.0000000000041630E-01     1.0000000000000000E+00     0.0000000000000000E+00 
[...]
CELL_DATA 1600 
SCALARS Pressure double 1 
LOOKUP_TABLE default 

    9.8670325246280588E-01 
    9.4050256475083349E-01 
    9.3809081712508302E-01 
    9.7102051445347703E-01 
    9.5846970454020664E-01 
    9.3444226970108057E-01 
    9.3023471086505749E-01 
    9.4819562566740567E-01 
    9.3960293551176888E-01 
    9.2584961902944574E-01 
    9.2149716355751388E-01 
    9.3227873351941570E-01 
    9.2593195132914918E-01 
    9.1728817480889768E-01 
    9.1327633348621196E-01 
    9.2035383986678421E-01 
    9.1539208438999975E-01 
    9.0948291539251702E-01 
    9.0591127783105296E-01 
    9.1093365962734607E-01 
    9.0689332806949885E-01 
    9.0255530114036142E-01 
    8.9940426516719096E-01 
    9.0320581851772719E-01 
    8.9982043223817165E-01 
    8.9644562433908836E-01 
    8.9366654716317184E-01 
    8.9669727001212352E-01 
    8.9380455521341984E-01 
    8.9105473308617966E-01 
    8.8859881073204738E-01 
    8.9111670765978401E-01 
    8.8861293852315926E-01 
    8.8628849753498007E-01 
    8.8411462704388066E-01 
    8.8627621164843529E-01 
    8.8409246591070301E-01 
    8.8206910626659718E-01 
    8.8014483927674703E-01 
    8.8205002594605852E-01 
    8.8013915053687830E-01 
    8.7833563775975776E-01 
    8.7663612996526108E-01 
    8.7835168282505871E-01 
    8.7668077674796341E-01 
    8.7504167411517375E-01 
    8.7354827916658428E-01 
    8.7512068118629227E-01 
    8.7366656829233069E-01 
    8.7215253403147452E-01 
    8.7085154536089993E-01 
    8.7231439599899097E-01 
    8.7106079723865659E-01 
    8.6964288347643082E-01 
    8.6852453577194266E-01 
    8.6990299022153550E-01 
    8.6883870542683195E-01 
    8.6749486678060550E-01 
    8.6655258399693358E-01 
    8.6786612585152600E-01 
    8.6698383754051644E-01 
    8.6569670831837697E-01 
    8.6492654730020857E-01 
    8.6619078726690135E-01 
    8.6548624259496765E-01 
    8.6424166736196140E-01 
    8.6364185487883949E-01 
    8.6486974378505954E-01 
    8.6434101987837619E-01 
    8.6312703842031502E-01 
    8.6269709920972315E-01 
    8.6389979667887062E-01 
    8.6354532389549910E-01 
    8.6235139653394544E-01 
    8.6208765557971490E-01 
    8.6327526719279735E-01 
    8.6308387370944040E-01 
    8.6190014825258132E-01 
    8.6179206576289424E-01 
    8.6297382589959093E-01 
    9.1702505890727459E-01 
    9.0023410036242268E-01 
    8.9986857381214480E-01 
    9.1626012438857818E-01 
    9.1485483511563659E-01 
    8.9916178668138091E-01 
    8.9815524259671631E-01 
    9.1296553032922156E-01 
    9.1073782341264053E-01 
    8.9689834347269659E-01 
    8.9544172024536317E-01 
    9.0829251232036579E-01 
    9.0572362063933431E-01 
    8.9383302598548731E-01 
    8.9211471286565636E-01 
    9.0310134181654977E-01 
    9.0047645792558306E-01 
    8.9032318267372113E-01 
    8.8848878909431594E-01 
    8.9788472107811934E-01 
    8.9535062412853572E-01 
    8.8663630992111231E-01 
    8.8478563517740572E-01 
    8.9289042421666631E-01 
    8.9051446831784586E-01 
    8.8295251496984495E-01 
    8.8114927897339468E-01 
    8.8822893426493288E-01 
    8.8603710988302853E-01 
    8.7938548368804947E-01 
    8.7766847066902376E-01 
    8.8394031974855924E-01 
    8.8193858922464563E-01 
    8.7600383440719165E-01 
    8.7439580659576366E-01 
    8.8003111569699555E-01 
    8.7821659993865286E-01 
    8.7284756705822741E-01 
    8.7136149254336182E-01 
    8.7649347688633306E-01 
    8.7486007459447979E-01 
    8.6993935412644352E-01 
    8.6858247282761802E-01 
    8.7331472223487139E-01 
    8.7185582217863156E-01 
    8.6729184169642792E-01 
    8.6606822124873728E-01 
    8.7048189694247990E-01 
    8.6919161870066397E-01 
    8.6491221389433492E-01 
    8.6382432190615632E-01 
    8.6798382684498132E-01 
    8.6685753747902983E-01 
    8.6280499256139276E-01 
    8.6185465331347544E-01 
    8.6581194757835211E-01 
    8.6484643569227837E-01 
    8.6097373919635489E-01 
    8.6016271405475564E-01 
    8.6396056037416713E-01 
    8.6315405683010382E-01 
    8.5942208649947993E-01 
    8.5875242034564925E-01 
    8.6242683120638475E-01 
    8.6177894948833655E-01 
    8.5815433665989871E-01 
    8.5762849747212411E-01 
    8.6121061129042509E-01 
    8.6072208051913690E-01 
    8.5717554238050819E-01 
    8.5679590387545135E-01 
    8.6031349939523238E-01 
    8.5998441364942135E-01 
    8.5648933140980554E-01 
    8.5625379067827745E-01 
    8.5973266425502748E-01 
    8.5955261906496883E-01 
    8.5608376030372613E-01 
    8.5598453751755332E-01 
    8.5944836114225653E-01 
    8.8628964339556759E-01 
    8.7376486773823892E-01 
    8.7362562903417629E-01 
    8.8607613795372486E-01 
    8.8565659909973549E-01 
    8.7335020254052809E-01 
    8.7294481643362143E-01 
    8.8504544179070033E-01 
    8.8426190290383344E-01 
    8.7241824251937861E-01 
    8.7178117224345841E-01 
    8.8332805950081472E-01 
    8.8226709697119277E-01 
    8.7104556867214133E-01 
    8.7022406709321753E-01 
    8.8110196956466302E-01 
    8.7985446827500136E-01 
    8.6932946574914194E-01 
    8.6837432362761302E-01 
    8.7854464554627631E-01 
    8.7719052167426292E-01 
    8.6737066510912542E-01 
    8.6632978097400448E-01 
    8.7580799648376961E-01 
    8.7441089974556674E-01 
    8.6526211027850941E-01 
    8.6417718625915108E-01 
    8.7301112751323651E-01 
    8.7161882518069778E-01 
    8.6308363029480240E-01 
    8.6198917998486368E-01 
    8.7024258980685421E-01 
    8.6888967357429836E-01 
    8.6090073987066951E-01 
    8.5982444579655626E-01 
    8.6756617722104101E-01 
    8.6627722725366885E-01 
    8.5876573613788321E-01 
    8.5772942501149030E-01 
    8.6502713413610799E-01 
    8.6381953084604413E-01 
    8.5671977410749489E-01 
    8.5574056096366002E-01 
    8.6265749253446666E-01 
    8.6154363877517470E-01 
    8.5479514239004906E-01 
    8.5388651239394087E-01 
    8.6048022024682691E-01 
    8.5946919179189429E-01 
    8.5301735440289705E-01 
    8.5219008788058348E-01 
    8.5851227374279349E-01 
    8.5761100325954753E-01 
    8.5140690960921395E-01 
    8.5066982999608054E-01 
    8.5676677722242855E-01 
    8.5598088797696648E-01 
    8.4998070475281673E-01 
    8.4934126216107775E-01 
    8.5525455290813968E-01 
    8.5458893830811988E-01 
    8.4875312574906647E-01 
    8.4821783115934990E-01 
    8.5398517693107068E-01 
    8.5344437590241040E-01 
    8.4773683311472625E-01 
    8.4731149056541921E-01 
    8.5296760423805429E-01 
    8.5255582993085333E-01 
    8.4694299831128794E-01 
    8.4663218892882686E-01 
    8.5220973155533175E-01 
    8.5192921700905955E-01 
    8.4637903973506734E-01 
    8.4618156884215268E-01 
    8.5171232676846509E-01 
    8.5155358533347436E-01 
    8.4603420239094873E-01 
    8.4594566125930137E-01 
    8.5145983268107084E-01 
    8.6198297808044066E-01 
    8.5057426006654935E-01 
    8.5050299227324933E-01 
    8.6188569981752783E-01 
    8.6169263522178208E-01 
    8.5036128617180573E-01 
    8.5015093335095759E-01 
    8.6140693547062586E-01 
    8.6103316298290222E-01 
    8.4987456670114192E-01 
    8.4953556997365010E-01 
    8.6057706760852071E-01 
    8.6004532868718608E-01 
    8.4913796527737162E-01 
    8.4868628965931769E-01 
    8.5944529025356131E-01 
    8.5878470950176822E-01 
    8.4818546939470008E-01 
    8.4764069883612081E-01 
    8.5807153203420594E-01 
    8.5731370147271646E-01 
    8.4705732886632668E-01 
    8.4644076825253600E-01 
    8.5651900618360466E-01 
    8.5569496234167541E-01 
    8.4579639965379627E-01 
    8.4512951077241327E-01 
    8.5484873026096020E-01 
    8.5398705964529331E-01 
    8.4444524019335843E-01 
    8.4374853680599504E-01 
    8.5311625891052367E-01 
    8.5224218376318295E-01 
    8.4304413130972422E-01 
    8.4233651811790122E-01 
    8.5137024058718003E-01 
    8.5050540073627612E-01 
    8.4162994594041129E-01 
    8.4092841539752394E-01 
    8.4965222244575322E-01 
    8.4881487768931119E-01 
    8.4023568215666711E-01 
    8.3955526425871130E-01 
    8.4799718187316253E-01 
    8.4720262475593833E-01 
    8.3889045248834593E-01 
    8.3824432282776262E-01 
    8.4643440140162862E-01 
    8.4569544231334970E-01 
    8.3761975020292001E-01 
    8.3701942287888120E-01 
    8.4498844216232882E-01 
    8.4431588672334812E-01 
    8.3644585697713403E-01 
    8.3590141066134060E-01 
    8.4368007775467746E-01 
    8.4308315560322411E-01 
    8.3538829754228883E-01 
    8.3490859872101475E-01 
    8.4252711922364387E-01 
    8.4201384292002890E-01 
    8.3446427243788190E-01 
    8.3405715901068334E-01 
    8.4154508799813477E-01 
    8.4112250438267699E-01 
    8.3368897524893237E-01 
    8.3336128355545924E-01 
    8.4074760890241007E-01 
    8.4042170660862037E-01 
    8.3307540002378222E-01 
    8.3283216235202151E-01 
    8.4014567755616854E-01 
    8.3991946448328214E-01 
    8.3263139171382949E-01 
    8.3247071810694717E-01 
    8.3974094371840635E-01 
    8.3960424019801005E-01 
    8.3234375574619357E-01 
    8.3226378323062389E-01 
    8.3952026474965691E-01 
    8.3931797045576806E-01 
    8.2807434325333251E-01 
    8.2803208282998575E-01 
    8.3926387080170850E-01 
    8.3915618113215074E-01 
    8.2794790200770207E-01 
    8.2782254808552469E-01 
    8.3899601666707846E-01 
    8.3878502842478708E-01 
    8.2765712959030324E-01 
    8.2745309743705842E-01 
    8.3852536320867987E-01 
    8.3821961003704049E-01 
    8.2721221737878159E-01 
    8.2693653708995585E-01 
    8.3787073853714089E-01 
    8.3748203320448156E-01 
    8.2662834985902300E-01 
    8.2629015651506255E-01 
    8.3705702680246541E-01 
    8.3659943561384564E-01 
    8.2592462700339686E-01 
    8.2553456281342119E-01 
    8.3611309865831585E-01 
    8.3560192239094111E-01 
    8.2512286123447665E-01 
    8.2469248218228208E-01 
    8.3506983183627503E-01 
    8.3452072862458171E-01 
    8.2424641811323762E-01 
    8.2378766733847442E-01 
    8.3395845599675267E-01 
    8.3338677053769405E-01 
    8.2331921087159265E-01 
    8.2284399279753739E-01 
    8.3280932017950282E-01 
    8.3222962787516030E-01 
    8.2236490403566664E-01 
    8.2188476928603493E-01 
    8.3165108026747325E-01 
    8.3107692065255645E-01 
    8.2140633689092346E-01 
    8.2093227130936164E-01 
    8.3051024554888297E-01 
    8.2995400421986409E-01 
    8.2046514788602598E-01 
    8.2000744959231009E-01 
    8.2941100054958250E-01 
    8.2888389672855101E-01 
    8.1956156542093572E-01 
    8.1912979011941467E-01 
    8.2837521826045535E-01 
    8.2788735984129747E-01 
    8.1871432494193863E-01 
    8.1831727906578366E-01 
    8.2742259167276555E-01 
    8.2698306571833036E-01 
    8.1794067121820002E-01 
    8.1758643079821836E-01 
    8.2657082121233028E-01 
    8.2618778817434191E-01 
    8.1725639710717046E-01 
    8.1695231357501408E-01 
    8.2583578618279785E-01 
    8.2551651174477969E-01 
    8.1667580952816932E-01 
    8.1642835186817386E-01 
    8.2523149797897832E-01 
    8.2498200897175644E-01 
    8.1621112751988312E-01 
    8.1602477531305817E-01 
    8.2476878816998034E-01 
    8.2459149192797254E-01 
    8.1586879474597873E-01 
    8.1574024886864716E-01 
    8.2444745453959745E-01 
    8.2432964059342739E-01 
    8.1563145146803673E-01 
    8.1555982675617766E-01 
    8.2425360625586674E-01 
    8.1675139587126355E-01 
    8.0528716308382109E-01 
    8.0525942729504019E-01 
    8.1671755303629856E-01 
    8.1665011070178595E-01 
    8.0520414069736634E-01 
    8.0512170421555584E-01 
    8.1654960171375246E-01 
    8.1641681472236616E-01 
    8.0501270798394109E-01 
    8.0487792675988978E-01 
    8.1625278497074794E-01 
    8.1605877913870228E-01 
    8.0471831105837222E-01 
    8.0453497580414535E-01 
    8.1583627659241376E-01 
    8.1558694818174415E-01 
    8.0432918724836955E-01 
    8.0410234865496510E-01 
    8.1531263345266358E-01 
    8.1501531703359331E-01 
    8.0385598518499035E-01 
    8.0359172836458792E-01 
    8.1469710486952729E-01 
    8.1436020088848460E-01 
    8.0331130048364785E-01 
    8.0301649923115748E-01 
    8.1400688458822579E-01 
    8.1363948993094748E-01 
    8.0270918282868486E-01 
    8.0239125587700788E-01 
    8.1326038583484883E-01 
    8.1287195845856952E-01 
    8.0206465608452926E-01 
    8.0173134200171325E-01 
    8.1247659539092687E-01 
    8.1207667178624154E-01 
    8.0139328184483449E-01 
    8.0105244345593662E-01 
    8.1167453842580750E-01 
    8.1127251163864589E-01 
    8.0071078541463114E-01 
    8.0037024929132694E-01 
    8.1087286497869093E-01 
    8.1047782252941158E-01 
    8.0003275301021914E-01 
    7.9970018527275066E-01 
    8.1008955368818891E-01 
    8.0971016926820616E-01 
    7.9937440097600809E-01 
    7.9905721754119075E-01 
    8.0934171873988769E-01 
    8.0898618840758940E-01 
    7.9875041203565578E-01 
    7.9845571890751721E-01 
    8.0864550026111837E-01 
    8.0832151111194206E-01 
    7.9817482800529083E-01 
    7.9790938220275320E-01 
    8.0801601131190426E-01 
    8.0773072157648229E-01 
    7.9766097307558470E-01 
    7.9743113092149853E-01 
    8.0746728448714156E-01 
    8.0722724252453271E-01 
    7.9722130037383743E-01 
    7.9703278214388484E-01 
    8.0701198393280593E-01 
    8.0682261650179743E-01 
    7.9686660093345618E-01 
    7.9672322008428964E-01 
    8.0665968843935565E-01 
    8.0652258034228663E-01 
    7.9660192266498431E-01 
    7.9649941928900025E-01 
    8.0640815630709139E-01 
    8.0630825150926433E-01 
    7.9640746777544968E-01 
    7.9634591101791463E-01 
    8.0624161192231658E-01 
    7.9363950617859436E-01 
    7.8177995280193013E-01 
    7.8175998467516528E-01 
    7.9361624980445877E-01 
    7.9356988521329541E-01 
    7.8172017259312876E-01 
    7.8166077724029526E-01 
    7.9350072878979205E-01 
    7.9340924260120493E-01 
    7.8158217590589618E-01 
    7.8148486128813821E-01 
    7.9329603209200805E-01 
    7.9316184057983818E-01 
    7.8136943785808488E-01 
    7.8123661689612178E-01 
    7.9300754197016632E-01 
    7.9283413222801680E-01 
    7.8108721061491138E-01 
    7.8092212559028862E-01 
    7.9264271992824997E-01 
    7.9243451614131977E-01 
    7.8074235566416317E-01 
    7.8054897446141935E-01 
    7.9221082388348052E-01 
    7.9197302734105679E-01 
    7.8034312765076752E-01 
    7.8012602506985684E-01 
    7.9172258105965365E-01 
    7.9146099926895930E-01 
    7.7989893282520928E-01 
    7.7966316546697245E-01 
    7.9118984549198934E-01 
    7.9091072256487327E-01 
    7.7942007832708426E-01 
    7.7917106009751746E-01 
    7.9062526317042470E-01 
    7.9033512096663239E-01 
    7.7891752571312056E-01 
    7.7866090959161272E-01 
    7.9004196237055224E-01 
    7.8974745903940313E-01 
    7.7840265927171215E-01 
    7.7814422947926909E-01 
    7.8945328107418311E-01 
    7.8916109095674025E-01 
    7.7788707664036305E-01 
    7.7763265384869318E-01 
    7.8887253821819259E-01 
    7.8858925482302511E-01 
    7.7738240628008970E-01 
    7.7713776702464854E-01 
    7.8831285123490058E-01 
    7.8804491309754343E-01 
    7.7690015326545225E-01 
    7.7667096264510715E-01 
    7.8778699839433175E-01 
    7.8754063478766345E-01 
    7.7645156946115867E-01 
    7.7624331985426509E-01 
    7.8730731644259766E-01 
    7.8708849865763286E-01 
    7.7604752400448895E-01 
    7.7586544067890451E-01 
    7.8688558625485261E-01 
    7.8669990634902798E-01 
    7.7569824373351814E-01 
    7.7554694911499711E-01 
    7.8653264534768041E-01 
    7.8638471029644996E-01 
    7.7541226095940419E-01 
    7.7529425207574487E-01 
    7.8625643545006352E-01 
    7.8614694282091613E-01 
    7.7519165577934712E-01 
    7.7510018837683547E-01 
    7.8605267688008318E-01 
    7.8596611559987006E-01 
    7.7501450265995231E-01 
    7.7496036115146072E-01 
    7.8590894294275626E-01 
    7.6968983052401607E-01 
    7.5735778674038512E-01 
    7.5734186745799836E-01 
    7.6967224531429856E-01 
    7.6963718319283747E-01 
    7.5731012677168408E-01 
    7.5726276380710666E-01 
    7.6958486771899781E-01 
    7.6951561951809255E-01 
    7.5720006187298772E-01 
    7.5712238789530850E-01 
    7.6942985557457100E-01 
    7.6932808666098396E-01 
    7.5703019045808884E-01 
    7.5692399703219804E-01 
    7.6921091374352113E-01 
    7.6907902369384384E-01 
    7.5680441065793691E-01 
    7.5667210620653280E-01 
    7.6893318446980385E-01 
    7.6877423987622495E-01 
    7.5652782630007864E-01 
    7.5637237695242265E-01 
    7.6860310399779408E-01 
    7.6842075538705756E-01 
    7.5620662298591468E-01 
    7.5603148327460323E-01 
    7.6822823108457250E-01 
    7.6802662054293291E-01 
    7.5584792586105942E-01 
    7.5565696299055485E-01 
    7.6781705952074741E-01 
    7.6760072400637580E-01 
    7.5545964610236016E-01 
    7.5525706081322053E-01 
    7.6737882422429093E-01 
    7.6715259876931574E-01 
    7.5505032192239108E-01 
    7.5484056846069336E-01 
    7.6692330890572669E-01 
    7.6669223305918466E-01 
    7.5462895879743652E-01 
    7.5441666580789890E-01 
    7.6646066151930003E-01 
    7.6622989135857444E-01 
    7.5420487208893783E-01 
    7.5399476518843955E-01 
    7.6600122155781070E-01 
    7.6577594830544216E-01 
    7.5378753278063026E-01 
    7.5358435766346510E-01 
    7.6555536040149308E-01 
    7.6534073463047469E-01 
    7.5338641235501425E-01 
    7.5319485287595900E-01 
    7.6513333083604329E-01 
    7.6493438614988030E-01 
    7.5301081091799849E-01 
    7.5283538276906692E-01 
    7.6474510719816546E-01 
    7.6456665767591259E-01 
    7.5266961156693513E-01 
    7.5251445566199515E-01 
    7.6440013551530961E-01 
    7.6424652739799082E-01 
    7.5237072840433694E-01 
    7.5223898083764096E-01 
    7.6410661626556620E-01 
    7.6398079493305293E-01 
    7.5211927104081577E-01 
    7.5201068518312453E-01 
    7.6386868284986753E-01 
    7.6376825013473304E-01 
    7.5191019611298504E-01 
    7.5180955359107360E-01 
    7.6367361781802501E-01 
    7.6358363191156364E-01 
    7.5171313148541585E-01 
    7.5166137185413551E-01 
    7.6353110508149491E-01 
    7.4477819711583271E-01 
    7.3195017988966105E-01 
    7.3193587806601568E-01 
    7.4476334816816059E-01 
    7.4473374166273620E-01 
    7.3190736238452536E-01 
    7.3186480887032979E-01 
    7.4468956154609456E-01 
    7.4463106800079559E-01 
    7.3180846575425951E-01 
    7.3173865263450988E-01 
    7.4455859681196823E-01 
    7.4447255775058818E-01 
    7.3165575903202906E-01 
    7.3156024240160622E-01 
    7.4437343229771458E-01 
    7.4426177092174350E-01 
    7.3145262576175185E-01 
    7.3133349502351674E-01 
    7.4413819000806758E-01 
    7.4400336850091964E-01 
    7.3120349606504043E-01 
    7.3106333158558401E-01 
    7.4385804430209246E-01 
    7.4370301046473097E-01 
    7.3091375776736212E-01 
    7.3075558077103786E-01 
    7.4353911121703786E-01 
    7.4336723784845038E-01 
    7.3058965308944201E-01 
    7.3041686978309683E-01 
    7.4318832448869121E-01 
    7.4300334380758337E-01 
    7.3023816462004632E-01 
    7.3005450614097600E-01 
    7.4281330266034262E-01 
    7.4261923769887206E-01 
    7.2986689366840507E-01 
    7.2967635327540015E-01 
    7.4242221096400274E-01 
    7.4222330546599091E-01 
    7.2948393372421161E-01 
    7.2929070237738092E-01 
    7.4202362074981565E-01 
    7.4182426842605076E-01 
    7.2909774107132108E-01 
    7.2890614192150371E-01 
    7.4162636762388889E-01 
    7.4143104028385720E-01 
    7.2871700299230047E-01 
    7.2853142369904589E-01 
    7.4123940614114425E-01 
    7.4105257712979000E-01 
    7.2835049968512600E-01 
    7.2817531666752511E-01 
    7.4087165070578476E-01 
    7.4069770111514521E-01 
    7.2800694222601858E-01 
    7.2784641341351997E-01 
    7.4053176663793352E-01 
    7.4037482873300919E-01 
    7.2769471576985079E-01 
    7.2755274474528242E-01 
    7.4022777470823631E-01 
    7.4009132729483085E-01 
    7.2742123195475761E-01 
    7.2730060239418626E-01 
    7.3996590911511684E-01 
    7.3985137629610198E-01 
    7.2719068934831754E-01 
    7.2709009892328857E-01 