# vtk DataFile Version 2.0
Pressure Field Data 
ASCII 
DATASET UNSTRUCTURED_GRID 

POINTS 1681 double 

    0.0000000000000000E+00     0.0000000000000000E+00     0.0000000000000000E+00 
    1.0000000000000000E+00     0.0000000000000000E+00     0.0000000000000000E+00 
    1.0000000000000000E+00     1.0000000000000000E+00     0.0000000000000000E+00 
    0.0000000000000000E+00     1.0000000000000000E+00     0.0000000000000000E+00 
    5.2499999999875258E-01     0.0000000000000000E+00     0.0000000000000000E+00 
    7.4999999999856765E-02     0.0000000000000000E+00     0.0000000000000000E+00 
    1.2499999999975850E-01     0.0000000000000000E+00     0.0000000000000000E+00 
    1.7499999999962990E-01     0.0000000000000000E+00     0.0000000000000000E+00 
    2.2499999999948389E-01     0.0000000000000000E+00     0.0000000000000000E+00 
    2.7499999999933789E-01     0.0000000000000000E+00     0.0000000000000000E+00 
    3.2499999999919210E-01     0.0000000000000000E+00     0.0000000000000000E+00 
    3.7499999999904610E-01     0.0000000000000000E+00     0.0000000000000000E+00 
    4.2499999999890020E-01     0.0000000000000000E+00     0.0000000000000000E+00 
    4.7499999999875958E-01     0.0000000000000000E+00     0.0000000000000000E+00 
    2.4999999999949701E-02     0.0000000000000000E+00     0.0000000000000000E+00 
    5.7499999999887907E-01     0.0000000000000000E+00     0.0000000000000000E+00 
    6.2499999999901101E-01     0.0000000000000000E+00     0.0000000000000000E+00 
    6.7499999999914273E-01     0.0000000000000000E+00     0.0000000000000000E+00 
    7.2499999999927467E-01     0.0000000000000000E+00     0.0000000000000000E+00 
    7.7499999999940661E-01     0.0000000000000000E+00     0.0000000000000000E+00 
    8.2499999999953844E-01     0.0000000000000000E+00     0.0000000000000000E+00 
    8.7499999999967026E-01     0.0000000000000000E+00     0.0000000000000000E+00 
    9.2499999999980220E-01     0.0000000000000000E+00     0.0000000000000000E+00 
    9.7499999999993414E-01     0.0000000000000000E+00     0.0000000000000000E+00 
    5.4999999999881310E-01     0.0000000000000000E+00     0.0000000000000000E+00 
    9.9999999999814140E-02     0.0000000000000000E+00     0.0000000000000000E+00 
    1.4999999999970290E-01     0.0000000000000000E+00     0.0000000000000000E+00 
    1.9999999999955689E-01     0.0000000000000000E+00     0.0000000000000000E+00 
    2.4999999999941089E-01     0.0000000000000000E+00     0.0000000000000000E+00 
    2.9999999999926502E-01     0.0000000000000000E+00     0.0000000000000000E+00 
    3.4999999999911913E-01     0.0000000000000000E+00     0.0000000000000000E+00 
    3.9999999999897312E-01     0.0000000000000000E+00     0.0000000000000000E+00 
    4.4999999999882723E-01     0.0000000000000000E+00     0.0000000000000000E+00 
    4.9999999999869210E-01     0.0000000000000000E+00     0.0000000000000000E+00 
    4.9999999999899403E-02     0.0000000000000000E+00     0.0000000000000000E+00 
    5.9999999999894504E-01     0.0000000000000000E+00     0.0000000000000000E+00 
    6.4999999999907687E-01     0.0000000000000000E+00     0.0000000000000000E+00 
    6.9999999999920870E-01     0.0000000000000000E+00     0.0000000000000000E+00 
    7.4999999999934064E-01     0.0000000000000000E+00     0.0000000000000000E+00 
    7.9999999999947247E-01     0.0000000000000000E+00     0.0000000000000000E+00 
    8.4999999999960441E-01     0.0000000000000000E+00     0.0000000000000000E+00 
    8.9999999999973623E-01     0.0000000000000000E+00     0.0000000000000000E+00 
    9.4999999999986817E-01     0.0000000000000000E+00     0.0000000000000000E+00 
    1.0000000000000000E+00     5.2499999999875258E-01     0.0000000000000000E+00 
    1.0000000000000000E+00     7.4999999999856765E-02     0.0000000000000000E+00 
    1.0000000000000000E+00     1.2499999999975850E-01     0.0000000000000000E+00 
    1.0000000000000000E+00     1.7499999999962990E-01     0.0000000000000000E+00 
    1.0000000000000000E+00     2.2499999999948389E-01     0.0000000000000000E+00 
    1.0000000000000000E+00     2.7499999999933789E-01     0.0000000000000000E+00 
    1.0000000000000000E+00     3.2499999999919210E-01     0.0000000000000000E+00 
    1.0000000000000000E+00     3.7499999999904610E-01     0.0000000000000000E+00 
    1.0000000000000000E+00     4.2499999999890020E-01     0.0000000000000000E+00 
    1.0000000000000000E+00     4.7499999999875958E-01     0.0000000000000000E+00 
    1.0000000000000000E+00     2.4999999999949701E-02     0.0000000000000000E+00 
    1.0000000000000000E+00     5.7499999999887907E-01     0.0000000000000000E+00 
    1.0000000000000000E+00     6.2499999999901101E-01     0.0000000000000000E+00 
    1.0000000000000000E+00     6.7499999999914273E-01     0.0000000000000000E+00 
    1.0000000000000000E+00     7.2499999999927467E-01     0.0000000000000000E+00 
    1.0000000000000000E+00     7.7499999999940661E-01     0.0000000000000000E+00 
    1.0000000000000000E+00     8.2499999999953844E-01     0.0000000000000000E+00 
    1.0000000000000000E+00     8.7499999999967026E-01     0.0000000000000000E+00 
    1.0000000000000000E+00     9.2499999999980220E-01     0.0000000000000000E+00 
    1.0000000000000000E+00     9.7499999999993414E-01     0.0000000000000000E+00 
    1.0000000000000000E+00     5.4999999999881310E-01     0.0000000000000000E+00 
    1.0000000000000000E+00     9.9999999999814140E-02     0.0000000000000000E+00 
    1.0000000000000000E+00     1.4999999999970290E-01     0.0000000000000000E+00 
    1.0000000000000000E+00     1.9999999999955689E-01     0.0000000000000000E+00 
    1.0000000000000000E+00     2.4999999999941089E-01     0.0000000000000000E+00 
    1.0000000000000000E+00     2.9999999999926502E-01     0.0000000000000000E+00 
    1.0000000000000000E+00     3.4999999999911913E-01     0.0000000000000000E+00 
    1.0000000000000000E+00     3.9999999999897312E-01     0.0000000000000000E+00 
    1.0000000000000000E+00     4.4999999999882723E-01     0.0000000000000000E+00 
    1.0000000000000000E+00     4.9999999999869210E-01     0.0000000000000000E+00 
    1.0000000000000000E+00     4.9999999999899403E-02     0.0000000000000000E+00 
    1.0000000000000000E+00     5.9999999999894504E-01     0.0000000000000000E+00 
    1.0000000000000000E+00     6.4999999999907687E-01     0.0000000000000000E+00 
    1.0000000000000000E+00     6.9999999999920870E-01     0.0000000000000000E+00 
    1.0000000000000000E+00     7.4999999999934064E-01     0.0000000000000000E+00 
    1.0000000000000000E+00     7.9999999999947247E-01     0.0000000000000000E+00 
    1.0000000000000000E+00     8.4999999999960441E-01     0.0000000000000000E+00 
    1.0000000000000000E+00     8.9999999999973623E-01     0.0000000000000000E+00 
    1.0000000000000000E+00     9.4999999999986817E-01     0.0000000000000000E+00 
    4.7500000000196618E-01     1.0000000000000000E+00     0.0000000000000000E+00 
    9.2499999999968763E-01     1.0000000000000000E+00     0.0000000000000000E+00 
    8.7499999999961831E-01     1.0000000000000000E+00     0.0000000000000000E+00 
    8.2499999999982654E-01     1.0000000000000000E+00     0.0000000000000000E+00 
    7.7500000000017355E-01     1.0000000000000000E+00     0.0000000000000000E+00 
    7.2500000000052045E-01     1.0000000000000000E+00     0.0000000000000000E+00 
    6.7500000000086724E-01     1.0000000000000000E+00     0.0000000000000000E+00 
    6.2500000000121403E-01     1.0000000000000000E+00     0.0000000000000000E+00 
    5.7500000000156093E-01     1.0000000000000000E+00     0.0000000000000000E+00 
    5.2500000000189684E-01     1.0000000000000000E+00     0.0000000000000000E+00 
    9.7499999999989595E-01     1.0000000000000000E+00     0.0000000000000000E+00 
    4.2500000000176902E-01     1.0000000000000000E+00     0.0000000000000000E+00 
    3.7500000000156092E-01     1.0000000000000000E+00     0.0000000000000000E+00 
    3.2500000000135282E-01     1.0000000000000000E+00     0.0000000000000000E+00 
    2.7500000000114472E-01     1.0000000000000000E+00     0.0000000000000000E+00 
    2.2500000000093659E-01     1.0000000000000000E+00     0.0000000000000000E+00 
    1.7500000000072849E-01     1.0000000000000000E+00     0.0000000000000000E+00 
    1.2500000000052039E-01     1.0000000000000000E+00     0.0000000000000000E+00 
    7.5000000000312261E-02     1.0000000000000000E+00     0.0000000000000000E+00 
    2.5000000000104109E-02     1.0000000000000000E+00     0.0000000000000000E+00 
    4.5000000000187301E-01     1.0000000000000000E+00     0.0000000000000000E+00 
    8.9999999999958358E-01     1.0000000000000000E+00     0.0000000000000000E+00 
    8.4999999999965303E-01     1.0000000000000000E+00     0.0000000000000000E+00 
    8.0000000000000004E-01     1.0000000000000000E+00     0.0000000000000000E+00 
    7.5000000000034706E-01     1.0000000000000000E+00     0.0000000000000000E+00 
    7.0000000000069384E-01     1.0000000000000000E+00     0.0000000000000000E+00 
    6.5000000000104063E-01     1.0000000000000000E+00     0.0000000000000000E+00 
    6.0000000000138742E-01     1.0000000000000000E+00     0.0000000000000000E+00 
    5.5000000000173432E-01     1.0000000000000000E+00     0.0000000000000000E+00 
    5.0000000000205946E-01     1.0000000000000000E+00     0.0000000000000000E+00 
    9.4999999999979179E-01     1.0000000000000000E+00     0.0000000000000000E+00 
    4.0000000000166491E-01     1.0000000000000000E+00     0.0000000000000000E+00 
    3.5000000000145681E-01     1.0000000000000000E+00     0.0000000000000000E+00 
    3.0000000000124871E-01     1.0000000000000000E+00     0.0000000000000000E+00 
    2.5000000000104061E-01     1.0000000000000000E+00     0.0000000000000000E+00 
    2.0000000000083251E-01     1.0000000000000000E+00     0.0000000000000000E+00 
    1.5000000000062441E-01     1.0000000000000000E+00     0.0000000000000000E+00 
    1.0000000000041630E-01     1.0000000000000000E+00     0.0000000000000000E+00 
[...]
CELL_DATA 1600 
SCALARS Pressure double 1 
LOOKUP_TABLE default 

    9.9476883199192045E-01 
    9.4855184110172308E-01 
    9.4613897870771457E-01 
    9.7908359475663553E-01 
    9.6652949137813438E-01 
    9.4248844619665040E-01 
    9.3827825509894058E-01 
    9.5625171994080826E-01 
    9.4765500923602364E-01 
    9.3389000654540288E-01 
    9.2953395689304008E-01 
    9.4032650076605739E-01 
    9.3397515890586991E-01 
    9.2532100365391301E-01 
    9.2130488272748867E-01 
    9.2839226386233564E-01 
    9.2342552886215079E-01 
    9.1750691739519219E-01 
    9.1393050711385326E-01 
    9.1896195606891040E-01 
    9.1491633508691794E-01 
    9.1056957046560372E-01 
    9.0741342250526047E-01 
    9.1122342148630187E-01 
    9.0783254284799542E-01 
    9.0444955039847352E-01 
    9.0166515330358854E-01 
    9.0470382568892194E-01 
    9.0180551843001300E-01 
    8.9904795950397709E-01 
    8.9658662484916041E-01 
    8.9911206516595676E-01 
    8.9660270052408175E-01 
    8.9427089254811132E-01 
    8.9209162060628377E-01 
    8.9426041095953346E-01 
    8.9207115711277607E-01 
    8.9004073928460570E-01 
    8.8811117480928636E-01 
    8.9002328455990654E-01 
    8.8810707223242857E-01 
    8.8629676001283852E-01 
    8.8459214337571779E-01 
    8.8631438267625173E-01 
    8.8463838854155685E-01 
    8.8299270251923079E-01 
    8.8149446504948148E-01 
    8.8307335679018883E-01 
    8.8161447708685159E-01 
    8.8009403785449392E-01 
    8.7878854496165193E-01 
    8.8025772437241367E-01 
    8.7899974814576043E-01 
    8.7757557353676008E-01 
    8.7645312734440373E-01 
    8.7783778279983338E-01 
    8.7676957465735039E-01 
    8.7541958685685528E-01 
    8.7447367508414930E-01 
    8.7579332223412176E-01 
    8.7490762671400724E-01 
    8.7361442794855015E-01 
    8.7284116729121597E-01 
    8.7411144940275576E-01 
    8.7340407111629925E-01 
    8.7215347236043661E-01 
    8.7155113892202096E-01 
    8.7278504219842168E-01 
    8.7225409353983219E-01 
    8.7103409623306993E-01 
    8.7060220454613302E-01 
    8.7181093198087323E-01 
    8.7145473975030008E-01 
    8.7025475217968817E-01 
    8.6998929070478037E-01 
    8.7118301511686491E-01 
    8.7098972867641788E-01 
    8.6979980469952045E-01 
    8.6969065106533638E-01 
    8.7087868452717487E-01 
    9.2505095052261332E-01 
    9.0823121893304415E-01 
    9.0786519405483335E-01 
    9.2428535108932297E-01 
    9.2287875548597720E-01 
    9.0715741235507241E-01 
    9.0614939748664924E-01 
    9.2098756369040058E-01 
    9.1875745047218249E-01 
    9.0489057854458521E-01 
    9.0343161801953265E-01 
    9.1630927186041466E-01 
    9.1373710533660812E-01 
    9.0182020300340870E-01 
    9.0009882088264070E-01 
    9.1111119420986886E-01 
    9.0848236679423477E-01 
    8.9830390900047941E-01 
    8.9646585636305509E-01 
    9.0588641823722649E-01 
    9.0334788157953150E-01 
    8.9460947545853653E-01 
    8.9275469010960662E-01 
    9.0088305158765736E-01 
    8.9850231054236041E-01 
    8.9091728314835050E-01 
    8.8910961578838599E-01 
    8.9621186946202380E-01 
    8.9401504741270144E-01 
    8.8734127481861058E-01 
    8.8561963080832784E-01 
    8.9191319842387529E-01 
    8.8990637566653630E-01 
    8.8395030599126145E-01 
    8.8233755855705576E-01 
    8.8799380282073992E-01 
    8.8617420556277859E-01 
    8.8078459361931116E-01 
    8.7929381206113988E-01 
    8.8444604245585545E-01 
    8.8280766401114885E-01 
    8.7786700799344053E-01 
    8.7650552443366447E-01 
    8.8125742078758262E-01 
    8.7979373556744822E-01 
    8.7521037545138824E-01 
    8.7398234166459510E-01 
    8.7841515038978601E-01 
    8.7712035614273187E-01 
    8.7282204472266678E-01 
    8.7173000532445155E-01 
    8.7590821019648002E-01 
    8.7477774596120250E-01 
    8.7070668839813814E-01 
    8.6975253829617827E-01 
    8.7372817709770234E-01 
    8.7275889824817698E-01 
    8.6886800619595406E-01 
    8.6805357127765925E-01 
    8.7186948345493209E-01 
    8.7105968271238488E-01 
    8.6730975652779463E-01 
    8.6663713879959481E-01 
    8.7032941595859170E-01 
    8.6967876117021892E-01 
    8.6603634991983236E-01 
    8.6550805800476993E-01 
    8.6910792600480624E-01 
    8.6861717288010276E-01 
    8.6505289803931706E-01 
    8.6467127303166236E-01 
    8.6820661951292688E-01 
    8.6787573502725390E-01 
    8.6436284804603192E-01 
    8.6412539343820138E-01 
    8.6762217765364280E-01 
    8.6744001272676285E-01 
    8.6395306255414217E-01 
    8.6385248557697591E-01 
    8.6733456139295306E-01 
    8.9425316205583238E-01 
    8.8169039038041208E-01 
    8.8155080261273322E-01 
    8.9403924826105952E-01 
    8.9361889310088216E-01 
    8.8127467866681708E-01 
    8.8086825296171190E-01 
    8.9300652109246759E-01 
    8.9222138366345893E-01 
    8.8034030689670140E-01 
    8.7970154458774064E-01 
    8.9128557653553420E-01 
    8.9022230697528371E-01 
    8.7896394446845794E-01 
    8.7814015947792312E-01 
    8.8905455352227802E-01 
    8.8780413318195672E-01 
    8.7724300738238070E-01 
    8.7628506817512275E-01 
    8.8649112555225451E-01 
    8.8513357874649767E-01 
    8.7527838836464467E-01 
    8.7423428165908623E-01 
    8.8374742068107093E-01 
    8.8234650917979351E-01 
    8.7316321055881851E-01 
    8.7207473201638841E-01 
    8.8094276806460925E-01 
    8.7954637002366298E-01 
    8.7097749119198253E-01 
    8.6987924936021155E-01 
    8.7816593879445226E-01 
    8.7680875252106871E-01 
    8.6878693449227806E-01 
    8.6770670550639528E-01 
    8.7548093711735298E-01 
    8.7418764343797517E-01 
    8.6664402340999069E-01 
    8.6560372444532807E-01 
    8.7293320544591591E-01 
    8.7172127876335725E-01 
    8.6459009187360680E-01 
    8.6360692421493557E-01 
    8.7055496033692825E-01 
    8.6943689070005981E-01 
    8.6265759864801728E-01 
    8.6174512891548871E-01 
    8.6836934067116500E-01 
    8.6735428442813456E-01 
    8.6087221752833754E-01 
    8.6004130235865772E-01 
    8.6639346084507185E-01 
    8.6548842483007860E-01 
    8.5925459788750702E-01 
    8.5851413145476108E-01 
    8.6464059019931716E-01 
    8.6385126537068724E-01 
    8.5782177484190147E-01 
    8.5717927136803407E-01 
    8.6312168282666024E-01 
    8.6245302275107827E-01 
    8.5658825825263940E-01 
    8.5605028285775231E-01 
    8.6184643008887418E-01 
    8.6130302132133929E-01 
    8.5556680829345577E-01 
    8.5513919541792405E-01 
    8.6082386924694732E-01 
    8.6040993345241112E-01 
    8.5476862714678414E-01 
    8.5445589427749968E-01 
    8.6006185685738734E-01 
    8.5977945311661008E-01 
    8.5420086948168850E-01 
    8.5400133956197932E-01 
    8.5956055064053760E-01 
    8.5939931538896674E-01 
    8.5385132959172350E-01 
    8.5376112912680835E-01 
    8.5930403483210249E-01 
    8.6986642518746815E-01 
    8.5841178517225147E-01 
    8.5834024428444056E-01 
    8.6976884093070939E-01 
    8.6957516536923352E-01 
    8.5819799324516144E-01 
    8.5798682783469948E-01 
    8.6928855456971665E-01 
    8.6891357825646964E-01 
    8.5770938699965882E-01 
    8.5736906236414456E-01 
    8.6845599590197509E-01 
    8.6792249860405413E-01 
    8.5696988562334342E-01 
    8.5651640499099602E-01 
    8.6732044406931974E-01 
    8.6665760483707188E-01 
    8.5601355933921641E-01 
    8.5546655688823336E-01 
    8.6594194328207219E-01 
    8.6518142098370077E-01 
    8.5488076349650921E-01 
    8.5426160385403316E-01 
    8.6438384521982681E-01 
    8.6355675181533709E-01 
    8.5361447733409057E-01 
    8.5294468899755516E-01 
    8.6270732127614591E-01 
    8.6184232386365078E-01 
    8.5225739529585942E-01 
    8.5155756336856536E-01 
    8.6096808876211928E-01 
    8.6009049252364911E-01 
    8.5084994243809964E-01 
    8.5013904561645148E-01 
    8.5921496234139960E-01 
    8.5834649024742615E-01 
    8.4942914040422512E-01 
    8.4872424623426701E-01 
    8.5748965494669860E-01 
    8.5664864861115531E-01 
    8.4802813755077677E-01 
    8.4734435108941231E-01 
    8.5582730652326700E-01 
    8.5502913795487034E-01 
    8.4667619621150680E-01 
    8.4602676732963522E-01 
    8.5425735708516581E-01 
    8.5351491310157490E-01 
    8.4539895763103012E-01 
    8.4479547345124029E-01 
    8.5280451889248432E-01 
    8.5212867793548197E-01 
    8.4421884876444975E-01 
    8.4367145932587395E-01 
    8.5148970910722532E-01 
    8.5088976917526715E-01 
    8.4315553599668591E-01 
    8.4267317662973262E-01 
    8.5033087262180795E-01 
    8.4981490802568582E-01 
    8.4222635539422253E-01 
    8.4181692700961297E-01 
    8.4934364899786630E-01 
    8.4891875425009056E-01 
    8.4144661955691791E-01 
    8.4111699987330091E-01 
    8.4854174235948732E-01 
    8.4821390512659722E-01 
    8.4082937334603236E-01 
    8.4058453440008030E-01 
    8.4793607731558340E-01 
    8.4770808980869439E-01 
    8.4038219319778085E-01 
    8.4021972806134193E-01 
    8.4752757151831648E-01 
    8.4738820460164721E-01 
    8.4009028969168165E-01 
    8.4000885396539149E-01 
    8.4730256612768640E-01 
    8.4710590244193296E-01 
    8.3580914729672184E-01 
    8.3576666009962963E-01 
    8.4705155550086852E-01 
    8.4694337263510600E-01 
    8.3568202716354578E-01 
    8.3555599922688939E-01 
    8.4678247281957875E-01 
    8.4657051234194025E-01 
    8.3538968953271087E-01 
    8.3518455495690735E-01 
    8.4630964475538384E-01 
    8.4600246723938055E-01 
    8.3494236840546943E-01 
    8.3466518583162852E-01 
    8.4565195890424438E-01 
    8.4526141494836027E-01 
    8.3435530985334994E-01 
    8.3401525159959145E-01 
    8.4483437994828581E-01 
    8.4437458299672918E-01 
    8.3364769220236334E-01 
    8.3325544513985239E-01 
    8.4388587680584237E-01 
    8.4337218229314781E-01 
    8.3284142040816433E-01 
    8.3240859126578504E-01 
    8.4283743960718660E-01 
    8.4228556606121985E-01 
    8.3195996406953399E-01 
    8.3149855151521657E-01 
    8.4172042104314360E-01 
    8.4114577766267784E-01 
    8.3102734941817569E-01 
    8.3054931702238166E-01 
    8.4056530067815527E-01 
    8.3998253010443324E-01 
    8.3006736071228837E-01 
    8.2958432091769296E-01 
    8.3940086982725193E-01 
    8.3882358052378225E-01 
    8.2910296194492372E-01 
    8.2862596443355030E-01 
    8.3825377620069119E-01 
    8.3769442369783154E-01 
    8.2815592012165318E-01 
    8.2769532859930772E-01 
    8.3714834455708398E-01 
    8.3661821871266973E-01 
    8.2724659573365633E-01 
    8.2681203345275200E-01 
    8.3610658951242356E-01 
    8.3561586961809176E-01 
    8.2639386056870645E-01 
    8.2599420428434878E-01 
    8.3514834733907206E-01 
    8.3470619289172243E-01 
    8.2561510191967047E-01 
    8.2525850211210439E-01 
    8.3429146385702524E-01 
    8.3390610849893509E-01 
    8.2492626401927327E-01 
    8.2462015118570475E-01 
    8.3355196397418763E-01 
    8.3323074222565374E-01 
    8.2434181206552737E-01 
    8.2409272836882230E-01 
    8.3294398605023767E-01 
    8.3269295529391796E-01 
    8.2387408987316935E-01 
    8.2368651066459786E-01 
    8.3247835833695083E-01 
    8.3229975144001767E-01 
    8.2352940596536184E-01 
    8.2339962372616116E-01 
    8.3215423015379086E-01 
    8.3203431885044909E-01 
    8.2328912427987211E-01 
    8.2321685957865542E-01 
    8.3195721057359906E-01 
    8.2442964723077072E-01 
    8.1290552959888218E-01 
    8.1287759643231305E-01 
    8.2439559399616791E-01 
    8.2432773230626943E-01 
    8.1282191650541080E-01 
    8.1273889372442931E-01 
    8.2422659819626776E-01 
    8.2409298461291558E-01 
    8.1262912218850725E-01 
    8.1249338156492479E-01 
    8.2392793216880977E-01 
    8.2373271394222858E-01 
    8.1233262818469154E-01 
    8.1214798364965901E-01 
    8.2350881667368236E-01 
    8.2325791950407767E-01 
    8.1194072169972875E-01 
    8.1171225384672085E-01 
    8.2298187112408161E-01 
    8.2268266609494811E-01 
    8.1146411420408482E-01 
    8.1119794389869926E-01 
    8.2236242101591672E-01 
    8.2202335112384495E-01 
    8.1091547541249798E-01 
    8.1061851716041122E-01 
    8.2166774781404683E-01 
    8.2129795747103840E-01 
    8.1030893856652275E-01 
    8.0998865585386359E-01 
    8.2091636189905304E-01 
    8.2052536054929426E-01 
    8.0965961871685999E-01 
    8.0932379800102849E-01 
    8.2012735465735465E-01 
    8.1972473333219120E-01 
    8.0898317447357126E-01 
    8.0863972873218981E-01 
    8.1931986157845360E-01 
    8.1891507018678655E-01 
    8.0829543226826672E-01 
    8.0795223967470753E-01 
    8.1851264739108387E-01 
    8.1811483216597991E-01 
    8.0761208196775092E-01 
    8.0727686097480567E-01 
    8.1772380901975905E-01 
    8.1734170412396656E-01 
    8.0694844472455729E-01 
    8.0662866375660691E-01 
    8.1697058260584998E-01 
    8.1661244680349765E-01 
    8.0631930823602804E-01 
    8.0602212569151921E-01 
    8.1626923522572237E-01 
    8.1594282182238165E-01 
    8.0573881904137645E-01 
    8.0547104419512505E-01 
    8.1563501483819023E-01 
    8.1534755368965939E-01 
    8.0522040557894614E-01 
    8.0498844561505878E-01 
    8.1508210020947658E-01 
    8.1484021554926378E-01 
    8.0477661879963269E-01 
    8.0458622972948035E-01 
    8.1462330287893525E-01 
    8.1443247396661766E-01 
    8.0441829315883029E-01 
    8.0427323316408128E-01 
    8.1426825553999926E-01 
    8.1412995085588313E-01 
    8.0415022994005048E-01 
    8.0404574339768997E-01 
    8.1401422023650227E-01 
    8.1391272518645030E-01 
    8.0395170267795912E-01 
    8.0388977322095667E-01 
    8.1384572324346860E-01 
    8.0119473672872832E-01 
    7.8926887004966972E-01 
    7.8924872251374345E-01 
    8.0117129318917335E-01 
    8.0112455566108898E-01 
    7.8920855296891479E-01 
    7.8914862476438419E-01 
    8.0105484333687116E-01 
    8.0096262198412838E-01 
    7.8906931868308450E-01 
    7.8897113170093180E-01 
    8.0084850159843346E-01 
    8.0071323086352275E-01 
    7.8885467331772818E-01 
    7.8872066055879642E-01 
    8.0055768982645181E-01 
    8.0038288132654767E-01 
    7.8856991206078131E-01 
    7.8840334146331914E-01 
    8.0018992150034418E-01 
    7.9998002961985570E-01 
    7.8822195027079511E-01 
    7.8802682032619009E-01 
    7.9975451749344406E-01 
    7.9951477863903475E-01 
    7.8781910602683114E-01 
    7.8760002640204907E-01 
    7.9926227742058253E-01 
    7.9899853831832701E-01 
    7.8737085716280186E-01 
    7.8713292282248337E-01 
    7.9872513548142532E-01 
    7.9844368268861665E-01 
    7.8688758897641864E-01 
    7.8663625481514832E-01 
    7.9815582381949235E-01 
    7.9786322391658004E-01 
    7.8638034593388317E-01 
    7.8612130748772691E-01 
    7.9756756089745651E-01 
    7.9727051795701942E-01 
    7.8586059772961248E-01 
    7.8559968195526453E-01 
    7.9697377668304681E-01 
    7.9667901089311355E-01 
    7.8534002686648152E-01 
    7.8508309534937226E-01 
    7.9638788118697623E-01 
    7.9610203019363179E-01 
    7.8483034164519516E-01 
    7.8458320686228500E-01 
    7.9582307847183120E-01 
    7.9555262098635893E-01 
    7.8434311472493246E-01 
    7.8411146734826376E-01 
    7.9529222400510957E-01 
    7.9504342208282208E-01 
    7.8388964059234734E-01 
    7.8367897800011788E-01 
    7.9480771436177577E-01 
    7.9458655834563896E-01 
    7.8348078102667063E-01 
    7.8329629029377046E-01 
    7.9438135672520327E-01 
    7.9419342709544460E-01 
    7.8312664629856366E-01 
    7.8297280597156871E-01 
    7.9402393296555596E-01 
    7.9387373367437675E-01 
    7.8283536959620992E-01 
    7.8271422289983306E-01 
    7.9374306862054889E-01 
    7.9363086501759406E-01 
    7.8260773363857572E-01 
    7.8251080205318202E-01 
    7.9353313278720938E-01 
    7.9344315685190703E-01 
    7.8241986196475233E-01 
    7.8236472411304503E-01 
    7.9338533178343518E-01 
    7.7710932710014680E-01 
    7.6470482465539080E-01 
    7.6468873471240728E-01 
    7.7709156796964385E-01 
    7.7705615932322614E-01 
    7.6465665398445637E-01 
    7.6460878405792942E-01 
    7.7700332727054133E-01 
    7.7693339577502407E-01 
    7.6454541146724830E-01 
    7.6446690708019549E-01 
    7.7684678589987688E-01 
    7.7674401320693243E-01 
    7.6437372411146176E-01 
    7.6426639532583229E-01 
    7.7662568413201472E-01 
    7.7649249166530288E-01 
    7.6414552969496163E-01 
    7.6401180863280049E-01 
    7.7634521049929517E-01 
    7.7618469175561167E-01 
    7.6386598188935639E-01 
    7.6370886316543107E-01 
    7.7601185738265310E-01 
    7.7582769430697007E-01 
    7.6354132550338771E-01 
    7.6336429650463877E-01 
    7.7563324841510828E-01 
    7.7542961843717939E-01 
    7.6317875342108554E-01 
    7.6298571816423055E-01 
    7.7521794979751524E-01 
    7.7499942849115466E-01 
    7.6278625227160235E-01 
    7.6258145186526582E-01 
    7.7477527503749510E-01 
    7.7454673855417411E-01 
    7.6237244263124337E-01 
    7.6216037484135113E-01 
    7.7431509098505569E-01 
    7.7408162150584559E-01 
    7.6194641842970579E-01 
    7.6173175812401051E-01 
    7.7384763111880273E-01 
    7.7361442743316666E-01 
    7.6151758861502539E-01 
    7.6130510972323617E-01 
    7.7338331960811213E-01 
    7.7315561340605210E-01 
    7.6109552148379322E-01 
    7.6089001900773368E-01 
    7.7293260625732807E-01 
    7.7271558215439695E-01 
    7.6068978686513711E-01 
    7.6049599252139954E-01 
    7.7250580603343810E-01 
    7.7230451696798386E-01 
    7.6030977792166010E-01 
    7.6013224738988061E-01 
    7.7211291876716548E-01 
    7.7193216493310235E-01 
    7.5996444800785334E-01 
    7.5980733445949400E-01 
    7.7176333136884212E-01 
    7.7160736301767474E-01 
    7.5966170215638062E-01 
    7.5952805729622708E-01 
    7.7146496717606927E-01 
    7.7133640056375385E-01 
    7.5940636118828209E-01 
    7.5929549315484535E-01 
    7.7122103008679799E-01 
    7.7111630955844446E-01 
    7.5919193985477307E-01 
    7.5908607198098277E-01 
    7.7101511830584812E-01 
    7.7091898080211252E-01 
    7.5898496599076160E-01 
    7.5893225821369514E-01 
    7.7086533204358887E-01 
    7.5204981057852438E-01 
    7.3914348188548795E-01 
    7.3912900877577525E-01 
    7.5203479191354361E-01 
    7.5200484721837202E-01 
    7.3910015173527621E-01 
    7.3905708912965584E-01 
    7.5196016283115208E-01 
    7.5190100208229715E-01 
    7.3900007228935494E-01 
    7.3892942461829003E-01 
    7.5182770461047177E-01 
    7.5174068472082156E-01 
    7.3884554012491954E-01 
    7.3874888141288075E-01 
    7.5164042908717321E-01 
    7.5152749400796992E-01 
    7.3863997729147080E-01 
    7.3851942008592286E-01 
    7.5140250231523709E-01 
    7.5126613999662339E-01 
    7.3838786269455026E-01 
    7.3824601542697799E-01 
    7.5111915257560613E-01 
    7.5096234128853678E-01 
    7.3809464265240110E-01 
    7.3793455928454321E-01 
    7.5079655909397380E-01 
    7.5062270654759944E-01 
    7.3776662712893448E-01 
    7.3759175111746367E-01 
    7.5044172757404792E-01 
    7.5025460516468889E-01 
    7.3741087545449646E-01 
    7.3722497969789580E-01 
    7.5006235702751056E-01 
    7.4986603121142648E-01 
    7.3703507479679586E-01 
    7.3684219910560489E-01 
    7.4966670172217986E-01 
    7.4946546413991588E-01 
    7.3664741438990078E-01 
    7.3645180183364167E-01 
    7.4926343123833139E-01 
    7.4906172859019371E-01 
    7.3625645804656215E-01 
    7.3606249105221522E-01 
    7.4886149012037218E-01 
    7.4866385352859266E-01 
    7.3587101620369488E-01 
    7.3568315191087286E-01 
    7.4846995543632910E-01 
    7.4828092598705787E-01 
    7.3550001493823636E-01 
    7.3532271477622269E-01 
    7.4809788238424069E-01 
    7.4792192034763183E-01 
    7.3515234604656976E-01 
    7.3498997674248356E-01 
    7.4775410139959086E-01 
    7.4759543163006681E-01 
    7.3483662767733515E-01 
    7.3469323370724382E-01 
    7.4744682299257614E-01 
    7.4730901943276362E-01 
    7.3456056835140471E-01 
    7.3443909639975091E-01 
    7.4718245378420922E-01 
    7.4706696430619057E-01 
    7.3432867628765841E-01 
    7.3422788221433455E-01 