# vtk DataFile Version 2.0
Pressure Field Data 
ASCII 
DATASET UNSTRUCTURED_GRID 

POINTS 1681 double 

    0.0000000000000000E+00     0.0000000000000000E+00     0.0000000000000000E+00 
    1.0000000000000000E+00     0.0000000000000000E+00     0.0000000000000000E+00 
    1.0000000000000000E+00     1.0000000000000000E+00     0.0000000000000000E+00 
    0.0000000000000000E+00     1.0000000000000000E+00     0.0000000000000000E+00 
    5.2499999999875258E-01     0.0000000000000000E+00     0.0000000000000000E+00 
    7.4999999999856765E-02     0.0000000000000000E+00     0.0000000000000000E+00 
    1.2499999999975850E-01     0.0000000000000000E+00     0.0000000000000000E+00 
    1.7499999999962990E-01     0.0000000000000000E+00     0.0000000000000000E+00 
    2.2499999999948389E-01     0.0000000000000000E+00     0.0000000000000000E+00 
    2.7499999999933789E-01     0.0000000000000000E+00     0.0000000000000000E+00 
    3.2499999999919210E-01     0.0000000000000000E+00     0.0000000000000000E+00 
    3.7499999999904610E-01     0.0000000000000000E+00     0.0000000000000000E+00 
    4.2499999999890020E-01     0.0000000000000000E+00     0.0000000000000000E+00 
    4.7499999999875958E-01     0.0000000000000000E+00     0.0000000000000000E+00 
    2.4999999999949701E-02     0.0000000000000000E+00     0.0000000000000000E+00 
    5.7499999999887907E-01     0.0000000000000000E+00     0.0000000000000000E+00 
    6.2499999999901101E-01     0.0000000000000000E+00     0.0000000000000000E+00 
    6.7499999999914273E-01     0.0000000000000000E+00     0.0000000000000000E+00 
    7.2499999999927467E-01     0.0000000000000000E+00     0.0000000000000000E+00 
    7.7499999999940661E-01     0.0000000000000000E+00     0.0000000000000000E+00 
    8.2499999999953844E-01     0.0000000000000000E+00     0.0000000000000000E+00 
    8.7499999999967026E-01     0.0000000000000000E+00     0.0000000000000000E+00 
    9.2499999999980220E-01     0.0000000000000000E+00     0.0000000000000000E+00 
    9.7499999999993414E-01     0.0000000000000000E+00     0.0000000000000000E+00 
    5.4999999999881310E-01     0.0000000000000000E+00     0.0000000000000000E+00 
    9.9999999999814140E-02     0.0000000000000000E+00     0.0000000000000000E+00 
    1.4999999999970290E-01     0.0000000000000000E+00     0.0000000000000000E+00 
    1.9999999999955689E-01     0.0000000000000000E+00     0.0000000000000000E+00 
    2.4999999999941089E-01     0.0000000000000000E+00     0.0000000000000000E+00 
    2.9999999999926502E-01     0.0000000000000000E+00     0.0000000000000000E+00 
    3.4999999999911913E-01     0.0000000000000000E+00     0.0000000000000000E+00 
    3.9999999999897312E-01     0.0000000000000000E+00     0.0000000000000000E+00 
    4.4999999999882723E-01     0.0000000000000000E+00     0.0000000000000000E+00 
    4.9999999999869210E-01     0.0000000000000000E+00     0.0000000000000000E+00 
    4.9999999999899403E-02     0.0000000000000000E+00     0.0000000000000000E+00 
    5.9999999999894504E-01     0.0000000000000000E+00     0.0000000000000000E+00 
    6.4999999999907687E-01     0.0000000000000000E+00     0.0000000000000000E+00 
    6.9999999999920870E-01     0.0000000000000000E+00     0.0000000000000000E+00 
    7.4999999999934064E-01     0.0000000000000000E+00     0.0000000000000000E+00 
    7.9999999999947247E-01     0.0000000000000000E+00     0.0000000000000000E+00 
    8.4999999999960441E-01     0.0000000000000000E+00     0.0000000000000000E+00 
    8.9999999999973623E-01     0.0000000000000000E+00     0.0000000000000000E+00 
    9.4999999999986817E-01     0.0000000000000000E+00     0.0000000000000000E+00 
    1.0000000000000000E+00     5.2499999999875258E-01     0.0000000000000000E+00 
    1.0000000000000000E+00     7.4999999999856765E-02     0.0000000000000000E+00 
    1.0000000000000000E+00     1.2499999999975850E-01     0.0000000000000000E+00 
    1.0000000000000000E+00     1.7499999999962990E-01     0.0000000000000000E+00 
    1.0000000000000000E+00     2.2499999999948389E-01     0.0000000000000000E+00 
    1.0000000000000000E+00     2.7499999999933789E-01     0.0000000000000000E+00 
    1.0000000000000000E+00     3.2499999999919210E-01     0.0000000000000000E+00 
    1.0000000000000000E+00     3.7499999999904610E-01     0.0000000000000000E+00 
    1.0000000000000000E+00     4.2499999999890020E-01     0.0000000000000000E+00 
    1.0000000000000000E+00     4.7499999999875958E-01     0.0000000000000000E+00 
    1.0000000000000000E+00     2.4999999999949701E-02     0.0000000000000000E+00 
    1.0000000000000000E+00     5.7499999999887907E-01     0.0000000000000000E+00 
    1.0000000000000000E+00     6.2499999999901101E-01     0.0000000000000000E+00 
    1.0000000000000000E+00     6.7499999999914273E-01     0.0000000000000000E+00 
    1.0000000000000000E+00     7.2499999999927467E-01     0.0000000000000000E+00 
    1.0000000000000000E+00     7.7499999999940661E-01     0.0000000000000000E+00 
    1.0000000000000000E+00     8.2499999999953844E-01     0.0000000000000000E+00 
    1.0000000000000000E+00     8.7499999999967026E-01     0.0000000000000000E+00 
    1.0000000000000000E+00     9.2499999999980220E-01     0.0000000000000000E+00 
    1.0000000000000000E+00     9.7499999999993414E-01     0.0000000000000000E+00 
    1.0000000000000000E+00     5.4999999999881310E-01     0.0000000000000000E+00 
    1.0000000000000000E+00     9.9999999999814140E-02     0.0000000000000000E+00 
    1.0000000000000000E+00     1.4999999999970290E-01     0.0000000000000000E+00 
    1.0000000000000000E+00     1.9999999999955689E-01     0.0000000000000000E+00 
    1.0000000000000000E+00     2.4999999999941089E-01     0.0000000000000000E+00 
    1.0000000000000000E+00     2.9999999999926502E-01     0.0000000000000000E+00 
    1.0000000000000000E+00     3.4999999999911913E-01     0.0000000000000000E+00 
    1.0000000000000000E+00     3.9999999999897312E-01     0.0000000000000000E+00 
    1.0000000000000000E+00     4.4999999999882723E-01     0.0000000000000000E+00 
    1.0000000000000000E+00     4.9999999999869210E-01     0.0000000000000000E+00 
    1.0000000000000000E+00     4.9999999999899403E-02     0.0000000000000000E+00 
    1.0000000000000000E+00     5.9999999999894504E-01     0.0000000000000000E+00 
    1.0000000000000000E+00     6.4999999999907687E-01     0.0000000000000000E+00 
    1.0000000000000000E+00     6.9999999999920870E-01     0.0000000000000000E+00 
    1.0000000000000000E+00     7.4999999999934064E-01     0.0000000000000000E+00 
    1.0000000000000000E+00     7.9999999999947247E-01     0.0000000000000000E+00 
    1.0000000000000000E+00     8.4999999999960441E-01     0.0000000000000000E+00 
    1.0000000000000000E+00     8.9999999999973623E-01     0.0000000000000000E+00 
    1.0000000000000000E+00     9.4999999999986817E-01     0.0000000000000000E+00 
    4.7500000000196618E-01     1.0000000000000000E+00     0.0000000000000000E+00 
    9.2499999999968763E-01     1.0000000000000000E+00     0.0000000000000000E+00 
    8.7499999999961831E-01     1.0000000000000000E+00     0.0000000000000000E+00 
    8.2499999999982654E-01     1.0000000000000000E+00     0.0000000000000000E+00 
    7.7500000000017355E-01     1.0000000000000000E+00     0.0000000000000000E+00 
    7.2500000000052045E-01     1.0000000000000000E+00     0.0000000000000000E+00 
    6.7500000000086724E-01     1.0000000000000000E+00     0.0000000000000000E+00 
    6.2500000000121403E-01     1.0000000000000000E+00     0.0000000000000000E+00 
    5.7500000000156093E-01     1.0000000000000000E+00     0.0000000000000000E+00 
    5.2500000000189684E-01     1.0000000000000000E+00     0.0000000000000000E+00 
    9.7499999999989595E-01     1.0000000000000000E+00     0.0000000000000000E+00 
    4.2500000000176902E-01     1.0000000000000000E+00     0.0000000000000000E+00 
    3.7500000000156092E-01     1.0000000000000000E+00     0.0000000000000000E+00 
    3.2500000000135282E-01     1.0000000000000000E+00     0.0000000000000000E+00 
    2.7500000000114472E-01     1.0000000000000000E+00     0.0000000000000000E+00 
    2.2500000000093659E-01     1.0000000000000000E+00     0.0000000000000000E+00 
    1.7500000000072849E-01     1.0000000000000000E+00     0.0000000000000000E+00 
    1.2500000000052039E-01     1.0000000000000000E+00     0.0000000000000000E+00 
    7.5000000000312261E-02     1.0000000000000000E+00     0.0000000000000000E+00 
    2.5000000000104109E-02     1.0000000000000000E+00     0.0000000000000000E+00 
    4.5000000000187301E-01     1.0000000000000000E+00     0.0000000000000000E+00 
    8.9999999999958358E-01     1.0000000000000000E+00     0.0000000000000000E+00 
    8.4999999999965303E-01     1.0000000000000000E+00     0.0000000000000000E+00 
    8.0000000000000004E-01     1.0000000000000000E+00     0.0000000000000000E+00 
    7.5000000000034706E-01     1.0000000000000000E+00     0.0000000000000000E+00 
    7.0000000000069384E-01     1.0000000000000000E+00     0.0000000000000000E+00 
    6.5000000000104063E-01     1.0000000000000000E+00     0.0000000000000000E+00 
    6.0000000000138742E-01     1.0000000000000000E+00     0.0000000000000000E+00 
    5.5000000000173432E-01     1.0000000000000000E+00     0.0000000000000000E+00 
    5.0000000000205946E-01     1.0000000000000000E+00     0.0000000000000000E+00 
    9.4999999999979179E-01     1.0000000000000000E+00     0.0000000000000000E+00 
    4.0000000000166491E-01     1.0000000000000000E+00     0.0000000000000000E+00 
    3.5000000000145681E-01     1.0000000000000000E+00     0.0000000000000000E+00 
    3.0000000000124871E-01     1.0000000000000000E+00     0.0000000000000000E+00 
    2.5000000000104061E-01     1.0000000000000000E+00     0.0000000000000000E+00 
    2.0000000000083251E-01     1.0000000000000000E+00     0.0000000000000000E+00 
    1.5000000000062441E-01     1.0000000000000000E+00     0.0000000000000000E+00 
    1.0000000000041630E-01     1.0000000000000000E+00     0.0000000000000000E+00 
[...]
CELL_DATA 1600 
SCALARS Pressure double 1 
LOOKUP_TABLE default 

    9.6257310196597823E-01 
    9.1684137697795831E-01 
    9.1447620544974373E-01 
    9.4701699559197816E-01 
    9.3463030027468674E-01 
    9.1091043837964136E-01 
    9.0680440270343421E-01 
    9.2451866601527632E-01 
    9.1608048263163189E-01 
    9.0252900212076448E-01 
    8.9828867813042679E-01 
    9.0890186042052357E-01 
    9.0269188344455553E-01 
    8.9419102558320895E-01 
    8.9028762415019291E-01 
    8.9724206780083793E-01 
    8.9240029170471880E-01 
    8.8659838417143799E-01 
    8.8312579184634299E-01 
    8.8805367033477944E-01 
    8.8411715148774916E-01 
    8.7986330259858869E-01 
    8.7680008965753420E-01 
    8.8052581870066227E-01 
    8.7722956852463574E-01 
    8.7392383177637234E-01 
    8.7122202743637145E-01 
    8.7418921971636365E-01 
    8.7137358479714189E-01 
    8.6868259409583215E-01 
    8.6629412507468095E-01 
    8.6875732071654543E-01 
    8.6631961322114204E-01 
    8.6404623743204767E-01 
    8.6192977476301202E-01 
    8.6404344699360069E-01 
    8.6191499611047495E-01 
    8.5993685228507699E-01 
    8.5806067250774354E-01 
    8.5992295191728374E-01 
    8.5805793256634255E-01 
    8.5629536719874044E-01 
    8.5463584613757460E-01 
    8.5631212039812654E-01 
    8.5467898427836841E-01 
    8.5307773350400207E-01 
    8.5161718994503899E-01 
    8.5315296954551822E-01 
    8.5172932719141714E-01 
    8.5025085608734330E-01 
    8.4897588995586326E-01 
    8.5040408325473937E-01 
    8.4917401205227416E-01 
    8.4779001075670379E-01 
    8.4669138365769592E-01 
    8.4803651377776657E-01 
    8.4698948052673151E-01 
    8.4567851442557007E-01 
    8.4475020016457314E-01 
    8.4603120628410766E-01 
    8.4516034372035675E-01 
    8.4390554297783948E-01 
    8.4314393715079472E-01 
    8.4437593603082617E-01 
    8.4367737811951093E-01 
    8.4246506657068676E-01 
    8.4186885015589596E-01 
    8.4306432557172917E-01 
    8.4253674202116224E-01 
    8.4135544044081001E-01 
    8.4092523851027345E-01 
    8.4209490481100135E-01 
    8.4173933133258450E-01 
    8.4057888143626902E-01 
    8.4031729172425151E-01 
    8.4147083744813678E-01 
    8.4127704817835025E-01 
    8.4012742781485850E-01 
    8.4001830833476498E-01 
    8.4116633102363036E-01 
    8.9391010792461645E-01 
    8.7762615463649107E-01 
    8.7727036872216102E-01 
    8.9316552149001205E-01 
    8.9180003275782160E-01 
    8.7658329623031528E-01 
    8.7560509226554306E-01 
    8.8996486074890202E-01 
    8.8780100838708920E-01 
    8.7438357857093996E-01 
    8.7296794670009448E-01 
    8.8542588097387165E-01 
    8.8293089763262189E-01 
    8.7140444539359974E-01 
    8.6973426774428819E-01 
    8.8038411996522559E-01 
    8.7783470598363655E-01 
    8.6799270971561371E-01 
    8.6620929174437866E-01 
    8.7531723832251296E-01 
    8.7285544676447846E-01 
    8.6440806235056022E-01 
    8.6260826568038584E-01 
    8.7046508331963601E-01 
    8.6815622616637667E-01 
    8.6082510658204514E-01 
    8.5907041232911285E-01 
    8.6593480454257310E-01 
    8.6380380993120653E-01 
    8.5735324139126312E-01 
    8.5568060559714731E-01 
    8.6176424502636528E-01 
    8.5981593953928448E-01 
    8.5405790863263265E-01 
    8.5248929595781808E-01 
    8.5795804123197017E-01 
    8.5618935174092370E-01 
    8.5097791502935438E-01 
    8.4952622000186540E-01 
    8.5450847447091660E-01 
    8.5291393146787531E-01 
    8.4813603670340010E-01 
    8.4680870859019353E-01 
    8.5140421466245331E-01 
    8.4997787694588556E-01 
    8.4554524130959685E-01 
    8.4434634572997058E-01 
    8.4863348519625370E-01 
    8.4736970560966307E-01 
    8.4321256390222643E-01 
    8.4214446259507891E-01 
    8.4618542552843667E-01 
    8.4507979908272357E-01 
    8.4114260739241220E-01 
    8.4020749868042410E-01 
    8.4405215761766106E-01 
    8.4310197865650616E-01 
    8.3933960565572985E-01 
    8.3853946696654547E-01 
    8.4222889263639833E-01 
    8.4143269918191133E-01 
    8.3780762590599556E-01 
    8.3714470563336807E-01 
    8.4071338299272613E-01 
    8.4007112504742021E-01 
    8.3655145662534547E-01 
    8.3602863630841928E-01 
    8.3950625018461289E-01 
    8.3901926128469562E-01 
    8.3557713324722716E-01 
    8.3519801817118544E-01 
    8.3861083842074757E-01 
    8.3828180425774468E-01 
    8.3489237137091177E-01 
    8.3466139395234973E-01 
    8.3803324443940008E-01 
    8.3785097908890127E-01 
    8.3448991475633494E-01 
    8.3438943991323300E-01 
    8.3774518718132207E-01 
    8.6413554348288557E-01 
    8.5202075502987373E-01 
    8.5188400442864942E-01 
    8.6392689772162090E-01 
    8.6351740425868551E-01 
    8.5161380062654235E-01 
    8.5121635979251931E-01 
    8.6292120250491300E-01 
    8.6215707443300582E-01 
    8.5070038925518843E-01 
    8.5007654474999728E-01 
    8.6124663195584872E-01 
    8.6021250060356302E-01 
    8.4935664625523088E-01 
    8.4855297842205946E-01 
    8.5907700910085116E-01 
    8.5786127700522607E-01 
    8.4767784604109764E-01 
    8.4674340545538418E-01 
    8.5658478917503567E-01 
    8.5526498639358994E-01 
    8.4576131671228139E-01 
    8.4474244268534571E-01 
    8.5391713328504948E-01 
    8.5255456714545697E-01 
    8.4369696155102036E-01 
    8.4263420991545035E-01 
    8.5118878564384082E-01 
    8.4982954392845422E-01 
    8.4156254556527754E-01 
    8.4048953228600787E-01 
    8.4848520141723882E-01 
    8.4716288377109217E-01 
    8.3942198142898694E-01 
    8.3836591621150069E-01 
    8.4586857355420109E-01 
    8.4460727051448359E-01 
    8.3732660311802332E-01 
    8.3630877949668248E-01 
    8.4338328029283316E-01 
    8.4220020585228483E-01 
    8.3531661776726851E-01 
    8.3435369587298380E-01 
    8.4106099722184902E-01 
    8.3996820487854296E-01 
    8.3342329439491880E-01 
    8.3252839159513325E-01 
    8.3892401049129650E-01 
    8.3793029893095794E-01 
    8.3167161457380123E-01 
    8.3085541014503517E-01 
    8.3698884449210031E-01 
    8.3610128925433180E-01 
    8.3008205195527096E-01 
    8.2935356665680526E-01 
    8.3526905881752189E-01 
    8.3449342259038806E-01 
    8.2867176503032425E-01 
    8.2803844299014051E-01 
    8.3377566434427219E-01 
    8.3311700168378444E-01 
    8.2745531843876674E-01 
    8.2692395538408126E-01 
    8.3251859763653746E-01 
    8.3198169579968573E-01 
    8.2644596137549664E-01 
    8.2602290714593551E-01 
    8.3150748318188883E-01 
    8.3109715918590599E-01 
    8.2565625713078650E-01 
    8.2534759568779070E-01 
    8.3075209712132403E-01 
    8.3047369071277799E-01 
    8.2509867790847669E-01 
    8.2491124962253115E-01 
    8.3026328191727305E-01 
    8.3010499056059406E-01 
    8.2476840542369845E-01 
    8.2468217716349690E-01 
    8.3001122158622676E-01 
    8.4061558980533757E-01 
    8.2955811351671349E-01 
    8.2948739224556134E-01 
    8.4051955061347261E-01 
    8.4032914013138060E-01 
    8.2934691291873519E-01 
    8.2913853045550501E-01 
    8.4004757102830685E-01 
    8.3967947114884456E-01 
    8.2886494777226949E-01 
    8.2852951515510842E-01 
    8.3923063565593015E-01 
    8.3870766859919865E-01 
    8.2813618042345505E-01 
    8.2768934875475786E-01 
    8.3811767970541173E-01 
    8.3746811865763149E-01 
    8.2719388372419989E-01 
    8.2665496404922756E-01 
    8.3676672753070769E-01 
    8.3602132127099038E-01 
    8.2607794767924392E-01 
    8.2546816584751059E-01 
    8.3523952225792752E-01 
    8.3442870551694903E-01 
    8.2483091864652058E-01 
    8.2417139632915726E-01 
    8.3359593003670174E-01 
    8.3274777310922865E-01 
    8.2349463724924432E-01 
    8.2280547239686219E-01 
    8.3189040258467961E-01 
    8.3102957587047710E-01 
    8.2210855104485259E-01 
    8.2140823529555496E-01 
    8.3017059484294464E-01 
    8.2931826865972091E-01 
    8.2070864061819615E-01 
    8.2001367250356560E-01 
    8.2847703026423580E-01 
    8.2765094078891788E-01 
    8.1932700591217955E-01 
    8.1865208224979746E-01 
    8.2684367657267910E-01 
    8.2605866851388587E-01 
    8.1799219239970644E-01 
    8.1735039670431109E-01 
    8.2529912893817625E-01 
    8.2456796081389427E-01 
    8.1672954311953805E-01 
    8.1613230327346287E-01 
    8.2386785484541136E-01 
    8.2320132539856516E-01 
    8.1556121148185767E-01 
    8.1501861672727061E-01 
    8.2257069344046152E-01 
    8.2197808450956877E-01 
    8.1450674498072295E-01 
    8.1402776970531177E-01 
    8.2142556422697310E-01 
    8.2091513079818901E-01 
    8.1358374529430633E-01 
    8.1317661740658820E-01 
    8.2044862301067800E-01 
    8.2002786446402942E-01 
    8.1280833622611182E-01 
    8.1248078926745060E-01 
    8.1965468189581214E-01 
    8.1933078241088508E-01 
    8.1219580582010542E-01 
    8.1195532138061377E-01 
    8.1905794126697007E-01 
    8.1883819835302807E-01 
    8.1176144133722239E-01 
    8.1161634811791494E-01 
    8.1867367487438436E-01 
    8.1854646717718405E-01 
    8.1150216266521980E-01 
    8.1143102385046206E-01 
    8.1846804370216952E-01 
    8.1863347039980994E-01 
    8.0770691080226253E-01 
    8.0766457547924109E-01 
    8.1857954891814544E-01 
    8.1847229127578580E-01 
    8.0758028989459985E-01 
    8.0745480921802681E-01 
    8.1831284783596503E-01 
    8.1810285891139545E-01 
    8.0728921093979467E-01 
    8.0708489839027853E-01 
    8.1784441051531120E-01 
    8.1754005693116905E-01 
    8.0684367653352285E-01 
    8.0656771799356941E-01 
    8.1719278434973230E-01 
    8.1680594460775480E-01 
    8.0625941768466802E-01 
    8.0592131241635134E-01 
    8.1638316435908287E-01 
    8.1592814876279585E-01 
    8.0555601940373378E-01 
    8.0516627674394581E-01 
    8.1544464358679813E-01 
    8.1493652379261194E-01 
    8.0475495971092004E-01 
    8.0432501250436417E-01 
    8.1440765795902736E-01 
    8.1386185117752818E-01 
    8.0387933835282255E-01 
    8.0342086670454271E-01 
    8.1330286346130976E-01 
    8.1273438568349510E-01 
    8.0295253636546826E-01 
    8.0247724627081352E-01 
    8.1215995628029036E-01 
    8.1158297619324793E-01 
    8.0199781848727170E-01 
    8.0151707865834310E-01 
    8.1100682182612616E-01 
    8.1043470581596533E-01 
    8.0103777648996821E-01 
    8.0056249636063970E-01 
    8.0986964831205555E-01 
    8.0931462677225818E-01 
    8.0009380521274631E-01 
    7.9963417420105909E-01 
    8.0877242235895874E-01 
    8.0824562290009605E-01 
    7.9918589477104596E-01 
    7.9875123275760862E-01 
    8.0773673133366575E-01 
    8.0724817202911692E-01 
    7.9833239596182615E-01 
    7.9793147357169980E-01 
    8.0678219946786645E-01 
    8.0634094684702329E-01 
    7.9755044119323815E-01 
    7.9719125430543880E-01 
    8.0592655193366403E-01 
    8.0554100776778259E-01 
    7.9685577519922224E-01 
    7.9654576020951517E-01 
    8.0518621193895268E-01 
    8.0486410293156863E-01 
    7.9626296893769954E-01 
    7.9600909586209478E-01 
    8.0457652584247374E-01 
    8.0432528773378331E-01 
    7.9578581914210644E-01 
    7.9559477904432274E-01 
    8.0411224723055152E-01 
    8.0393939806564230E-01 
    7.9543778824720501E-01 
    7.9531560108364896E-01 
    8.0380854182015460E-01 
    8.0370275506902544E-01 
    7.9521330040133131E-01 
    7.9515076806551477E-01 
    8.0363688415157963E-01 
    7.9669114933485696E-01 
    7.8552736603394002E-01 
    7.8549926815672344E-01 
    7.9665705929643982E-01 
    7.9658914726769647E-01 
    7.8544327563815286E-01 
    7.8535977501716103E-01 
    7.9648793752676217E-01 
    7.9635419445825484E-01 
    7.8524936767431064E-01 
    7.8511289640381998E-01 
    7.9618897516892340E-01 
    7.9599365655981491E-01 
    7.8495144275706874E-01 
    7.8476619451932950E-01 
    7.9576984662217498E-01 
    7.9551924366338778E-01 
    7.8455838442243897E-01 
    7.8432939733268292E-01 
    7.9524367277785202E-01 
    7.9494507930190439E-01 
    7.8408076306082375E-01 
    7.8381408108454698E-01 
    7.9462551950342952E-01 
    7.9428721311141759E-01 
    7.8353109930645615E-01 
    7.8323361676546388E-01 
    7.9393243204751585E-01 
    7.9356342007339153E-01 
    7.8292343164053047E-01 
    7.8260245826495412E-01 
    7.9318252728171090E-01 
    7.9279214716398161E-01 
    7.8227267398272848E-01 
    7.8193601776341271E-01 
    7.9239464648251468E-01 
    7.9199234937715546E-01 
    7.8159439638789907E-01 
    7.8124978350086072E-01 
    7.9158761176254500E-01 
    7.9118274433772195E-01 
    7.8090411550746952E-01 
    7.8055924327750592E-01 
    7.9077991935812975E-01 
    7.9038135428769829E-01 
    7.8021708401436385E-01 
    7.7987951203905059E-01 
    7.8998920122970562E-01 
    7.8960545671299642E-01 
    7.7954828400255172E-01 
    7.7922518352207293E-01 
    7.8923215298469673E-01 
    7.8887127270609858E-01 
    7.7891199786785781E-01 
    7.7861038754954981E-01 
    7.8852467337111454E-01 
    7.8819411397149775E-01 
    7.7832189806487906E-01 
    7.7804814314702819E-01 
    7.8788136801577957E-01 
    7.8758810273444946E-01 
    7.7779060863238725E-01 
    7.7755058261975263E-01 
    7.8731582130103361E-01 
    7.8706608589944316E-01 
    7.7732944355860989E-01 
    7.7712835785147594E-01 
    7.8684032227800005E-01 
    7.8663985174746842E-01 
    7.7694819978827612E-01 
    7.7678978651892983E-01 
    7.8646607015996406E-01 
    7.8632061108088991E-01 
    7.7665413068436562E-01 
    7.7653773376890034E-01 
    7.8620296617580265E-01 
    7.8610143581677239E-01 
    7.7643329788615845E-01 
    7.7637482063501795E-01 
    7.8604143013194272E-01 
    7.7417514194396164E-01 
    7.6260691060410291E-01 
    7.6258655790021468E-01 
    7.7415148291603453E-01 
    7.7410431776466515E-01 
    7.6254596413526543E-01 
    7.6248538169349123E-01 
    7.7403394744145326E-01 
    7.7394086817596919E-01 
    7.6240521196219491E-01 
    7.6230602084324239E-01 
    7.7382576655475954E-01 
    7.7368948642826396E-01 
    7.6218846003094975E-01 
    7.6205324261317353E-01 
    7.7353291830188553E-01 
    7.7335702108259452E-01 
    7.6190116094042493E-01 
    7.6173316790128209E-01 
    7.7316291338163856E-01 
    7.7295183936602896E-01 
    7.6155029882204039E-01 
    7.6135363794114908E-01 
    7.7272509260985767E-01 
    7.7248408672504021E-01 
    7.6114436822277254E-01 
    7.6092372426207400E-01 
    7.7223028774310798E-01 
    7.7196519774300454E-01 
    7.6069296291067279E-01 
    7.6045339429159042E-01 
    7.7169038892676489E-01 
    7.7140748769703826E-01 
    7.6020638652899952E-01 
    7.5995330464894673E-01 
    7.7111810458306007E-01 
    7.7082384136744131E-01 
    7.5969551690328185E-01 
    7.5943446097369449E-01 
    7.7052635678882786E-01 
    7.7022729883723062E-01 
    7.5917158282775388E-01 
    7.5890831068883446E-01 
    7.6992829672530716E-01 
    7.6963100100398962E-01 
    7.5864610932565502E-01 
    7.5838645354796885E-01 
    7.6933705875834935E-01 
    7.6904806006807092E-01 
    7.5813077240976567E-01 
    7.5788049191910212E-01 
    7.6876557360132358E-01 
    7.6849120202224253E-01 
    7.5763708830987653E-01 
    7.5740195380310116E-01 
    7.6822646224135005E-01 
    7.6797278260627500E-01 
    7.5717644281457763E-01 
    7.5696196492334711E-01 
    7.6773163913034692E-01 
    7.6750440887931182E-01 
    7.5675986785341953E-01 
    7.5657145329831332E-01 
    7.6729235036401711E-01 
    7.6709676241578351E-01 
    7.5639806198706694E-01 
    7.5624090186312520E-01 
    7.6691874661700299E-01 
    7.6675916030738744E-01 
    7.5610110297742272E-01 
    7.5597988843016783E-01 
    7.6661870018298151E-01 
    7.6649813679426082E-01 
    7.5587843019160228E-01 
    7.5578431405504587E-01 
    7.6638997059676905E-01 
    7.6628856374648469E-01 
    7.5569021762547683E-01 
    7.5563529422909903E-01 
    7.6623162336831863E-01 
    7.5080522338925504E-01 
    7.3876052981411755E-01 
    7.3874434148564860E-01 
    7.5078730265575822E-01 
    7.5075155961291429E-01 
    7.3871206070954321E-01 
    7.3866387287001745E-01 
    7.5069820762325046E-01 
    7.5062757734595620E-01 
    7.3860005353976210E-01 
    7.3852097601582578E-01 
    7.5054011759139516E-01 
    7.5043636000299374E-01 
    7.3842709087722924E-01 
    7.3831892626178597E-01 
    7.5031690734736634E-01 
    7.5018244359988473E-01 
    7.3819708699781506E-01 
    7.3806231462033389E-01 
    7.5003379927203551E-01 
    7.4987187178786563E-01 
    7.3791540846648274E-01 
    7.3775718479570696E-01 
    7.4969758871861658E-01 
    7.4951197697633454E-01 
    7.3758855045229632E-01 
    7.3741041976590571E-01 
    7.4931609339710337E-01 
    7.4911098943213106E-01 
    7.3722370968088813E-01 
    7.3702942354039880E-01 
    7.4889778549181074E-01 
    7.4867768605788643E-01 
    7.3682864905048961E-01 
    7.3662246141720378E-01 
    7.4845188352722558E-01 
    7.4822156393906081E-01 
    7.3641193300146890E-01 
    7.3619824921616650E-01 
    7.4798802326599556E-01 
    7.4775256068248575E-01 
    7.3598258979287634E-01 
    7.3576608707939628E-01 
    7.4751642394437279E-01 
    7.4728096235631769E-01 
    7.3554999547681388E-01 
    7.3533554764206210E-01 
    7.4704752263359664E-01 
    7.4681737807296222E-01 
    7.3512392434465701E-01 
    7.3491636964111551E-01 
    7.4659185959225660E-01 
    7.4637236571669774E-01 
    7.3471418985170800E-01 
    7.3451864885167428E-01 
    7.4616020795119176E-01 
    7.4595666373569580E-01 
    7.3433098451104806E-01 
    7.3415256672715712E-01 
    7.4576313634562119E-01 
    7.4558100489418400E-01 
    7.3398478684943891E-01 
    7.3382901163948189E-01 
    7.4541159023656089E-01 
    7.4525636282343777E-01 
    7.3368679805023918E-01 
    7.3355977440099329E-01 
    7.4511674649301396E-01 
    7.4499415067383812E-01 
    7.3344954215175984E-01 
    7.3335819264366742E-01 
    7.4489040666513562E-01 
    7.4480749661850676E-01 
    7.3328809362465719E-01 
    7.3321773911358945E-01 
    7.4472681742284608E-01 
    7.4463748941340668E-01 
    7.3313443797435307E-01 
    7.3308283621614123E-01 
    7.4458363277063577E-01 
    7.2646858181049090E-01 
    7.1392956729733503E-01 
    7.1391514836647563E-01 
    7.2645353664862800E-01 
    7.2642354209872573E-01 
    7.1388640215674393E-01 
    7.1384349158236882E-01 
    7.2637876596579176E-01 
    7.2631945736240300E-01 
    7.1378664677430459E-01 
    7.1371614441882325E-01 
    7.2624593128036952E-01 
    7.2615858115469079E-01 
    7.1363235005923342E-01 
    7.1353570911085595E-01 
    7.2605788611597966E-01 
    7.2594440860944021E-01 
    7.1342675710782699E-01 
    7.1330611328308091E-01 
    7.2581881652241198E-01 
    7.2568183562298627E-01 
    7.1317445554898118E-01 
    7.1303248315989110E-01 
    7.2553421627690140E-01 
    7.2537675947016766E-01 
    7.1288093914832096E-01 
    7.1272061200523618E-01 
    7.2521028588978176E-01 
    7.2503565298635519E-01 
    7.1255233242124383E-01 
    7.1237700936806336E-01 
    7.2485379668735905E-01 
    7.2466571725160300E-01 
    7.1219559900825191E-01 
    7.1200906423567778E-01 
    7.2447241505147508E-01 
    7.2427490579993281E-01 
    7.1181837645016421E-01 
    7.1162457710206961E-01 
    7.2407428058346990E-01 
    7.2387162923360227E-01 
    7.1142870698670779E-01 
    7.1123179765649325E-01 
    7.2366802431825972E-01 
    7.2346462875838558E-01 
    7.1103494642038756E-01 
    7.1083923731522469E-01 
    7.2326257911729597E-01 
    7.2306300210064633E-01 
    7.1064573932648634E-01 
    7.1045556967223444E-01 
    7.2286706947232648E-01 
    7.2267597706292130E-01 
    7.1026984366580559E-01 
    7.1008966083743119E-01 
    7.2249091897084261E-01 
    7.2231307503515019E-01 
    7.0991609386345111E-01 
    7.0975028534147699E-01 
    7.2214371820692114E-01 
    7.2198413383469895E-01 
    7.0959334369374261E-01 
    7.0944633424818915E-01 
    7.2183561522675443E-01 
    7.2169961177031328E-01 
    7.0931044535517207E-01 
    7.0918684352953643E-01 
    7.2157765906329707E-01 
    7.2147127436283676E-01 
    7.0907674986570035E-01 
    7.0898217756338289E-01 