# vtk DataFile Version 2.0
Pressure Field Data 
ASCII 
DATASET UNSTRUCTURED_GRID 

POINTS 1681 double 

    0.0000000000000000E+00     0.0000000000000000E+00     0.0000000000000000E+00 
    1.0000000000000000E+00     0.0000000000000000E+00     0.0000000000000000E+00 
    1.0000000000000000E+00     1.0000000000000000E+00     0.0000000000000000E+00 
    0.0000000000000000E+00     1.0000000000000000E+00     0.0000000000000000E+00 
    5.2499999999875258E-01     0.0000000000000000E+00     0.0000000000000000E+00 
    7.4999999999856765E-02     0.0000000000000000E+00     0.0000000000000000E+00 
    1.2499999999975850E-01     0.0000000000000000E+00     0.0000000000000000E+00 
    1.7499999999962990E-01     0.0000000000000000E+00     0.0000000000000000E+00 
    2.2499999999948389E-01     0.0000000000000000E+00     0.0000000000000000E+00 
    2.7499999999933789E-01     0.0000000000000000E+00     0.0000000000000000E+00 
    3.2499999999919210E-01     0.0000000000000000E+00     0.0000000000000000E+00 
    3.7499999999904610E-01     0.0000000000000000E+00     0.0000000000000000E+00 
    4.2499999999890020E-01     0.0000000000000000E+00     0.0000000000000000E+00 
    4.7499999999875958E-01     0.0000000000000000E+00     0.0000000000000000E+00 
    2.4999999999949701E-02     0.0000000000000000E+00     0.0000000000000000E+00 
    5.7499999999887907E-01     0.0000000000000000E+00     0.0000000000000000E+00 
    6.2499999999901101E-01     0.0000000000000000E+00     0.0000000000000000E+00 
    6.7499999999914273E-01     0.0000000000000000E+00     0.0000000000000000E+00 
    7.2499999999927467E-01     0.0000000000000000E+00     0.0000000000000000E+00 
    7.7499999999940661E-01     0.0000000000000000E+00     0.0000000000000000E+00 
    8.2499999999953844E-01     0.0000000000000000E+00     0.0000000000000000E+00 
    8.7499999999967026E-01     0.0000000000000000E+00     0.0000000000000000E+00 
    9.2499999999980220E-01     0.0000000000000000E+00     0.0000000000000000E+00 
    9.7499999999993414E-01     0.0000000000000000E+00     0.0000000000000000E+00 
    5.4999999999881310E-01     0.0000000000000000E+00     0.0000000000000000E+00 
    9.9999999999814140E-02     0.0000000000000000E+00     0.0000000000000000E+00 
    1.4999999999970290E-01     0.0000000000000000E+00     0.0000000000000000E+00 
    1.9999999999955689E-01     0.0000000000000000E+00     0.0000000000000000E+00 
    2.4999999999941089E-01     0.0000000000000000E+00     0.0000000000000000E+00 
    2.9999999999926502E-01     0.0000000000000000E+00     0.0000000000000000E+00 
    3.4999999999911913E-01     0.0000000000000000E+00     0.0000000000000000E+00 
    3.9999999999897312E-01     0.0000000000000000E+00     0.0000000000000000E+00 
    4.4999999999882723E-01     0.0000000000000000E+00     0.0000000000000000E+00 
    4.9999999999869210E-01     0.0000000000000000E+00     0.0000000000000000E+00 
    4.9999999999899403E-02     0.0000000000000000E+00     0.0000000000000000E+00 
    5.9999999999894504E-01     0.0000000000000000E+00     0.0000000000000000E+00 
    6.4999999999907687E-01     0.0000000000000000E+00     0.0000000000000000E+00 
    6.9999999999920870E-01     0.0000000000000000E+00     0.0000000000000000E+00 
    7.4999999999934064E-01     0.0000000000000000E+00     0.0000000000000000E+00 
    7.9999999999947247E-01     0.0000000000000000E+00     0.0000000000000000E+00 
    8.4999999999960441E-01     0.0000000000000000E+00     0.0000000000000000E+00 
    8.9999999999973623E-01     0.0000000000000000E+00     0.0000000000000000E+00 
    9.4999999999986817E-01     0.0000000000000000E+00     0.0000000000000000E+00 
    1.0000000000000000E+00     5.2499999999875258E-01     0.0000000000000000E+00 
    1.0000000000000000E+00     7.4999999999856765E-02     0.0000000000000000E+00 
    1.0000000000000000E+00     1.2499999999975850E-01     0.0000000000000000E+00 
    1.0000000000000000E+00     1.7499999999962990E-01     0.0000000000000000E+00 
    1.0000000000000000E+00     2.2499999999948389E-01     0.0000000000000000E+00 
    1.0000000000000000E+00     2.7499999999933789E-01     0.0000000000000000E+00 
    1.0000000000000000E+00     3.2499999999919210E-01     0.0000000000000000E+00 
    1.0000000000000000E+00     3.7499999999904610E-01     0.0000000000000000E+00 
    1.0000000000000000E+00     4.2499999999890020E-01     0.0000000000000000E+00 
    1.0000000000000000E+00     4.7499999999875958E-01     0.0000000000000000E+00 
    1.0000000000000000E+00     2.4999999999949701E-02     0.0000000000000000E+00 
    1.0000000000000000E+00     5.7499999999887907E-01     0.0000000000000000E+00 
    1.0000000000000000E+00     6.2499999999901101E-01     0.0000000000000000E+00 
    1.0000000000000000E+00     6.7499999999914273E-01     0.0000000000000000E+00 
    1.0000000000000000E+00     7.2499999999927467E-01     0.0000000000000000E+00 
    1.0000000000000000E+00     7.7499999999940661E-01     0.0000000000000000E+00 
    1.0000000000000000E+00     8.2499999999953844E-01     0.0000000000000000E+00 
    1.0000000000000000E+00     8.7499999999967026E-01     0.0000000000000000E+00 
    1.0000000000000000E+00     9.2499999999980220E-01     0.0000000000000000E+00 
    1.0000000000000000E+00     9.7499999999993414E-01     0.0000000000000000E+00 
    1.0000000000000000E+00     5.4999999999881310E-01     0.0000000000000000E+00 
    1.0000000000000000E+00     9.9999999999814140E-02     0.0000000000000000E+00 
    1.0000000000000000E+00     1.4999999999970290E-01     0.0000000000000000E+00 
    1.0000000000000000E+00     1.9999999999955689E-01     0.0000000000000000E+00 
    1.0000000000000000E+00     2.4999999999941089E-01     0.0000000000000000E+00 
    1.0000000000000000E+00     2.9999999999926502E-01     0.0000000000000000E+00 
    1.0000000000000000E+00     3.4999999999911913E-01     0.0000000000000000E+00 
    1.0000000000000000E+00     3.9999999999897312E-01     0.0000000000000000E+00 
    1.0000000000000000E+00     4.4999999999882723E-01     0.0000000000000000E+00 
    1.0000000000000000E+00     4.9999999999869210E-01     0.0000000000000000E+00 
    1.0000000000000000E+00     4.9999999999899403E-02     0.0000000000000000E+00 
    1.0000000000000000E+00     5.9999999999894504E-01     0.0000000000000000E+00 
    1.0000000000000000E+00     6.4999999999907687E-01     0.0000000000000000E+00 
    1.0000000000000000E+00     6.9999999999920870E-01     0.0000000000000000E+00 
    1.0000000000000000E+00     7.4999999999934064E-01     0.0000000000000000E+00 
    1.0000000000000000E+00     7.9999999999947247E-01     0.0000000000000000E+00 
    1.0000000000000000E+00     8.4999999999960441E-01     0.0000000000000000E+00 
    1.0000000000000000E+00     8.9999999999973623E-01     0.0000000000000000E+00 
    1.0000000000000000E+00     9.4999999999986817E-01     0.0000000000000000E+00 
    4.7500000000196618E-01     1.0000000000000000E+00     0.0000000000000000E+00 
    9.2499999999968763E-01     1.0000000000000000E+00     0.0000000000000000E+00 
    8.7499999999961831E-01     1.0000000000000000E+00     0.0000000000000000E+00 
    8.2499999999982654E-01     1.0000000000000000E+00     0.0000000000000000E+00 
    7.7500000000017355E-01     1.0000000000000000E+00     0.0000000000000000E+00 
    7.2500000000052045E-01     1.0000000000000000E+00     0.0000000000000000E+00 
    6.7500000000086724E-01     1.0000000000000000E+00     0.0000000000000000E+00 
    6.2500000000121403E-01     1.0000000000000000E+00     0.0000000000000000E+00 
    5.7500000000156093E-01     1.0000000000000000E+00     0.0000000000000000E+00 
    5.2500000000189684E-01     1.0000000000000000E+00     0.0000000000000000E+00 
    9.7499999999989595E-01     1.0000000000000000E+00     0.0000000000000000E+00 
    4.2500000000176902E-01     1.0000000000000000E+00     0.0000000000000000E+00 
    3.7500000000156092E-01     1.0000000000000000E+00     0.0000000000000000E+00 
    3.2500000000135282E-01     1.0000000000000000E+00     0.0000000000000000E+00 
    2.7500000000114472E-01     1.0000000000000000E+00     0.0000000000000000E+00 
    2.2500000000093659E-01     1.0000000000000000E+00     0.0000000000000000E+00 
    1.7500000000072849E-01     1.0000000000000000E+00     0.0000000000000000E+00 
    1.2500000000052039E-01     1.0000000000000000E+00     0.0000000000000000E+00 
    7.5000000000312261E-02     1.0000000000000000E+00     0.0000000000000000E+00 
    2.5000000000104109E-02     1.0000000000000000E+00     0.0000000000000000E+00 
    4.5000000000187301E-01     1.0000000000000000E+00     0.0000000000000000E+00 
    8.9999999999958358E-01     1.0000000000000000E+00     0.0000000000000000E+00 
    8.4999999999965303E-01     1.0000000000000000E+00     0.0000000000000000E+00 
    8.0000000000000004E-01     1.0000000000000000E+00     0.0000000000000000E+00 
    7.5000000000034706E-01     1.0000000000000000E+00     0.0000000000000000E+00 
    7.0000000000069384E-01     1.0000000000000000E+00     0.0000000000000000E+00 
    6.5000000000104063E-01     1.0000000000000000E+00     0.0000000000000000E+00 
    6.0000000000138742E-01     1.0000000000000000E+00     0.0000000000000000E+00 
    5.5000000000173432E-01     1.0000000000000000E+00     0.0000000000000000E+00 
    5.0000000000205946E-01     1.0000000000000000E+00     0.0000000000000000E+00 
    9.4999999999979179E-01     1.0000000000000000E+00     0.0000000000000000E+00 
    4.0000000000166491E-01     1.0000000000000000E+00     0.0000000000000000E+00 
    3.5000000000145681E-01     1.0000000000000000E+00     0.0000000000000000E+00 
    3.0000000000124871E-01     1.0000000000000000E+00     0.0000000000000000E+00 
    2.5000000000104061E-01     1.0000000000000000E+00     0.0000000000000000E+00 
    2.0000000000083251E-01     1.0000000000000000E+00     0.0000000000000000E+00 
    1.5000000000062441E-01     1.0000000000000000E+00     0.0000000000000000E+00 
    1.0000000000041630E-01     1.0000000000000000E+00     0.0000000000000000E+00 
[...]
CELL_DATA 1600 
SCALARS Pressure double 1 
LOOKUP_TABLE default 

    1.3012100611353492E+00 
    1.2544466344640088E+00 
    1.2520160790629618E+00 
    1.2855668737809944E+00 
    1.2730442811747220E+00 
    1.2483272440052937E+00 
    1.2440355551691329E+00 
    1.2627232316797363E+00 
    1.2540093335716593E+00 
    1.2395146054097415E+00 
    1.2349735005730214E+00 
    1.2464967052260216E+00 
    1.2399013559257352E+00 
    1.2305256498328010E+00 
    1.2262297370429744E+00 
    1.2340235518359246E+00 
    1.2287207228525434E+00 
    1.2221124730499964E+00 
    1.2181812687548668E+00 
    1.2238862770577488E+00 
    1.2194379492649459E+00 
    1.2144333115911290E+00 
    1.2108620491190742E+00 
    1.2153140637770117E+00 
    1.2114692510508589E+00 
    1.2074601077860567E+00 
    1.2042196955692146E+00 
    1.2078690130782765E+00 
    1.2044863238858170E+00 
    1.2011327746704286E+00 
    1.1981911366703077E+00 
    1.2012991557326900E+00 
    1.1982891141481327E+00 
    1.1953870536256150E+00 
    1.1927141641161272E+00 
    1.1954416490202613E+00 
    1.1927457691724213E+00 
    1.1901674904442929E+00 
    1.1877427264635831E+00 
    1.1901927036441424E+00 
    1.1877749879437174E+00 
    1.1854359841437114E+00 
    1.1832439450154770E+00 
    1.1854864705311454E+00 
    1.1833223252096665E+00 
    1.1811640380998905E+00 
    1.1791942462903666E+00 
    1.1812787275011762E+00 
    1.1793526318946972E+00 
    1.1773329540849164E+00 
    1.1755789040525413E+00 
    1.1775416391029010E+00 
    1.1758439314498759E+00 
    1.1739312531098902E+00 
    1.1723894914598973E+00 
    1.1742581999776167E+00 
    1.1727835868931829E+00 
    1.1709533924856028E+00 
    1.1696229885134812E+00 
    1.1714196243381070E+00 
    1.1701660704411696E+00 
    1.1683984755345973E+00 
    1.1672802658626820E+00 
    1.1690229436222943E+00 
    1.1679937105740998E+00 
    1.1662724373090174E+00 
    1.1653554571294369E+00 
    1.1670639958458677E+00 
    1.1660986596758394E+00 
    1.1644019182335490E+00 
    1.1635203243390491E+00 
    1.1651997949599855E+00 
    1.1645362911595014E+00 
    1.1628684615572262E+00 
    1.1623806481439132E+00 
    1.1640398879408469E+00 
    1.1637094301636894E+00 
    1.1620558426707068E+00 
    1.1618935590620252E+00 
    1.1635443509726293E+00 
    1.2298376923776384E+00 
    1.2112674332328843E+00 
    1.2108593402196166E+00 
    1.2290349165372318E+00 
    1.2275542914617512E+00 
    1.2100688964574142E+00 
    1.2089384532948138E+00 
    1.2255479119453474E+00 
    1.2231605900878160E+00 
    1.2075188577101645E+00 
    1.2058618015053171E+00 
    1.2205137061867977E+00 
    1.2177028528308702E+00 
    1.2040161368706896E+00 
    1.2020262891848328E+00 
    1.2148004928331269E+00 
    1.2118599676166861E+00 
    1.1999311168083839E+00 
    1.1977640298098635E+00 
    1.2089199082789843E+00 
    1.2060082483452579E+00 
    1.1955529742030739E+00 
    1.1933209154929090E+00 
    1.2031451734616421E+00 
    1.2003452379134767E+00 
    1.1910866900655401E+00 
    1.1888654275052200E+00 
    1.1976184505148961E+00 
    1.1949712657525093E+00 
    1.1866691896424377E+00 
    1.1845080095031650E+00 
    1.1924076992838597E+00 
    1.1899305072005959E+00 
    1.1823903131493831E+00 
    1.1803230523915687E+00 
    1.1875418243457265E+00 
    1.1852432357551921E+00 
    1.1783118521907472E+00 
    1.1763614440651333E+00 
    1.1830357070306112E+00 
    1.1809197876663606E+00 
    1.1744757532055308E+00 
    1.1726581540094461E+00 
    1.1788958823578146E+00 
    1.1769644957186924E+00 
    1.1709117267009608E+00 
    1.1692391255035965E+00 
    1.1751261065404730E+00 
    1.1733811518961872E+00 
    1.1676426442460606E+00 
    1.1661244958395305E+00 
    1.1717301293770699E+00 
    1.1701736638960887E+00 
    1.1646867641762713E+00 
    1.1633313303960793E+00 
    1.1687124328201970E+00 
    1.1673471934972957E+00 
    1.1620599724290051E+00 
    1.1608744635833461E+00 
    1.1660787927177867E+00 
    1.1649080072918316E+00 
    1.1597761783358083E+00 
    1.1587679516397174E+00 
    1.1638361255299865E+00 
    1.1628676080974558E+00 
    1.1578532730265709E+00 
    1.1569830546320072E+00 
    1.1619722749910191E+00 
    1.1610411403302139E+00 
    1.1560792834717153E+00 
    1.1552785690627141E+00 
    1.1601935783454937E+00 
    1.1595632300653496E+00 
    1.1546767420397521E+00 
    1.1542259867375311E+00 
    1.1590913304308854E+00 
    1.1587770139719922E+00 
    1.1539256315334994E+00 
    1.1537754925810100E+00 
    1.1586199326135784E+00 
    1.1949894540362038E+00 
    1.1796693015596484E+00 
    1.1794927468052523E+00 
    1.1947354575499769E+00 
    1.1942360615744219E+00 
    1.1791434136558809E+00 
    1.1786282128643584E+00 
    1.1935067208242742E+00 
    1.1925677402855395E+00 
    1.1779568313002249E+00 
    1.1771417772975727E+00 
    1.1914425321705433E+00 
    1.1901563919340832E+00 
    1.1761974083873141E+00 
    1.1751383134382634E+00 
    1.1887347615368264E+00 
    1.1872017153947896E+00 
    1.1739789089029102E+00 
    1.1727338924702118E+00 
    1.1855799220568664E+00 
    1.1838899722656075E+00 
    1.1714175339687329E+00 
    1.1700430345700588E+00 
    1.1821499592048890E+00 
    1.1803761593068276E+00 
    1.1686231697748668E+00 
    1.1671699487187894E+00 
    1.1785829945676101E+00 
    1.1767830023716281E+00 
    1.1656941359405153E+00 
    1.1642056800082854E+00 
    1.1749873901352765E+00 
    1.1732060436811551E+00 
    1.1627137781274592E+00 
    1.1612266864499923E+00 
    1.1714473950469986E+00 
    1.1697186519348095E+00 
    1.1597517722785953E+00 
    1.1582959772963985E+00 
    1.1680263721708908E+00 
    1.1663763488571792E+00 
    1.1568656559212647E+00 
    1.1554663565209331E+00 
    1.1647735881254502E+00 
    1.1632227291257975E+00 
    1.1541033349143102E+00 
    1.1527814463454080E+00 
    1.1617278822962154E+00 
    1.1602926399197306E+00 
    1.1515049792042820E+00 
    1.1502780157368049E+00 
    1.1589204362621086E+00 
    1.1576145094525649E+00 
    1.1491044624904512E+00 
    1.1479878801713934E+00 
    1.1563777568087203E+00 
    1.1552128264538726E+00 
    1.1469314835085918E+00 
    1.1459383825649514E+00 
    1.1541223117318702E+00 
    1.1531083419120722E+00 
    1.1450116850277541E+00 
    1.1441576760556140E+00 
    1.1521757356293190E+00 
    1.1513250624733584E+00 
    1.1433705169197124E+00 
    1.1425413305099918E+00 
    1.1504769847129692E+00 
    1.1495988434483453E+00 
    1.1416931197306737E+00 
    1.1410040466100111E+00 
    1.1488527870605363E+00 
    1.1482832752247298E+00 
    1.1404664521324188E+00 
    1.1400637356048262E+00 
    1.1478564278708099E+00 
    1.1475718989632642E+00 
    1.1397954278076980E+00 
    1.1396613232705282E+00 
    1.1474296504570112E+00 
    1.1646933739411414E+00 
    1.1497303747452252E+00 
    1.1496276958887701E+00 
    1.1645618041375745E+00 
    1.1643006198993142E+00 
    1.1494235363169039E+00 
    1.1491203325111135E+00 
    1.1639136353231023E+00 
    1.1634065965423259E+00 
    1.1487217562876828E+00 
    1.1482323094475040E+00 
    1.1627869274868223E+00 
    1.1620629340297639E+00 
    1.1476572106551519E+00 
    1.1470023477052835E+00 
    1.1612433749435054E+00 
    1.1603375588157527E+00 
    1.1462742675252569E+00 
    1.1454799367948785E+00 
    1.1593553724771899E+00 
    1.1583068257261830E+00 
    1.1446264751280304E+00 
    1.1437208901867382E+00 
    1.1572016050617433E+00 
    1.1560492676781093E+00 
    1.1427702743204051E+00 
    1.1417816591460055E+00 
    1.1548590766390554E+00 
    1.1536396382947380E+00 
    1.1407619061371783E+00 
    1.1397177417456990E+00 
    1.1523991670831177E+00 
    1.1511455419054606E+00 
    1.1386557752538584E+00 
    1.1375822843647441E+00 
    1.1498861602099393E+00 
    1.1486278697387318E+00 
    1.1365032557273758E+00 
    1.1354245066292659E+00 
    1.1473771809471840E+00 
    1.1461401825391313E+00 
    1.1343515368497483E+00 
    1.1332894950196375E+00 
    1.1449223986990644E+00 
    1.1437290763419810E+00 
    1.1322434046677032E+00 
    1.1312179669521212E+00 
    1.1425651875736065E+00 
    1.1414352443760218E+00 
    1.1302175661917442E+00 
    1.1292464010145291E+00 
    1.1403434995792605E+00 
    1.1392939857865472E+00 
    1.1283084766470490E+00 
    1.1274074392858149E+00 
    1.1382904035641772E+00 
    1.1373360159390107E+00 
    1.1265466066989835E+00 
    1.1257291418564963E+00 
    1.1364337061020751E+00 
    1.1355870006260800E+00 
    1.1249596205825603E+00 
    1.1242387388217228E+00 
    1.1348004099569662E+00 
    1.1340495981462606E+00 
    1.1234998411460815E+00 
    1.1226753837494292E+00 
    1.1332286901275839E+00 
    1.1324290349800994E+00 
    1.1219302750198188E+00 
    1.1213527585508760E+00 
    1.1318018578623130E+00 
    1.1313020343880864E+00 
    1.1208893505517652E+00 
    1.1205410526977353E+00 
    1.1309270496029784E+00 
    1.1306770014459417E+00 
    1.1203085338843817E+00 
    1.1201921769726946E+00 
    1.1305519595585449E+00 
    1.1345854479573518E+00 
    1.1191438303691674E+00 
    1.1190753012570545E+00 
    1.1345027196480040E+00 
    1.1343380709430975E+00 
    1.1189388139980072E+00 
    1.1187354541194978E+00 
    1.1340931082869801E+00 
    1.1337701039298791E+00 
    1.1184667358151277E+00 
    1.1181346719380445E+00 
    1.1333719660829038E+00 
    1.1329023502101021E+00 
    1.1177419044828576E+00 
    1.1172915544411863E+00 
    1.1323655073982335E+00 
    1.1317661273600041E+00 
    1.1167870122880730E+00 
    1.1162319500793205E+00 
    1.1311092736390487E+00 
    1.1304000410922681E+00 
    1.1156302567944776E+00 
    1.1149860543055596E+00 
    1.1296435772898534E+00 
    1.1288454114097948E+00 
    1.1143037609752309E+00 
    1.1135878940417154E+00 
    1.1280111286916998E+00 
    1.1271461931206503E+00 
    1.1128428439469042E+00 
    1.1120730844564841E+00 
    1.1262560974843310E+00 
    1.1253463276172120E+00 
    1.1112831350495302E+00 
    1.1104774354407161E+00 
    1.1244221508758323E+00 
    1.1234886061955980E+00 
    1.1096602941957772E+00 
    1.1088360814684992E+00 
    1.1225507943465078E+00 
    1.1216136184567942E+00 
    1.1080091185887424E+00 
    1.1071834467232791E+00 
    1.1206816638487129E+00 
    1.1197595500525508E+00 
    1.1063631190866767E+00 
    1.1055520653609494E+00 
    1.1188516304196958E+00 
    1.1179619191589467E+00 
    1.1047538845549700E+00 
    1.1039721830907512E+00 
    1.1170943749372042E+00 
    1.1162528911821186E+00 
    1.1032105816545410E+00 
    1.1024725405204310E+00 
    1.1154410632874137E+00 
    1.1146622237355850E+00 
    1.1017613468717025E+00 
    1.1010808076990510E+00 
    1.1139202200759111E+00 
    1.1132198945159477E+00 
    1.1004306635094367E+00 
    1.0997598542125733E+00 
    1.1125512596683425E+00 
    1.1118099700198252E+00 
    1.0989762087942252E+00 
    1.0982057831352317E+00 
    1.1109985833684910E+00 
    1.1103111484065551E+00 
    1.0975874995920469E+00 
    1.0970760088749658E+00 
    1.1097634058638484E+00 
    1.1093255221353504E+00 
    1.0966663133315175E+00 
    1.0963587590126811E+00 
    1.1089971742565772E+00 
    1.1087782792392862E+00 
    1.0961535942946916E+00 
    1.0960509800657425E+00 
    1.1086688291192615E+00 
    1.1033339793114350E+00 
    1.0871026685488483E+00 
    1.0870516576155598E+00 
    1.1032756266834800E+00 
    1.1031593226403025E+00 
    1.0869499264393390E+00 
    1.0867980386178064E+00 
    1.1029858405421944E+00 
    1.1027563050244413E+00 
    1.0865969102741173E+00 
    1.0863478491196357E+00 
    1.1024722628335948E+00 
    1.1021357197469144E+00 
    1.0860525003177053E+00 
    1.0857126575062619E+00 
    1.1017489853739342E+00 
    1.1013145329783105E+00 
    1.0853302930940181E+00 
    1.0849078370317775E+00 
    1.1008352335973701E+00 
    1.1003143105191160E+00 
    1.0844479708220740E+00 
    1.0839533613416288E+00 
    1.0997551148546310E+00 
    1.0991612162721967E+00 
    1.0834268818368105E+00 
    1.0828714547881564E+00 
    1.0985362365550204E+00 
    1.0978837184213255E+00 
    1.0822900074908965E+00 
    1.0816856423565104E+00 
    1.0972073762301815E+00 
    1.0965109887241538E+00 
    1.0810615751956538E+00 
    1.0804209663091131E+00 
    1.0957982801119954E+00 
    1.0950729578427816E+00 
    1.0797669855962946E+00 
    1.0791030094182854E+00 
    1.0943388344258866E+00 
    1.0935996513471364E+00 
    1.0784323044530737E+00 
    1.0777579407908342E+00 
    1.0928589232907531E+00 
    1.0921202110836878E+00 
    1.0770830237132758E+00 
    1.0764105443107699E+00 
    1.0913869498616258E+00 
    1.0906623449621866E+00 
    1.0757433809535875E+00 
    1.0750845723120852E+00 
    1.0899497442151411E+00 
    1.0892526284516646E+00 
    1.0744373993133320E+00 
    1.0738052223962016E+00 
    1.0885744588870829E+00 
    1.0879191530353596E+00 
    1.0731918641368716E+00 
    1.0725965072630428E+00 
    1.0872902944362903E+00 
    1.0866735514747510E+00 
    1.0719547629288542E+00 
    1.0711691112689186E+00 
    1.0859667141248244E+00 
    1.0851470025960295E+00 
    1.0703724323043056E+00 
    1.0697190369107286E+00 
    1.0844264434262771E+00 
    1.0838510595920949E+00 
    1.0691708310030352E+00 
    1.0687136191641411E+00 
    1.0833708182557376E+00 
    1.0829857969040158E+00 
    1.0683474714467920E+00 
    1.0680726086174468E+00 
    1.0826965805842621E+00 
    1.0825035687026441E+00 
    1.0678892428668565E+00 
    1.0677975360099710E+00 
    1.0824070169251594E+00 
    1.0704093525649729E+00 
    1.0532284769102573E+00 
    1.0531869819582149E+00 
    1.0703637839720745E+00 
    1.0702728532288863E+00 
    1.0531041523429272E+00 
    1.0529803289376807E+00 
    1.0701369696803724E+00 
    1.0699568974525235E+00 
    1.0528161367950666E+00 
    1.0526125526902994E+00 
    1.0697337826654079E+00 
    1.0694690276093295E+00 
    1.0523707620753888E+00 
    1.0520921611891620E+00 
    1.0691641591813998E+00 
    1.0688209266023438E+00 
    1.0517783017917539E+00 
    1.0514308583692715E+00 
    1.0684413756571687E+00 
    1.0680276492527476E+00 
    1.0510515273900365E+00 
    1.0506420878149114E+00 
    1.0675818972454194E+00 
    1.0671064454461920E+00 
    1.0502045244934097E+00 
    1.0497409542499916E+00 
    1.0666037139433415E+00 
    1.0660762181453611E+00 
    1.0492535405785359E+00 
    1.0487445955507548E+00 
    1.0655265905727289E+00 
    1.0649575783884844E+00 
    1.0482165451373984E+00 
    1.0476717791510888E+00 
    1.0643719089527359E+00 
    1.0637723148894720E+00 
    1.0471126578596532E+00 
    1.0465417399048909E+00 
    1.0631617397557909E+00 
    1.0625431075394256E+00 
    1.0459616497928128E+00 
    1.0453749207603147E+00 
    1.0619191790357347E+00 
    1.0612927083734065E+00 
    1.0447842920014427E+00 
    1.0441924207336446E+00 
    1.0606664086066444E+00 
    1.0600428756269109E+00 
    1.0436017127154418E+00 
    1.0430150132638174E+00 
    1.0594247824203256E+00 
    1.0588151054756541E+00 
    1.0424354829477178E+00 
    1.0418641449873813E+00 
    1.0582168149576889E+00 
    1.0576304069146814E+00 
    1.0412881468520916E+00 
    1.0406123465717698E+00 
    1.0570286365099792E+00 
    1.0563001148213083E+00 
    1.0397585519945165E+00 
    1.0389230631601010E+00 
    1.0554516521131430E+00 
    1.0547100191258238E+00 
    1.0382355890785235E+00 
    1.0376436737638555E+00 
    1.0541033980424781E+00 
    1.0535818757024236E+00 
    1.0371364712323305E+00 
    1.0367136948093358E+00 
    1.0531459563327961E+00 
    1.0527964522734572E+00 
    1.0363753249433607E+00 
    1.0361214241333538E+00 
    1.0525338973573071E+00 
    1.0523586612839877E+00 
    1.0359520603782981E+00 
    1.0358672901152104E+00 
    1.0522709532470607E+00 
    1.0355503600042688E+00 
    1.0173782350009639E+00 
    1.0173414918944033E+00 
    1.0355117645409619E+00 
    1.0354347651477422E+00 
    1.0172682647021800E+00 
    1.0171590719881198E+00 
    1.0353197478891272E+00 
    1.0351672931817093E+00 
    1.0170145442182219E+00 
    1.0168352764139392E+00 
    1.0349781537388403E+00 
    1.0347532940435014E+00 
    1.0166219779081556E+00 
    1.0163756606415133E+00 
    1.0344939567253559E+00 
    1.0342014694807355E+00 
    1.0160974245903767E+00 
    1.0157884112519460E+00 
    1.0338771859969851E+00 
    1.0335225113653035E+00 
    1.0154498904877303E+00 
    1.0150833049982921E+00 
    1.0331389890858442E+00 
    1.0327284546549065E+00 
    1.0146903653641721E+00 
    1.0142727741363888E+00 
    1.0322928180535165E+00 
    1.0318339598414636E+00 
    1.0138322734661436E+00 
    1.0133708142463898E+00 
    1.0313539665390661E+00 
    1.0308550386148445E+00 
    1.0128903869381813E+00 
    1.0123929714534119E+00 
    1.0303393333113158E+00 
    1.0298089568508060E+00 
    1.0118805137087430E+00 
    1.0113551393801223E+00 
    1.0292661964713039E+00 
    1.0287133424895487E+00 
    1.0108189647182475E+00 
    1.0102739298793126E+00 
    1.0281526581579132E+00 
    1.0275868451260002E+00 
    1.0097222486558093E+00 
    1.0091664580186230E+00 
    1.0270185694088967E+00 
    1.0264504519860360E+00 
    1.0086094451121266E+00 
    1.0080517412656860E+00 
    1.0258854546017140E+00 
    1.0253245382296865E+00 
    1.0074809289788553E+00 
    1.0068230423138333E+00 
    1.0247560701480987E+00 
    1.0241034309390198E+00 
    1.0059635607424380E+00 
    1.0049858993204588E+00 
    1.0232556704991864E+00 
    1.0223371318651240E+00 
    1.0041308707750793E+00 
    1.0034137882846470E+00 
    1.0215622494030041E+00 
    1.0209089554168547E+00 
    1.0027767946455535E+00 
    1.0022188749617011E+00 
    1.0203368972796734E+00 
    1.0198458656056597E+00 
    1.0017402880367461E+00 
    1.0013412293915123E+00 
    1.0194362334389415E+00 
    1.0191082542140875E+00 
    1.0010218359029743E+00 
    1.0007822247472060E+00 
    1.0188621106266604E+00 
    1.0186979186096721E+00 
    1.0006224605907754E+00 
    1.0005426020812180E+00 
    1.0186157565243930E+00 
    9.9872141166728134E-01 
    9.7959126823446274E-01 
    9.7955575698342845E-01 
    9.9868564438468443E-01 
    9.9861441817697860E-01 
    9.7948498557950536E-01 
    9.7937948224367011E-01 
    9.9850834753140938E-01 
    9.9836813693582549E-01 
    9.7923991019756340E-01 
    9.7906693545784873E-01 
    9.9819431761715538E-01 
    9.9798742682566643E-01 
    9.7886128527623240E-01 
    9.7862354284505149E-01 
    9.9774821669237723E-01 
    9.9747756152341316E-01 
    9.7835429584748013E-01 
    9.7805467797974577E-01 
    9.9717653049084998E-01 
    9.9684643522972793E-01 
    9.7772607178010795E-01 
    9.7736957541303171E-01 
    9.9648864436898310E-01 
    9.9610465762276534E-01 
    9.7698648588548798E-01 
    9.7657860461669843E-01 
    9.9569608235709428E-01 
    9.9526462226833945E-01 
    9.7614762324480242E-01 
    9.7569497910982095E-01 
    9.9481206936025102E-01 
    9.9434023609434286E-01 
    9.7522233158493521E-01 
    9.7473167033334496E-01 
    9.9385100476844646E-01 
    9.9334620369066606E-01 
    9.7422491346514162E-01 
    9.7370420490236709E-01 
    9.9282785496504722E-01 
    9.9229820766838839E-01 
    9.7317175328445116E-01 
    9.7262921184718343E-01 
    9.9175922164250008E-01 
    9.9121268396177942E-01 
    9.7207707507306207E-01 
    9.7151044616610371E-01 
    9.9066022850253299E-01 
    9.9010037393629302E-01 
    9.7090384746627212E-01 
    9.7016635826338149E-01 
    9.8951758212573027E-01 
    9.8883553661100310E-01 
    9.6919276616866423E-01 
    9.6808147378639420E-01 
    9.8794152848314110E-01 
    9.8690902000538638E-01 
    9.6707098113131673E-01 
    9.6621044269786438E-01 
    9.8597476622676350E-01 
    9.8518228245003892E-01 
    9.6544533662825061E-01 
    9.6475818658108381E-01 
    9.8447887228345132E-01 
    9.8385418237030997E-01 
    9.6414843635634040E-01 
    9.6361566558097733E-01 
    9.8330791409002527E-01 
    9.8283989590499399E-01 
    9.6315954049825658E-01 
    9.6277980686833808E-01 