# vtk DataFile Version 2.0
Pressure Field Data 
ASCII 
DATASET UNSTRUCTURED_GRID 

POINTS 1681 double 

    0.0000000000000000E+00     0.0000000000000000E+00     0.0000000000000000E+00 
    1.0000000000000000E+00     0.0000000000000000E+00     0.0000000000000000E+00 
    1.0000000000000000E+00     1.0000000000000000E+00     0.0000000000000000E+00 
    0.0000000000000000E+00     1.0000000000000000E+00     0.0000000000000000E+00 
    5.2499999999875258E-01     0.0000000000000000E+00     0.0000000000000000E+00 
    7.4999999999856765E-02     0.0000000000000000E+00     0.0000000000000000E+00 
    1.2499999999975850E-01     0.0000000000000000E+00     0.0000000000000000E+00 
    1.7499999999962990E-01     0.0000000000000000E+00     0.0000000000000000E+00 
    2.2499999999948389E-01     0.0000000000000000E+00     0.0000000000000000E+00 
    2.7499999999933789E-01     0.0000000000000000E+00     0.0000000000000000E+00 
    3.2499999999919210E-01     0.0000000000000000E+00     0.0000000000000000E+00 
    3.7499999999904610E-01     0.0000000000000000E+00     0.0000000000000000E+00 
    4.2499999999890020E-01     0.0000000000000000E+00     0.0000000000000000E+00 
    4.7499999999875958E-01     0.0000000000000000E+00     0.0000000000000000E+00 
    2.4999999999949701E-02     0.0000000000000000E+00     0.0000000000000000E+00 
    5.7499999999887907E-01     0.0000000000000000E+00     0.0000000000000000E+00 
    6.2499999999901101E-01     0.0000000000000000E+00     0.0000000000000000E+00 
    6.7499999999914273E-01     0.0000000000000000E+00     0.0000000000000000E+00 
    7.2499999999927467E-01     0.0000000000000000E+00     0.0000000000000000E+00 
    7.7499999999940661E-01     0.0000000000000000E+00     0.0000000000000000E+00 
    8.2499999999953844E-01     0.0000000000000000E+00     0.0000000000000000E+00 
    8.7499999999967026E-01     0.0000000000000000E+00     0.0000000000000000E+00 
    9.2499999999980220E-01     0.0000000000000000E+00     0.0000000000000000E+00 
    9.7499999999993414E-01     0.0000000000000000E+00     0.0000000000000000E+00 
    5.4999999999881310E-01     0.0000000000000000E+00     0.0000000000000000E+00 
    9.9999999999814140E-02     0.0000000000000000E+00     0.0000000000000000E+00 
    1.4999999999970290E-01     0.0000000000000000E+00     0.0000000000000000E+00 
    1.9999999999955689E-01     0.0000000000000000E+00     0.0000000000000000E+00 
    2.4999999999941089E-01     0.0000000000000000E+00     0.0000000000000000E+00 
    2.9999999999926502E-01     0.0000000000000000E+00     0.0000000000000000E+00 
    3.4999999999911913E-01     0.0000000000000000E+00     0.0000000000000000E+00 
    3.9999999999897312E-01     0.0000000000000000E+00     0.0000000000000000E+00 
    4.4999999999882723E-01     0.0000000000000000E+00     0.0000000000000000E+00 
    4.9999999999869210E-01     0.0000000000000000E+00     0.0000000000000000E+00 
    4.9999999999899403E-02     0.0000000000000000E+00     0.0000000000000000E+00 
    5.9999999999894504E-01     0.0000000000000000E+00     0.0000000000000000E+00 
    6.4999999999907687E-01     0.0000000000000000E+00     0.0000000000000000E+00 
    6.9999999999920870E-01     0.0000000000000000E+00     0.0000000000000000E+00 
    7.4999999999934064E-01     0.0000000000000000E+00     0.0000000000000000E+00 
    7.9999999999947247E-01     0.0000000000000000E+00     0.0000000000000000E+00 
    8.4999999999960441E-01     0.0000000000000000E+00     0.0000000000000000E+00 
    8.9999999999973623E-01     0.0000000000000000E+00     0.0000000000000000E+00 
    9.4999999999986817E-01     0.0000000000000000E+00     0.0000000000000000E+00 
    1.0000000000000000E+00     5.2499999999875258E-01     0.0000000000000000E+00 
    1.0000000000000000E+00     7.4999999999856765E-02     0.0000000000000000E+00 
    1.0000000000000000E+00     1.2499999999975850E-01     0.0000000000000000E+00 
    1.0000000000000000E+00     1.7499999999962990E-01     0.0000000000000000E+00 
    1.0000000000000000E+00     2.2499999999948389E-01     0.0000000000000000E+00 
    1.0000000000000000E+00     2.7499999999933789E-01     0.0000000000000000E+00 
    1.0000000000000000E+00     3.2499999999919210E-01     0.0000000000000000E+00 
    1.0000000000000000E+00     3.7499999999904610E-01     0.0000000000000000E+00 
    1.0000000000000000E+00     4.2499999999890020E-01     0.0000000000000000E+00 
    1.0000000000000000E+00     4.7499999999875958E-01     0.0000000000000000E+00 
    1.0000000000000000E+00     2.4999999999949701E-02     0.0000000000000000E+00 
    1.0000000000000000E+00     5.7499999999887907E-01     0.0000000000000000E+00 
    1.0000000000000000E+00     6.2499999999901101E-01     0.0000000000000000E+00 
    1.0000000000000000E+00     6.7499999999914273E-01     0.0000000000000000E+00 
    1.0000000000000000E+00     7.2499999999927467E-01     0.0000000000000000E+00 
    1.0000000000000000E+00     7.7499999999940661E-01     0.0000000000000000E+00 
    1.0000000000000000E+00     8.2499999999953844E-01     0.0000000000000000E+00 
    1.0000000000000000E+00     8.7499999999967026E-01     0.0000000000000000E+00 
    1.0000000000000000E+00     9.2499999999980220E-01     0.0000000000000000E+00 
    1.0000000000000000E+00     9.7499999999993414E-01     0.0000000000000000E+00 
    1.0000000000000000E+00     5.4999999999881310E-01     0.0000000000000000E+00 
    1.0000000000000000E+00     9.9999999999814140E-02     0.0000000000000000E+00 
    1.0000000000000000E+00     1.4999999999970290E-01     0.0000000000000000E+00 
    1.0000000000000000E+00     1.9999999999955689E-01     0.0000000000000000E+00 
    1.0000000000000000E+00     2.4999999999941089E-01     0.0000000000000000E+00 
    1.0000000000000000E+00     2.9999999999926502E-01     0.0000000000000000E+00 
    1.0000000000000000E+00     3.4999999999911913E-01     0.0000000000000000E+00 
    1.0000000000000000E+00     3.9999999999897312E-01     0.0000000000000000E+00 
    1.0000000000000000E+00     4.4999999999882723E-01     0.0000000000000000E+00 
    1.0000000000000000E+00     4.9999999999869210E-01     0.0000000000000000E+00 
    1.0000000000000000E+00     4.9999999999899403E-02     0.0000000000000000E+00 
    1.0000000000000000E+00     5.9999999999894504E-01     0.0000000000000000E+00 
    1.0000000000000000E+00     6.4999999999907687E-01     0.0000000000000000E+00 
    1.0000000000000000E+00     6.9999999999920870E-01     0.0000000000000000E+00 
    1.0000000000000000E+00     7.4999999999934064E-01     0.0000000000000000E+00 
    1.0000000000000000E+00     7.9999999999947247E-01     0.0000000000000000E+00 
    1.0000000000000000E+00     8.4999999999960441E-01     0.0000000000000000E+00 
    1.0000000000000000E+00     8.9999999999973623E-01     0.0000000000000000E+00 
    1.0000000000000000E+00     9.4999999999986817E-01     0.0000000000000000E+00 
    4.7500000000196618E-01     1.0000000000000000E+00     0.0000000000000000E+00 
    9.2499999999968763E-01     1.0000000000000000E+00     0.0000000000000000E+00 
    8.7499999999961831E-01     1.0000000000000000E+00     0.0000000000000000E+00 
    8.2499999999982654E-01     1.0000000000000000E+00     0.0000000000000000E+00 
    7.7500000000017355E-01     1.0000000000000000E+00     0.0000000000000000E+00 
    7.2500000000052045E-01     1.0000000000000000E+00     0.0000000000000000E+00 
    6.7500000000086724E-01     1.0000000000000000E+00     0.0000000000000000E+00 
    6.2500000000121403E-01     1.0000000000000000E+00     0.0000000000000000E+00 
    5.7500000000156093E-01     1.0000000000000000E+00     0.0000000000000000E+00 
    5.2500000000189684E-01     1.0000000000000000E+00     0.0000000000000000E+00 
    9.7499999999989595E-01     1.0000000000000000E+00     0.0000000000000000E+00 
    4.2500000000176902E-01     1.0000000000000000E+00     0.0000000000000000E+00 
    3.7500000000156092E-01     1.0000000000000000E+00     0.0000000000000000E+00 
    3.2500000000135282E-01     1.0000000000000000E+00     0.0000000000000000E+00 
    2.7500000000114472E-01     1.0000000000000000E+00     0.0000000000000000E+00 
    2.2500000000093659E-01     1.0000000000000000E+00     0.0000000000000000E+00 
    1.7500000000072849E-01     1.0000000000000000E+00     0.0000000000000000E+00 
    1.2500000000052039E-01     1.0000000000000000E+00     0.0000000000000000E+00 
    7.5000000000312261E-02     1.0000000000000000E+00     0.0000000000000000E+00 
    2.5000000000104109E-02     1.0000000000000000E+00     0.0000000000000000E+00 
    4.5000000000187301E-01     1.0000000000000000E+00     0.0000000000000000E+00 
    8.9999999999958358E-01     1.0000000000000000E+00     0.0000000000000000E+00 
    8.4999999999965303E-01     1.0000000000000000E+00     0.0000000000000000E+00 
    8.0000000000000004E-01     1.0000000000000000E+00     0.0000000000000000E+00 
    7.5000000000034706E-01     1.0000000000000000E+00     0.0000000000000000E+00 
    7.0000000000069384E-01     1.0000000000000000E+00     0.0000000000000000E+00 
    6.5000000000104063E-01     1.0000000000000000E+00     0.0000000000000000E+00 
    6.0000000000138742E-01     1.0000000000000000E+00     0.0000000000000000E+00 
    5.5000000000173432E-01     1.0000000000000000E+00     0.0000000000000000E+00 
    5.0000000000205946E-01     1.0000000000000000E+00     0.0000000000000000E+00 
    9.4999999999979179E-01     1.0000000000000000E+00     0.0000000000000000E+00 
    4.0000000000166491E-01     1.0000000000000000E+00     0.0000000000000000E+00 
    3.5000000000145681E-01     1.0000000000000000E+00     0.0000000000000000E+00 
    3.0000000000124871E-01     1.0000000000000000E+00     0.0000000000000000E+00 
    2.5000000000104061E-01     1.0000000000000000E+00     0.0000000000000000E+00 
    2.0000000000083251E-01     1.0000000000000000E+00     0.0000000000000000E+00 
    1.5000000000062441E-01     1.0000000000000000E+00     0.0000000000000000E+00 
    1.0000000000041630E-01     1.0000000000000000E+00     0.0000000000000000E+00 
[...]
CELL_DATA 1600 
SCALARS Pressure double 1 
LOOKUP_TABLE default 

    9.4867521786566633E-01 
    9.0296257860510720E-01 
    9.0059838142968440E-01 
    9.3312059518975299E-01 
    9.2073590456387655E-01 
    8.9703437791574459E-01 
    8.9293100610677822E-01 
    9.1062726167637509E-01 
    9.0219307720378084E-01 
    8.8865919681235428E-01 
    8.8442332762633913E-01 
    8.9501934970875496E-01 
    8.8881507081764166E-01 
    8.8033093843068255E-01 
    8.7643355419291580E-01 
    8.8337168443225700E-01 
    8.7853701155076858E-01 
    8.7275102516264069E-01 
    8.6928576410569658E-01 
    8.7419810666111741E-01 
    8.7026983717959205E-01 
    8.6603113441563107E-01 
    8.6297620324917634E-01 
    8.6668718062228822E-01 
    8.6339991143606609E-01 
    8.6010854406788451E-01 
    8.5741558176065102E-01 
    8.6036874686929854E-01 
    8.5756246219189636E-01 
    8.5488521091355563E-01 
    8.5250602036253087E-01 
    8.5495572692270849E-01 
    8.5252771292182861E-01 
    8.5026758595433649E-01 
    8.4816066652225519E-01 
    8.5026132942895172E-01 
    8.4814265409308720E-01 
    8.4617728769576472E-01 
    8.4431058282659310E-01 
    8.4616030261000352E-01 
    8.4430483793266742E-01 
    8.4255462828645045E-01 
    8.4090428259088323E-01 
    8.4256839065151101E-01 
    8.4094438893307444E-01 
    8.3935513369187942E-01 
    8.3790332874067686E-01 
    8.3942726420311742E-01 
    8.3801225580082472E-01 
    8.3654548976183440E-01 
    8.3527872504978051E-01 
    8.3669534612238561E-01 
    8.3547324698300329E-01 
    8.3410069127479713E-01 
    8.3300950939084084E-01 
    8.3434331241546644E-01 
    8.3330341086700455E-01 
    8.3200366099839174E-01 
    8.3108191886899407E-01 
    8.3235181522629231E-01 
    8.3148714753958108E-01 
    8.3024335064539323E-01 
    8.2948731355985206E-01 
    8.3070841666467177E-01 
    8.3001498837605869E-01 
    8.2881345926992556E-01 
    8.2822167867193441E-01 
    8.2940649539152578E-01 
    8.2888287737462540E-01 
    8.2771209457758610E-01 
    8.2728507632938819E-01 
    8.2844438609738158E-01 
    8.2809152156460542E-01 
    8.2694123571081424E-01 
    8.2668147051936181E-01 
    8.2782508743605077E-01 
    8.2763634053154433E-01 
    8.2649642410398649E-01 
    8.2639010934548573E-01 
    8.2752853708266849E-01 
    8.8006307675644413E-01 
    8.6382366858034687E-01 
    8.6346869697790152E-01 
    8.7931933894049585E-01 
    8.7795553533907755E-01 
    8.6278323932724554E-01 
    8.6180743437790563E-01 
    8.7612291234359818E-01 
    8.7396244989482452E-01 
    8.6058907078152169E-01 
    8.5917730136845527E-01 
    8.7159150305969524E-01 
    8.6910145036865127E-01 
    8.5761833494618056E-01 
    8.5595331513068940E-01 
    8.6656030509035731E-01 
    8.6401716202896395E-01 
    8.5421748121030183E-01 
    8.5244029537343813E-01 
    8.6150652733452082E-01 
    8.5905204816706326E-01 
    8.5064575582559476E-01 
    8.4885306655697346E-01 
    8.5666939837459155E-01 
    8.5436859376981578E-01 
    8.4707739563675444E-01 
    8.4533053223535182E-01 
    8.5215552659605398E-01 
    8.5003316517505967E-01 
    8.4362148578682539E-01 
    8.4195720186018475E-01 
    8.4800247276217233E-01 
    8.4606320912979505E-01 
    8.4034301063626504E-01 
    8.3878299008923463E-01 
    8.4421443848883515E-01 
    8.4245488830172555E-01 
    8.3728022914523104E-01 
    8.3583712747274330E-01 
    8.4078310130989009E-01 
    8.3919754557080950E-01 
    8.3445546394988246E-01 
    8.3313654925962399E-01 
    8.3769666748752381E-01 
    8.3627899245424842E-01 
    8.3188136651304334E-01 
    8.3069059839626813E-01 
    8.3494307123254197E-01 
    8.3368753721665301E-01 
    8.2956473769959416E-01 
    8.2850428886075467E-01 
    8.3251121912467296E-01 
    8.3141321135748603E-01 
    8.2750976535918075E-01 
    8.2658163382240102E-01 
    8.3039280581751396E-01 
    8.2944945425905114E-01 
    8.2572033438076198E-01 
    8.2492636717725076E-01 
    8.2858275646222668E-01 
    8.2779247213671936E-01 
    8.2420023076405813E-01 
    8.2354250359283998E-01 
    8.2707854460407448E-01 
    8.2644111710121926E-01 
    8.2295389317488854E-01 
    8.2243511423388760E-01 
    8.2588047834222333E-01 
    8.2539709061176358E-01 
    8.2198700541572056E-01 
    8.2161058183547409E-01 
    8.2499159062584926E-01 
    8.2466476447893178E-01 
    8.2130687723219742E-01 
    8.2107701112087761E-01 
    8.2441764312548105E-01 
    8.2423981706508997E-01 
    8.2090950324440048E-01 
    8.2081130862249418E-01 
    8.2413665924895052E-01 
    8.5038900229452030E-01 
    8.3833987336979132E-01 
    8.3820377916101307E-01 
    8.5018109332796599E-01 
    8.4977306328274738E-01 
    8.3793488089446777E-01 
    8.3753937937648848E-01 
    8.4917903386126026E-01 
    8.4841775591529378E-01 
    8.3702595499758625E-01 
    8.3640523121902144E-01 
    8.4751080047688498E-01 
    8.4648075279341328E-01 
    8.3568900377895139E-01 
    8.3488954259696957E-01 
    8.4534990537002574E-01 
    8.4413934667332402E-01 
    8.3401913640747438E-01 
    8.3308991133911736E-01 
    8.4286853026079878E-01 
    8.4155486562167126E-01 
    8.3211348422125053E-01 
    8.3110066973151631E-01 
    8.4021358315551431E-01 
    8.3885797194156886E-01 
    8.3006159146956648E-01 
    8.2900553331579496E-01 
    8.3749947209003095E-01 
    8.3614777929288053E-01 
    8.2794080787543789E-01 
    8.2687493411295143E-01 
    8.3481119201466214E-01 
    8.3349677757434437E-01 
    8.2581467721469382E-01 
    8.2476601779222503E-01 
    8.3221046618795214E-01 
    8.3095721004092726E-01 
    8.2373418685917987E-01 
    8.2272389075791585E-01 
    8.2974127018797550E-01 
    8.2856621550052267E-01 
    8.2173927410565473E-01 
    8.2078388477598463E-01 
    8.2743497204786054E-01 
    8.2635005967696296E-01 
    8.1986095866677366E-01 
    8.1897341982209515E-01 
    8.2531361402581327E-01 
    8.2432746305052385E-01 
    8.1812384541290539E-01 
    8.1731464142522670E-01 
    8.2339332592917469E-01 
    8.2251280292298934E-01 
    8.1654804825094718E-01 
    8.1582606011887271E-01 
    8.2168728839500171E-01 
    8.2091801749442084E-01 
    8.1515044874182840E-01 
    8.1452296182118722E-01 
    8.2020622877932703E-01 
    8.1955309087600947E-01 
    8.1394526581185045E-01 
    8.1341887345017994E-01 
    8.1895971910958609E-01 
    8.1842730850432110E-01 
    8.1294533447503881E-01 
    8.1252614974665416E-01 
    8.1795699453002069E-01 
    8.1754991708574809E-01 
    8.1216269897167803E-01 
    8.1185644777448784E-01 
    8.1720737508848273E-01 
    8.1693067366225858E-01 
    8.1160895841925051E-01 
    8.1142174226260055E-01 
    8.1672103881183700E-01 
    8.1656599757398285E-01 
    8.1128110429280542E-01 
    8.1119591237018152E-01 
    8.1647387525022019E-01 
    8.2700903318458086E-01 
    8.1603378133792948E-01 
    8.1596358791256796E-01 
    8.2691357967186196E-01 
    8.2672433442602311E-01 
    8.1582415929094443E-01 
    8.1561734156742660E-01 
    8.2644449713353052E-01 
    8.2607867816929048E-01 
    8.1534583128332694E-01 
    8.1501297798429528E-01 
    8.2563265967323762E-01 
    8.2511303913976297E-01 
    8.1462272143427783E-01 
    8.1417943739623522E-01 
    8.2452691361423913E-01 
    8.2388170254190507E-01 
    8.1368794358764573E-01 
    8.1315337437605517E-01 
    8.2318510179081517E-01 
    8.2244487629165863E-01 
    8.1258105610857778E-01 
    8.1197629750069678E-01 
    8.2166860625227245E-01 
    8.2086362900704701E-01 
    8.1134437338860066E-01 
    8.1069044441474192E-01 
    8.2003696752883837E-01 
    8.1919516476120113E-01 
    8.1001951875898359E-01 
    8.0933639897392506E-01 
    8.1834435244401904E-01 
    8.1749025204371784E-01 
    8.0864570864785879E-01 
    8.0795178583788829E-01 
    8.1663813453445788E-01 
    8.1579278341086159E-01 
    8.0725871873486887E-01 
    8.0657037761136008E-01 
    8.1495860414190069E-01 
    8.1413962344975099E-01 
    8.0589039788060712E-01 
    8.0522218177871918E-01 
    8.1333947661132322E-01 
    8.1256154735916652E-01 
    8.0456898392370924E-01 
    8.0393383642298155E-01 
    8.1180900295452796E-01 
    8.1108471155483397E-01 
    8.0331956615545097E-01 
    8.0272882477156637E-01 
    8.1039133624792126E-01 
    8.0973136397455858E-01 
    8.0216412385500258E-01 
    8.0162778757733799E-01 
    8.0910708363851147E-01 
    8.0852058365084956E-01 
    8.0112201696544372E-01 
    8.0064896136495367E-01 
    8.0797388833735162E-01 
    8.0746895269835750E-01 
    8.0021065494249743E-01 
    7.9980902543049637E-01 
    8.0700757185279004E-01 
    8.0659151732959422E-01 
    7.9944600166127233E-01 
    7.9912344682035152E-01 
    8.0622254883104827E-01 
    8.0590229248188805E-01 
    7.9884316855687421E-01 
    7.9860708261607272E-01 
    8.0563241166973099E-01 
    8.0541476313704441E-01 
    7.9841728363756292E-01 
    7.9827593181601320E-01 
    8.0525122782904179E-01 
    8.0512655650575471E-01 
    7.9816662313929154E-01 
    7.9809725188831471E-01 
    8.0504919066385749E-01 
    8.0519862597512137E-01 
    7.9436833444002086E-01 
    7.9432644400886210E-01 
    8.0514518649202371E-01 
    8.0503888938068191E-01 
    7.9424304618047192E-01 
    7.9411889353045384E-01 
    8.0488088037964367E-01 
    8.0467279844273065E-01 
    7.9395505909835196E-01 
    7.9375293038212136E-01 
    8.0441672536501430E-01 
    8.0411519278483179E-01 
    7.9351428020447801E-01 
    7.9324124861194634E-01 
    8.0377114637625657E-01 
    8.0338789993164872E-01 
    7.9293621575398554E-01 
    7.9260171529062762E-01 
    8.0296905824298759E-01 
    8.0251831547232666E-01 
    7.9224035444362051E-01 
    7.9185484863448563E-01 
    8.0203940171804633E-01 
    8.0153616510111769E-01 
    7.9144804601653107E-01 
    7.9102286865972760E-01 
    8.0101244625946821E-01 
    8.0047202733805800E-01 
    7.9058220136036039E-01 
    7.9012894980281279E-01 
    7.9991864688368264E-01 
    7.9935597124885316E-01 
    7.8966602200451363E-01 
    7.8919628362389049E-01 
    7.9878750995495362E-01 
    7.9821663095808970E-01 
    7.8872252587856273E-01 
    7.8824754631109639E-01 
    7.9764667360096719E-01 
    7.9708081701370270E-01 
    7.8777407112660414E-01 
    7.8730466732069049E-01 
    7.9652205478455484E-01 
    7.9597334124040253E-01 
    7.8684188484011386E-01 
    7.8638817891082702E-01 
    7.9543744005411199E-01 
    7.9491692504781331E-01 
    7.8594582753778142E-01 
    7.8551708241242668E-01 
    7.9441428323737817E-01 
    7.9393192178674299E-01 
    7.8510413995118533E-01 
    7.8470908515849169E-01 
    7.9347208151633020E-01 
    7.9303688779351955E-01 
    7.8433389909768569E-01 
    7.8398055225201424E-01 
    7.9262847551287396E-01 
    7.9224884410730523E-01 
    7.8365093479972658E-01 
    7.8334684565176005E-01 
    7.9189990488539586E-01 
    7.9158361378896591E-01 
    7.8307010201852834E-01 
    7.8282248369585405E-01 
    7.9130184343819254E-01 
    7.9105643948087767E-01 
    7.8260578087706045E-01 
    7.8242177461282836E-01 
    7.9084931544032400E-01 
    7.9068253187302762E-01 
    7.8227240280888410E-01 
    7.8215941856870086E-01 
    7.9055828114763660E-01 
    7.9046019606132301E-01 
    7.8206756726915860E-01 
    7.8200920211896485E-01 
    7.9039731233984112E-01 
    7.8345531376397859E-01 
    7.7240057372501270E-01 
    7.7237285996515126E-01 
    7.8342163677690746E-01 
    7.8335454957426254E-01 
    7.7231763436137468E-01 
    7.7223527887708387E-01 
    7.8325457334515713E-01 
    7.8312246207618663E-01 
    7.7212638131909539E-01 
    7.7199176295064198E-01 
    7.8295924932191541E-01 
    7.8276628391599323E-01 
    7.7183248991888365E-01 
    7.7164974916561346E-01 
    7.8254516018416032E-01 
    7.8229757777926678E-01 
    7.7144477251988919E-01 
    7.7121892715738205E-01 
    7.8202535662342232E-01 
    7.8173042098320178E-01 
    7.7097371669440773E-01 
    7.7071071986109829E-01 
    7.8141480176376343E-01 
    7.8108069695573801E-01 
    7.7043166513862593E-01 
    7.7013832859950015E-01 
    7.8073035931701829E-01 
    7.8036601032249697E-01 
    7.6983248145235939E-01 
    7.6951600920296115E-01 
    7.7998996987087899E-01 
    7.7960459927510750E-01 
    7.6919086358756994E-01 
    7.6885896325077663E-01 
    7.7921223743888279E-01 
    7.7881518585980702E-01 
    7.6852219660751697E-01 
    7.6818251617103028E-01 
    7.7841577982419696E-01 
    7.7801631074724920E-01 
    7.6784183578203580E-01 
    7.6750198272722781E-01 
    7.7761893367830692E-01 
    7.7722584619782320E-01 
    7.6716484725553380E-01 
    7.6683227663778042E-01 
    7.7683918042126676E-01 
    7.7646091603732914E-01 
    7.6650600268351698E-01 
    7.6618778496900930E-01 
    7.7609306911811482E-01 
    7.7573761068931024E-01 
    7.6587938809281386E-01 
    7.6558245613777709E-01 
    7.7539639546549965E-01 
    7.7507119032591754E-01 
    7.6529852516520247E-01 
    7.6502920379611805E-01 
    7.7476378674247970E-01 
    7.7447588584183691E-01 
    7.6477598453570006E-01 
    7.6454018253180012E-01 
    7.7420904747980079E-01 
    7.7396491717344040E-01 
    7.6432323068207353E-01 
    7.6412640785893660E-01 
    7.7374505458118881E-01 
    7.7355097778169812E-01 
    7.6395078847414921E-01 
    7.6379753212745471E-01 
    7.7338434965764824E-01 
    7.7324707908969759E-01 
    7.6366812405754936E-01 
    7.6356211432567389E-01 
    7.7314016265749264E-01 
    7.7305026694766321E-01 
    7.6346955009020367E-01 
    7.6341497188472429E-01 
    7.7299453872234369E-01 
    7.6116357142461977E-01 
    7.4971658686047637E-01 
    7.4969656752226999E-01 
    7.6114026976281624E-01 
    7.6109381770290307E-01 
    7.4965663854453746E-01 
    7.4959704697824681E-01 
    7.6102451066967491E-01 
    7.6093283274322543E-01 
    7.4951818666326753E-01 
    7.4942061923637104E-01 
    7.6081945769300863E-01 
    7.6068522493881963E-01 
    7.4930499571567999E-01 
    7.4917202142368977E-01 
    7.6053102391175631E-01 
    7.6035780129223862E-01 
    7.4902246991397770E-01 
    7.4885727169624228E-01 
    7.6016665159075170E-01 
    7.5995879602069860E-01 
    7.4867744259885105E-01 
    7.4848404685125058E-01 
    7.5973550962646952E-01 
    7.5949818406184777E-01 
    7.4827824468675741E-01 
    7.4806124998843082E-01 
    7.5924826003104984E-01 
    7.5898721520041212E-01 
    7.4783430302341125E-01 
    7.4759869812075752E-01 
    7.5871660087259984E-01 
    7.5843802441238506E-01 
    7.4735578437235206E-01 
    7.4710690452335127E-01 
    7.5815307735829951E-01 
    7.5786334016101675E-01 
    7.4685340135822964E-01 
    7.4659668254007616E-01 
    7.5757044561889253E-01 
    7.5727601309427717E-01 
    7.4633816175102019E-01 
    7.4607923351673155E-01 
    7.5698164076904595E-01 
    7.5668894574220014E-01 
    7.4582132510715782E-01 
    7.4556587028192156E-01 
    7.5639953983488462E-01 
    7.5611497676111239E-01 
    7.4531425392458850E-01 
    7.4506785198026637E-01 
    7.5583678732440540E-01 
    7.5556653241362171E-01 
    7.4482808245241128E-01 
    7.4459627011967844E-01 
    7.5530568539902943E-01 
    7.5505562691050276E-01 
    7.4437368696773498E-01 
    7.4416164069767377E-01 
    7.5481777715266851E-01 
    7.5459345117339460E-01 
    7.4396135380423745E-01 
    7.4377397093624142E-01 
    7.5438383949507992E-01 
    7.5419016642114522E-01 
    7.4360063397886700E-01 
    7.4344229698390463E-01 
    7.5401346406363623E-01 
    7.5385452701552125E-01 
    7.4329974856241832E-01 
    7.4317373076505466E-01 
    7.5371403516806879E-01 
    7.5359286540496329E-01 
    7.4306495113274440E-01 
    7.4296633508272492E-01 
    7.5348764126079204E-01 
    7.5339178217026659E-01 
    7.4287255740805669E-01 
    7.4281947923888580E-01 
    7.5333761806522370E-01 
    7.3804196210965889E-01 
    7.2612990105305775E-01 
    7.2611401116325691E-01 
    7.3802435472104888E-01 
    7.3798923611377809E-01 
    7.2608232489929003E-01 
    7.2603502448003909E-01 
    7.3793681531711319E-01 
    7.3786741997228933E-01 
    7.2597238507226991E-01 
    7.2589478126166385E-01 
    7.3778149950558991E-01 
    7.3767958333006700E-01 
    7.2580265931614918E-01 
    7.2569653579283377E-01 
    7.3756226208893394E-01 
    7.3743020203457754E-01 
    7.2557700200339403E-01 
    7.2544478379149469E-01 
    7.3728421528611687E-01 
    7.3712518043393782E-01 
    7.2530066310544461E-01 
    7.2514544186970509E-01 
    7.3695400556935631E-01 
    7.3677169989792468E-01 
    7.2498001649123978E-01 
    7.2480529198949817E-01 
    7.3657930720447595E-01 
    7.3637786717067322E-01 
    7.2462217186979316E-01 
    7.2443163885007122E-01 
    7.3616848319394224E-01 
    7.3595233707009677E-01 
    7.2423475692826023E-01 
    7.2403257869404725E-01 
    7.3573059671240393E-01 
    7.3550442248890224E-01 
    7.2382615456163968E-01 
    7.2361664530019476E-01 
    7.3527508049199219E-01 
    7.3504383924668992E-01 
    7.2340520666105124E-01 
    7.2319294801920009E-01 
    7.3481191611619456E-01 
    7.3458062384171363E-01 
    7.2298109582094217E-01 
    7.2277085434937460E-01 
    7.3435126952639929E-01 
    7.3412508405136745E-01 
    7.2256337464818043E-01 
    7.2235986478164371E-01 
    7.3390334708912330E-01 
    7.3368739621324530E-01 
    7.2216158892130378E-01 
    7.2196975944673059E-01 
    7.3347846943885919E-01 
    7.3327775248814309E-01 
    7.2178555166860447E-01 
    7.2161025440283577E-01 
    7.3308653163608017E-01 
    7.3290603677426269E-01 
    7.2144515266340925E-01 
    7.2129146928297616E-01 
    7.3273739447673381E-01 
    7.3258181423065605E-01 
    7.2115055483815282E-01 
    7.2102373958756594E-01 
    7.3244036320051353E-01 
    7.3231395695615442E-01 
    7.2091222580281167E-01 
    7.2081739001028722E-01 
    7.3220362054656629E-01 
    7.3211032095020778E-01 
    7.2074075500829471E-01 
    7.2066379976569273E-01 
    7.3202191779493297E-01 
    7.3193188835230272E-01 
    7.2057671737996176E-01 
    7.2052478878404902E-01 
    7.3187971031011778E-01 
    7.1397592086508876E-01 
    7.0158001154855154E-01 
    7.0156588046887403E-01 
    7.1396116541931476E-01 
    7.1393174806538140E-01 
    7.0153770817984440E-01 
    7.0149565550491633E-01 
    7.1388783431115133E-01 
    7.1382967308754242E-01 
    7.0143995132494430E-01 
    7.0137087012528787E-01 
    7.1375757928458439E-01 
    7.1367194140795576E-01 
    7.0128877247288102E-01 
    7.0119409715418080E-01 
    7.1357322989951177E-01 
    7.1346199678681632E-01 
    7.0108737067588389E-01 
    7.0096920193460244E-01 
    7.1333889657043381E-01 
    7.1320464221983415E-01 
    7.0084026183767223E-01 
    7.0070124520083843E-01 
    7.1305997632319240E-01 
    7.1290569288207728E-01 
    7.0055288515553749E-01 
    7.0039595284375455E-01 
    7.1274260080470331E-01 
    7.1257153966927911E-01 
    7.0023125867831681E-01 
    7.0005969151819214E-01 
    7.1239342355874913E-01 
    7.1220923199023511E-01 
    6.9988219055748846E-01 
    6.9969970467972020E-01 
    7.1201994735023366E-01 
    7.1182656886754814E-01 
    6.9951319323681249E-01 
    6.9932368611805218E-01 
    7.1163017064477274E-01 
    7.1143182702314678E-01 
    6.9913221446326945E-01 
    6.9893980448781390E-01 
    7.1123259723360810E-01 
    7.1103363037023892E-01 
    6.9874755143397205E-01 
    6.9855654194295136E-01 
    7.1083605197785460E-01 
    7.1064097966009976E-01 
    6.9836785390871925E-01 
    6.9818262077619608E-01 
    7.1044957685508003E-01 
    7.1026303400012658E-01 
    6.9800198533787716E-01 
    6.9782709063593140E-01 
    7.1008254225595313E-01 
    7.0990928520682317E-01 
    6.9765907565667351E-01 
    6.9749917407528494E-01 
    7.0974454389182351E-01 
    7.0958961811930854E-01 
    6.9734862167302913E-01 
    6.9720866203469956E-01 
    7.0944582369096465E-01 
    7.0931463615183965E-01 
    6.9708072210970273E-01 
    6.9696628261607152E-01 
    7.0919761525781111E-01 
    7.0909633977927078E-01 
    6.9686697160034450E-01 
    6.9678522837282686E-01 