# vtk DataFile Version 2.0
Pressure Field Data 
ASCII 
DATASET UNSTRUCTURED_GRID 

POINTS 1681 double 

    0.0000000000000000E+00     0.0000000000000000E+00     0.0000000000000000E+00 
    1.0000000000000000E+00     0.0000000000000000E+00     0.0000000000000000E+00 
    1.0000000000000000E+00     1.0000000000000000E+00     0.0000000000000000E+00 
    0.0000000000000000E+00     1.0000000000000000E+00     0.0000000000000000E+00 
    5.2499999999875258E-01     0.0000000000000000E+00     0.0000000000000000E+00 
    7.4999999999856765E-02     0.0000000000000000E+00     0.0000000000000000E+00 
    1.2499999999975850E-01     0.0000000000000000E+00     0.0000000000000000E+00 
    1.7499999999962990E-01     0.0000000000000000E+00     0.0000000000000000E+00 
    2.2499999999948389E-01     0.0000000000000000E+00     0.0000000000000000E+00 
    2.7499999999933789E-01     0.0000000000000000E+00     0.0000000000000000E+00 
    3.2499999999919210E-01     0.0000000000000000E+00     0.0000000000000000E+00 
    3.7499999999904610E-01     0.0000000000000000E+00     0.0000000000000000E+00 
    4.2499999999890020E-01     0.0000000000000000E+00     0.0000000000000000E+00 
    4.7499999999875958E-01     0.0000000000000000E+00     0.0000000000000000E+00 
    2.4999999999949701E-02     0.0000000000000000E+00     0.0000000000000000E+00 
    5.7499999999887907E-01     0.0000000000000000E+00     0.0000000000000000E+00 
    6.2499999999901101E-01     0.0000000000000000E+00     0.0000000000000000E+00 
    6.7499999999914273E-01     0.0000000000000000E+00     0.0000000000000000E+00 
    7.2499999999927467E-01     0.0000000000000000E+00     0.0000000000000000E+00 
    7.7499999999940661E-01     0.0000000000000000E+00     0.0000000000000000E+00 
    8.2499999999953844E-01     0.0000000000000000E+00     0.0000000000000000E+00 
    8.7499999999967026E-01     0.0000000000000000E+00     0.0000000000000000E+00 
    9.2499999999980220E-01     0.0000000000000000E+00     0.0000000000000000E+00 
    9.7499999999993414E-01     0.0000000000000000E+00     0.0000000000000000E+00 
    5.4999999999881310E-01     0.0000000000000000E+00     0.0000000000000000E+00 
    9.9999999999814140E-02     0.0000000000000000E+00     0.0000000000000000E+00 
    1.4999999999970290E-01     0.0000000000000000E+00     0.0000000000000000E+00 
    1.9999999999955689E-01     0.0000000000000000E+00     0.0000000000000000E+00 
    2.4999999999941089E-01     0.0000000000000000E+00     0.0000000000000000E+00 
    2.9999999999926502E-01     0.0000000000000000E+00     0.0000000000000000E+00 
    3.4999999999911913E-01     0.0000000000000000E+00     0.0000000000000000E+00 
    3.9999999999897312E-01     0.0000000000000000E+00     0.0000000000000000E+00 
    4.4999999999882723E-01     0.0000000000000000E+00     0.0000000000000000E+00 
    4.9999999999869210E-01     0.0000000000000000E+00     0.0000000000000000E+00 
    4.9999999999899403E-02     0.0000000000000000E+00     0.0000000000000000E+00 
    5.9999999999894504E-01     0.0000000000000000E+00     0.0000000000000000E+00 
    6.4999999999907687E-01     0.0000000000000000E+00     0.0000000000000000E+00 
    6.9999999999920870E-01     0.0000000000000000E+00     0.0000000000000000E+00 
    7.4999999999934064E-01     0.0000000000000000E+00     0.0000000000000000E+00 
    7.9999999999947247E-01     0.0000000000000000E+00     0.0000000000000000E+00 
    8.4999999999960441E-01     0.0000000000000000E+00     0.0000000000000000E+00 
    8.9999999999973623E-01     0.0000000000000000E+00     0.0000000000000000E+00 
    9.4999999999986817E-01     0.0000000000000000E+00     0.0000000000000000E+00 
    1.0000000000000000E+00     5.2499999999875258E-01     0.0000000000000000E+00 
    1.0000000000000000E+00     7.4999999999856765E-02     0.0000000000000000E+00 
    1.0000000000000000E+00     1.2499999999975850E-01     0.0000000000000000E+00 
    1.0000000000000000E+00     1.7499999999962990E-01     0.0000000000000000E+00 
    1.0000000000000000E+00     2.2499999999948389E-01     0.0000000000000000E+00 
    1.0000000000000000E+00     2.7499999999933789E-01     0.0000000000000000E+00 
    1.0000000000000000E+00     3.2499999999919210E-01     0.0000000000000000E+00 
    1.0000000000000000E+00     3.7499999999904610E-01     0.0000000000000000E+00 
    1.0000000000000000E+00     4.2499999999890020E-01     0.0000000000000000E+00 
    1.0000000000000000E+00     4.7499999999875958E-01     0.0000000000000000E+00 
    1.0000000000000000E+00     2.4999999999949701E-02     0.0000000000000000E+00 
    1.0000000000000000E+00     5.7499999999887907E-01     0.0000000000000000E+00 
    1.0000000000000000E+00     6.2499999999901101E-01     0.0000000000000000E+00 
    1.0000000000000000E+00     6.7499999999914273E-01     0.0000000000000000E+00 
    1.0000000000000000E+00     7.2499999999927467E-01     0.0000000000000000E+00 
    1.0000000000000000E+00     7.7499999999940661E-01     0.0000000000000000E+00 
    1.0000000000000000E+00     8.2499999999953844E-01     0.0000000000000000E+00 
    1.0000000000000000E+00     8.7499999999967026E-01     0.0000000000000000E+00 
    1.0000000000000000E+00     9.2499999999980220E-01     0.0000000000000000E+00 
    1.0000000000000000E+00     9.7499999999993414E-01     0.0000000000000000E+00 
    1.0000000000000000E+00     5.4999999999881310E-01     0.0000000000000000E+00 
    1.0000000000000000E+00     9.9999999999814140E-02     0.0000000000000000E+00 
    1.0000000000000000E+00     1.4999999999970290E-01     0.0000000000000000E+00 
    1.0000000000000000E+00     1.9999999999955689E-01     0.0000000000000000E+00 
    1.0000000000000000E+00     2.4999999999941089E-01     0.0000000000000000E+00 
    1.0000000000000000E+00     2.9999999999926502E-01     0.0000000000000000E+00 
    1.0000000000000000E+00     3.4999999999911913E-01     0.0000000000000000E+00 
    1.0000000000000000E+00     3.9999999999897312E-01     0.0000000000000000E+00 
    1.0000000000000000E+00     4.4999999999882723E-01     0.0000000000000000E+00 
    1.0000000000000000E+00     4.9999999999869210E-01     0.0000000000000000E+00 
    1.0000000000000000E+00     4.9999999999899403E-02     0.0000000000000000E+00 
    1.0000000000000000E+00     5.9999999999894504E-01     0.0000000000000000E+00 
    1.0000000000000000E+00     6.4999999999907687E-01     0.0000000000000000E+00 
    1.0000000000000000E+00     6.9999999999920870E-01     0.0000000000000000E+00 
    1.0000000000000000E+00     7.4999999999934064E-01     0.0000000000000000E+00 
    1.0000000000000000E+00     7.9999999999947247E-01     0.0000000000000000E+00 
    1.0000000000000000E+00     8.4999999999960441E-01     0.0000000000000000E+00 
    1.0000000000000000E+00     8.9999999999973623E-01     0.0000000000000000E+00 
    1.0000000000000000E+00     9.4999999999986817E-01     0.0000000000000000E+00 
    4.7500000000196618E-01     1.0000000000000000E+00     0.0000000000000000E+00 
    9.2499999999968763E-01     1.0000000000000000E+00     0.0000000000000000E+00 
    8.7499999999961831E-01     1.0000000000000000E+00     0.0000000000000000E+00 
    8.2499999999982654E-01     1.0000000000000000E+00     0.0000000000000000E+00 
    7.7500000000017355E-01     1.0000000000000000E+00     0.0000000000000000E+00 
    7.2500000000052045E-01     1.0000000000000000E+00     0.0000000000000000E+00 
    6.7500000000086724E-01     1.0000000000000000E+00     0.0000000000000000E+00 
    6.2500000000121403E-01     1.0000000000000000E+00     0.0000000000000000E+00 
    5.7500000000156093E-01     1.0000000000000000E+00     0.0000000000000000E+00 
    5.2500000000189684E-01     1.0000000000000000E+00     0.0000000000000000E+00 
    9.7499999999989595E-01     1.0000000000000000E+00     0.0000000000000000E+00 
    4.2500000000176902E-01     1.0000000000000000E+00     0.0000000000000000E+00 
    3.7500000000156092E-01     1.0000000000000000E+00     0.0000000000000000E+00 
    3.2500000000135282E-01     1.0000000000000000E+00     0.0000000000000000E+00 
    2.7500000000114472E-01     1.0000000000000000E+00     0.0000000000000000E+00 
    2.2500000000093659E-01     1.0000000000000000E+00     0.0000000000000000E+00 
    1.7500000000072849E-01     1.0000000000000000E+00     0.0000000000000000E+00 
    1.2500000000052039E-01     1.0000000000000000E+00     0.0000000000000000E+00 
    7.5000000000312261E-02     1.0000000000000000E+00     0.0000000000000000E+00 
    2.5000000000104109E-02     1.0000000000000000E+00     0.0000000000000000E+00 
    4.5000000000187301E-01     1.0000000000000000E+00     0.0000000000000000E+00 
    8.9999999999958358E-01     1.0000000000000000E+00     0.0000000000000000E+00 
    8.4999999999965303E-01     1.0000000000000000E+00     0.0000000000000000E+00 
    8.0000000000000004E-01     1.0000000000000000E+00     0.0000000000000000E+00 
    7.5000000000034706E-01     1.0000000000000000E+00     0.0000000000000000E+00 
    7.0000000000069384E-01     1.0000000000000000E+00     0.0000000000000000E+00 
    6.5000000000104063E-01     1.0000000000000000E+00     0.0000000000000000E+00 
    6.0000000000138742E-01     1.0000000000000000E+00     0.0000000000000000E+00 
    5.5000000000173432E-01     1.0000000000000000E+00     0.0000000000000000E+00 
    5.0000000000205946E-01     1.0000000000000000E+00     0.0000000000000000E+00 
    9.4999999999979179E-01     1.0000000000000000E+00     0.0000000000000000E+00 
    4.0000000000166491E-01     1.0000000000000000E+00     0.0000000000000000E+00 
    3.5000000000145681E-01     1.0000000000000000E+00     0.0000000000000000E+00 
    3.0000000000124871E-01     1.0000000000000000E+00     0.0000000000000000E+00 
    2.5000000000104061E-01     1.0000000000000000E+00     0.0000000000000000E+00 
    2.0000000000083251E-01     1.0000000000000000E+00     0.0000000000000000E+00 
    1.5000000000062441E-01     1.0000000000000000E+00     0.0000000000000000E+00 
    1.0000000000041630E-01     1.0000000000000000E+00     0.0000000000000000E+00 
[...]
CELL_DATA 1600 
SCALARS Pressure double 1 
LOOKUP_TABLE default 

    1.1261097325063318E+00 
    1.0801629038585416E+00 
    1.0777860119802360E+00 
    1.1105365927890103E+00 
    1.0981258263442042E+00 
    1.0741987233907551E+00 
    1.0700600969563847E+00 
    1.0879776929561900E+00 
    1.0794908418000626E+00 
    1.0657410074865306E+00 
    1.0614466666213360E+00 
    1.0722528507213214E+00 
    1.0659739133130299E+00 
    1.0572853273775424E+00 
    1.0533092959566923E+00 
    1.0604463627930156E+00 
    1.0555188322681381E+00 
    1.0495393715117649E+00 
    1.0459791808831982E+00 
    1.0510794453455776E+00 
    1.0470445217642661E+00 
    1.0426235167479874E+00 
    1.0394628069930698E+00 
    1.0433506957234153E+00 
    1.0399490515650405E+00 
    1.0364855436787221E+00 
    1.0336794837561765E+00 
    1.0368007449196639E+00 
    1.0338744689369916E+00 
    1.0310327100041854E+00 
    1.0285344411566981E+00 
    1.0311452063955651E+00 
    1.0285931110067688E+00 
    1.0261753263058506E+00 
    1.0239472194528956E+00 
    1.0262022556472379E+00 
    1.0239596667526398E+00 
    1.0218430297411139E+00 
    1.0198565949338334E+00 
    1.0218546972203382E+00 
    1.0198784661299292E+00 
    1.0179825124297488E+00 
    1.0162159342435211E+00 
    1.0180234197029199E+00 
    1.0162831727954615E+00 
    1.0145526791669937E+00 
    1.0129893102923089E+00 
    1.0146524956172103E+00 
    1.0131272178170876E+00 
    1.0115230712706542E+00 
    1.0101516746758741E+00 
    1.0117039470356828E+00 
    1.0103798354791067E+00 
    1.0088731997077853E+00 
    1.0076860667569081E+00 
    1.0091525279650386E+00 
    1.0080201958715622E+00 
    1.0065890780422360E+00 
    1.0055813874323987E+00 
    1.0069814833106694E+00 
    1.0060353866524898E+00 
    1.0046624457233815E+00 
    1.0038319482974616E+00 
    1.0051812504647171E+00 
    1.0044187559540734E+00 
    1.0030898690085253E+00 
    1.0024364261652381E+00 
    1.0037478527430352E+00 
    1.0031688333062105E+00 
    1.0018720761646636E+00 
    1.0013974434833617E+00 
    1.0026822636861683E+00 
    1.0022896819211671E+00 
    1.0010141384268687E+00 
    1.0007065685845533E+00 
    1.0019772217725200E+00 
    1.0017337597783296E+00 
    1.0004662752209927E+00 
    1.0003389059828520E+00 
    1.0016040388757921E+00 
    1.0568747977244082E+00 
    1.0400936091028288E+00 
    1.0397280500842472E+00 
    1.0561198656233040E+00 
    1.0547338301488887E+00 
    1.0390216144936002E+00 
    1.0380147132696225E+00 
    1.0528677106822981E+00 
    1.0506629113271664E+00 
    1.0367556369983437E+00 
    1.0352941083424858E+00 
    1.0482374348902621E+00 
    1.0456832587474019E+00 
    1.0336769319383730E+00 
    1.0319459222832543E+00 
    1.0430691768608726E+00 
    1.0404452443073866E+00 
    1.0301369835250545E+00 
    1.0282801954564220E+00 
    1.0378470152904014E+00 
    1.0352991213621721E+00 
    1.0264000855405275E+00 
    1.0245163523280869E+00 
    1.0328179980007259E+00 
    1.0304141737863581E+00 
    1.0226447591153669E+00 
    1.0207978203425152E+00 
    1.0280939575022301E+00 
    1.0258609259339369E+00 
    1.0189853877020087E+00 
    1.0172153111623581E+00 
    1.0237169605483023E+00 
    1.0216628568045243E+00 
    1.0154937681827851E+00 
    1.0138255632805833E+00 
    1.0196986037722899E+00 
    1.0178236909107792E+00 
    1.0122143883821901E+00 
    1.0106631282655401E+00 
    1.0160372756859657E+00 
    1.0143382538126273E+00 
    1.0091739171456025E+00 
    1.0077484129297427E+00 
    1.0127253519009740E+00 
    1.0111974353962603E+00 
    1.0063881000192161E+00 
    1.0050942856479077E+00 
    1.0097535895260183E+00 
    1.0083930916386721E+00 
    1.0038680672732592E+00 
    1.0027104333773171E+00 
    1.0071153272219364E+00 
    1.0059197801872710E+00 
    1.0016222638668772E+00 
    1.0006043667645328E+00 
    1.0048060550095950E+00 
    1.0037739559692056E+00 
    9.9965757158407065E-01 
    9.9878280283843235E-01 
    1.0028234830457985E+00 
    1.0019547792331567E+00 
    9.9798093713580560E-01 
    9.9725288992017480E-01 
    1.0011681255795164E+00 
    1.0004639925873509E+00 
    9.9659969929029379E-01 
    9.9602238520252917E-01 
    9.9984299814242583E-01 
    9.9930594208552004E-01 
    9.9552212409910779E-01 
    9.9510027313427096E-01 
    9.9885372497471570E-01 
    9.9848805244984562E-01 
    9.9475870345891149E-01 
    9.9447624856752403E-01 
    9.9819066629411579E-01 
    9.9795744013148191E-01 
    9.9425332214505202E-01 
    9.9413709892048252E-01 
    9.9783476957778905E-01 
    1.0259835518998335E+00 
    1.0131456900242715E+00 
    1.0130012527665178E+00 
    1.0257661967907155E+00 
    1.0253394109793439E+00 
    1.0127157733087488E+00 
    1.0122956720324887E+00 
    1.0247175798585915E+00 
    1.0239199162138637E+00 
    1.0117499545942941E+00 
    1.0110895402772508E+00 
    1.0229685313269865E+00 
    1.0218864538705685E+00 
    1.0103264144653614E+00 
    1.0094730689897971E+00 
    1.0206963276262142E+00 
    1.0194195735813287E+00 
    1.0085421903755898E+00 
    1.0075465146583893E+00 
    1.0180760904056696E+00 
    1.0166838422083684E+00 
    1.0064983432054015E+00 
    1.0054091129439964E+00 
    1.0152586936493802E+00 
    1.0138146949449194E+00 
    1.0042895695436855E+00 
    1.0031495883812300E+00 
    1.0123640642579257E+00 
    1.0109172148150876E+00 
    1.0019980059928999E+00 
    1.0008428612785327E+00 
    1.0094831435398355E+00 
    1.0080695722867203E+00 
    9.9969141867746281E-01 
    9.9855008587074912E-01 
    1.0066829818303358E+00 
    1.0053287632667638E+00 
    9.9742447398775813E-01 
    9.9631973652237593E-01 
    1.0040115819538444E+00 
    1.0027354156974815E+00 
    9.9524054650623572E-01 
    9.9419101097654172E-01 
    1.0015036718627948E+00 
    1.0003194847122436E+00 
    9.9317495548378754E-01 
    9.9219582735972378E-01 
    9.9918560818310098E-01 
    9.9810437443442201E-01 
    9.9125660723457332E-01 
    9.9036007653847224E-01 
    9.9707791452350414E-01 
    9.9610820689791646E-01 
    9.8950888302562334E-01 
    9.8870545429626377E-01 
    9.9519703760587064E-01 
    9.9434606686722360E-01 
    9.8795199967868741E-01 
    9.8725071630634975E-01 
    9.9355698029814365E-01 
    9.9283135193506600E-01 
    9.8660370930025754E-01 
    9.8601292966581600E-01 
    9.9217067570722528E-01 
    9.9157654868865408E-01 
    9.8548043186113232E-01 
    9.8500824219859262E-01 
    9.9105048338078205E-01 
    9.9059401111673218E-01 
    9.8459825168652337E-01 
    9.8425238549427585E-01 
    9.9020877870391089E-01 
    9.8989670472370928E-01 
    9.8397251832128785E-01 
    9.8372715026665347E-01 
    9.8963181189651139E-01 
    9.8941904221498145E-01 
    9.8352576712129203E-01 
    9.8342255726593186E-01 
    9.8930917572342714E-01 
    1.0009250932112073E+00 
    9.8896857987322062E-01 
    9.8889169601045035E-01 
    1.0008222225144907E+00 
    1.0006182276678148E+00 
    9.8873894477455748E-01 
    9.8851225371528251E-01 
    1.0003164608578741E+00 
    9.9992167177200375E-01 
    9.8821435993378448E-01 
    9.8784869141692166E-01 
    9.9943971196967285E-01 
    9.9887733243947163E-01 
    9.8741951907455816E-01 
    9.8693177736253379E-01 
    9.9824204728080657E-01 
    9.9754188096012653E-01 
    9.8639079713727629E-01 
    9.8580204563502638E-01 
    9.9678513397476620E-01 
    9.9598007637524633E-01 
    9.8517110991851153E-01 
    9.8450360644603552E-01 
    9.9513470003270310E-01 
    9.9425677391689615E-01 
    9.8380519205857875E-01 
    9.8308140474273598E-01 
    9.9335377638359845E-01 
    9.9243266686061127E-01 
    9.8233759892721606E-01 
    9.8157894272165502E-01 
    9.9149997692559810E-01 
    9.9056183064396131E-01 
    9.8081047832563539E-01 
    9.8003700182345155E-01 
    9.8962391208795653E-01 
    9.8869145170119577E-01 
    9.7926308540088813E-01 
    9.7849310139690204E-01 
    9.8776937488434824E-01 
    9.8686226400692456E-01 
    9.7773114820322859E-01 
    9.7698103096628264E-01 
    9.8597426846213443E-01 
    9.8510924123644761E-01 
    9.7624638387688478E-01 
    9.7553058958094863E-01 
    9.8427076230731081E-01 
    9.8346205705155187E-01 
    9.7483682308717057E-01 
    9.7416811155244620E-01 
    9.8268616084170124E-01 
    9.8194597234391245E-01 
    9.7352735591900685E-01 
    9.7291724012265024E-01 
    9.8124420406199153E-01 
    9.8058334479424203E-01 
    9.7234028979932785E-01 
    9.7179896145190592E-01 
    9.7996581098031532E-01 
    9.7939395380433136E-01 
    9.7129557215304974E-01 
    9.7083231505332845E-01 
    9.7886997096677908E-01 
    9.7839608657007016E-01 
    9.7041138006225103E-01 
    9.7003485322011074E-01 
    9.7797455270746769E-01 
    9.7760749928192614E-01 
    9.6970479316117641E-01 
    9.6942404474934385E-01 
    9.7729730596529396E-01 
    9.7704578911863360E-01 
    9.6919420191915218E-01 
    9.6898299721330394E-01 
    9.7681915838554034E-01 
    9.7663242905407421E-01 
    9.6881156060817264E-01 
    9.6872707453957729E-01 
    9.7653816905047552E-01 
    9.7706807365126458E-01 
    9.6509303301270766E-01 
    9.6504550243080078E-01 
    9.7700851612308148E-01 
    9.7689001620784599E-01 
    9.6495084434457890E-01 
    9.6480986234852073E-01 
    9.7671376568415358E-01 
    9.7648147528939577E-01 
    9.6462378396177650E-01 
    9.6439431611543147E-01 
    9.7619545726770918E-01 
    9.7585868464682368E-01 
    9.6412358480930604E-01 
    9.6381390381169607E-01 
    9.7547452674139701E-01 
    9.7504651115135255E-01 
    9.6346769877016680E-01 
    9.6308765821203057E-01 
    9.7457837589161223E-01 
    9.7407403985193264E-01 
    9.6267669256643773E-01 
    9.6223784432765602E-01 
    9.7353755799994468E-01 
    9.7297313773928384E-01 
    9.6177427369762725E-01 
    9.6128922657889748E-01 
    9.7238494590123548E-01 
    9.7177709619262020E-01 
    9.6078594414271057E-01 
    9.6026773326151404E-01 
    9.7115372719045412E-01 
    9.7051895859082626E-01 
    9.5973790174304541E-01 
    9.5919967488405611E-01 
    9.6987674548232017E-01 
    9.6923086577464768E-01 
    9.5865616170855350E-01 
    9.5811048414282285E-01 
    9.6858506518528031E-01 
    9.6794288982511845E-01 
    9.5756570039815225E-01 
    9.5702469368195020E-01 
    9.6730765928945572E-01 
    9.6668268052563078E-01 
    9.5649036728600079E-01 
    9.5596554081311880E-01 
    9.6607106715527147E-01 
    9.6547573648048590E-01 
    9.5545283244306045E-01 
    9.5495484243719431E-01 
    9.6489953803024131E-01 
    9.6434523764187363E-01 
    9.5447410163884239E-01 
    9.5401299435002018E-01 
    9.6381538394004718E-01 
    9.6331236420539501E-01 
    9.5357376837996088E-01 
    9.5315865839444169E-01 
    9.6283856616735664E-01 
    9.6239619793748554E-01 
    9.5276979114089178E-01 
    9.5240913878459565E-01 
    9.6198732424544409E-01 
    9.6161399842755146E-01 
    9.5207863717608388E-01 
    9.5178006006443017E-01 
    9.6127803372408005E-01 
    9.6098096091906426E-01 
    9.5151490165469110E-01 
    9.5128495134493751E-01 
    9.6072495718715178E-01 
    9.6050897030236693E-01 
    9.5108373456885142E-01 
    9.5088790622999653E-01 
    9.6030599811553541E-01 
    9.6014774178388518E-01 
    9.5073820510264095E-01 
    9.5066944550184451E-01 
    9.6007307491961202E-01 
    9.5295843321008855E-01 
    9.4060714323104055E-01 
    9.4057461146470933E-01 
    9.5291954402733769E-01 
    9.5284205228814900E-01 
    9.4050977692013049E-01 
    9.4041309963553743E-01 
    9.5272654971587445E-01 
    9.5257397743648309E-01 
    9.4028531666036519E-01 
    9.4012739139014290E-01 
    9.5238563705649648E-01 
    9.5216305565649317E-01 
    9.3994045330396458E-01 
    9.3972575644444556E-01 
    9.5190787098409801E-01 
    9.5162187160766576E-01 
    9.3948472547271444E-01 
    9.3921903402763596E-01 
    9.5130713986742954E-01 
    9.5096593024751042E-01 
    9.3893048681054725E-01 
    9.3862092279828402E-01 
    9.5060056193393294E-01 
    9.5021353031802636E-01 
    9.3829235675452749E-01 
    9.3794684741070256E-01 
    9.4980741722285833E-01 
    9.4938477235714502E-01 
    9.3758641847130664E-01 
    9.3721320895921678E-01 
    9.4894824683573975E-01 
    9.4850051090691589E-01 
    9.3682943279256081E-01 
    9.3643727041509117E-01 
    9.4804418373013599E-01 
    9.4758184423741976E-01 
    9.3603888845826733E-01 
    9.3563656276880647E-01 
    9.4711613730989941E-01 
    9.4664968620163503E-01 
    9.3523253673046780E-01 
    9.3482896624341494E-01 
    9.4618497288625603E-01 
    9.4572455547646050E-01 
    9.3442809358720202E-01 
    9.3403211551101906E-01 
    9.4527092819861069E-01 
    9.4482640480634694E-01 
    9.3364309389088418E-01 
    9.3326312632362540E-01 
    9.4439334466698133E-01 
    9.4397405911124788E-01 
    9.3289434222427425E-01 
    9.3253874739677767E-01 
    9.4357072259295616E-01 
    9.4318541526453681E-01 
    9.3219824715418065E-01 
    9.3187486957282828E-01 
    9.4282026416044618E-01 
    9.4247729070490127E-01 
    9.3157053064008410E-01 
    9.3128697039831154E-01 
    9.4215832886277029E-01 
    9.4186530074099473E-01 
    9.3102609793165136E-01 
    9.3078963045175800E-01 
    9.4159997476707291E-01 
    9.4136414296108539E-01 
    9.3057962725546950E-01 
    9.3039802451520115E-01 
    9.4115995356817028E-01 
    9.4097421330273590E-01 
    9.3022064552828587E-01 
    9.3003152663769217E-01 
    9.4078570650113824E-01 
    9.4064253271600329E-01 
    9.2989544877759334E-01 
    9.2983612747332289E-01 
    9.4057729221602204E-01 
    9.2800091895939330E-01 
    9.1511498425629023E-01 
    9.1509080309458846E-01 
    9.2797315540541825E-01 
    9.2791781089668635E-01 
    9.1504258065069688E-01 
    9.1497061602207197E-01 
    9.2783524944269102E-01 
    9.2772603758418470E-01 
    9.1487533046161462E-01 
    9.1475728370627063E-01 
    9.2759088818410795E-01 
    9.2743067669681867E-01 
    9.1461717625507366E-01 
    9.1445586946915891E-01 
    9.2724642460106010E-01 
    9.2703931626155167E-01 
    9.1427435016740588E-01 
    9.1407378360975333E-01 
    9.2681072548420818E-01 
    9.2656213734027448E-01 
    9.1385540814328070E-01 
    9.1362047704752780E-01 
    9.2629506632458469E-01 
    9.2601113505283394E-01 
    9.1337032075203839E-01 
    9.1310633064063274E-01 
    9.2571199342891475E-01 
    9.2539932712924911E-01 
    9.1282995814394752E-01 
    9.1254274884384379E-01 
    9.2507491663590269E-01 
    9.2474063111891713E-01 
    9.1224633066643224E-01 
    9.1194232336867298E-01 
    9.2439833867219467E-01 
    9.2404990875186133E-01 
    9.1163234578548469E-01 
    9.1131810378399403E-01 
    9.2369729076829232E-01 
    9.2334241879375512E-01 
    9.1100130420219549E-01 
    9.1068361625658301E-01 
    9.2298720785942356E-01 
    9.2263359732744810E-01 
    9.1036676492857249E-01 
    9.1005248407209383E-01 
    9.2228352913143175E-01 
    9.2193888217350073E-01 
    9.0974244977772434E-01 
    9.0943834950804781E-01 
    9.2160151818760105E-01 
    9.2127336956219008E-01 
    9.0914193793093190E-01 
    9.0885487873859316E-01 
    9.2095629875248242E-01 
    9.2065210008822129E-01 
    9.0857880319577555E-01 
    9.0831541967593721E-01 
    9.2036266410365875E-01 
    9.2008983234246544E-01 
    9.0806641191871162E-01 
    9.0783346466311199E-01 
    9.1983540787727991E-01 
    9.1960135450777458E-01 
    9.0761839158477176E-01 
    9.0742314691547410E-01 
    9.1938960217051380E-01 
    9.1920311009527988E-01 
    9.0725095855022297E-01 
    9.0710340001365541E-01 
    9.1904422348567893E-01 
    9.1887816173094494E-01 
    9.0694500717188287E-01 
    9.0677197933040554E-01 
    9.1869210328848083E-01 
    9.1856091420318708E-01 
    9.0665090543727778E-01 
    9.0659369152839964E-01 
    9.1850318332041370E-01 
    9.0193477216486262E-01 
    8.8845305562279020E-01 
    8.8843335246896049E-01 
    9.0191322402346352E-01 
    9.0187025140581534E-01 
    8.8839406173342850E-01 
    8.8833539163784936E-01 
    9.0180609942416023E-01 
    9.0172110136279859E-01 
    8.8825762825608490E-01 
    8.8816117053958632E-01 
    9.0161570655379042E-01 
    9.0149050950187781E-01 
    8.8804653702822745E-01 
    8.8791435536326380E-01 
    9.0134623805013536E-01 
    9.0118372518404644E-01 
    8.8776534437628363E-01 
    8.8760036336740877E-01 
    9.0100396969984653E-01 
    9.0080801695129376E-01 
    8.8742030544793471E-01 
    8.8722608583542661E-01 
    9.0059690731573716E-01 
    9.0037180451119259E-01 
    8.8701878622182928E-01 
    8.8679954932120730E-01 
    9.0013395280027841E-01 
    8.9988462691577142E-01 
    8.8656952889886220E-01 
    8.8632997513933565E-01 
    8.9962520228233889E-01 
    8.9935714203483663E-01 
    8.8608221305642387E-01 
    8.8582753163989525E-01 
    8.9908187249396043E-01 
    8.9880080168864174E-01 
    8.8556721131721272E-01 
    8.8530267192996226E-01 
    8.9851547499088602E-01 
    8.9822742686879053E-01 
    8.8503531436176697E-01 
    8.8476646565715256E-01 
    8.9793810616864667E-01 
    8.9764910225930439E-01 
    8.8449761228851909E-01 
    8.8423019806289627E-01 
    8.9736198663836231E-01 
    8.9707823142785947E-01 
    8.8396559844230271E-01 
    8.8370525424985225E-01 
    8.9679938545466387E-01 
    8.9652704426537055E-01 
    8.8345062785158968E-01 
    8.8320308834661410E-01 
    8.9626267287129591E-01 
    8.9600765076449540E-01 
    8.8296389648279228E-01 
    8.8273437211272532E-01 
    8.9576345254101053E-01 
    8.9553145467206752E-01 
    8.8251570004259428E-01 
    8.8230876630974753E-01 
    8.9531283712398302E-01 
    8.9510878202550304E-01 
    8.8211427543634957E-01 
    8.8193325030036329E-01 
    8.9492063547552270E-01 
    8.9475028608949425E-01 
    8.8176603537923581E-01 
    8.8159819543984941E-01 
    8.9459351874628479E-01 
    8.9442357850744458E-01 
    8.8141085491380433E-01 
    8.8125716862691217E-01 
    8.9426483096628995E-01 
    8.9416288995261117E-01 
    8.8116785369022599E-01 
    8.8112278586954262E-01 
    8.9411211467812313E-01 
    8.7466694827261693E-01 
    8.6057724220233012E-01 
    8.6055927931710674E-01 
    8.7464841124030335E-01 
    8.7461144627066756E-01 
    8.6052345392259488E-01 
    8.6046994754860773E-01 
    8.7455624053918524E-01 
    8.7448307265009817E-01 
    8.6039903593910283E-01 
    8.6031107404868157E-01 
    8.7439231130838557E-01 
    8.7428442726652877E-01 
    8.6020652650325147E-01 
    8.6008593611826023E-01 
    8.7415999124617083E-01 
    8.7401965648695124E-01 
    8.5994991418823308E-01 
    8.5979913749763204E-01 
    8.7386416418909918E-01 
    8.7369431269775133E-01 
    8.5963437744928584E-01 
    8.5945650870760260E-01 
    8.7351098380323156E-01 
    8.7331519810058555E-01 
    8.5926651460429582E-01 
    8.5906541280465298E-01 
    8.7310801941897187E-01 
    8.7289052930390509E-01 
    8.5885422555051549E-01 
    8.5863405698400275E-01 
    8.7266388442243414E-01 
    8.7242929917201895E-01 
    8.5840606674842435E-01 
    8.5817142932444967E-01 
    8.7218798048429602E-01 
    8.7194115439306641E-01 
    8.5793132842599718E-01 
    8.5768703789875900E-01 
    8.7169013888036573E-01 
    8.7143625251018730E-01 
    8.5743984748599100E-01 
    8.5719103659180340E-01 
    8.7118078651299868E-01 
    8.7092514443259605E-01 
    8.5694195813703145E-01 
    8.5669397627769406E-01 
    8.7067069913762851E-01 
    8.7041881658461295E-01 
    8.5644843982061936E-01 
    8.5620675953838887E-01 
    8.7017090368066619E-01 
    8.6992837317901639E-01 
    8.5597036739420085E-01 
    8.5574070414744208E-01 
    8.6969262157687888E-01 
    8.6946499329140603E-01 
    8.5551921490957772E-01 
    8.5530751186364062E-01 
    8.6924691150411504E-01 
    8.6903973842511728E-01 
    8.5510725338943716E-01 
    8.5492016591043241E-01 
    8.6884469951391063E-01 
    8.6866303854800642E-01 
    8.5474850248154188E-01 
    8.5459551259748101E-01 
    8.6849668168750138E-01 
    8.6834583098496421E-01 
    8.5446216291417887E-01 
    8.5430442637823423E-01 