# vtk DataFile Version 2.0
Pressure Field Data 
ASCII 
DATASET UNSTRUCTURED_GRID 

POINTS 1681 double 

    0.0000000000000000E+00     0.0000000000000000E+00     0.0000000000000000E+00 
    1.0000000000000000E+00     0.0000000000000000E+00     0.0000000000000000E+00 
    1.0000000000000000E+00     1.0000000000000000E+00     0.0000000000000000E+00 
    0.0000000000000000E+00     1.0000000000000000E+00     0.0000000000000000E+00 
    5.2499999999875258E-01     0.0000000000000000E+00     0.0000000000000000E+00 
    7.4999999999856765E-02     0.0000000000000000E+00     0.0000000000000000E+00 
    1.2499999999975850E-01     0.0000000000000000E+00     0.0000000000000000E+00 
    1.7499999999962990E-01     0.0000000000000000E+00     0.0000000000000000E+00 
    2.2499999999948389E-01     0.0000000000000000E+00     0.0000000000000000E+00 
    2.7499999999933789E-01     0.0000000000000000E+00     0.0000000000000000E+00 
    3.2499999999919210E-01     0.0000000000000000E+00     0.0000000000000000E+00 
    3.7499999999904610E-01     0.0000000000000000E+00     0.0000000000000000E+00 
    4.2499999999890020E-01     0.0000000000000000E+00     0.0000000000000000E+00 
    4.7499999999875958E-01     0.0000000000000000E+00     0.0000000000000000E+00 
    2.4999999999949701E-02     0.0000000000000000E+00     0.0000000000000000E+00 
    5.7499999999887907E-01     0.0000000000000000E+00     0.0000000000000000E+00 
    6.2499999999901101E-01     0.0000000000000000E+00     0.0000000000000000E+00 
    6.7499999999914273E-01     0.0000000000000000E+00     0.0000000000000000E+00 
    7.2499999999927467E-01     0.0000000000000000E+00     0.0000000000000000E+00 
    7.7499999999940661E-01     0.0000000000000000E+00     0.0000000000000000E+00 
    8.2499999999953844E-01     0.0000000000000000E+00     0.0000000000000000E+00 
    8.7499999999967026E-01     0.0000000000000000E+00     0.0000000000000000E+00 
    9.2499999999980220E-01     0.0000000000000000E+00     0.0000000000000000E+00 
    9.7499999999993414E-01     0.0000000000000000E+00     0.0000000000000000E+00 
    5.4999999999881310E-01     0.0000000000000000E+00     0.0000000000000000E+00 
    9.9999999999814140E-02     0.0000000000000000E+00     0.0000000000000000E+00 
    1.4999999999970290E-01     0.0000000000000000E+00     0.0000000000000000E+00 
    1.9999999999955689E-01     0.0000000000000000E+00     0.0000000000000000E+00 
    2.4999999999941089E-01     0.0000000000000000E+00     0.0000000000000000E+00 
    2.9999999999926502E-01     0.0000000000000000E+00     0.0000000000000000E+00 
    3.4999999999911913E-01     0.0000000000000000E+00     0.0000000000000000E+00 
    3.9999999999897312E-01     0.0000000000000000E+00     0.0000000000000000E+00 
    4.4999999999882723E-01     0.0000000000000000E+00     0.0000000000000000E+00 
    4.9999999999869210E-01     0.0000000000000000E+00     0.0000000000000000E+00 
    4.9999999999899403E-02     0.0000000000000000E+00     0.0000000000000000E+00 
    5.9999999999894504E-01     0.0000000000000000E+00     0.0000000000000000E+00 
    6.4999999999907687E-01     0.0000000000000000E+00     0.0000000000000000E+00 
    6.9999999999920870E-01     0.0000000000000000E+00     0.0000000000000000E+00 
    7.4999999999934064E-01     0.0000000000000000E+00     0.0000000000000000E+00 
    7.9999999999947247E-01     0.0000000000000000E+00     0.0000000000000000E+00 
    8.4999999999960441E-01     0.0000000000000000E+00     0.0000000000000000E+00 
    8.9999999999973623E-01     0.0000000000000000E+00     0.0000000000000000E+00 
    9.4999999999986817E-01     0.0000000000000000E+00     0.0000000000000000E+00 
    1.0000000000000000E+00     5.2499999999875258E-01     0.0000000000000000E+00 
    1.0000000000000000E+00     7.4999999999856765E-02     0.0000000000000000E+00 
    1.0000000000000000E+00     1.2499999999975850E-01     0.0000000000000000E+00 
    1.0000000000000000E+00     1.7499999999962990E-01     0.0000000000000000E+00 
    1.0000000000000000E+00     2.2499999999948389E-01     0.0000000000000000E+00 
    1.0000000000000000E+00     2.7499999999933789E-01     0.0000000000000000E+00 
    1.0000000000000000E+00     3.2499999999919210E-01     0.0000000000000000E+00 
    1.0000000000000000E+00     3.7499999999904610E-01     0.0000000000000000E+00 
    1.0000000000000000E+00     4.2499999999890020E-01     0.0000000000000000E+00 
    1.0000000000000000E+00     4.7499999999875958E-01     0.0000000000000000E+00 
    1.0000000000000000E+00     2.4999999999949701E-02     0.0000000000000000E+00 
    1.0000000000000000E+00     5.7499999999887907E-01     0.0000000000000000E+00 
    1.0000000000000000E+00     6.2499999999901101E-01     0.0000000000000000E+00 
    1.0000000000000000E+00     6.7499999999914273E-01     0.0000000000000000E+00 
    1.0000000000000000E+00     7.2499999999927467E-01     0.0000000000000000E+00 
    1.0000000000000000E+00     7.7499999999940661E-01     0.0000000000000000E+00 
    1.0000000000000000E+00     8.2499999999953844E-01     0.0000000000000000E+00 
    1.0000000000000000E+00     8.7499999999967026E-01     0.0000000000000000E+00 
    1.0000000000000000E+00     9.2499999999980220E-01     0.0000000000000000E+00 
    1.0000000000000000E+00     9.7499999999993414E-01     0.0000000000000000E+00 
    1.0000000000000000E+00     5.4999999999881310E-01     0.0000000000000000E+00 
    1.0000000000000000E+00     9.9999999999814140E-02     0.0000000000000000E+00 
    1.0000000000000000E+00     1.4999999999970290E-01     0.0000000000000000E+00 
    1.0000000000000000E+00     1.9999999999955689E-01     0.0000000000000000E+00 
    1.0000000000000000E+00     2.4999999999941089E-01     0.0000000000000000E+00 
    1.0000000000000000E+00     2.9999999999926502E-01     0.0000000000000000E+00 
    1.0000000000000000E+00     3.4999999999911913E-01     0.0000000000000000E+00 
    1.0000000000000000E+00     3.9999999999897312E-01     0.0000000000000000E+00 
    1.0000000000000000E+00     4.4999999999882723E-01     0.0000000000000000E+00 
    1.0000000000000000E+00     4.9999999999869210E-01     0.0000000000000000E+00 
    1.0000000000000000E+00     4.9999999999899403E-02     0.0000000000000000E+00 
    1.0000000000000000E+00     5.9999999999894504E-01     0.0000000000000000E+00 
    1.0000000000000000E+00     6.4999999999907687E-01     0.0000000000000000E+00 
    1.0000000000000000E+00     6.9999999999920870E-01     0.0000000000000000E+00 
    1.0000000000000000E+00     7.4999999999934064E-01     0.0000000000000000E+00 
    1.0000000000000000E+00     7.9999999999947247E-01     0.0000000000000000E+00 
    1.0000000000000000E+00     8.4999999999960441E-01     0.0000000000000000E+00 
    1.0000000000000000E+00     8.9999999999973623E-01     0.0000000000000000E+00 
    1.0000000000000000E+00     9.4999999999986817E-01     0.0000000000000000E+00 
    4.7500000000196618E-01     1.0000000000000000E+00     0.0000000000000000E+00 
    9.2499999999968763E-01     1.0000000000000000E+00     0.0000000000000000E+00 
    8.7499999999961831E-01     1.0000000000000000E+00     0.0000000000000000E+00 
    8.2499999999982654E-01     1.0000000000000000E+00     0.0000000000000000E+00 
    7.7500000000017355E-01     1.0000000000000000E+00     0.0000000000000000E+00 
    7.2500000000052045E-01     1.0000000000000000E+00     0.0000000000000000E+00 
    6.7500000000086724E-01     1.0000000000000000E+00     0.0000000000000000E+00 
    6.2500000000121403E-01     1.0000000000000000E+00     0.0000000000000000E+00 
    5.7500000000156093E-01     1.0000000000000000E+00     0.0000000000000000E+00 
    5.2500000000189684E-01     1.0000000000000000E+00     0.0000000000000000E+00 
    9.7499999999989595E-01     1.0000000000000000E+00     0.0000000000000000E+00 
    4.2500000000176902E-01     1.0000000000000000E+00     0.0000000000000000E+00 
    3.7500000000156092E-01     1.0000000000000000E+00     0.0000000000000000E+00 
    3.2500000000135282E-01     1.0000000000000000E+00     0.0000000000000000E+00 
    2.7500000000114472E-01     1.0000000000000000E+00     0.0000000000000000E+00 
    2.2500000000093659E-01     1.0000000000000000E+00     0.0000000000000000E+00 
    1.7500000000072849E-01     1.0000000000000000E+00     0.0000000000000000E+00 
    1.2500000000052039E-01     1.0000000000000000E+00     0.0000000000000000E+00 
    7.5000000000312261E-02     1.0000000000000000E+00     0.0000000000000000E+00 
    2.5000000000104109E-02     1.0000000000000000E+00     0.0000000000000000E+00 
    4.5000000000187301E-01     1.0000000000000000E+00     0.0000000000000000E+00 
    8.9999999999958358E-01     1.0000000000000000E+00     0.0000000000000000E+00 
    8.4999999999965303E-01     1.0000000000000000E+00     0.0000000000000000E+00 
    8.0000000000000004E-01     1.0000000000000000E+00     0.0000000000000000E+00 
    7.5000000000034706E-01     1.0000000000000000E+00     0.0000000000000000E+00 
    7.0000000000069384E-01     1.0000000000000000E+00     0.0000000000000000E+00 
    6.5000000000104063E-01     1.0000000000000000E+00     0.0000000000000000E+00 
    6.0000000000138742E-01     1.0000000000000000E+00     0.0000000000000000E+00 
    5.5000000000173432E-01     1.0000000000000000E+00     0.0000000000000000E+00 
    5.0000000000205946E-01     1.0000000000000000E+00     0.0000000000000000E+00 
    9.4999999999979179E-01     1.0000000000000000E+00     0.0000000000000000E+00 
    4.0000000000166491E-01     1.0000000000000000E+00     0.0000000000000000E+00 
    3.5000000000145681E-01     1.0000000000000000E+00     0.0000000000000000E+00 
    3.0000000000124871E-01     1.0000000000000000E+00     0.0000000000000000E+00 
    2.5000000000104061E-01     1.0000000000000000E+00     0.0000000000000000E+00 
    2.0000000000083251E-01     1.0000000000000000E+00     0.0000000000000000E+00 
    1.5000000000062441E-01     1.0000000000000000E+00     0.0000000000000000E+00 
    1.0000000000041630E-01     1.0000000000000000E+00     0.0000000000000000E+00 
[...]
CELL_DATA 1600 
SCALARS Pressure double 1 
LOOKUP_TABLE default 

    1.2927282179571746E+00 
    1.2460273584894310E+00 
    1.2436013240369366E+00 
    1.2770907614183900E+00 
    1.2645777636742686E+00 
    1.2399211320500354E+00 
    1.2356424032843250E+00 
    1.2542715259017350E+00 
    1.2455769395744258E+00 
    1.2311384069189781E+00 
    1.2266178340872607E+00 
    1.2380875892649974E+00 
    1.2315187234465723E+00 
    1.2221934958777236E+00 
    1.2179234681596200E+00 
    1.2256695073093649E+00 
    1.2203967199138392E+00 
    1.2138341746613361E+00 
    1.2099330123285783E+00 
    1.2155940375158047E+00 
    1.2111793153729649E+00 
    1.2062168844963521E+00 
    1.2026786339367945E+00 
    1.2070902396014238E+00 
    1.2032808012842338E+00 
    1.1993103926472184E+00 
    1.1961040876526463E+00 
    1.1997161569567687E+00 
    1.1963691240100043E+00 
    1.1930515995862632E+00 
    1.1901447884674832E+00 
    1.1932177977549210E+00 
    1.1902438409149148E+00 
    1.1873758243229466E+00 
    1.1847379966389668E+00 
    1.1874323824148079E+00 
    1.1847720988582331E+00 
    1.1822260739732326E+00 
    1.1798357105890394E+00 
    1.1822541560941791E+00 
    1.1798711073587171E+00 
    1.1775630013024301E+00 
    1.1754045206125083E+00 
    1.1776167165735230E+00 
    1.1754860232267321E+00 
    1.1733575692066367E+00 
    1.1714200435583193E+00 
    1.1734751062008419E+00 
    1.1715808651352715E+00 
    1.1695902841812584E+00 
    1.1678669859625603E+00 
    1.1698008442701693E+00 
    1.1681331387327403E+00 
    1.1662492414710133E+00 
    1.1647364967563125E+00 
    1.1665763565793896E+00 
    1.1651295619823827E+00 
    1.1633285048193622E+00 
    1.1620252919696825E+00 
    1.1637921945187224E+00 
    1.1625639342905274E+00 
    1.1608271172130429E+00 
    1.1597342351225464E+00 
    1.1614445619196994E+00 
    1.1604362745961321E+00 
    1.1587499352920214E+00 
    1.1578682235575426E+00 
    1.1595342224690222E+00 
    1.1586295750619011E+00 
    1.1569715063468573E+00 
    1.1561225202034333E+00 
    1.1577748969305348E+00 
    1.1571199437601494E+00 
    1.1554789102449892E+00 
    1.1549981711321724E+00 
    1.1566312748934935E+00 
    1.1563059442810197E+00 
    1.1546781112678692E+00 
    1.1545182086377488E+00 
    1.1561434228589045E+00 
    1.2215171004246996E+00 
    1.2030779061181520E+00 
    1.2026732488060499E+00 
    1.2207183248900637E+00 
    1.2192455766163381E+00 
    1.2018895781466035E+00 
    1.2007690790836827E+00 
    1.2172507697220936E+00 
    1.2148783804549426E+00 
    1.1993624483545544E+00 
    1.1977212704455042E+00 
    1.2122495120028125E+00 
    1.2094594819383113E+00 
    1.1958941684406352E+00 
    1.1939252452501046E+00 
    1.2065804924311012E+00 
    1.2036656304830746E+00 
    1.1918530364363480E+00 
    1.1897106407613274E+00 
    1.2007532044598290E+00 
    1.1978707257263526E+00 
    1.1875257382306303E+00 
    1.1853210988917904E+00 
    1.1950379735126990E+00 
    1.1922692197374474E+00 
    1.1831154123471206E+00 
    1.1809236789357758E+00 
    1.1895743278494579E+00 
    1.1869597012923911E+00 
    1.1787577862515299E+00 
    1.1766275195270908E+00 
    1.1844292509149259E+00 
    1.1819854687834010E+00 
    1.1745410582865548E+00 
    1.1725051995714308E+00 
    1.1796302026288539E+00 
    1.1773649022532389E+00 
    1.1705254857848988E+00 
    1.1686065522248665E+00 
    1.1751904918930844E+00 
    1.1731074416354981E+00 
    1.1667521894514177E+00 
    1.1649656379010842E+00 
    1.1711160249067019E+00 
    1.1692166286384809E+00 
    1.1632498696756386E+00 
    1.1616074650478303E+00 
    1.1674096580006159E+00 
    1.1656955071789092E+00 
    1.1600406469180407E+00 
    1.1585515427156226E+00 
    1.1640746207590198E+00 
    1.1625475736272106E+00 
    1.1571421619145159E+00 
    1.1558143386513013E+00 
    1.1611150291485690E+00 
    1.1597777675835672E+00 
    1.1545698229891566E+00 
    1.1534103911663278E+00 
    1.1585367018547945E+00 
    1.1573928224541179E+00 
    1.1523375879087321E+00 
    1.1513531263926222E+00 
    1.1563470602077910E+00 
    1.1554042800326243E+00 
    1.1504627216349432E+00 
    1.1496494121637906E+00 
    1.1545552956102403E+00 
    1.1536760100973042E+00 
    1.1487958598978194E+00 
    1.1479986129376911E+00 
    1.1528447197831955E+00 
    1.1522231944881269E+00 
    1.1474075606570537E+00 
    1.1469649642755777E+00 
    1.1517582780065347E+00 
    1.1514486781701396E+00 
    1.1466700612330176E+00 
    1.1465226497898691E+00 
    1.1512939700107498E+00 
    1.1869559704265646E+00 
    1.1718119708415384E+00 
    1.1716379987861127E+00 
    1.1867049062843378E+00 
    1.1862113252026389E+00 
    1.1712938121377372E+00 
    1.1707862843853092E+00 
    1.1854906368959763E+00 
    1.1845630997032710E+00 
    1.1701249718307734E+00 
    1.1693221522352495E+00 
    1.1834519293402863E+00 
    1.1821820948044401E+00 
    1.1683920377826078E+00 
    1.1673491759839834E+00 
    1.1807788064954341E+00 
    1.1792659892350428E+00 
    1.1662078732763097E+00 
    1.1649826513137056E+00 
    1.1776661327721587E+00 
    1.1759996659883019E+00 
    1.1636876185284395E+00 
    1.1623358043761620E+00 
    1.1742845492942882E+00 
    1.1725368814953139E+00 
    1.1609397738556764E+00 
    1.1595113508197186E+00 
    1.1707708619552966E+00 
    1.1689988055309180E+00 
    1.1580611727256596E+00 
    1.1565990779988098E+00 
    1.1672317296308208E+00 
    1.1654793800428727E+00 
    1.1551341389655070E+00 
    1.1536744760440916E+00 
    1.1637500820293074E+00 
    1.1620509285063809E+00 
    1.1522273176026563E+00 
    1.1507994682936591E+00 
    1.1603883336555243E+00 
    1.1587679460591402E+00 
    1.1493971616756364E+00 
    1.1480258504998353E+00 
    1.1571946547485252E+00 
    1.1556729986580334E+00 
    1.1466906938460493E+00 
    1.1453964406918997E+00 
    1.1542069935935315E+00 
    1.1528001249591457E+00 
    1.1441472750822061E+00 
    1.1429471829395661E+00 
    1.1514557101254805E+00 
    1.1501768730986810E+00 
    1.1417999737731213E+00 
    1.1407091075717057E+00 
    1.1489663926584297E+00 
    1.1478267850198594E+00 
    1.1396776898016032E+00 
    1.1387087295927718E+00 
    1.1467605004400194E+00 
    1.1457695329807138E+00 
    1.1378048447227560E+00 
    1.1369705248699868E+00 
    1.1448567056416756E+00 
    1.1440268088199936E+00 
    1.1362076563321952E+00 
    1.1354489570072215E+00 
    1.1432453671446934E+00 
    1.1424189538191492E+00 
    1.1346435925133305E+00 
    1.1339474222687427E+00 
    1.1416685387454915E+00 
    1.1411116707361126E+00 
    1.1334247706691796E+00 
    1.1330329744766929E+00 
    1.1406944216989257E+00 
    1.1404162667683395E+00 
    1.1327716906668992E+00 
    1.1326410294260587E+00 
    1.1402771955749396E+00 
    1.1570297976073318E+00 
    1.1422774399170263E+00 
    1.1421767910532781E+00 
    1.1569005286740572E+00 
    1.1566439273165785E+00 
    1.1419766662100965E+00 
    1.1416794510510027E+00 
    1.1562637362343051E+00 
    1.1557655697382649E+00 
    1.1412887822988418E+00 
    1.1408091507154101E+00 
    1.1551567655626154E+00 
    1.1544456112892061E+00 
    1.1402457061826659E+00 
    1.1396041938968475E+00 
    1.1536407772880233E+00 
    1.1527514010436082E+00 
    1.1388910153065834E+00 
    1.1381130181527850E+00 
    1.1517872025133451E+00 
    1.1507580362373022E+00 
    1.1372772386799037E+00 
    1.1363906180353145E+00 
    1.1496734467583569E+00 
    1.1485428704724254E+00 
    1.1354601546269765E+00 
    1.1344927577213775E+00 
    1.1473754692361422E+00 
    1.1461797462420955E+00 
    1.1334951611927682E+00 
    1.1324739614041108E+00 
    1.1449637905632275E+00 
    1.1437353391145992E+00 
    1.1314356443954297E+00 
    1.1303863767027420E+00 
    1.1425016543180131E+00 
    1.1412694622315345E+00 
    1.1293320464551460E+00 
    1.1282783694317862E+00 
    1.1400451633781330E+00 
    1.1388347472035216E+00 
    1.1272307446998235E+00 
    1.1261942185256153E+00 
    1.1376436483475048E+00 
    1.1364770173382615E+00 
    1.1251737131216724E+00 
    1.1241738443049869E+00 
    1.1353397387605524E+00 
    1.1342362626516131E+00 
    1.1231989299444884E+00 
    1.1222531037961723E+00 
    1.1331708088833701E+00 
    1.1321474113499252E+00 
    1.1213403161798445E+00 
    1.1204641697713908E+00 
    1.1311698342548815E+00 
    1.1302415190983333E+00 
    1.1196279767327815E+00 
    1.1188347446960574E+00 
    1.1293657065338760E+00 
    1.1285457520832334E+00 
    1.1180880657242620E+00 
    1.1173917727260116E+00 
    1.1277873963340159E+00 
    1.1270862097860008E+00 
    1.1167215605020362E+00 
    1.1159793371601703E+00 
    1.1263430545286317E+00 
    1.1255648961446085E+00 
    1.1152473309575393E+00 
    1.1146714294851892E+00 
    1.1249268304824567E+00 
    1.1244349704507377E+00 
    1.1142141453274670E+00 
    1.1138711563315835E+00 
    1.1240665342068841E+00 
    1.1238210027143880E+00 
    1.1136424672673315E+00 
    1.1135281043561704E+00 
    1.1236982634105008E+00 
    1.1273583213417895E+00 
    1.1121554832245435E+00 
    1.1120886253461242E+00 
    1.1272773952464796E+00 
    1.1271163312772559E+00 
    1.1119554730529457E+00 
    1.1117571050577715E+00 
    1.1268767189026758E+00 
    1.1265608355679277E+00 
    1.1114950252041389E+00 
    1.1111712145506267E+00 
    1.1261715700836017E+00 
    1.1257124992284466E+00 
    1.1107882611732069E+00 
    1.1103492394076140E+00 
    1.1251877751156405E+00 
    1.1246020094070861E+00 
    1.1098575229130991E+00 
    1.1093167517041622E+00 
    1.1239602183684612E+00 
    1.1232674516138985E+00 
    1.1087307133250315E+00 
    1.1081033923042969E+00 
    1.1225287604053549E+00 
    1.1217495330009546E+00 
    1.1074390903788081E+00 
    1.1067422386802248E+00 
    1.1209352224198159E+00 
    1.1200911872402930E+00 
    1.1060171528068006E+00 
    1.1052682239643457E+00 
    1.1192228188902911E+00 
    1.1183355020612846E+00 
    1.1044998842063105E+00 
    1.1037164848216039E+00 
    1.1174344075550928E+00 
    1.1165244831260850E+00 
    1.1029222413609534E+00 
    1.1021214261156178E+00 
    1.1156107269183186E+00 
    1.1146979350421287E+00 
    1.1013182685229899E+00 
    1.1005167385010088E+00 
    1.1137905964031369E+00 
    1.1128932427938307E+00 
    1.0997208296809600E+00 
    1.0989344187809647E+00 
    1.1120101468569044E+00 
    1.1111452503091055E+00 
    1.0981610608622514E+00 
    1.0974043014504866E+00 
    1.1103024251732825E+00 
    1.1094854500213438E+00 
    1.0966676714882388E+00 
    1.0959545475694332E+00 
    1.1086977835681144E+00 
    1.1079425774273581E+00 
    1.0952680877047529E+00 
    1.0946118587534732E+00 
    1.1072230319843066E+00 
    1.1065435148649159E+00 
    1.0939896173193444E+00 
    1.0933893252618856E+00 
    1.1059036732557115E+00 
    1.1052368042776286E+00 
    1.0927128667119779E+00 
    1.0919677239321959E+00 
    1.1044812352928250E+00 
    1.1037994085106730E+00 
    1.0913385723026128E+00 
    1.0908385424585489E+00 
    1.1032730723208728E+00 
    1.1028504885887698E+00 
    1.0904386182223387E+00 
    1.0901386271710047E+00 
    1.1025327234879534E+00 
    1.1023205238986984E+00 
    1.0899385894841360E+00 
    1.0898385588245361E+00 
    1.1022143251806278E+00 
    1.0965973917349341E+00 
    1.0806325671868353E+00 
    1.0805831549406912E+00 
    1.0965406659515142E+00 
    1.0964276169644678E+00 
    1.0804846244177619E+00 
    1.0803375400165720E+00 
    1.0962590129004810E+00 
    1.0960359504556088E+00 
    1.0801427865845239E+00 
    1.0799016074827430E+00 
    1.0957599236357534E+00 
    1.0954328869535201E+00 
    1.0796155956632563E+00 
    1.0792865111704348E+00 
    1.0950571295326139E+00 
    1.0946351055372563E+00 
    1.0789162572192468E+00 
    1.0785071649675908E+00 
    1.0941696014231828E+00 
    1.0936637184218376E+00 
    1.0780618523612389E+00 
    1.0775829653431959E+00 
    1.0931207201107516E+00 
    1.0925441224125267E+00 
    1.0770733527383596E+00 
    1.0765358945397063E+00 
    1.0919374959693025E+00 
    1.0913043213799007E+00 
    1.0759734599038715E+00 
    1.0753890918464528E+00 
    1.0906482413030074E+00 
    1.0899729599192252E+00 
    1.0747859438656422E+00 
    1.0741671136269006E+00 
    1.0892821220341209E+00 
    1.0885793469894842E+00 
    1.0735357031849202E+00 
    1.0728950075941319E+00 
    1.0878683573413854E+00 
    1.0871528182687622E+00 
    1.0722482192570435E+00 
    1.0715983650850678E+00 
    1.0864361863120107E+00 
    1.0857219790392862E+00 
    1.0709485205735849E+00 
    1.0703016385247954E+00 
    1.0850135927281983E+00 
    1.0843141728827403E+00 
    1.0696605167606916E+00 
    1.0690280696426420E+00 
    1.0836269498921549E+00 
    1.0829552381778247E+00 
    1.0684074099566840E+00 
    1.0678015714033300E+00 
    1.0823022483148377E+00 
    1.0816712925186351E+00 
    1.0672140318364198E+00 
    1.0666479936316589E+00 
    1.0810662888009566E+00 
    1.0804857826264396E+00 
    1.0660872751472568E+00 
    1.0654322930243243E+00 
    1.0798745185736327E+00 
    1.0791495334310113E+00 
    1.0646714408195401E+00 
    1.0640076668593876E+00 
    1.0784407504604812E+00 
    1.0778733372608442E+00 
    1.0634771023756886E+00 
    1.0630340389365034E+00 
    1.0774036633930335E+00 
    1.0770274889133573E+00 
    1.0626786969360185E+00 
    1.0624117034985101E+00 
    1.0767451018881409E+00 
    1.0765567246249774E+00 
    1.0622334914404752E+00 
    1.0621443370033237E+00 
    1.0764625118397830E+00 
    1.0642212339089145E+00 
    1.0473365924625855E+00 
    1.0472966106880779E+00 
    1.0641772134346363E+00 
    1.0640893797419921E+00 
    1.0472167981665430E+00 
    1.0470974786735854E+00 
    1.0639581459880292E+00 
    1.0637842540328470E+00 
    1.0469392563243809E+00 
    1.0467430994868445E+00 
    1.0635688037308721E+00 
    1.0633131523390540E+00 
    1.0465101724552943E+00 
    1.0462418009639660E+00 
    1.0630187621400327E+00 
    1.0626872959787552E+00 
    1.0459394818907930E+00 
    1.0456048966026743E+00 
    1.0623207504948644E+00 
    1.0619212657669426E+00 
    1.0452397580798860E+00 
    1.0448458244855006E+00 
    1.0614909919067728E+00 
    1.0610322269751491E+00 
    1.0444250282520560E+00 
    1.0439794219949985E+00 
    1.0605473411344990E+00 
    1.0600387930457440E+00 
    1.0435111183498667E+00 
    1.0430223781191053E+00 
    1.0595091623827506E+00 
    1.0589611413349118E+00 
    1.0425155746512096E+00 
    1.0419930449442532E+00 
    1.0583974108697110E+00 
    1.0578206623900472E+00 
    1.0414571094134637E+00 
    1.0409103043222667E+00 
    1.0572337835214971E+00 
    1.0566396403940881E+00 
    1.0403552209366322E+00 
    1.0397942950806669E+00 
    1.0560409530796475E+00 
    1.0554404173974095E+00 
    1.0392300893031006E+00 
    1.0386651066695363E+00 
    1.0548406952374274E+00 
    1.0542443784318498E+00 
    1.0381016360698214E+00 
    1.0375421590648617E+00 
    1.0536541679779814E+00 
    1.0530730187425350E+00 
    1.0369894972850786E+00 
    1.0364463579661529E+00 
    1.0525040604548190E+00 
    1.0519506235986005E+00 
    1.0359122614010345E+00 
    1.0353523955244732E+00 
    1.0514102510706889E+00 
    1.0508127031005436E+00 
    1.0346572138647907E+00 
    1.0338557223692793E+00 
    1.0500704664033567E+00 
    1.0493286806935986E+00 
    1.0331626318200346E+00 
    1.0325927375664243E+00 
    1.0487230946327646E+00 
    1.0482129192182208E+00 
    1.0321025409875457E+00 
    1.0316928584446825E+00 
    1.0477873744391657E+00 
    1.0474465735875853E+00 
    1.0313644156223627E+00 
    1.0311177003369310E+00 
    1.0471907180692392E+00 
    1.0470200113950821E+00 
    1.0309530222903811E+00 
    1.0308705681468182E+00 
    1.0469345849250533E+00 
    1.0299663086546811E+00 
    1.0121107832174467E+00 
    1.0120756570729170E+00 
    1.0299292546633063E+00 
    1.0298553099033618E+00 
    1.0120056203989820E+00 
    1.0119010935305757E+00 
    1.0297447966926976E+00 
    1.0295982508164194E+00 
    1.0117626363805363E+00 
    1.0115908628750176E+00 
    1.0294164469137275E+00 
    1.0292003679699109E+00 
    1.0113865288591930E+00 
    1.0111506653522959E+00 
    1.0289512219082904E+00 
    1.0286703247568010E+00 
    1.0108843996238313E+00 
    1.0105888792461328E+00 
    1.0283590588707989E+00 
    1.0280188252626115E+00 
    1.0102653110815905E+00 
    1.0099150616770831E+00 
    1.0276511092222285E+00 
    1.0272576718219735E+00 
    1.0095398007653242E+00 
    1.0091412041455043E+00 
    1.0268403684885061E+00 
    1.0264010296339341E+00 
    1.0087209497787197E+00 
    1.0082809234431176E+00 
    1.0259416891414641E+00 
    1.0254645098975956E+00 
    1.0078230898552172E+00 
    1.0073493991608558E+00 
    1.0249715919791711E+00 
    1.0244649911362733E+00 
    1.0068617941414977E+00 
    1.0063623633052756E+00 
    1.0239469681474411E+00 
    1.0234198042656752E+00 
    1.0058531818085903E+00 
    1.0053363003146927E+00 
    1.0228857302715957E+00 
    1.0223473428240495E+00 
    1.0048141372497641E+00 
    1.0042892804061001E+00 
    1.0218071179454946E+00 
    1.0212672205309374E+00 
    1.0037645889855324E+00 
    1.0032429746630067E+00 
    1.0207302596028798E+00 
    1.0201989545996824E+00 
    1.0027242380725692E+00 
    1.0021927414281586E+00 
    1.0196724935528696E+00 
    1.0191336857045874E+00 
    1.0015627360639319E+00 
    1.0007328310738990E+00 
    1.0184839138780808E+00 
    1.0176635748586318E+00 
    9.9985186523006730E-01 
    9.9911331653957514E-01 
    1.0168776763279332E+00 
    1.0162296330356251E+00 
    9.9848582301775723E-01 
    9.9793689331203639E-01 
    1.0156676428862075E+00 
    1.0151861264108710E+00 
    9.9746628012264260E-01 
    9.9707401753968317E-01 
    1.0147848567363988E+00 
    1.0144637705609849E+00 
    9.9676013934434349E-01 
    9.9652470069466381E-01 
    1.0142228845455827E+00 
    1.0140622303233315E+00 
    9.9636773181750327E-01 
    9.9628927373820142E-01 
    1.0139818454264928E+00 
    9.9377799996480531E-01 
    9.7497927218038649E-01 
    9.7494552796125011E-01 
    9.9374392507600251E-01 
    9.9367604802238496E-01 
    9.7487831452552154E-01 
    9.7477820379528080E-01 
    9.9357491220052330E-01 
    9.9344116463770138E-01 
    9.7464585968209949E-01 
    9.7448180888633518E-01 
    9.9327531625001597E-01 
    9.9307790838198229E-01 
    9.7428657672162344E-01 
    9.7406077299507099E-01 
    9.9284975034861955E-01 
    9.9259178756612354E-01 
    9.7380509454108233E-01 
    9.7352054693709245E-01 
    9.9230502252313579E-01 
    9.9199062992956777E-01 
    9.7320842080410863E-01 
    9.7286994618696243E-01 
    9.9164995378644116E-01 
    9.9128449994367607E-01 
    9.7250642728376546E-01 
    9.7211943394230349E-01 
    9.9089579146521334E-01 
    9.9048545563417911E-01 
    9.7171057779934233E-01 
    9.7128144561971941E-01 
    9.9005527970745999E-01 
    9.8960706619087468E-01 
    9.7083368939067460E-01 
    9.7036910551231326E-01 
    9.8914264319346468E-01 
    9.8866383412867997E-01 
    9.6988943232115588E-01 
    9.6939657625084574E-01 
    9.8817257929070401E-01 
    9.8767096709021107E-01 
    9.6889270907859470E-01 
    9.6837971310683846E-01 
    9.8716090188967742E-01 
    9.8664430238127232E-01 
    9.6785922294839544E-01 
    9.6733212719387962E-01 
    9.8612342222173566E-01 
    9.8560084106849311E-01 
    9.6679465074673399E-01 
    9.6622798907986962E-01 
    9.8507649606509651E-01 
    9.8453483379467477E-01 
    9.6554658598821652E-01 
    9.6463791347393757E-01 
    9.8389164172603505E-01 
    9.8303425844819448E-01 
    9.6361435090829251E-01 
    9.6271749165948761E-01 
    9.8207862598832696E-01 
    9.8125909717689119E-01 
    9.6195845822421844E-01 
    9.6128043654753415E-01 
    9.8057107133172905E-01 
    9.7995939836387636E-01 
    9.6067772585131783E-01 
    9.6015032287597135E-01 
    9.7942335383424584E-01 
    9.7896337563724534E-01 
    9.5969824610351662E-01 
    9.5932152007266269E-01 