# vtk DataFile Version 2.0
Pressure Field Data 
ASCII 
DATASET UNSTRUCTURED_GRID 

POINTS 1681 double 

    0.0000000000000000E+00     0.0000000000000000E+00     0.0000000000000000E+00 
    1.0000000000000000E+00     0.0000000000000000E+00     0.0000000000000000E+00 
    1.0000000000000000E+00     1.0000000000000000E+00     0.0000000000000000E+00 
    0.0000000000000000E+00     1.0000000000000000E+00     0.0000000000000000E+00 
    5.2499999999875258E-01     0.0000000000000000E+00     0.0000000000000000E+00 
    7.4999999999856765E-02     0.0000000000000000E+00     0.0000000000000000E+00 
    1.2499999999975850E-01     0.0000000000000000E+00     0.0000000000000000E+00 
    1.7499999999962990E-01     0.0000000000000000E+00     0.0000000000000000E+00 
    2.2499999999948389E-01     0.0000000000000000E+00     0.0000000000000000E+00 
    2.7499999999933789E-01     0.0000000000000000E+00     0.0000000000000000E+00 
    3.2499999999919210E-01     0.0000000000000000E+00     0.0000000000000000E+00 
    3.7499999999904610E-01     0.0000000000000000E+00     0.0000000000000000E+00 
    4.2499999999890020E-01     0.0000000000000000E+00     0.0000000000000000E+00 
    4.7499999999875958E-01     0.0000000000000000E+00     0.0000000000000000E+00 
    2.4999999999949701E-02     0.0000000000000000E+00     0.0000000000000000E+00 
    5.7499999999887907E-01     0.0000000000000000E+00     0.0000000000000000E+00 
    6.2499999999901101E-01     0.0000000000000000E+00     0.0000000000000000E+00 
    6.7499999999914273E-01     0.0000000000000000E+00     0.0000000000000000E+00 
    7.2499999999927467E-01     0.0000000000000000E+00     0.0000000000000000E+00 
    7.7499999999940661E-01     0.0000000000000000E+00     0.0000000000000000E+00 
    8.2499999999953844E-01     0.0000000000000000E+00     0.0000000000000000E+00 
    8.7499999999967026E-01     0.0000000000000000E+00     0.0000000000000000E+00 
    9.2499999999980220E-01     0.0000000000000000E+00     0.0000000000000000E+00 
    9.7499999999993414E-01     0.0000000000000000E+00     0.0000000000000000E+00 
    5.4999999999881310E-01     0.0000000000000000E+00     0.0000000000000000E+00 
    9.9999999999814140E-02     0.0000000000000000E+00     0.0000000000000000E+00 
    1.4999999999970290E-01     0.0000000000000000E+00     0.0000000000000000E+00 
    1.9999999999955689E-01     0.0000000000000000E+00     0.0000000000000000E+00 
    2.4999999999941089E-01     0.0000000000000000E+00     0.0000000000000000E+00 
    2.9999999999926502E-01     0.0000000000000000E+00     0.0000000000000000E+00 
    3.4999999999911913E-01     0.0000000000000000E+00     0.0000000000000000E+00 
    3.9999999999897312E-01     0.0000000000000000E+00     0.0000000000000000E+00 
    4.4999999999882723E-01     0.0000000000000000E+00     0.0000000000000000E+00 
    4.9999999999869210E-01     0.0000000000000000E+00     0.0000000000000000E+00 
    4.9999999999899403E-02     0.0000000000000000E+00     0.0000000000000000E+00 
    5.9999999999894504E-01     0.0000000000000000E+00     0.0000000000000000E+00 
    6.4999999999907687E-01     0.0000000000000000E+00     0.0000000000000000E+00 
    6.9999999999920870E-01     0.0000000000000000E+00     0.0000000000000000E+00 
    7.4999999999934064E-01     0.0000000000000000E+00     0.0000000000000000E+00 
    7.9999999999947247E-01     0.0000000000000000E+00     0.0000000000000000E+00 
    8.4999999999960441E-01     0.0000000000000000E+00     0.0000000000000000E+00 
    8.9999999999973623E-01     0.0000000000000000E+00     0.0000000000000000E+00 
    9.4999999999986817E-01     0.0000000000000000E+00     0.0000000000000000E+00 
    1.0000000000000000E+00     5.2499999999875258E-01     0.0000000000000000E+00 
    1.0000000000000000E+00     7.4999999999856765E-02     0.0000000000000000E+00 
    1.0000000000000000E+00     1.2499999999975850E-01     0.0000000000000000E+00 
    1.0000000000000000E+00     1.7499999999962990E-01     0.0000000000000000E+00 
    1.0000000000000000E+00     2.2499999999948389E-01     0.0000000000000000E+00 
    1.0000000000000000E+00     2.7499999999933789E-01     0.0000000000000000E+00 
    1.0000000000000000E+00     3.2499999999919210E-01     0.0000000000000000E+00 
    1.0000000000000000E+00     3.7499999999904610E-01     0.0000000000000000E+00 
    1.0000000000000000E+00     4.2499999999890020E-01     0.0000000000000000E+00 
    1.0000000000000000E+00     4.7499999999875958E-01     0.0000000000000000E+00 
    1.0000000000000000E+00     2.4999999999949701E-02     0.0000000000000000E+00 
    1.0000000000000000E+00     5.7499999999887907E-01     0.0000000000000000E+00 
    1.0000000000000000E+00     6.2499999999901101E-01     0.0000000000000000E+00 
    1.0000000000000000E+00     6.7499999999914273E-01     0.0000000000000000E+00 
    1.0000000000000000E+00     7.2499999999927467E-01     0.0000000000000000E+00 
    1.0000000000000000E+00     7.7499999999940661E-01     0.0000000000000000E+00 
    1.0000000000000000E+00     8.2499999999953844E-01     0.0000000000000000E+00 
    1.0000000000000000E+00     8.7499999999967026E-01     0.0000000000000000E+00 
    1.0000000000000000E+00     9.2499999999980220E-01     0.0000000000000000E+00 
    1.0000000000000000E+00     9.7499999999993414E-01     0.0000000000000000E+00 
    1.0000000000000000E+00     5.4999999999881310E-01     0.0000000000000000E+00 
    1.0000000000000000E+00     9.9999999999814140E-02     0.0000000000000000E+00 
    1.0000000000000000E+00     1.4999999999970290E-01     0.0000000000000000E+00 
    1.0000000000000000E+00     1.9999999999955689E-01     0.0000000000000000E+00 
    1.0000000000000000E+00     2.4999999999941089E-01     0.0000000000000000E+00 
    1.0000000000000000E+00     2.9999999999926502E-01     0.0000000000000000E+00 
    1.0000000000000000E+00     3.4999999999911913E-01     0.0000000000000000E+00 
    1.0000000000000000E+00     3.9999999999897312E-01     0.0000000000000000E+00 
    1.0000000000000000E+00     4.4999999999882723E-01     0.0000000000000000E+00 
    1.0000000000000000E+00     4.9999999999869210E-01     0.0000000000000000E+00 
    1.0000000000000000E+00     4.9999999999899403E-02     0.0000000000000000E+00 
    1.0000000000000000E+00     5.9999999999894504E-01     0.0000000000000000E+00 
    1.0000000000000000E+00     6.4999999999907687E-01     0.0000000000000000E+00 
    1.0000000000000000E+00     6.9999999999920870E-01     0.0000000000000000E+00 
    1.0000000000000000E+00     7.4999999999934064E-01     0.0000000000000000E+00 
    1.0000000000000000E+00     7.9999999999947247E-01     0.0000000000000000E+00 
    1.0000000000000000E+00     8.4999999999960441E-01     0.0000000000000000E+00 
    1.0000000000000000E+00     8.9999999999973623E-01     0.0000000000000000E+00 
    1.0000000000000000E+00     9.4999999999986817E-01     0.0000000000000000E+00 
    4.7500000000196618E-01     1.0000000000000000E+00     0.0000000000000000E+00 
    9.2499999999968763E-01     1.0000000000000000E+00     0.0000000000000000E+00 
    8.7499999999961831E-01     1.0000000000000000E+00     0.0000000000000000E+00 
    8.2499999999982654E-01     1.0000000000000000E+00     0.0000000000000000E+00 
    7.7500000000017355E-01     1.0000000000000000E+00     0.0000000000000000E+00 
    7.2500000000052045E-01     1.0000000000000000E+00     0.0000000000000000E+00 
    6.7500000000086724E-01     1.0000000000000000E+00     0.0000000000000000E+00 
    6.2500000000121403E-01     1.0000000000000000E+00     0.0000000000000000E+00 
    5.7500000000156093E-01     1.0000000000000000E+00     0.0000000000000000E+00 
    5.2500000000189684E-01     1.0000000000000000E+00     0.0000000000000000E+00 
    9.7499999999989595E-01     1.0000000000000000E+00     0.0000000000000000E+00 
    4.2500000000176902E-01     1.0000000000000000E+00     0.0000000000000000E+00 
    3.7500000000156092E-01     1.0000000000000000E+00     0.0000000000000000E+00 
    3.2500000000135282E-01     1.0000000000000000E+00     0.0000000000000000E+00 
    2.7500000000114472E-01     1.0000000000000000E+00     0.0000000000000000E+00 
    2.2500000000093659E-01     1.0000000000000000E+00     0.0000000000000000E+00 
    1.7500000000072849E-01     1.0000000000000000E+00     0.0000000000000000E+00 
    1.2500000000052039E-01     1.0000000000000000E+00     0.0000000000000000E+00 
    7.5000000000312261E-02     1.0000000000000000E+00     0.0000000000000000E+00 
    2.5000000000104109E-02     1.0000000000000000E+00     0.0000000000000000E+00 
    4.5000000000187301E-01     1.0000000000000000E+00     0.0000000000000000E+00 
    8.9999999999958358E-01     1.0000000000000000E+00     0.0000000000000000E+00 
    8.4999999999965303E-01     1.0000000000000000E+00     0.0000000000000000E+00 
    8.0000000000000004E-01     1.0000000000000000E+00     0.0000000000000000E+00 
    7.5000000000034706E-01     1.0000000000000000E+00     0.0000000000000000E+00 
    7.0000000000069384E-01     1.0000000000000000E+00     0.0000000000000000E+00 
    6.5000000000104063E-01     1.0000000000000000E+00     0.0000000000000000E+00 
    6.0000000000138742E-01     1.0000000000000000E+00     0.0000000000000000E+00 
    5.5000000000173432E-01     1.0000000000000000E+00     0.0000000000000000E+00 
    5.0000000000205946E-01     1.0000000000000000E+00     0.0000000000000000E+00 
    9.4999999999979179E-01     1.0000000000000000E+00     0.0000000000000000E+00 
    4.0000000000166491E-01     1.0000000000000000E+00     0.0000000000000000E+00 
    3.5000000000145681E-01     1.0000000000000000E+00     0.0000000000000000E+00 
    3.0000000000124871E-01     1.0000000000000000E+00     0.0000000000000000E+00 
    2.5000000000104061E-01     1.0000000000000000E+00     0.0000000000000000E+00 
    2.0000000000083251E-01     1.0000000000000000E+00     0.0000000000000000E+00 
    1.5000000000062441E-01     1.0000000000000000E+00     0.0000000000000000E+00 
    1.0000000000041630E-01     1.0000000000000000E+00     0.0000000000000000E+00 
[...]
CELL_DATA 1600 
SCALARS Pressure double 1 
LOOKUP_TABLE default 

    1.2181846270191157E+00 
    1.1718983555460980E+00 
    1.1695006882259249E+00 
    1.2025835371856928E+00 
    1.1901299584077027E+00 
    1.1658744421184430E+00 
    1.1616768855551165E+00 
    1.1799157118706680E+00 
    1.1713414914858158E+00 
    1.1572796056348589E+00 
    1.1528891288197887E+00 
    1.1639975678812247E+00 
    1.1575959353456931E+00 
    1.1486151543573320E+00 
    1.1445119499325382E+00 
    1.1519306719334896E+00 
    1.1468529782473411E+00 
    1.1406027750781740E+00 
    1.1368937890777597E+00 
    1.1422543208784885E+00 
    1.1380537265951165E+00 
    1.1333814930306081E+00 
    1.1300568160944731E+00 
    1.1341885082835279E+00 
    1.1306093298055866E+00 
    1.1269086175627692E+00 
    1.1239260060104763E+00 
    1.1272779942186528E+00 
    1.1241651955112109E+00 
    1.1210991016893361E+00 
    1.1184189827844584E+00 
    1.1212479960725688E+00 
    1.1185080722031318E+00 
    1.1158776783365769E+00 
    1.1134679449832574E+00 
    1.1159305175317855E+00 
    1.1135028363236175E+00 
    1.1111831142380399E+00 
    1.1090173005002426E+00 
    1.1112145383663572E+00 
    1.1090571829270461E+00 
    1.1069657348858890E+00 
    1.1050245874908737E+00 
    1.1070241656091606E+00 
    1.1051101269249775E+00 
    1.1031906508841454E+00 
    1.1014611156092335E+00 
    1.1033105079426972E+00 
    1.1016215418296760E+00 
    1.0998336399956714E+00 
    1.0983063951540124E+00 
    1.1000402617753302E+00 
    1.0985643572433443E+00 
    1.0968780206310274E+00 
    1.0955474945736792E+00 
    1.0971920259359937E+00 
    1.0959219252550192E+00 
    1.0943141020003193E+00 
    1.0931774473941336E+00 
    1.0947531474165282E+00 
    1.0936851392533440E+00 
    1.0921374424498504E+00 
    1.0911942470787988E+00 
    1.0927177080084254E+00 
    1.0918509904191251E+00 
    1.0903482891196756E+00 
    1.0896001113913745E+00 
    1.0910852545400342E+00 
    1.0904221159481882E+00 
    1.0889517653766876E+00 
    1.0883998305330642E+00 
    1.0898587211718540E+00 
    1.0893188907426437E+00 
    1.0878683453364122E+00 
    1.0874145240747584E+00 
    1.0888581263299548E+00 
    1.0885705389851603E+00 
    1.0871319317892048E+00 
    1.0869908022274064E+00 
    1.0884269265521600E+00 
    1.1480532631130125E+00 
    1.1305081161260122E+00 
    1.1301256114872409E+00 
    1.1472797599104545E+00 
    1.1458569098515974E+00 
    1.1293856583574813E+00 
    1.1283293330373623E+00 
    1.1439358295314854E+00 
    1.1416590069616954E+00 
    1.1270060113013369E+00 
    1.1254664401342076E+00 
    1.1391456657857364E+00 
    1.1364891846247089E+00 
    1.1237582852140531E+00 
    1.1219241664940682E+00 
    1.1337599769000846E+00 
    1.1310096273537691E+00 
    1.1200007980852751E+00 
    1.1180192497031092E+00 
    1.1282749468638589E+00 
    1.1255814919525036E+00 
    1.1160052331118822E+00 
    1.1139797972484800E+00 
    1.1229465555218503E+00 
    1.1203819451005910E+00 
    1.1119601928377385E+00 
    1.1099603503768427E+00 
    1.1178956863008549E+00 
    1.1154930871035409E+00 
    1.1079913271823725E+00 
    1.1060619565072620E+00 
    1.1131774665660965E+00 
    1.1109506766940187E+00 
    1.1041791508388583E+00 
    1.1023482779217038E+00 
    1.1088133672653409E+00 
    1.1067654465485273E+00 
    1.1005736551087655E+00 
    1.0988590495285897E+00 
    1.1048066224336384E+00 
    1.1029366836860088E+00 
    1.0972076055265385E+00 
    1.0956218741538404E+00 
    1.1011553913811358E+00 
    1.0994624543332370E+00 
    1.0941040151038035E+00 
    1.0926558398273807E+00 
    1.0978575079754880E+00 
    1.0963402743280484E+00 
    1.0912789438196249E+00 
    1.0899748957982272E+00 
    1.0949106595639728E+00 
    1.0935687322402263E+00 
    1.0887451605234231E+00 
    1.0875910488233547E+00 
    1.0923146407027495E+00 
    1.0911486609915528E+00 
    1.0865138349849133E+00 
    1.0855148915573931E+00 
    1.0900712483676922E+00 
    1.0890830063912607E+00 
    1.0845955271407017E+00 
    1.0837570757124855E+00 
    1.0881846740406327E+00 
    1.0873771689942153E+00 
    1.0830009900303679E+00 
    1.0823284912781688E+00 
    1.0866613793489197E+00 
    1.0860400163503940E+00 
    1.0817427626895004E+00 
    1.0812346081847828E+00 
    1.0855079302724291E+00 
    1.0849917368904540E+00 
    1.0807385598194734E+00 
    1.0803212982546828E+00 
    1.0845522936992260E+00 
    1.0842795975289394E+00 
    1.0800629357782436E+00 
    1.0799338250941519E+00 
    1.0841433835503034E+00 
    1.1154620428431388E+00 
    1.1015433506085544E+00 
    1.1013860251237868E+00 
    1.1152299479790981E+00 
    1.1147739414290330E+00 
    1.1010749584559099E+00 
    1.1006168553685463E+00 
    1.1141089324973410E+00 
    1.1132548265563600E+00 
    1.1000209129103535E+00 
    1.0992982422367523E+00 
    1.1122342292551324E+00 
    1.1110705678338237E+00 
    1.0984614927563794E+00 
    1.0975242911051102E+00 
    1.1097871983269301E+00 
    1.1084065888637467E+00 
    1.0965004021584939E+00 
    1.0954034504764218E+00 
    1.1069499074884839E+00 
    1.1054363648389232E+00 
    1.0942465324323911E+00 
    1.0930418043779770E+00 
    1.1038829243818180E+00 
    1.1023047042471834E+00 
    1.0918007647690486E+00 
    1.0905340013956193E+00 
    1.1007148819933823E+00 
    1.0991246524673026E+00 
    1.0892509837535587E+00 
    1.0879604718324327E+00 
    1.0975437176366261E+00 
    1.0959804936943875E+00 
    1.0866705829486687E+00 
    1.0853886189080468E+00 
    1.0944422048729439E+00 
    1.0929351070624860E+00 
    1.0841210478859200E+00 
    1.0828738349724754E+00 
    1.0914648488880689E+00 
    1.0900362967882973E+00 
    1.0816523434984613E+00 
    1.0804612334946382E+00 
    1.0886535314507746E+00 
    1.0873202603854397E+00 
    1.0793049049868937E+00 
    1.0781874127803388E+00 
    1.0860397758824538E+00 
    1.0848149626619477E+00 
    1.0771123185230340E+00 
    1.0760829681815476E+00 
    1.0836485444507276E+00 
    1.0825430520557786E+00 
    1.0751025260252651E+00 
    1.0741738605493161E+00 
    1.0815007258462992E+00 
    1.0805236265588871E+00 
    1.0732995674902384E+00 
    1.0724822155490128E+00 
    1.0796138405702365E+00 
    1.0787732961538448E+00 
    1.0717242188915759E+00 
    1.0710277057608770E+00 
    1.0780037713258761E+00 
    1.0773070864642065E+00 
    1.0703947454152714E+00 
    1.0698276710833241E+00 
    1.0766848804413329E+00 
    1.0761405158807138E+00 
    1.0693295860343195E+00 
    1.0688725641882804E+00 
    1.0756576520601100E+00 
    1.0751845443070687E+00 
    1.0684224065907475E+00 
    1.0680624742345233E+00 
    1.0747952263794340E+00 
    1.0745538431670258E+00 
    1.0678379281145132E+00 
    1.0677256145915794E+00 
    1.0744331559463050E+00 
    1.0881151026268745E+00 
    1.0748370667376961E+00 
    1.0747497784956292E+00 
    1.0880007454515022E+00 
    1.0877738826380485E+00 
    1.0745762680632185E+00 
    1.0743185729685631E+00 
    1.0874379816317734E+00 
    1.0869979043846345E+00 
    1.0739797545555065E+00 
    1.0735639098101046E+00 
    1.0864599521709934E+00 
    1.0858318312761743E+00 
    1.0730760074553660E+00 
    1.0725213009310073E+00 
    1.0851219802576739E+00 
    1.0843389236910543E+00 
    1.0719052944712446E+00 
    1.0712339002190798E+00 
    1.0834913795882506E+00 
    1.0825882226951455E+00 
    1.0705133438803962E+00 
    1.0697498397561385E+00 
    1.0816380752886694E+00 
    1.0806493337884979E+00 
    1.0689496658748319E+00 
    1.0681190586035478E+00 
    1.0796301474982093E+00 
    1.0785881972569271E+00 
    1.0672641005385823E+00 
    1.0663906701667947E+00 
    1.0775308263800181E+00 
    1.0764650020801454E+00 
    1.0655044608584625E+00 
    1.0646108450522891E+00 
    1.0753971831919125E+00 
    1.0743332757156543E+00 
    1.0637149446974539E+00 
    1.0628217206772590E+00 
    1.0732788333437120E+00 
    1.0722390367978178E+00 
    1.0619358691376797E+00 
    1.0610617910357998E+00 
    1.0712186051011814E+00 
    1.0702220030414569E+00 
    1.0602037457982447E+00 
    1.0593657117106479E+00 
    1.0692534412451886E+00 
    1.0683167265398121E+00 
    1.0585514139583907E+00 
    1.0577644239196904E+00 
    1.0674154362996666E+00 
    1.0665529830403129E+00 
    1.0570081894142638E+00 
    1.0562859307935453E+00 
    1.0657325636270107E+00 
    1.0649571197522272E+00 
    1.0556007182380924E+00 
    1.0549555872089584E+00 
    1.0642295068697087E+00 
    1.0635524761653687E+00 
    1.0543534378143959E+00 
    1.0537970625341502E+00 
    1.0629285188488480E+00 
    1.0623599365730461E+00 
    1.0532892118107120E+00 
    1.0528346164394546E+00 
    1.0618501425988423E+00 
    1.0614011936241967E+00 
    1.0524337178104268E+00 
    1.0520281094543373E+00 
    1.0609696125990515E+00 
    1.0605409613179986E+00 
    1.0516210242440307E+00 
    1.0513135463999983E+00 
    1.0602092180073579E+00 
    1.0599997602098914E+00 
    1.0511151956308660E+00 
    1.0510160897322407E+00 
    1.0598949422018815E+00 
    1.0615073731429301E+00 
    1.0479983647167335E+00 
    1.0479422582908675E+00 
    1.0614383544379882E+00 
    1.0613009768834327E+00 
    1.0478305096766491E+00 
    1.0476640950818190E+00 
    1.0610965989009113E+00 
    1.0608273372918167E+00 
    1.0474445144308799E+00 
    1.0471736755578080E+00 
    1.0604960090491611E+00 
    1.0601058603923490E+00 
    1.0468538084502776E+00 
    1.0464874704682783E+00 
    1.0596603602339314E+00 
    1.0591633517606922E+00 
    1.0460775729703888E+00 
    1.0456273892563037E+00 
    1.0586191736952137E+00 
    1.0580323571954253E+00 
    1.0451403589460513E+00 
    1.0446199862745020E+00 
    1.0574075027451251E+00 
    1.0567494187485160E+00 
    1.0440698922539755E+00 
    1.0434937747153492E+00 
    1.0560628835942287E+00 
    1.0553525639736663E+00 
    1.0428952954871735E+00 
    1.0422782150742329E+00 
    1.0546231210551962E+00 
    1.0538791909800282E+00 
    1.0416463392069115E+00 
    1.0410034157057295E+00 
    1.0531252400408329E+00 
    1.0523655719087852E+00 
    1.0403530841548347E+00 
    1.0396990242076600E+00 
    1.0516045277191648E+00 
    1.0508462538212107E+00 
    1.0390448531417813E+00 
    1.0383939646462130E+00 
    1.0500946323877398E+00 
    1.0493535539478287E+00 
    1.0377497827773268E+00 
    1.0371156422200269E+00 
    1.0486266820600751E+00 
    1.0479174364156112E+00 
    1.0364946362859360E+00 
    1.0358898549443241E+00 
    1.0472291912839553E+00 
    1.0465652552280120E+00 
    1.0353043172354919E+00 
    1.0347408594010152E+00 
    1.0459286986380985E+00 
    1.0453224159936032E+00 
    1.0342021148992324E+00 
    1.0336906470009730E+00 
    1.0447493321491355E+00 
    1.0442121804981837E+00 
    1.0332087865415676E+00 
    1.0327584337719282E+00 
    1.0437135267627069E+00 
    1.0432561736622834E+00 
    1.0323420494445843E+00 
    1.0319620611345806E+00 
    1.0428447275857413E+00 
    1.0424736475886136E+00 
    1.0315981883637373E+00 
    1.0312029221434587E+00 
    1.0420820480732871E+00 
    1.0417004563606198E+00 
    1.0308488792058617E+00 
    1.0306038301043814E+00 
    1.0414220110079015E+00 
    1.0412380388292855E+00 
    1.0304398207372230E+00 
    1.0303576216132764E+00 
    1.0411461749698530E+00 
    1.0342293399030906E+00 
    1.0201492539483388E+00 
    1.0201095896279520E+00 
    1.0341826751617673E+00 
    1.0340897015966881E+00 
    1.0200305502156304E+00 
    1.0199126703853969E+00 
    1.0339511372912809E+00 
    1.0337680213447094E+00 
    1.0197567015982254E+00 
    1.0195636180401999E+00 
    1.0335416863418159E+00 
    1.0332737908935945E+00 
    1.0193347122152827E+00 
    1.0190715473405931E+00 
    1.0329663214713518E+00 
    1.0326215313237030E+00 
    1.0187758905611219E+00 
    1.0184497484001365E+00 
    1.0322419774253531E+00 
    1.0318303241423881E+00 
    1.0180951973428911E+00 
    1.0177143196883804E+00 
    1.0313892136643668E+00 
    1.0309214815244945E+00 
    1.0173094809065337E+00 
    1.0168831746248221E+00 
    1.0304301028165663E+00 
    1.0299180506998480E+00 
    1.0164378865261909E+00 
    1.0159762312722898E+00 
    1.0293884551825594E+00 
    1.0288444926609865E+00 
    1.0155009002874726E+00 
    1.0150145288733126E+00 
    1.0282892853717953E+00 
    1.0277259133818495E+00 
    1.0145197303330222E+00 
    1.0140192482384793E+00 
    1.0271575301825782E+00 
    1.0265872528511153E+00 
    1.0135157704341262E+00 
    1.0130118989542840E+00 
    1.0260180331448623E+00 
    1.0254529238122336E+00 
    1.0125103565498139E+00 
    1.0120138218689125E+00 
    1.0248949175909163E+00 
    1.0243468043438253E+00 
    1.0115248264056649E+00 
    1.0110459321631933E+00 
    1.0238114288297007E+00 
    1.0232915932889675E+00 
    1.0105797602978814E+00 
    1.0101287900026092E+00 
    1.0227899316675855E+00 
    1.0223089492166899E+00 
    1.0096954143627024E+00 
    1.0092822178075378E+00 
    1.0218511923870679E+00 
    1.0214190032974095E+00 
    1.0088916668016530E+00 
    1.0085264546346926E+00 
    1.0210144289558805E+00 
    1.0206409031489638E+00 
    1.0081909192211747E+00 
    1.0078829073511877E+00 
    1.0202992879017447E+00 
    1.0199438635763398E+00 
    1.0075373478389726E+00 
    1.0071422361124109E+00 
    1.0195422927080580E+00 
    1.0192050859397959E+00 
    1.0068208581991693E+00 
    1.0065952157727536E+00 
    1.0189765377711879E+00 
    1.0188236985995762E+00 
    1.0064454189742056E+00 
    1.0063706775295089E+00 
    1.0187471070948617E+00 
    1.0057248155850358E+00 
    9.9093281073478834E-01 
    9.9090214660965781E-01 
    1.0056903477416732E+00 
    1.0056216332574892E+00 
    9.9084097507467073E-01 
    9.9074962521696353E-01 
    1.0055190801285425E+00 
    1.0053832765871624E+00 
    9.9062857598624787E-01 
    9.9047850778068858E-01 
    1.0052149919455695E+00 
    1.0050152625046891E+00 
    9.9030029505889250E-01 
    9.9009497641196620E-01 
    1.0047853386903234E+00 
    1.0045266244888476E+00 
    9.8986366837660522E-01 
    9.8960766396425015E-01 
    1.0042406857438186E+00 
    1.0039292040592880E+00 
    9.8932842256040698E-01 
    9.8902755519456909E-01 
    1.0035939817832096E+00 
    1.0032370559441854E+00 
    9.8870682274136568E-01 
    9.8836802135609247E-01 
    1.0028605323920148E+00 
    1.0024665403745194E+00 
    9.8801295821312807E-01 
    9.8764353569912511E-01 
    1.0020572803388672E+00 
    1.0016350400636973E+00 
    9.8726175469269239E-01 
    9.8686960283502234E-01 
    1.0012020956695920E+00 
    1.0007607199107684E+00 
    9.8646906806550072E-01 
    9.8606227519801326E-01 
    1.0003132938724322E+00 
    9.9986217640322472E-01 
    9.8565135729901188E-01 
    9.8523837334436803E-01 
    9.9940970646018623E-01 
    9.9895827054829289E-01 
    9.8482548034352457E-01 
    9.8441482903670663E-01 
    9.9851025532465443E-01 
    9.9806795965791251E-01 
    9.8400846678584708E-01 
    9.8360847321400668E-01 
    9.9763364276717070E-01 
    9.9720962611935204E-01 
    9.8321698044587724E-01 
    9.8283603807978959E-01 
    9.9679812363440912E-01 
    9.9640123844101192E-01 
    9.8246765836623173E-01 
    9.8211388393124499E-01 
    9.9602108162723979E-01 
    9.9565954128340339E-01 
    9.8177667970053295E-01 
    9.8145847047184254E-01 
    9.9531881122382704E-01 
    9.9500070518280537E-01 
    9.8115887636496291E-01 
    9.8082798162955109E-01 
    9.9468809721570484E-01 
    9.9432315896379397E-01 
    9.8042302273706561E-01 
    9.8006457539566505E-01 
    9.9395159455448268E-01 
    9.9366740708057710E-01 
    9.7980920287875761E-01 
    9.7961630714447379E-01 
    9.9345704277439773E-01 
    9.9331689018027680E-01 
    9.7948697955553088E-01 
    9.7942205836732799E-01 
    9.9324680314161040E-01 
    9.7575733442934631E-01 
    9.6018926302083241E-01 
    9.6016321190315224E-01 
    9.7572939155146854E-01 
    9.7567363383216776E-01 
    9.6011122495257184E-01 
    9.6003351900719791E-01 
    9.7559032719028027E-01 
    9.7547988796946739E-01 
    9.5993046484177147E-01 
    9.5980266366199640E-01 
    9.7534293935275662E-01 
    9.7518028540182844E-01 
    9.5965086701581992E-01 
    9.5947586472298452E-01 
    9.7499281252730186E-01 
    9.7478145514596237E-01 
    9.5927851243747198E-01 
    9.5905989841613759E-01 
    9.7454737024769189E-01 
    9.7429188696396518E-01 
    9.5882122301209516E-01 
    9.5856369988719192E-01 
    9.7401640786816190E-01 
    9.7372246941597029E-01 
    9.5828868671744016E-01 
    9.5799754641761914E-01 
    9.7341162605645271E-01 
    9.7308541067206611E-01 
    9.5769163678036617E-01 
    9.5737249046957862E-01 
    9.7274550963161655E-01 
    9.7239373228452752E-01 
    9.5704175364911070E-01 
    9.5670102949688751E-01 
    9.7203184146675892E-01 
    9.7166158646811951E-01 
    9.5635192036165051E-01 
    9.5599623109431675E-01 
    9.7128492718775594E-01 
    9.7090382052868840E-01 
    9.5563576985662391E-01 
    9.5527224818291845E-01 
    9.7052008669562362E-01 
    9.7013574014022685E-01 
    9.5490753567212683E-01 
    9.5454339227954277E-01 
    9.6975273503357340E-01 
    9.6937288290296530E-01 
    9.5418147631957662E-01 
    9.5382353933338149E-01 
    9.6899813846233340E-01 
    9.6863053640363617E-01 
    9.5347140622583049E-01 
    9.5312689446373000E-01 
    9.6827208699734246E-01 
    9.6792482734714513E-01 
    9.5279175221940771E-01 
    9.5246803337275565E-01 
    9.6759111497053019E-01 
    9.6727353023326401E-01 
    9.5215802169541774E-01 
    9.5186113636705882E-01 
    9.6697435263670373E-01 
    9.6668905311593711E-01 
    9.5154951562797507E-01 
    9.5116346272893904E-01 
    9.6634707471383063E-01 
    9.6593179050010913E-01 
    9.5076567061805839E-01 
    9.5045373399778776E-01 
    9.6558407242992705E-01 
    9.6532911571809621E-01 
    9.5020771989643438E-01 
    9.5002316448024671E-01 
    9.6513846592158192E-01 
    9.6501145949436729E-01 
    9.4990010477621023E-01 
    9.4983859637609991E-01 
    9.6494793747389507E-01 
    9.4422520825713674E-01 
    9.2786775748546457E-01 
    9.2784353462255109E-01 
    9.4420037345631458E-01 
    9.4415081475296780E-01 
    9.2779519949203404E-01 
    9.2772294358786278E-01 
    9.4407671855435937E-01 
    9.4397843647722768E-01 
    9.2762710523363456E-01 
    9.2750818783855271E-01 
    9.4385652840700385E-01 
    9.4371168735158040E-01 
    9.2736683083251414E-01 
    9.2720376848109409E-01 
    9.4354466280083671E-01 
    9.4335631046504853E-01 
    9.2701986365562750E-01 
    9.2681606283549856E-01 
    9.4314764494228698E-01 
    9.4291973465470313E-01 
    9.2659333346881678E-01 
    9.2635267826562673E-01 
    9.4267366962645971E-01 
    9.4241065630100607E-01 
    9.2609522076860273E-01 
    9.2582215397253886E-01 
    9.4213192964344916E-01 
    9.4183876797502719E-01 
    9.2553471165709200E-01 
    9.2523425015864746E-01 
    9.4153259215519347E-01 
    9.4121491559098791E-01 
    9.2492221888472503E-01 
    9.2460009224014672E-01 
    9.4088724781201560E-01 
    9.4055111750213449E-01 
    9.2426933204504724E-01 
    9.2393150243715494E-01 
    9.4020817659629508E-01 
    9.3986013836451865E-01 
    9.2358825676717959E-01 
    9.2324125944150170E-01 
    9.3950870203505832E-01 
    9.3915561458030339E-01 
    9.2289220707349595E-01 
    9.2254280179833181E-01 
    9.3880254533891339E-01 
    9.3845112790376362E-01 
    9.2219465608856022E-01 
    9.2184940732194831E-01 
    9.3810303544565543E-01 
    9.3776004959298209E-01 
    9.2150874799954530E-01 
    9.2117432454623471E-01 
    9.3742401948296894E-01 
    9.3709686082575439E-01 
    9.2084780696403035E-01 
    9.2053129464668093E-01 
    9.3678114226810882E-01 
    9.3648025375150212E-01 
    9.2022604299543176E-01 
    9.1991719835721397E-01 
    9.3619319137015777E-01 
    9.3585097222236480E-01 
    9.1952815568428681E-01 
    9.1907107794740850E-01 
    9.3540569405395646E-01 
    9.3500620940876555E-01 
    9.1868932517268798E-01 
    9.1838996547841145E-01 