# vtk DataFile Version 2.0
Pressure Field Data 
ASCII 
DATASET UNSTRUCTURED_GRID 

POINTS 1681 double 

    0.0000000000000000E+00     0.0000000000000000E+00     0.0000000000000000E+00 
    1.0000000000000000E+00     0.0000000000000000E+00     0.0000000000000000E+00 
    1.0000000000000000E+00     1.0000000000000000E+00     0.0000000000000000E+00 
    0.0000000000000000E+00     1.0000000000000000E+00     0.0000000000000000E+00 
    5.2499999999875258E-01     0.0000000000000000E+00     0.0000000000000000E+00 
    7.4999999999856765E-02     0.0000000000000000E+00     0.0000000000000000E+00 
    1.2499999999975850E-01     0.0000000000000000E+00     0.0000000000000000E+00 
    1.7499999999962990E-01     0.0000000000000000E+00     0.0000000000000000E+00 
    2.2499999999948389E-01     0.0000000000000000E+00     0.0000000000000000E+00 
    2.7499999999933789E-01     0.0000000000000000E+00     0.0000000000000000E+00 
    3.2499999999919210E-01     0.0000000000000000E+00     0.0000000000000000E+00 
    3.7499999999904610E-01     0.0000000000000000E+00     0.0000000000000000E+00 
    4.2499999999890020E-01     0.0000000000000000E+00     0.0000000000000000E+00 
    4.7499999999875958E-01     0.0000000000000000E+00     0.0000000000000000E+00 
    2.4999999999949701E-02     0.0000000000000000E+00     0.0000000000000000E+00 
    5.7499999999887907E-01     0.0000000000000000E+00     0.0000000000000000E+00 
    6.2499999999901101E-01     0.0000000000000000E+00     0.0000000000000000E+00 
    6.7499999999914273E-01     0.0000000000000000E+00     0.0000000000000000E+00 
    7.2499999999927467E-01     0.0000000000000000E+00     0.0000000000000000E+00 
    7.7499999999940661E-01     0.0000000000000000E+00     0.0000000000000000E+00 
    8.2499999999953844E-01     0.0000000000000000E+00     0.0000000000000000E+00 
    8.7499999999967026E-01     0.0000000000000000E+00     0.0000000000000000E+00 
    9.2499999999980220E-01     0.0000000000000000E+00     0.0000000000000000E+00 
    9.7499999999993414E-01     0.0000000000000000E+00     0.0000000000000000E+00 
    5.4999999999881310E-01     0.0000000000000000E+00     0.0000000000000000E+00 
    9.9999999999814140E-02     0.0000000000000000E+00     0.0000000000000000E+00 
    1.4999999999970290E-01     0.0000000000000000E+00     0.0000000000000000E+00 
    1.9999999999955689E-01     0.0000000000000000E+00     0.0000000000000000E+00 
    2.4999999999941089E-01     0.0000000000000000E+00     0.0000000000000000E+00 
    2.9999999999926502E-01     0.0000000000000000E+00     0.0000000000000000E+00 
    3.4999999999911913E-01     0.0000000000000000E+00     0.0000000000000000E+00 
    3.9999999999897312E-01     0.0000000000000000E+00     0.0000000000000000E+00 
    4.4999999999882723E-01     0.0000000000000000E+00     0.0000000000000000E+00 
    4.9999999999869210E-01     0.0000000000000000E+00     0.0000000000000000E+00 
    4.9999999999899403E-02     0.0000000000000000E+00     0.0000000000000000E+00 
    5.9999999999894504E-01     0.0000000000000000E+00     0.0000000000000000E+00 
    6.4999999999907687E-01     0.0000000000000000E+00     0.0000000000000000E+00 
    6.9999999999920870E-01     0.0000000000000000E+00     0.0000000000000000E+00 
    7.4999999999934064E-01     0.0000000000000000E+00     0.0000000000000000E+00 
    7.9999999999947247E-01     0.0000000000000000E+00     0.0000000000000000E+00 
    8.4999999999960441E-01     0.0000000000000000E+00     0.0000000000000000E+00 
    8.9999999999973623E-01     0.0000000000000000E+00     0.0000000000000000E+00 
    9.4999999999986817E-01     0.0000000000000000E+00     0.0000000000000000E+00 
    1.0000000000000000E+00     5.2499999999875258E-01     0.0000000000000000E+00 
    1.0000000000000000E+00     7.4999999999856765E-02     0.0000000000000000E+00 
    1.0000000000000000E+00     1.2499999999975850E-01     0.0000000000000000E+00 
    1.0000000000000000E+00     1.7499999999962990E-01     0.0000000000000000E+00 
    1.0000000000000000E+00     2.2499999999948389E-01     0.0000000000000000E+00 
    1.0000000000000000E+00     2.7499999999933789E-01     0.0000000000000000E+00 
    1.0000000000000000E+00     3.2499999999919210E-01     0.0000000000000000E+00 
    1.0000000000000000E+00     3.7499999999904610E-01     0.0000000000000000E+00 
    1.0000000000000000E+00     4.2499999999890020E-01     0.0000000000000000E+00 
    1.0000000000000000E+00     4.7499999999875958E-01     0.0000000000000000E+00 
    1.0000000000000000E+00     2.4999999999949701E-02     0.0000000000000000E+00 
    1.0000000000000000E+00     5.7499999999887907E-01     0.0000000000000000E+00 
    1.0000000000000000E+00     6.2499999999901101E-01     0.0000000000000000E+00 
    1.0000000000000000E+00     6.7499999999914273E-01     0.0000000000000000E+00 
    1.0000000000000000E+00     7.2499999999927467E-01     0.0000000000000000E+00 
    1.0000000000000000E+00     7.7499999999940661E-01     0.0000000000000000E+00 
    1.0000000000000000E+00     8.2499999999953844E-01     0.0000000000000000E+00 
    1.0000000000000000E+00     8.7499999999967026E-01     0.0000000000000000E+00 
    1.0000000000000000E+00     9.2499999999980220E-01     0.0000000000000000E+00 
    1.0000000000000000E+00     9.7499999999993414E-01     0.0000000000000000E+00 
    1.0000000000000000E+00     5.4999999999881310E-01     0.0000000000000000E+00 
    1.0000000000000000E+00     9.9999999999814140E-02     0.0000000000000000E+00 
    1.0000000000000000E+00     1.4999999999970290E-01     0.0000000000000000E+00 
    1.0000000000000000E+00     1.9999999999955689E-01     0.0000000000000000E+00 
    1.0000000000000000E+00     2.4999999999941089E-01     0.0000000000000000E+00 
    1.0000000000000000E+00     2.9999999999926502E-01     0.0000000000000000E+00 
    1.0000000000000000E+00     3.4999999999911913E-01     0.0000000000000000E+00 
    1.0000000000000000E+00     3.9999999999897312E-01     0.0000000000000000E+00 
    1.0000000000000000E+00     4.4999999999882723E-01     0.0000000000000000E+00 
    1.0000000000000000E+00     4.9999999999869210E-01     0.0000000000000000E+00 
    1.0000000000000000E+00     4.9999999999899403E-02     0.0000000000000000E+00 
    1.0000000000000000E+00     5.9999999999894504E-01     0.0000000000000000E+00 
    1.0000000000000000E+00     6.4999999999907687E-01     0.0000000000000000E+00 
    1.0000000000000000E+00     6.9999999999920870E-01     0.0000000000000000E+00 
    1.0000000000000000E+00     7.4999999999934064E-01     0.0000000000000000E+00 
    1.0000000000000000E+00     7.9999999999947247E-01     0.0000000000000000E+00 
    1.0000000000000000E+00     8.4999999999960441E-01     0.0000000000000000E+00 
    1.0000000000000000E+00     8.9999999999973623E-01     0.0000000000000000E+00 
    1.0000000000000000E+00     9.4999999999986817E-01     0.0000000000000000E+00 
    4.7500000000196618E-01     1.0000000000000000E+00     0.0000000000000000E+00 
    9.2499999999968763E-01     1.0000000000000000E+00     0.0000000000000000E+00 
    8.7499999999961831E-01     1.0000000000000000E+00     0.0000000000000000E+00 
    8.2499999999982654E-01     1.0000000000000000E+00     0.0000000000000000E+00 
    7.7500000000017355E-01     1.0000000000000000E+00     0.0000000000000000E+00 
    7.2500000000052045E-01     1.0000000000000000E+00     0.0000000000000000E+00 
    6.7500000000086724E-01     1.0000000000000000E+00     0.0000000000000000E+00 
    6.2500000000121403E-01     1.0000000000000000E+00     0.0000000000000000E+00 
    5.7500000000156093E-01     1.0000000000000000E+00     0.0000000000000000E+00 
    5.2500000000189684E-01     1.0000000000000000E+00     0.0000000000000000E+00 
    9.7499999999989595E-01     1.0000000000000000E+00     0.0000000000000000E+00 
    4.2500000000176902E-01     1.0000000000000000E+00     0.0000000000000000E+00 
    3.7500000000156092E-01     1.0000000000000000E+00     0.0000000000000000E+00 
    3.2500000000135282E-01     1.0000000000000000E+00     0.0000000000000000E+00 
    2.7500000000114472E-01     1.0000000000000000E+00     0.0000000000000000E+00 
    2.2500000000093659E-01     1.0000000000000000E+00     0.0000000000000000E+00 
    1.7500000000072849E-01     1.0000000000000000E+00     0.0000000000000000E+00 
    1.2500000000052039E-01     1.0000000000000000E+00     0.0000000000000000E+00 
    7.5000000000312261E-02     1.0000000000000000E+00     0.0000000000000000E+00 
    2.5000000000104109E-02     1.0000000000000000E+00     0.0000000000000000E+00 
    4.5000000000187301E-01     1.0000000000000000E+00     0.0000000000000000E+00 
    8.9999999999958358E-01     1.0000000000000000E+00     0.0000000000000000E+00 
    8.4999999999965303E-01     1.0000000000000000E+00     0.0000000000000000E+00 
    8.0000000000000004E-01     1.0000000000000000E+00     0.0000000000000000E+00 
    7.5000000000034706E-01     1.0000000000000000E+00     0.0000000000000000E+00 
    7.0000000000069384E-01     1.0000000000000000E+00     0.0000000000000000E+00 
    6.5000000000104063E-01     1.0000000000000000E+00     0.0000000000000000E+00 
    6.0000000000138742E-01     1.0000000000000000E+00     0.0000000000000000E+00 
    5.5000000000173432E-01     1.0000000000000000E+00     0.0000000000000000E+00 
    5.0000000000205946E-01     1.0000000000000000E+00     0.0000000000000000E+00 
    9.4999999999979179E-01     1.0000000000000000E+00     0.0000000000000000E+00 
    4.0000000000166491E-01     1.0000000000000000E+00     0.0000000000000000E+00 
    3.5000000000145681E-01     1.0000000000000000E+00     0.0000000000000000E+00 
    3.0000000000124871E-01     1.0000000000000000E+00     0.0000000000000000E+00 
    2.5000000000104061E-01     1.0000000000000000E+00     0.0000000000000000E+00 
    2.0000000000083251E-01     1.0000000000000000E+00     0.0000000000000000E+00 
    1.5000000000062441E-01     1.0000000000000000E+00     0.0000000000000000E+00 
    1.0000000000041630E-01     1.0000000000000000E+00     0.0000000000000000E+00 
[...]
CELL_DATA 1600 
SCALARS Pressure double 1 
LOOKUP_TABLE default 

    9.8434807422221660E-01 
    9.3858576238318925E-01 
    9.3621900431055560E-01 
    9.6878957839482216E-01 
    9.5639962117049115E-01 
    9.3265035534882679E-01 
    9.2853996259160410E-01 
    9.4628309948822564E-01 
    9.3783838472429104E-01 
    9.2425869531477833E-01 
    9.2001109978850182E-01 
    9.3065177368494545E-01 
    9.2443250173368274E-01 
    9.1590485985287040E-01 
    9.1199164526427656E-01 
    9.1897220098031507E-01 
    9.1411884279204036E-01 
    9.0829146755971213E-01 
    9.0480693913728361E-01 
    9.0975964663936038E-01 
    9.0580970167721020E-01 
    9.0153167347510832E-01 
    8.9845502144094069E-01 
    9.0220427565769390E-01 
    8.9889346727191399E-01 
    8.9556482727187714E-01 
    8.9284868963510933E-01 
    8.9583824250317556E-01 
    8.9300744459530412E-01 
    8.9029454612157521E-01 
    8.8789100495414763E-01 
    8.9037570560589563E-01 
    8.8792226084184434E-01 
    8.8562777372147528E-01 
    8.8349584502213074E-01 
    8.8563023852371636E-01 
    8.8348596608235752E-01 
    8.8148747310597420E-01 
    8.7959596452014210E-01 
    8.8147824690605636E-01 
    8.7959778641245556E-01 
    8.7781553961126069E-01 
    8.7614118674165276E-01 
    8.7783684940489914E-01 
    8.7618895729230739E-01 
    8.7456857467998250E-01 
    8.7309388133484500E-01 
    8.7464856883592490E-01 
    8.7321096881155902E-01 
    8.7171379424796391E-01 
    8.7042556779632807E-01 
    8.7187227353855823E-01 
    8.7062935831629451E-01 
    8.6922701894765964E-01 
    8.6811637326268309E-01 
    8.6947968662872732E-01 
    8.6842118627664999E-01 
    8.6709217460408883E-01 
    8.6615326900375811E-01 
    8.6745219471474599E-01 
    8.6657142366815509E-01 
    8.6529882317980877E-01 
    8.6452829612302040E-01 
    8.6577797656746291E-01 
    8.6507129956376283E-01 
    8.6384142903863759E-01 
    8.6323819618714381E-01 
    8.6445109364065953E-01 
    8.6391737280062286E-01 
    8.6271881170653919E-01 
    8.6228374413999431E-01 
    8.6347046957442808E-01 
    8.6311094232423180E-01 
    8.6193368920767144E-01 
    8.6166966326966954E-01 
    8.6283966129725809E-01 
    8.6263777967254729E-01 
    8.6147215926509668E-01 
    8.6135856177739056E-01 
    8.6252231837425397E-01 
    9.1560362084913627E-01 
    8.9924842728128496E-01 
    8.9889131433142810E-01 
    9.1485764723261498E-01 
    9.1348940351041996E-01 
    8.9820161080030314E-01 
    8.9721950025100328E-01 
    9.1165006797737014E-01 
    9.0948068519273095E-01 
    8.9599286018008661E-01 
    8.9457094673052451E-01 
    9.0709874166052329E-01 
    9.0459572356090379E-01 
    8.9300007626763911E-01 
    8.9132152469874237E-01 
    9.0203977516577383E-01 
    8.9948016212442339E-01 
    8.8957067974079618E-01 
    8.8777715289642656E-01 
    8.9695159506844735E-01 
    8.9447793841270273E-01 
    8.8596506921655205E-01 
    8.8415373383704376E-01 
    8.9207506599302622E-01 
    8.8975314684141193E-01 
    8.8235841102895551E-01 
    8.8059099531154461E-01 
    8.8751816131377192E-01 
    8.8537314124757316E-01 
    8.7886063334003695E-01 
    8.7717444992498039E-01 
    8.8331916761036922E-01 
    8.8135619523175412E-01 
    8.7553796678311535E-01 
    8.7395543385523577E-01 
    8.7948350677228893E-01 
    8.7770001714970081E-01 
    8.7243008934714850E-01 
    8.7096447165250968E-01 
    8.7600442401594647E-01 
    8.7439533399547931E-01 
    8.6956047426302241E-01 
    8.6821948283775485E-01 
    8.7287130287454406E-01 
    8.7143091666291128E-01 
    8.6694253726821469E-01 
    8.6573040455719485E-01 
    8.7007277236844338E-01 
    8.6879560604665607E-01 
    8.6458371607714657E-01 
    8.6350313521018840E-01 
    8.6759840728104842E-01 
    8.6648041819022870E-01 
    8.6248929877951941E-01 
    8.6154275351233767E-01 
    8.6544102384805666E-01 
    8.6447974465766364E-01 
    8.6066401725728192E-01 
    8.5985369549337543E-01 
    8.6359626944262957E-01 
    8.6279046925535829E-01 
    8.5911240530718813E-01 
    8.5844084248694674E-01 
    8.6206239996793554E-01 
    8.6141231014049913E-01 
    8.5783983056871571E-01 
    8.5731020681068171E-01 
    8.6084059598652363E-01 
    8.6034784398045061E-01 
    8.5685295735131084E-01 
    8.5646927060996514E-01 
    8.5993482693772916E-01 
    8.5960245863732565E-01 
    8.5616035892595921E-01 
    8.5592762399165856E-01 
    8.5935199967356812E-01 
    8.5916285996154507E-01 
    8.5574992376627756E-01 
    8.5564605663610460E-01 
    8.5905304677557937E-01 
    8.8566851064029739E-01 
    8.7344904939467538E-01 
    8.7331123527115706E-01 
    8.8545866826469743E-01 
    8.8504679816929011E-01 
    8.7303891645939868E-01 
    8.7263833489477638E-01 
    8.8444706940602236E-01 
    8.8367831646146833E-01 
    8.7211824193279830E-01 
    8.7148934313075510E-01 
    8.8276221913340747E-01 
    8.8172146754580993E-01 
    8.7076349312897083E-01 
    8.6995299808194348E-01 
    8.8057844596159607E-01 
    8.7935432043829764E-01 
    8.6907019143065711E-01 
    8.6812728477191858E-01 
    8.7806862457340762E-01 
    8.7673885161295551E-01 
    8.6713601454720413E-01 
    8.6610732494322307E-01 
    8.7538032684537559E-01 
    8.7400647178160773E-01 
    8.6505148152253564E-01 
    8.6397790281762654E-01 
    8.7262888112744141E-01 
    8.7125740630558590E-01 
    8.6289501651107636E-01 
    8.6181045675432311E-01 
    8.6990050250209949E-01 
    8.6856538623767265E-01 
    8.6073110709374379E-01 
    8.5966305492041140E-01 
    8.6725812154059068E-01 
    8.6598378048543823E-01 
    8.5861161705885736E-01 
    8.5758157490622955E-01 
    8.6474673278416225E-01 
    8.6355062755820144E-01 
    8.5657714497674131E-01 
    8.5560195827145558E-01 
    8.6239845076746269E-01 
    8.6129280846956890E-01 
    8.5465937083743659E-01 
    8.5375244378471449E-01 
    8.6023596344556730E-01 
    8.5922988921237864E-01 
    8.5288387126636833E-01 
    8.5205614952253206E-01 
    8.5827643557759270E-01 
    8.5737729785478722E-01 
    8.5127159275497855E-01 
    8.5053227060072401E-01 
    8.5653394471918320E-01 
    8.5574769843479104E-01 
    8.4984004546950820E-01 
    8.4919677307164165E-01 
    8.5501991109229336E-01 
    8.5435187043182981E-01 
    8.4860422995763585E-01 
    8.4806403356785653E-01 
    8.5374480621993543E-01 
    8.5320003279296652E-01 
    8.4757785165940669E-01 
    8.4714732796773184E-01 
    8.5271881749588441E-01 
    8.5230245766503099E-01 
    8.4677401104624361E-01 
    8.4645961011645199E-01 
    8.5195246523029766E-01 
    8.5167045524789708E-01 
    8.4620613341067408E-01 
    8.4601550190231423E-01 
    8.5145797809840895E-01 
    8.5129397378108163E-01 
    8.4586666448888181E-01 
    8.4577771206306518E-01 
    8.5119742517342922E-01 
    8.6192550275311197E-01 
    8.5073716374594432E-01 
    8.5066558905306622E-01 
    8.6182851611070255E-01 
    8.6163622087676128E-01 
    8.5052341090895811E-01 
    8.5031249765999251E-01 
    8.6135185076784537E-01 
    8.6098005978554437E-01 
    8.5003556032157035E-01 
    8.4969594993315256E-01 
    8.6052665997135014E-01 
    8.5999826472653962E-01 
    8.4929763284705295E-01 
    8.4884507039607493E-01 
    8.5940200980600800E-01 
    8.5874540242283726E-01 
    8.4834320367750049E-01 
    8.4779727839157037E-01 
    8.5803626446189918E-01 
    8.5728249065584794E-01 
    8.4721269653577591E-01 
    8.4659482287173682E-01 
    8.5649176700261997E-01 
    8.5567152550779191E-01 
    8.4594899976419591E-01 
    8.4528046690885073E-01 
    8.5482888187474260E-01 
    8.5397046858883763E-01 
    8.4459431037139299E-01 
    8.4389540434510046E-01 
    8.5310251016475147E-01 
    8.5223081798287148E-01 
    8.4318843824306078E-01 
    8.4247781532651222E-01 
    8.5136073919618549E-01 
    8.5049712239028641E-01 
    8.4176770021237191E-01 
    8.4106205976059067E-01 
    8.4964444715979603E-01 
    8.4880683445922689E-01 
    8.4036463332355815E-01 
    8.3967892094626595E-01 
    8.4798802826427533E-01 
    8.4719153007023640E-01 
    8.3900826388301208E-01 
    8.3835575892337733E-01 
    8.4642061294859139E-01 
    8.4567822145395966E-01 
    8.3772428056668458E-01 
    8.3711652684384774E-01 
    8.4496707801174253E-01 
    8.4428973049874201E-01 
    8.3653506147569834E-01 
    8.3598226077242999E-01 
    8.4364853900823200E-01 
    8.4304566943602699E-01 
    8.3546037107274029E-01 
    8.3497157715370407E-01 
    8.4248322630310291E-01 
    8.4196324151905622E-01 
    8.3451793015669740E-01 
    8.3410135942864394E-01 
    8.4148757972924293E-01 
    8.4105809364226014E-01 
    8.3372379178363321E-01 
    8.3338707568571480E-01 
    8.4067664543351051E-01 
    8.4034497024479760E-01 
    8.3309297213668509E-01 
    8.3284330252434213E-01 
    8.4006487288451270E-01 
    8.3983846448794142E-01 
    8.3264001192769732E-01 
    8.3248443089423296E-01 
    8.3966780727609081E-01 
    8.3953239877429875E-01 
    8.3235780203252052E-01 
    8.3228159044572014E-01 
    8.3945051454418862E-01 
    8.3967018977493413E-01 
    8.2859057213791554E-01 
    8.2854751742254362E-01 
    8.3961548894201188E-01 
    8.3950667797541700E-01 
    8.2846179615081050E-01 
    8.2833416788071546E-01 
    8.3934491399612909E-01 
    8.3913183986088824E-01 
    8.2816572012160128E-01 
    8.2795788754112731E-01 
    8.3886955291030252E-01 
    8.3856065142273328E-01 
    8.2771252974379628E-01 
    8.2743186630205201E-01 
    8.3820818961775767E-01 
    8.3781557447388133E-01 
    8.2711830746745818E-01 
    8.2677439431100164E-01 
    8.3738645959554447E-01 
    8.3692456641446011E-01 
    8.2640276695463966E-01 
    8.2600620528064028E-01 
    8.3643367053821116E-01 
    8.3591769380574332E-01 
    8.2558762833308486E-01 
    8.2515001558517242E-01 
    8.3538054943681850E-01 
    8.3482607828840782E-01 
    8.2469630394812399E-01 
    8.2422946863976121E-01 
    8.3425807693418164E-01 
    8.3368028160157026E-01 
    8.2375250483723295E-01 
    8.2326836849932039E-01 
    8.3309628416354542E-01 
    8.3250954316915005E-01 
    8.2277993198647192E-01 
    8.2229006647998559E-01 
    8.3192349528643272E-01 
    8.3134140507328624E-01 
    8.2180156171444296E-01 
    8.2131703514847909E-01 
    8.3076633262825517E-01 
    8.3020129106224405E-01 
    8.2083908955378437E-01 
    8.2037023287403021E-01 
    8.2964909036457790E-01 
    8.2911234380572851E-01 
    8.1991279112439086E-01 
    8.1946906619171467E-01 
    8.2859358247016202E-01 
    8.2809525818137975E-01 
    8.1904129766333111E-01 
    8.1863159556359610E-01 
    8.2761964272184152E-01 
    8.2716887270694528E-01 
    8.1824194165336672E-01 
    8.1787428294132336E-01 
    8.2674507538680020E-01 
    8.2635021141760956E-01 
    8.1753045272370384E-01 
    8.1721215150537929E-01 
    8.2598612474812638E-01 
    8.2565467732151576E-01 
    8.1692104693708922E-01 
    8.1665867257338143E-01 
    8.2535759272770581E-01 
    8.2509650934260603E-01 
    8.1642646779147576E-01 
    8.1622572190928822E-01 
    8.2487304231276548E-01 
    8.2468890279156770E-01 
    8.1605784943811199E-01 
    8.1592046848196087E-01 
    8.2454374334201563E-01 
    8.2442158319169379E-01 
    8.1580164402813549E-01 
    8.1573333497801925E-01 
    8.2434938074788122E-01 
    8.1741147374215806E-01 
    8.0607432532964074E-01 
    8.0604560615126009E-01 
    8.1737671577662430E-01 
    8.1730747004408832E-01 
    8.0598837338057461E-01 
    8.0590302201422304E-01 
    8.1720426682689429E-01 
    8.1706789041429861E-01 
    8.0579017640118911E-01 
    8.0565071183568204E-01 
    8.1689943827739553E-01 
    8.1670032901784984E-01 
    8.0548572897422210E-01 
    8.0529641527341467E-01 
    8.1647218543092281E-01 
    8.1621670272512548E-01 
    8.0508401123562967E-01 
    8.0484993705842667E-01 
    8.1593572165279227E-01 
    8.1563122796126575E-01 
    8.0459576565839563E-01 
    8.0432312923535298E-01 
    8.1530531927935579E-01 
    8.1496025003037909E-01 
    8.0403381005407970E-01 
    8.0372964934303037E-01 
    8.1459832719921521E-01 
    8.1422183761649303E-01 
    8.0341249119184877E-01 
    8.0308429516755175E-01 
    8.1383318502506707E-01 
    8.1343481616559410E-01 
    8.0274707819594249E-01 
    8.0240281315305906E-01 
    8.1302914261672088E-01 
    8.1261852663846823E-01 
    8.0205344113817767E-01 
    8.0170097773749904E-01 
    8.1220536212603145E-01 
    8.1179199944471603E-01 
    8.0134740588227149E-01 
    8.0099462699055701E-01 
    8.1138065082080446E-01 
    8.1097358083565108E-01 
    8.0064461625005179E-01 
    8.0029930925816939E-01 
    8.1057299157358609E-01 
    8.1018092792080099E-01 
    7.9996052515565341E-01 
    7.9963011554196728E-01 
    8.0979947287756593E-01 
    8.0943065842311734E-01 
    7.9930994230419494E-01 
    7.9900174384465772E-01 
    8.0907638494363043E-01 
    8.0873844774801162E-01 
    7.9870715076574206E-01 
    7.9842787909575308E-01 
    8.0841865330363771E-01 
    8.0811869337150577E-01 
    7.9816553002205182E-01 
    7.9792151918972842E-01 
    8.0784007828119531E-01 
    8.0758435370890380E-01 
    7.9769736883659970E-01 
    7.9749438588916810E-01 
    8.0735287481245044E-01 
    8.0714682415605021E-01 
    7.9731357211908616E-01 
    7.9715583103859455E-01 
    8.0696736086264464E-01 
    8.0681583733992379E-01 
    7.9702212672826989E-01 
    7.9690169237922204E-01 
    8.0668728829598746E-01 
    8.0657317394498584E-01 
    7.9678883250209309E-01 
    7.9672642072781241E-01 
    8.0650854464116128E-01 
    7.9453892685388294E-01 
    7.8277801007614167E-01 
    7.8275711530414849E-01 
    7.9451468881692067E-01 
    7.9446636855155517E-01 
    7.8271544076784660E-01 
    7.8265324718771256E-01 
    7.9439427644495286E-01 
    7.9429892702325522E-01 
    7.8257094562611407E-01 
    7.8246910535235037E-01 
    7.9418102301998361E-01 
    7.9404141233503156E-01 
    7.8234837955485104E-01 
    7.8220949787571037E-01 
    7.9388099089098518E-01 
    7.9370074344443642E-01 
    7.8205328438604815E-01 
    7.8188072630260519E-01 
    7.9350182876768671E-01 
    7.9328552667359997E-01 
    7.8169289024044364E-01 
    7.8149089363484303E-01 
    7.9305316214556887E-01 
    7.9280618692446603E-01 
    7.8127595398350680E-01 
    7.8104933373501395E-01 
    7.9254610759959276E-01 
    7.9227446186211070E-01 
    7.8081231192428824E-01 
    7.8056622309405310E-01 
    7.9199285212296866E-01 
    7.9170293517383750E-01 
    7.8031246714392366E-01 
    7.8005244561990961E-01 
    7.9140635500765399E-01 
    7.9110475206081809E-01 
    7.7978756693154394E-01 
    7.7951931452063872E-01 
    7.9079983167583923E-01 
    7.9049329277958147E-01 
    7.7924918199337934E-01 
    7.7897864534895211E-01 
    7.9018681998103069E-01 
    7.8988212358304355E-01 
    7.7870922251970098E-01 
    7.7844244557109343E-01 
    7.8958091598573110E-01 
    7.8928485758823375E-01 
    7.7817980426590971E-01 
    7.7792279326967761E-01 
    7.8899559467192604E-01 
    7.8871482059852394E-01 
    7.7767297016250170E-01 
    7.7743182369901320E-01 
    7.8844415756431985E-01 
    7.8818516180086351E-01 
    7.7720082985881034E-01 
    7.7698155277519509E-01 
    7.8793947075726245E-01 
    7.8770866255837568E-01 
    7.7677554013671424E-01 
    7.7658436074371873E-01 
    7.8749425234490711E-01 
    7.8729787154067921E-01 
    7.7640972233034244E-01 
    7.7625335943691065E-01 
    7.8712104974306851E-01 
    7.8696519986468083E-01 
    7.7611717324548379E-01 
    7.7600370510752004E-01 
    7.8683179366079570E-01 
    7.8672240017889994E-01 
    7.7591582667708847E-01 
    7.7583222350770953E-01 
    7.8661947848777802E-01 
    7.8651457499346211E-01 
    7.7573968839295571E-01 
    7.7568244310922874E-01 
    7.8645385851661131E-01 
    7.7077451866396118E-01 
    7.5851933609883826E-01 
    7.5850265508182457E-01 
    7.7075608527486694E-01 
    7.7071932067833382E-01 
    7.5846939277588010E-01 
    7.5841973911600713E-01 
    7.7066444464120931E-01 
    7.7059179065233940E-01 
    7.5835396963814516E-01 
    7.5827245624737127E-01 
    7.7050180529310708E-01 
    7.7039502550143768E-01 
    7.5817565768602768E-01 
    7.5806411960028797E-01 
    7.7027207477385040E-01 
    7.7013366381763293E-01 
    7.5793846673612375E-01 
    7.5779946521690300E-01 
    7.6998065132437576E-01 
    7.6981396500491106E-01 
    7.5764794018491377E-01 
    7.5748472577596127E-01 
    7.6963456107758432E-01 
    7.6944348903367354E-01 
    7.5731074184041391E-01 
    7.5712691875864435E-01 
    7.6924182220065040E-01 
    7.6903063045516584E-01 
    7.5693419846854504E-01 
    7.5673361857264987E-01 
    7.6881106279601918E-01 
    7.6858435974832306E-01 
    7.5652630259113063E-01 
    7.5631335687052925E-01 
    7.6835174958699559E-01 
    7.6811445335731277E-01 
    7.5609588188247223E-01 
    7.5587509285921550E-01 
    7.6787380603226119E-01 
    7.6763114400980093E-01 
    7.5565219556073970E-01 
    7.5542834272906412E-01 
    7.6738774820046551E-01 
    7.6714500692921417E-01 
    7.5520481141231288E-01 
    7.5498284984207120E-01 
    7.6690430468367432E-01 
    7.6666694946020475E-01 
    7.5476364742335988E-01 
    7.5454845385148150E-01 
    7.6643431164267606E-01 
    7.6620783296780615E-01 
    7.5433857346385014E-01 
    7.5413525727967556E-01 
    7.6598887155251671E-01 
    7.6577875672700435E-01 
    7.5393971243530267E-01 
    7.5375326075527693E-01 
    7.6557895369125128E-01 
    7.6539091529203274E-01 
    7.5357722027771801E-01 
    7.5341284745213355E-01 
    7.6521605205627696E-01 
    7.6505595681951977E-01 
    7.5326155349825263E-01 
    7.5312477227751384E-01 
    7.6491223151515475E-01 
    7.6478651337827375E-01 
    7.5300378213212460E-01 
    7.5290041486411385E-01 
    7.6468118542959607E-01 
    7.6459855562452184E-01 
    7.5281605279073638E-01 
    7.5273206177647611E-01 
    7.6451782648109978E-01 
    7.6443177806615270E-01 
    7.5264908284329413E-01 
    7.5260282087148533E-01 
    7.6438114320196371E-01 
    7.4600860503025634E-01 
    7.3324282543818731E-01 
    7.3322791823393751E-01 
    7.4599307569245843E-01 
    7.4596211640695576E-01 
    7.3319819822424370E-01 
    7.3315383190282057E-01 
    7.4591589838721883E-01 
    7.4585467172312814E-01 
    7.3309505282932219E-01 
    7.3302214338400451E-01 
    7.4577875331027466E-01 
    7.4568854513463567E-01 
    7.3293547798829106E-01 
    7.3283551328328567E-01 
    7.4558453916429224E-01 
    7.4546731420307044E-01 
    7.3272279979586474E-01 
    7.3259797162818208E-01 
    7.4533755863516415E-01 
    7.4519601497213406E-01 
    7.3246171535353022E-01 
    7.3231473985133011E-01 
    7.4504344301867909E-01 
    7.4488065768324963E-01 
    7.3215781198005325E-01 
    7.3199175557871443E-01 
    7.4470850463279348E-01 
    7.4452787449972924E-01 
    7.3181743760072981E-01 
    7.3163580162355790E-01 
    7.4433973915895790E-01 
    7.4414513104504265E-01 
    7.3144783393260970E-01 
    7.3125452484482856E-01 
    7.4394507744091776E-01 
    7.4374061839552408E-01 
    7.3105687142918763E-01 
    7.3085594215749072E-01 
    7.4353286934084328E-01 
    7.4332294099732377E-01 
    7.3065280296190249E-01 
    7.3044850528971739E-01 
    7.4311192082847988E-01 
    7.4290098451490383E-01 
    7.3024416318467888E-01 
    7.3004087309329413E-01 
    7.4269127252279765E-01 
    7.4248390753493476E-01 
    7.2983970847479862E-01 
    7.2964178185978912E-01 
    7.4228004793397506E-01 
    7.4208085967967585E-01 
    7.2944818639285747E-01 
    7.2925997454740721E-01 
    7.4188748509575875E-01 
    7.4170101889039730E-01 
    7.2907813552405754E-01 
    7.2890368809554640E-01 
    7.4152261228870864E-01 
    7.4135337523961808E-01 
    7.2873754785493916E-01 
    7.2858048626154193E-01 
    7.4119434869576828E-01 
    7.4104663725989495E-01 
    7.2843325851391227E-01 
    7.2829637044448570E-01 
    7.4091130387275339E-01 
    7.4078923469926972E-01 
    7.2817019289333584E-01 
    7.2805514267130611E-01 