# vtk DataFile Version 2.0
Pressure Field Data 
ASCII 
DATASET UNSTRUCTURED_GRID 

POINTS 1681 double 

    0.0000000000000000E+00     0.0000000000000000E+00     0.0000000000000000E+00 
    1.0000000000000000E+00     0.0000000000000000E+00     0.0000000000000000E+00 
    1.0000000000000000E+00     1.0000000000000000E+00     0.0000000000000000E+00 
    0.0000000000000000E+00     1.0000000000000000E+00     0.0000000000000000E+00 
    5.2499999999875258E-01     0.0000000000000000E+00     0.0000000000000000E+00 
    7.4999999999856765E-02     0.0000000000000000E+00     0.0000000000000000E+00 
    1.2499999999975850E-01     0.0000000000000000E+00     0.0000000000000000E+00 
    1.7499999999962990E-01     0.0000000000000000E+00     0.0000000000000000E+00 
    2.2499999999948389E-01     0.0000000000000000E+00     0.0000000000000000E+00 
    2.7499999999933789E-01     0.0000000000000000E+00     0.0000000000000000E+00 
    3.2499999999919210E-01     0.0000000000000000E+00     0.0000000000000000E+00 
    3.7499999999904610E-01     0.0000000000000000E+00     0.0000000000000000E+00 
    4.2499999999890020E-01     0.0000000000000000E+00     0.0000000000000000E+00 
    4.7499999999875958E-01     0.0000000000000000E+00     0.0000000000000000E+00 
    2.4999999999949701E-02     0.0000000000000000E+00     0.0000000000000000E+00 
    5.7499999999887907E-01     0.0000000000000000E+00     0.0000000000000000E+00 
    6.2499999999901101E-01     0.0000000000000000E+00     0.0000000000000000E+00 
    6.7499999999914273E-01     0.0000000000000000E+00     0.0000000000000000E+00 
    7.2499999999927467E-01     0.0000000000000000E+00     0.0000000000000000E+00 
    7.7499999999940661E-01     0.0000000000000000E+00     0.0000000000000000E+00 
    8.2499999999953844E-01     0.0000000000000000E+00     0.0000000000000000E+00 
    8.7499999999967026E-01     0.0000000000000000E+00     0.0000000000000000E+00 
    9.2499999999980220E-01     0.0000000000000000E+00     0.0000000000000000E+00 
    9.7499999999993414E-01     0.0000000000000000E+00     0.0000000000000000E+00 
    5.4999999999881310E-01     0.0000000000000000E+00     0.0000000000000000E+00 
    9.9999999999814140E-02     0.0000000000000000E+00     0.0000000000000000E+00 
    1.4999999999970290E-01     0.0000000000000000E+00     0.0000000000000000E+00 
    1.9999999999955689E-01     0.0000000000000000E+00     0.0000000000000000E+00 
    2.4999999999941089E-01     0.0000000000000000E+00     0.0000000000000000E+00 
    2.9999999999926502E-01     0.0000000000000000E+00     0.0000000000000000E+00 
    3.4999999999911913E-01     0.0000000000000000E+00     0.0000000000000000E+00 
    3.9999999999897312E-01     0.0000000000000000E+00     0.0000000000000000E+00 
    4.4999999999882723E-01     0.0000000000000000E+00     0.0000000000000000E+00 
    4.9999999999869210E-01     0.0000000000000000E+00     0.0000000000000000E+00 
    4.9999999999899403E-02     0.0000000000000000E+00     0.0000000000000000E+00 
    5.9999999999894504E-01     0.0000000000000000E+00     0.0000000000000000E+00 
    6.4999999999907687E-01     0.0000000000000000E+00     0.0000000000000000E+00 
    6.9999999999920870E-01     0.0000000000000000E+00     0.0000000000000000E+00 
    7.4999999999934064E-01     0.0000000000000000E+00     0.0000000000000000E+00 
    7.9999999999947247E-01     0.0000000000000000E+00     0.0000000000000000E+00 
    8.4999999999960441E-01     0.0000000000000000E+00     0.0000000000000000E+00 
    8.9999999999973623E-01     0.0000000000000000E+00     0.0000000000000000E+00 
    9.4999999999986817E-01     0.0000000000000000E+00     0.0000000000000000E+00 
    1.0000000000000000E+00     5.2499999999875258E-01     0.0000000000000000E+00 
    1.0000000000000000E+00     7.4999999999856765E-02     0.0000000000000000E+00 
    1.0000000000000000E+00     1.2499999999975850E-01     0.0000000000000000E+00 
    1.0000000000000000E+00     1.7499999999962990E-01     0.0000000000000000E+00 
    1.0000000000000000E+00     2.2499999999948389E-01     0.0000000000000000E+00 
    1.0000000000000000E+00     2.7499999999933789E-01     0.0000000000000000E+00 
    1.0000000000000000E+00     3.2499999999919210E-01     0.0000000000000000E+00 
    1.0000000000000000E+00     3.7499999999904610E-01     0.0000000000000000E+00 
    1.0000000000000000E+00     4.2499999999890020E-01     0.0000000000000000E+00 
    1.0000000000000000E+00     4.7499999999875958E-01     0.0000000000000000E+00 
    1.0000000000000000E+00     2.4999999999949701E-02     0.0000000000000000E+00 
    1.0000000000000000E+00     5.7499999999887907E-01     0.0000000000000000E+00 
    1.0000000000000000E+00     6.2499999999901101E-01     0.0000000000000000E+00 
    1.0000000000000000E+00     6.7499999999914273E-01     0.0000000000000000E+00 
    1.0000000000000000E+00     7.2499999999927467E-01     0.0000000000000000E+00 
    1.0000000000000000E+00     7.7499999999940661E-01     0.0000000000000000E+00 
    1.0000000000000000E+00     8.2499999999953844E-01     0.0000000000000000E+00 
    1.0000000000000000E+00     8.7499999999967026E-01     0.0000000000000000E+00 
    1.0000000000000000E+00     9.2499999999980220E-01     0.0000000000000000E+00 
    1.0000000000000000E+00     9.7499999999993414E-01     0.0000000000000000E+00 
    1.0000000000000000E+00     5.4999999999881310E-01     0.0000000000000000E+00 
    1.0000000000000000E+00     9.9999999999814140E-02     0.0000000000000000E+00 
    1.0000000000000000E+00     1.4999999999970290E-01     0.0000000000000000E+00 
    1.0000000000000000E+00     1.9999999999955689E-01     0.0000000000000000E+00 
    1.0000000000000000E+00     2.4999999999941089E-01     0.0000000000000000E+00 
    1.0000000000000000E+00     2.9999999999926502E-01     0.0000000000000000E+00 
    1.0000000000000000E+00     3.4999999999911913E-01     0.0000000000000000E+00 
    1.0000000000000000E+00     3.9999999999897312E-01     0.0000000000000000E+00 
    1.0000000000000000E+00     4.4999999999882723E-01     0.0000000000000000E+00 
    1.0000000000000000E+00     4.9999999999869210E-01     0.0000000000000000E+00 
    1.0000000000000000E+00     4.9999999999899403E-02     0.0000000000000000E+00 
    1.0000000000000000E+00     5.9999999999894504E-01     0.0000000000000000E+00 
    1.0000000000000000E+00     6.4999999999907687E-01     0.0000000000000000E+00 
    1.0000000000000000E+00     6.9999999999920870E-01     0.0000000000000000E+00 
    1.0000000000000000E+00     7.4999999999934064E-01     0.0000000000000000E+00 
    1.0000000000000000E+00     7.9999999999947247E-01     0.0000000000000000E+00 
    1.0000000000000000E+00     8.4999999999960441E-01     0.0000000000000000E+00 
    1.0000000000000000E+00     8.9999999999973623E-01     0.0000000000000000E+00 
    1.0000000000000000E+00     9.4999999999986817E-01     0.0000000000000000E+00 
    4.7500000000196618E-01     1.0000000000000000E+00     0.0000000000000000E+00 
    9.2499999999968763E-01     1.0000000000000000E+00     0.0000000000000000E+00 
    8.7499999999961831E-01     1.0000000000000000E+00     0.0000000000000000E+00 
    8.2499999999982654E-01     1.0000000000000000E+00     0.0000000000000000E+00 
    7.7500000000017355E-01     1.0000000000000000E+00     0.0000000000000000E+00 
    7.2500000000052045E-01     1.0000000000000000E+00     0.0000000000000000E+00 
    6.7500000000086724E-01     1.0000000000000000E+00     0.0000000000000000E+00 
    6.2500000000121403E-01     1.0000000000000000E+00     0.0000000000000000E+00 
    5.7500000000156093E-01     1.0000000000000000E+00     0.0000000000000000E+00 
    5.2500000000189684E-01     1.0000000000000000E+00     0.0000000000000000E+00 
    9.7499999999989595E-01     1.0000000000000000E+00     0.0000000000000000E+00 
    4.2500000000176902E-01     1.0000000000000000E+00     0.0000000000000000E+00 
    3.7500000000156092E-01     1.0000000000000000E+00     0.0000000000000000E+00 
    3.2500000000135282E-01     1.0000000000000000E+00     0.0000000000000000E+00 
    2.7500000000114472E-01     1.0000000000000000E+00     0.0000000000000000E+00 
    2.2500000000093659E-01     1.0000000000000000E+00     0.0000000000000000E+00 
    1.7500000000072849E-01     1.0000000000000000E+00     0.0000000000000000E+00 
    1.2500000000052039E-01     1.0000000000000000E+00     0.0000000000000000E+00 
    7.5000000000312261E-02     1.0000000000000000E+00     0.0000000000000000E+00 
    2.5000000000104109E-02     1.0000000000000000E+00     0.0000000000000000E+00 
    4.5000000000187301E-01     1.0000000000000000E+00     0.0000000000000000E+00 
    8.9999999999958358E-01     1.0000000000000000E+00     0.0000000000000000E+00 
    8.4999999999965303E-01     1.0000000000000000E+00     0.0000000000000000E+00 
    8.0000000000000004E-01     1.0000000000000000E+00     0.0000000000000000E+00 
    7.5000000000034706E-01     1.0000000000000000E+00     0.0000000000000000E+00 
    7.0000000000069384E-01     1.0000000000000000E+00     0.0000000000000000E+00 
    6.5000000000104063E-01     1.0000000000000000E+00     0.0000000000000000E+00 
    6.0000000000138742E-01     1.0000000000000000E+00     0.0000000000000000E+00 
    5.5000000000173432E-01     1.0000000000000000E+00     0.0000000000000000E+00 
    5.0000000000205946E-01     1.0000000000000000E+00     0.0000000000000000E+00 
    9.4999999999979179E-01     1.0000000000000000E+00     0.0000000000000000E+00 
    4.0000000000166491E-01     1.0000000000000000E+00     0.0000000000000000E+00 
    3.5000000000145681E-01     1.0000000000000000E+00     0.0000000000000000E+00 
    3.0000000000124871E-01     1.0000000000000000E+00     0.0000000000000000E+00 
    2.5000000000104061E-01     1.0000000000000000E+00     0.0000000000000000E+00 
    2.0000000000083251E-01     1.0000000000000000E+00     0.0000000000000000E+00 
    1.5000000000062441E-01     1.0000000000000000E+00     0.0000000000000000E+00 
    1.0000000000041630E-01     1.0000000000000000E+00     0.0000000000000000E+00 
[...]
CELL_DATA 1600 
SCALARS Pressure double 1 
LOOKUP_TABLE default 

    1.1616037913290289E+00 
    1.1155253903589244E+00 
    1.1131407509846716E+00 
    1.1460199904208295E+00 
    1.1335933051514209E+00 
    1.1095390207534381E+00 
    1.1053785213753167E+00 
    1.1234206795816819E+00 
    1.1149013452963490E+00 
    1.1010303160430415E+00 
    1.0967001075477367E+00 
    1.1076239022013419E+00 
    1.1012992361802276E+00 
    1.0924966218388785E+00 
    1.0884727775284577E+00 
    1.0957202266522388E+00 
    1.0907362190076813E+00 
    1.0846501796780705E+00 
    1.0810334209911281E+00 
    1.0862363926967695E+00 
    1.0821382767422885E+00 
    1.0776181778897445E+00 
    1.0743953265769013E+00 
    1.0783792957113960E+00 
    1.0749105177801834E+00 
    1.0713533899172434E+00 
    1.0684802778710567E+00 
    1.0716928838915909E+00 
    1.0686955118610584E+00 
    1.0657647022105863E+00 
    1.0631966935864270E+00 
    1.0658942611859332E+00 
    1.0632700085220739E+00 
    1.0607675360143636E+00 
    1.0584695497345111E+00 
    1.0608073093412183E+00 
    1.0584935861782314E+00 
    1.0562960045035645E+00 
    1.0542408940582904E+00 
    1.0563184015334697E+00 
    1.0542728572585618E+00 
    1.0522988368204003E+00 
    1.0504651950849502E+00 
    1.0523495140809251E+00 
    1.0505424271376984E+00 
    1.0487362586546711E+00 
    1.0471090265014120E+00 
    1.0488468399912656E+00 
    1.0472588321540188E+00 
    1.0455809590551330E+00 
    1.0441498863719254E+00 
    1.0457751239156934E+00 
    1.0443930336366642E+00 
    1.0428140721135160E+00 
    1.0415721927438251E+00 
    1.0431104570940344E+00 
    1.0419258212872040E+00 
    1.0404232978047008E+00 
    1.0393667473772754E+00 
    1.0408379851062111E+00 
    1.0398461374361834E+00 
    1.0384021834140200E+00 
    1.0375295218654557E+00 
    1.0389498464657567E+00 
    1.0381490371315001E+00 
    1.0367489726610837E+00 
    1.0360609864899339E+00 
    1.0374438963329609E+00 
    1.0368349229821916E+00 
    1.0354662231449845E+00 
    1.0349662827231811E+00 
    1.0363234981049563E+00 
    1.0359078460217552E+00 
    1.0345589315663177E+00 
    1.0341912661956654E+00 
    1.0355338793778379E+00 
    1.0352489530059641E+00 
    1.0339112446151448E+00 
    1.0337800335490461E+00 
    1.0351153718186354E+00 
    1.0920203148715759E+00 
    1.0749397733007995E+00 
    1.0745678235300771E+00 
    1.0912584689580276E+00 
    1.0898587142936633E+00 
    1.0738487394429439E+00 
    1.0728231516413740E+00 
    1.0879720486171578E+00 
    1.0857402320101934E+00 
    1.0715397294128433E+00 
    1.0700485941414659E+00 
    1.0832816879817719E+00 
    1.0806888673862347E+00 
    1.0683969227028456E+00 
    1.0666268746986631E+00 
    1.0780311646777689E+00 
    1.0753592638293326E+00 
    1.0647746508400053E+00 
    1.0628706354339059E+00 
    1.0727092804554956E+00 
    1.0701062520014288E+00 
    1.0609397069245294E+00 
    1.0590019983292824E+00 
    1.0675668701879657E+00 
    1.0651019670514248E+00 
    1.0570738151398713E+00 
    1.0551682417529131E+00 
    1.0627183778729643E+00 
    1.0604203626486044E+00 
    1.0532956518487191E+00 
    1.0514643545692453E+00 
    1.0582104422838878E+00 
    1.0560899193521918E+00 
    1.0496809048339741E+00 
    1.0479503705581703E+00 
    1.0540591773606363E+00 
    1.0521179581376074E+00 
    1.0462766066695728E+00 
    1.0446626834509274E+00 
    1.0502655256688060E+00 
    1.0485009151083751E+00 
    1.0431110553238070E+00 
    1.0416238103553872E+00 
    1.0468232088520988E+00 
    1.0452317456902507E+00 
    1.0402028232838083E+00 
    1.0388496341900602E+00 
    1.0437259564272749E+00 
    1.0423052863180533E+00 
    1.0375654824820679E+00 
    1.0363515355344182E+00 
    1.0409692597695486E+00 
    1.0397175734453492E+00 
    1.0352089087437515E+00 
    1.0341386431530650E+00 
    1.0385500849005551E+00 
    1.0374668264895428E+00 
    1.0331417644126986E+00 
    1.0322193653878198E+00 
    1.0364679877692893E+00 
    1.0355538920252689E+00 
    1.0313724884366224E+00 
    1.0306022346398185E+00 
    1.0347250263528647E+00 
    1.0339820706512195E+00 
    1.0299098295645968E+00 
    1.0292964660295043E+00 
    1.0333258359150945E+00 
    1.0327572526999724E+00 
    1.0287633377766285E+00 
    1.0283126962878941E+00 
    1.0322782711622687E+00 
    1.0318856569369954E+00 
    1.0279390517141347E+00 
    1.0275983573828416E+00 
    1.0315296914182961E+00 
    1.0312595166361616E+00 
    1.0273420142374388E+00 
    1.0272222797293176E+00 
    1.0311330788896713E+00 
    1.0604609033464507E+00 
    1.0471955903077370E+00 
    1.0470462494173529E+00 
    1.0602379480509105E+00 
    1.0598000528533782E+00 
    1.0467510347355249E+00 
    1.0463164958132984E+00 
    1.0591617948907410E+00 
    1.0583426843367048E+00 
    1.0457517582791904E+00 
    1.0450677997339057E+00 
    1.0573650887861779E+00 
    1.0562521888213239E+00 
    1.0442767312418939E+00 
    1.0433913724036772E+00 
    1.0550267992751785E+00 
    1.0537106253589159E+00 
    1.0424248520920965E+00 
    1.0413903342248521E+00 
    1.0523239963722075E+00 
    1.0508853634912509E+00 
    1.0403004677203911E+00 
    1.0391669710046374E+00 
    1.0494110483886276E+00 
    1.0479155459354084E+00 
    1.0380008946061170E+00 
    1.0368124146717430E+00 
    1.0464114815539594E+00 
    1.0449096226416819E+00 
    1.0356106113727881E+00 
    1.0344037482077970E+00 
    1.0434192834192786E+00 
    1.0419484437204345E+00 
    1.0331993357042113E+00 
    1.0320040687504166E+00 
    1.0405037853070513E+00 
    1.0390909241479906E+00 
    1.0308238965639647E+00 
    1.0296643498152991E+00 
    1.0377148674622922E+00 
    1.0363800015564431E+00 
    1.0285304361835450E+00 
    1.0274264961374995E+00 
    1.0350900920199408E+00 
    1.0338485344353452E+00 
    1.0263565447843876E+00 
    1.0253242164175711E+00 
    1.0326582542499705E+00 
    1.0315217438679845E+00 
    1.0243326925103315E+00 
    1.0233849784682789E+00 
    1.0304413475624723E+00 
    1.0294192777050530E+00 
    1.0224839346369476E+00 
    1.0216321493045226E+00 
    1.0284575173117974E+00 
    1.0275578757561503E+00 
    1.0208319409785738E+00 
    1.0200856022934299E+00 
    1.0267221700505096E+00 
    1.0259521043476629E+00 
    1.0193953164373826E+00 
    1.0187630483955741E+00 
    1.0252492949054857E+00 
    1.0246154437897048E+00 
    1.0181907959060728E+00 
    1.0176804790552376E+00 
    1.0240521565067664E+00 
    1.0235608308042536E+00 
    1.0172337356502317E+00 
    1.0168530054286893E+00 
    1.0231438242871316E+00 
    1.0227911118173421E+00 
    1.0165216758964621E+00 
    1.0162142505378222E+00 
    1.0224668076269046E+00 
    1.0222265691496253E+00 
    1.0159917568046544E+00 
    1.0158881888188243E+00 
    1.0221146177620706E+00 
    1.0344957342672065E+00 
    1.0220135373667725E+00 
    1.0219327079904494E+00 
    1.0343885041589054E+00 
    1.0341758381846762E+00 
    1.0217720888733357E+00 
    1.0215336361163823E+00 
    1.0338611461338019E+00 
    1.0334491959509997E+00 
    1.0212201476965179E+00 
    1.0208352569484485E+00 
    1.0329459077334415E+00 
    1.0323583239043386E+00 
    1.0203835760535003E+00 
    1.0198702873527743E+00 
    1.0316943916560164E+00 
    1.0309624572356952E+00 
    1.0193007920442430E+00 
    1.0186806415735514E+00 
    1.0301710037212808E+00 
    1.0293284874767035E+00 
    1.0180156316461582E+00 
    1.0173116163641385E+00 
    1.0284431315396494E+00 
    1.0275229572199018E+00 
    1.0165744624052169E+00 
    1.0158099211408096E+00 
    1.0265756727088060E+00 
    1.0256084465050552E+00 
    1.0150236094505645E+00 
    1.0142210076203126E+00 
    1.0246280653506779E+00 
    1.0236409750347661E+00 
    1.0134074689630579E+00 
    1.0125880528422655E+00 
    1.0226532039449674E+00 
    1.0216703018694384E+00 
    1.0117675493303471E+00 
    1.0109505380197563E+00 
    1.0206974727748992E+00 
    1.0197395285138662E+00 
    1.0101413195038100E+00 
    1.0093439102060857E+00 
    1.0188008063380782E+00 
    1.0178853609188121E+00 
    1.0085621847564827E+00 
    1.0077997728026442E+00 
    1.0169970008847922E+00 
    1.0161391839082246E+00 
    1.0070600859736225E+00 
    1.0063463796918406E+00 
    1.0153151689848015E+00 
    1.0145280541475337E+00 
    1.0056617682298015E+00 
    1.0050091381715927E+00 
    1.0137807118286519E+00 
    1.0130757621187836E+00 
    1.0043912314357775E+00 
    1.0038107486614960E+00 
    1.0124157473887265E+00 
    1.0118031197548643E+00 
    1.0032702506981699E+00 
    1.0027721799245644E+00 
    1.0112401000740252E+00 
    1.0107288469071056E+00 
    1.0023190000079030E+00 
    1.0019130457524574E+00 
    1.0102714372900015E+00 
    1.0098698658197292E+00 
    1.0015571059862360E+00 
    1.0012536420078455E+00 
    1.0095265642236320E+00 
    1.0092167913251238E+00 
    1.0009673798833632E+00 
    1.0006933411805330E+00 
    1.0089266155551306E+00 
    1.0087224609242293E+00 
    1.0005043295551761E+00 
    1.0004153085270977E+00 
    1.0086272604888047E+00 
    1.0095441345697214E+00 
    9.9695827150785499E-01 
    9.9690745388749513E-01 
    1.0094809747903042E+00 
    1.0093552829390919E+00 
    9.9680623723713313E-01 
    9.9665548598194209E-01 
    1.0091682934492530E+00 
    1.0089218534084754E+00 
    9.9645656853822040E-01 
    9.9621134074930828E-01 
    1.0086185206743994E+00 
    1.0082614659033353E+00 
    9.9592197564320273E-01 
    9.9559080221565877E-01 
    1.0078540906805735E+00 
    1.0073999452946094E+00 
    9.9522038068242780E-01 
    9.9481362981456001E-01 
    1.0069029462740433E+00 
    1.0063672539303681E+00 
    9.9437366772177993E-01 
    9.9390372131704574E-01 
    1.0057971212754384E+00 
    1.0051969624480588E+00 
    9.9340716863250422E-01 
    9.9288748043824593E-01 
    1.0045711971898290E+00 
    1.0039242088650528E+00 
    9.9234807847422568E-01 
    9.9179242488599584E-01 
    1.0032603863980927E+00 
    1.0025840604598502E+00 
    9.9122398497146014E-01 
    9.9064615632690123E-01 
    1.0018993640251095E+00 
    1.0012102476011249E+00 
    9.9006223828775464E-01 
    9.8947556967275174E-01 
    1.0005206656976684E+00 
    9.9983438894717303E-01 
    9.8888943504128535E-01 
    9.8830692840869527E-01 
    9.9915496281939509E-01 
    9.9848593940734520E-01 
    9.8773116794977878E-01 
    9.8716518085664151E-01 
    9.9783066986928337E-01 
    9.9719228755366385E-01 
    9.8661176868444844E-01 
    9.8607372040465968E-01 
    9.9657386024392769E-01 
    9.9597837944993295E-01 
    9.8555376930695859E-01 
    9.8505451183670867E-01 
    9.9540863265909485E-01 
    9.9486727221508175E-01 
    9.8457840677902131E-01 
    9.8412790682397822E-01 
    9.9435699422574231E-01 
    9.9388034711610485E-01 
    9.8370536690420252E-01 
    9.8331299369226588E-01 
    9.9343980208872784E-01 
    9.9303794137234802E-01 
    9.8295298016760124E-01 
    9.8262742209848086E-01 
    9.9267727144866447E-01 
    9.9236149109415617E-01 
    9.8233993898240080E-01 
    9.8209025998339672E-01 
    9.9209303337589805E-01 
    9.9182907843157331E-01 
    9.8183703701895464E-01 
    9.8160013422256842E-01 
    9.9157260371757328E-01 
    9.9139791473465033E-01 
    9.8144449899440522E-01 
    9.8136717002848639E-01 
    9.9131346098445450E-01 
    9.8417190888679773E-01 
    9.7112963610608016E-01 
    9.7109437925950370E-01 
    9.8413003005397959E-01 
    9.8404658084622365E-01 
    9.7102411986729398E-01 
    9.7091935856291023E-01 
    9.8392221133588609E-01 
    9.8375794164267116E-01 
    9.7078085149670512E-01 
    9.7060955328190912E-01 
    9.8355511069282930E-01 
    9.8331526114411705E-01 
    9.7040664011148769E-01 
    9.7017349873655712E-01 
    9.8304013167095505E-01 
    9.8273169961586637E-01 
    9.6991171202411286E-01 
    9.6962311923266309E-01 
    9.8239224777886369E-01 
    9.8202421418906949E-01 
    9.6930968508739057E-01 
    9.6897336464291783E-01 
    9.8163009322707984E-01 
    9.8121254674919345E-01 
    9.6861626662512457E-01 
    9.6824055449804647E-01 
    9.8077429193881971E-01 
    9.8031799416872711E-01 
    9.6784839510164677E-01 
    9.6744210892383542E-01 
    9.7984645050674501E-01 
    9.7936250800322477E-01 
    9.6702410601314281E-01 
    9.6659675340593099E-01 
    9.7886897688028462E-01 
    9.7836863417850795E-01 
    9.6616239878468912E-01 
    9.6572350353792102E-01 
    9.7786433074676660E-01 
    9.7735888864800580E-01 
    9.6528248478647416E-01 
    9.6484166301338226E-01 
    9.7685497270824928E-01 
    9.7635532615273402E-01 
    9.6440344959199276E-01 
    9.6397020456171778E-01 
    9.7586261801452812E-01 
    9.7537931808672029E-01 
    9.6354414886577078E-01 
    9.6312753760631020E-01 
    9.7490795021242205E-01 
    9.7445099429200499E-01 
    9.6272265718038941E-01 
    9.6233163144535361E-01 
    9.7401077290877525E-01 
    9.7358948091139053E-01 
    9.6195644408296765E-01 
    9.6159916608252216E-01 
    9.7318933817268449E-01 
    9.7281241268356022E-01 
    9.6126168040557802E-01 
    9.6094556958903321E-01 
    9.7246050760340519E-01 
    9.7213540328121117E-01 
    9.6065238204165326E-01 
    9.6038401802591389E-01 
    9.7183880059414429E-01 
    9.7157301178218347E-01 
    9.6014141653376650E-01 
    9.5990152311677290E-01 
    9.7132945763420064E-01 
    9.7107395049998591E-01 
    9.5963986505577281E-01 
    9.5942949896945984E-01 
    9.7085242202363209E-01 
    9.7071595077151851E-01 
    9.5930654977955987E-01 
    9.5924490339818991E-01 
    9.7064763176198854E-01 
    9.5779539997992158E-01 
    9.4414617428426284E-01 
    9.4411961643094600E-01 
    9.5776512248970913E-01 
    9.5770477198028847E-01 
    9.4406665443077376E-01 
    9.4398760229126899E-01 
    9.5761473571810241E-01 
    9.5749557750403669E-01 
    9.4388288626615624E-01 
    9.4375308698030602E-01 
    9.5734800879735882E-01 
    9.5717296411814912E-01 
    9.4359895652219461E-01 
    9.4342143015866131E-01 
    9.5697156857228582E-01 
    9.5674512353449592E-01 
    9.4322157932766326E-01 
    9.4300064133361416E-01 
    9.5649513097302119E-01 
    9.5622317485571706E-01 
    9.4275989777590297E-01 
    9.4250067373280988E-01 
    9.5593083021793912E-01 
    9.5561981116005645E-01 
    9.4222444756355472E-01 
    9.4193280392382461E-01 
    9.5529191856212792E-01 
    9.5494902815036664E-01 
    9.4162737778920147E-01 
    9.4130987881291894E-01 
    9.5459311016421589E-01 
    9.5422621397845697E-01 
    9.4098208962047991E-01 
    9.4064578001942734E-01 
    9.5385037441924281E-01 
    9.5346762401083796E-01 
    9.4030271913591545E-01 
    9.3995477802570804E-01 
    9.5308008254378862E-01 
    9.5268984794703460E-01 
    9.3960382614859350E-01 
    9.3925169013470100E-01 
    9.5229899457954736E-01 
    9.5190963295211450E-01 
    9.3890027788711827E-01 
    9.3855151877127563E-01 
    9.5152388360623719E-01 
    9.5114380917821795E-01 
    9.3820727822075334E-01 
    9.3786944312699183E-01 
    9.5077145092396265E-01 
    9.5040892154135237E-01 
    9.3753996835986941E-01 
    9.3722072885545571E-01 
    9.5005824866505417E-01 
    9.4972138810850781E-01 
    9.3691358775724032E-01 
    9.3662052314817568E-01 
    9.4940038789012282E-01 
    9.4909723891459863E-01 
    9.3634353745162335E-01 
    9.3608465404737684E-01 
    9.4881385186333866E-01 
    9.4855230243474953E-01 
    9.3584636812232191E-01 
    9.3563255880247054E-01 
    9.4831592345827254E-01 
    9.4810611628801400E-01 
    9.3544333847904704E-01 
    9.3522958734025996E-01 
    9.4788083703103487E-01 
    9.4761812187352612E-01 
    9.3497825642933774E-01 
    9.3477922899205390E-01 
    9.4741022320816048E-01 
    9.4728724084336535E-01 
    9.3465347858875791E-01 
    9.3459087221956472E-01 
    9.4722568200331536E-01 
    9.3016804845960954E-01 
    9.1585343090672600E-01 
    9.1583141746585661E-01 
    9.3014418435166446E-01 
    9.3009658663028072E-01 
    9.1578750828543798E-01 
    9.1572192161366028E-01 
    9.3002551185863136E-01 
    9.2993131491368586E-01 
    9.1563497648634795E-01 
    9.1552713418932985E-01 
    9.2981448698170921E-01 
    9.2967567910619930E-01 
    9.1539898902299732E-01 
    9.1525123388884799E-01 
    9.2951568402299489E-01 
    9.2933538623863987E-01 
    9.1508461563587007E-01 
    9.1490002085898681E-01 
    9.2913581153038871E-01 
    9.2891805100954328E-01 
    9.1469843357516933E-01 
    9.1448092773028944E-01 
    9.2868326866484874E-01 
    9.2843281737975591E-01 
    9.1424875865715427E-01 
    9.1400319760801318E-01 
    9.2816812017058647E-01 
    9.2789058821762682E-01 
    9.1374549216213963E-01 
    9.1347700778726582E-01 
    9.2760173082383079E-01 
    9.2730315192347734E-01 
    9.1319920115046416E-01 
    9.1291349465271909E-01 
    9.2699641721862169E-01 
    9.2668307450195186E-01 
    9.1262130241429162E-01 
    9.1232420253681623E-01 
    9.2636483234806533E-01 
    9.2604338840684985E-01 
    9.1202375910075029E-01 
    9.1172145748443445E-01 
    9.2572034530087810E-01 
    9.2539748239403874E-01 
    9.1141896253716337E-01 
    9.1111788303175811E-01 
    9.2507655658006094E-01 
    9.2475920856356064E-01 
    9.1081975007892368E-01 
    9.1052617593306573E-01 
    9.2444717385153574E-01 
    9.2414222908430677E-01 
    9.1023879320425305E-01 
    9.0995914798329269E-01 
    9.2384602151783013E-01 
    9.2356010678147249E-01 
    9.0968867327718328E-01 
    9.0942888601713989E-01 
    9.2328615267508229E-01 
    9.2302569773953069E-01 
    9.0918110852487122E-01 
    9.0894634386855844E-01 
    9.2277998323023269E-01 
    9.2255073633640783E-01 
    9.0872618642384662E-01 
    9.0852012320533704E-01 
    9.2233947518132453E-01 
    9.2213740332950644E-01 
    9.0830172778314411E-01 
    9.0803973646502156E-01 
    9.2190557996264799E-01 
    9.2167158838296037E-01 
    9.0780813622184164E-01 
    9.0765432357084730E-01 
    9.2150052936476134E-01 
    9.2138678507764837E-01 
    9.0755116057449026E-01 
    9.0749933218336865E-01 
    9.2132983793159051E-01 
    9.0119872212168406E-01 
    8.8620447306790440E-01 
    8.8618417303290431E-01 
    9.0117785969587538E-01 
    9.0113624372204226E-01 
    8.8614367333865240E-01 
    8.8608315760111189E-01 
    9.0107406873441365E-01 
    9.0099164917992669E-01 
    8.8600293197877322E-01 
    8.8590342913263775E-01 
    9.0088942999964738E-01 
    9.0076797446707901E-01 
    8.8578520989094456E-01 
    8.8564888025053201E-01 
    9.0062791778960827E-01 
    9.0046994463901697E-01 
    8.8549510976065271E-01 
    8.8532468366835704E-01 
    9.0029486184636021E-01 
    9.0010359882027891E-01 
    8.8513851233786267E-01 
    8.8493757872893752E-01 
    8.9989718754320980E-01 
    8.9967677100975962E-01 
    8.8472294180881372E-01 
    8.8449568104933685E-01 
    8.9944349673782209E-01 
    8.9919852084622531E-01 
    8.8425689033807531E-01 
    8.8400777035647859E-01 
    8.9894310434005598E-01 
    8.9867858473590256E-01 
    8.8374960127434743E-01 
    8.8348368201141714E-01 
    8.9840629820857765E-01 
    8.9812760167516215E-01 
    8.8321132190952778E-01 
    8.8293393293121980E-01 
    8.9784396187514259E-01 
    8.9755686133342227E-01 
    8.8265296871868570E-01 
    8.8236986466369594E-01 
    8.9726775469365461E-01 
    8.9697819809568791E-01 
    8.8208610650143482E-01 
    8.8180319020226083E-01 
    8.9668971460151181E-01 
    8.9640381992728391E-01 
    8.8152257659818345E-01 
    8.8124576979751801E-01 
    8.9612207579124814E-01 
    8.9584606956369195E-01 
    8.8097431264328196E-01 
    8.8070975586200062E-01 
    8.9557740635286043E-01 
    8.9531768988489069E-01 
    8.8045367483837056E-01 
    8.8020778811435374E-01 
    8.9506868656108507E-01 
    8.9483214819438284E-01 
    8.7997374193385902E-01 
    8.7975344382036924E-01 
    8.9461007683551264E-01 
    8.9440570037140343E-01 
    8.7954930553322874E-01 
    8.7935705219447535E-01 
    8.9421915120059303E-01 
    8.9399763267633559E-01 
    8.7911935315992729E-01 
    8.7882944410910790E-01 