# vtk DataFile Version 2.0
Pressure Field Data 
ASCII 
DATASET UNSTRUCTURED_GRID 

POINTS 1681 double 

    0.0000000000000000E+00     0.0000000000000000E+00     0.0000000000000000E+00 
    1.0000000000000000E+00     0.0000000000000000E+00     0.0000000000000000E+00 
    1.0000000000000000E+00     1.0000000000000000E+00     0.0000000000000000E+00 
    0.0000000000000000E+00     1.0000000000000000E+00     0.0000000000000000E+00 
    5.2499999999875258E-01     0.0000000000000000E+00     0.0000000000000000E+00 
    7.4999999999856765E-02     0.0000000000000000E+00     0.0000000000000000E+00 
    1.2499999999975850E-01     0.0000000000000000E+00     0.0000000000000000E+00 
    1.7499999999962990E-01     0.0000000000000000E+00     0.0000000000000000E+00 
    2.2499999999948389E-01     0.0000000000000000E+00     0.0000000000000000E+00 
    2.7499999999933789E-01     0.0000000000000000E+00     0.0000000000000000E+00 
    3.2499999999919210E-01     0.0000000000000000E+00     0.0000000000000000E+00 
    3.7499999999904610E-01     0.0000000000000000E+00     0.0000000000000000E+00 
    4.2499999999890020E-01     0.0000000000000000E+00     0.0000000000000000E+00 
    4.7499999999875958E-01     0.0000000000000000E+00     0.0000000000000000E+00 
    2.4999999999949701E-02     0.0000000000000000E+00     0.0000000000000000E+00 
    5.7499999999887907E-01     0.0000000000000000E+00     0.0000000000000000E+00 
    6.2499999999901101E-01     0.0000000000000000E+00     0.0000000000000000E+00 
    6.7499999999914273E-01     0.0000000000000000E+00     0.0000000000000000E+00 
    7.2499999999927467E-01     0.0000000000000000E+00     0.0000000000000000E+00 
    7.7499999999940661E-01     0.0000000000000000E+00     0.0000000000000000E+00 
    8.2499999999953844E-01     0.0000000000000000E+00     0.0000000000000000E+00 
    8.7499999999967026E-01     0.0000000000000000E+00     0.0000000000000000E+00 
    9.2499999999980220E-01     0.0000000000000000E+00     0.0000000000000000E+00 
    9.7499999999993414E-01     0.0000000000000000E+00     0.0000000000000000E+00 
    5.4999999999881310E-01     0.0000000000000000E+00     0.0000000000000000E+00 
    9.9999999999814140E-02     0.0000000000000000E+00     0.0000000000000000E+00 
    1.4999999999970290E-01     0.0000000000000000E+00     0.0000000000000000E+00 
    1.9999999999955689E-01     0.0000000000000000E+00     0.0000000000000000E+00 
    2.4999999999941089E-01     0.0000000000000000E+00     0.0000000000000000E+00 
    2.9999999999926502E-01     0.0000000000000000E+00     0.0000000000000000E+00 
    3.4999999999911913E-01     0.0000000000000000E+00     0.0000000000000000E+00 
    3.9999999999897312E-01     0.0000000000000000E+00     0.0000000000000000E+00 
    4.4999999999882723E-01     0.0000000000000000E+00     0.0000000000000000E+00 
    4.9999999999869210E-01     0.0000000000000000E+00     0.0000000000000000E+00 
    4.9999999999899403E-02     0.0000000000000000E+00     0.0000000000000000E+00 
    5.9999999999894504E-01     0.0000000000000000E+00     0.0000000000000000E+00 
    6.4999999999907687E-01     0.0000000000000000E+00     0.0000000000000000E+00 
    6.9999999999920870E-01     0.0000000000000000E+00     0.0000000000000000E+00 
    7.4999999999934064E-01     0.0000000000000000E+00     0.0000000000000000E+00 
    7.9999999999947247E-01     0.0000000000000000E+00     0.0000000000000000E+00 
    8.4999999999960441E-01     0.0000000000000000E+00     0.0000000000000000E+00 
    8.9999999999973623E-01     0.0000000000000000E+00     0.0000000000000000E+00 
    9.4999999999986817E-01     0.0000000000000000E+00     0.0000000000000000E+00 
    1.0000000000000000E+00     5.2499999999875258E-01     0.0000000000000000E+00 
    1.0000000000000000E+00     7.4999999999856765E-02     0.0000000000000000E+00 
    1.0000000000000000E+00     1.2499999999975850E-01     0.0000000000000000E+00 
    1.0000000000000000E+00     1.7499999999962990E-01     0.0000000000000000E+00 
    1.0000000000000000E+00     2.2499999999948389E-01     0.0000000000000000E+00 
    1.0000000000000000E+00     2.7499999999933789E-01     0.0000000000000000E+00 
    1.0000000000000000E+00     3.2499999999919210E-01     0.0000000000000000E+00 
    1.0000000000000000E+00     3.7499999999904610E-01     0.0000000000000000E+00 
    1.0000000000000000E+00     4.2499999999890020E-01     0.0000000000000000E+00 
    1.0000000000000000E+00     4.7499999999875958E-01     0.0000000000000000E+00 
    1.0000000000000000E+00     2.4999999999949701E-02     0.0000000000000000E+00 
    1.0000000000000000E+00     5.7499999999887907E-01     0.0000000000000000E+00 
    1.0000000000000000E+00     6.2499999999901101E-01     0.0000000000000000E+00 
    1.0000000000000000E+00     6.7499999999914273E-01     0.0000000000000000E+00 
    1.0000000000000000E+00     7.2499999999927467E-01     0.0000000000000000E+00 
    1.0000000000000000E+00     7.7499999999940661E-01     0.0000000000000000E+00 
    1.0000000000000000E+00     8.2499999999953844E-01     0.0000000000000000E+00 
    1.0000000000000000E+00     8.7499999999967026E-01     0.0000000000000000E+00 
    1.0000000000000000E+00     9.2499999999980220E-01     0.0000000000000000E+00 
    1.0000000000000000E+00     9.7499999999993414E-01     0.0000000000000000E+00 
    1.0000000000000000E+00     5.4999999999881310E-01     0.0000000000000000E+00 
    1.0000000000000000E+00     9.9999999999814140E-02     0.0000000000000000E+00 
    1.0000000000000000E+00     1.4999999999970290E-01     0.0000000000000000E+00 
    1.0000000000000000E+00     1.9999999999955689E-01     0.0000000000000000E+00 
    1.0000000000000000E+00     2.4999999999941089E-01     0.0000000000000000E+00 
    1.0000000000000000E+00     2.9999999999926502E-01     0.0000000000000000E+00 
    1.0000000000000000E+00     3.4999999999911913E-01     0.0000000000000000E+00 
    1.0000000000000000E+00     3.9999999999897312E-01     0.0000000000000000E+00 
    1.0000000000000000E+00     4.4999999999882723E-01     0.0000000000000000E+00 
    1.0000000000000000E+00     4.9999999999869210E-01     0.0000000000000000E+00 
    1.0000000000000000E+00     4.9999999999899403E-02     0.0000000000000000E+00 
    1.0000000000000000E+00     5.9999999999894504E-01     0.0000000000000000E+00 
    1.0000000000000000E+00     6.4999999999907687E-01     0.0000000000000000E+00 
    1.0000000000000000E+00     6.9999999999920870E-01     0.0000000000000000E+00 
    1.0000000000000000E+00     7.4999999999934064E-01     0.0000000000000000E+00 
    1.0000000000000000E+00     7.9999999999947247E-01     0.0000000000000000E+00 
    1.0000000000000000E+00     8.4999999999960441E-01     0.0000000000000000E+00 
    1.0000000000000000E+00     8.9999999999973623E-01     0.0000000000000000E+00 
    1.0000000000000000E+00     9.4999999999986817E-01     0.0000000000000000E+00 
    4.7500000000196618E-01     1.0000000000000000E+00     0.0000000000000000E+00 
    9.2499999999968763E-01     1.0000000000000000E+00     0.0000000000000000E+00 
    8.7499999999961831E-01     1.0000000000000000E+00     0.0000000000000000E+00 
    8.2499999999982654E-01     1.0000000000000000E+00     0.0000000000000000E+00 
    7.7500000000017355E-01     1.0000000000000000E+00     0.0000000000000000E+00 
    7.2500000000052045E-01     1.0000000000000000E+00     0.0000000000000000E+00 
    6.7500000000086724E-01     1.0000000000000000E+00     0.0000000000000000E+00 
    6.2500000000121403E-01     1.0000000000000000E+00     0.0000000000000000E+00 
    5.7500000000156093E-01     1.0000000000000000E+00     0.0000000000000000E+00 
    5.2500000000189684E-01     1.0000000000000000E+00     0.0000000000000000E+00 
    9.7499999999989595E-01     1.0000000000000000E+00     0.0000000000000000E+00 
    4.2500000000176902E-01     1.0000000000000000E+00     0.0000000000000000E+00 
    3.7500000000156092E-01     1.0000000000000000E+00     0.0000000000000000E+00 
    3.2500000000135282E-01     1.0000000000000000E+00     0.0000000000000000E+00 
    2.7500000000114472E-01     1.0000000000000000E+00     0.0000000000000000E+00 
    2.2500000000093659E-01     1.0000000000000000E+00     0.0000000000000000E+00 
    1.7500000000072849E-01     1.0000000000000000E+00     0.0000000000000000E+00 
    1.2500000000052039E-01     1.0000000000000000E+00     0.0000000000000000E+00 
    7.5000000000312261E-02     1.0000000000000000E+00     0.0000000000000000E+00 
    2.5000000000104109E-02     1.0000000000000000E+00     0.0000000000000000E+00 
    4.5000000000187301E-01     1.0000000000000000E+00     0.0000000000000000E+00 
    8.9999999999958358E-01     1.0000000000000000E+00     0.0000000000000000E+00 
    8.4999999999965303E-01     1.0000000000000000E+00     0.0000000000000000E+00 
    8.0000000000000004E-01     1.0000000000000000E+00     0.0000000000000000E+00 
    7.5000000000034706E-01     1.0000000000000000E+00     0.0000000000000000E+00 
    7.0000000000069384E-01     1.0000000000000000E+00     0.0000000000000000E+00 
    6.5000000000104063E-01     1.0000000000000000E+00     0.0000000000000000E+00 
    6.0000000000138742E-01     1.0000000000000000E+00     0.0000000000000000E+00 
    5.5000000000173432E-01     1.0000000000000000E+00     0.0000000000000000E+00 
    5.0000000000205946E-01     1.0000000000000000E+00     0.0000000000000000E+00 
    9.4999999999979179E-01     1.0000000000000000E+00     0.0000000000000000E+00 
    4.0000000000166491E-01     1.0000000000000000E+00     0.0000000000000000E+00 
    3.5000000000145681E-01     1.0000000000000000E+00     0.0000000000000000E+00 
    3.0000000000124871E-01     1.0000000000000000E+00     0.0000000000000000E+00 
    2.5000000000104061E-01     1.0000000000000000E+00     0.0000000000000000E+00 
    2.0000000000083251E-01     1.0000000000000000E+00     0.0000000000000000E+00 
    1.5000000000062441E-01     1.0000000000000000E+00     0.0000000000000000E+00 
    1.0000000000041630E-01     1.0000000000000000E+00     0.0000000000000000E+00 
[...]
CELL_DATA 1600 
SCALARS Pressure double 1 
LOOKUP_TABLE default 

    1.1552937031106936E+00 
    1.1092361551866121E+00 
    1.1068527720204020E+00 
    1.1397116070231703E+00 
    1.1272875060340655E+00 
    1.1032533919490779E+00 
    1.0990964503470886E+00 
    1.1171188676739345E+00 
    1.1086048117329832E+00 
    1.0947529721827745E+00 
    1.0904285816280788E+00 
    1.1013337727317405E+00 
    1.0950165274184793E+00 
    1.0862319240532883E+00 
    1.0822158096917831E+00 
    1.0894458624100043E+00 
    1.0844709904370693E+00 
    1.0784017015504441E+00 
    1.0747940309141755E+00 
    1.0799808983757961E+00 
    1.0758929181973582E+00 
    1.0713883450483337E+00 
    1.0681754776455137E+00 
    1.0721443876326344E+00 
    1.0686864185024523E+00 
    1.0651439568305074E+00 
    1.0622816396062111E+00 
    1.0654799648863864E+00 
    1.0624940300147718E+00 
    1.0595771093905269E+00 
    1.0570202701275075E+00 
    1.0597043262984960E+00 
    1.0570916328530156E+00 
    1.0546023174637358E+00 
    1.0523155033479388E+00 
    1.0546404355303975E+00 
    1.0523381030607100E+00 
    1.0501530543902233E+00 
    1.0481089624095627E+00 
    1.0501741917376044E+00 
    1.0481398146968239E+00 
    1.0461778400796276E+00 
    1.0443549899788347E+00 
    1.0462274875876796E+00 
    1.0444311797883914E+00 
    1.0426366196109123E+00 
    1.0410196800682074E+00 
    1.0427460782324509E+00 
    1.0411682469520160E+00 
    1.0395016182466779E+00 
    1.0380802491177408E+00 
    1.0396943939535319E+00 
    1.0383218069045204E+00 
    1.0367538044716604E+00 
    1.0355209260472278E+00 
    1.0370483443272240E+00 
    1.0358724022798149E+00 
    1.0343806368895312E+00 
    1.0333322786432950E+00 
    1.0347928155014212E+00 
    1.0338087473395043E+00 
    1.0323754743575091E+00 
    1.0315101181562465E+00 
    1.0329197330117108E+00 
    1.0321256629993782E+00 
    1.0307364019525884E+00 
    1.0300547616610758E+00 
    1.0314266876496743E+00 
    1.0308232879396733E+00 
    1.0294658669263317E+00 
    1.0289710443373825E+00 
    1.0303165552993634E+00 
    1.0299059583376966E+00 
    1.0285695805989841E+00 
    1.0282100894460311E+00 
    1.0295400933622014E+00 
    1.0292603216761456E+00 
    1.0279346034357233E+00 
    1.0278044109211708E+00 
    1.0291279205372807E+00 
    1.0857653874646673E+00 
    1.0687320349109104E+00 
    1.0683611149591381E+00 
    1.0850046640203330E+00 
    1.0836071356497670E+00 
    1.0676440683889830E+00 
    1.0666214876225861E+00 
    1.0817237985308437E+00 
    1.0794963509803124E+00 
    1.0653419773938275E+00 
    1.0638555939375243E+00 
    1.0770431457233678E+00 
    1.0744565514660833E+00 
    1.0622094570062415E+00 
    1.0604456756154432E+00 
    1.0718058625556670E+00 
    1.0691416641566434E+00 
    1.0586004055635552E+00 
    1.0567039792396160E+00 
    1.0664999893686533E+00 
    1.0639058196281759E+00 
    1.0547812104283310E+00 
    1.0528521527476644E+00 
    1.0613758067147985E+00 
    1.0589207202349435E+00 
    1.0509330188845309E+00 
    1.0490368020967529E+00 
    1.0565472936499349E+00 
    1.0542596735656129E+00 
    1.0471737966346071E+00 
    1.0453522436375360E+00 
    1.0520602860454835E+00 
    1.0499503600480777E+00 
    1.0435786457852800E+00 
    1.0418580393451911E+00 
    1.0479302258556282E+00 
    1.0459996015692943E+00 
    1.0401942568077007E+00 
    1.0385903271993566E+00 
    1.0441577415225696E+00 
    1.0424036423406096E+00 
    1.0370486373773311E+00 
    1.0355712047081473E+00 
    1.0407363116107367E+00 
    1.0391550188149321E+00 
    1.0341598560370391E+00 
    1.0328161080097242E+00 
    1.0376591614767943E+00 
    1.0362481711882596E+00 
    1.0315411792602396E+00 
    1.0303362043482542E+00 
    1.0349215499463231E+00 
    1.0336789603925991E+00 
    1.0292022622189521E+00 
    1.0281403650391872E+00 
    1.0325202290008739E+00 
    1.0314453669168233E+00 
    1.0271515195534198E+00 
    1.0262368048035544E+00 
    1.0304545506322216E+00 
    1.0295480912258415E+00 
    1.0253972510153324E+00 
    1.0246339522349150E+00 
    1.0287264656807051E+00 
    1.0279903532388222E+00 
    1.0239481377821220E+00 
    1.0233410166988000E+00 
    1.0273405750581859E+00 
    1.0267781157101719E+00 
    1.0228138681100307E+00 
    1.0223688401431219E+00 
    1.0263047247467210E+00 
    1.0259193701772291E+00 
    1.0220038305145469E+00 
    1.0216717590317610E+00 
    1.0255717740250678E+00 
    1.0253051299273457E+00 
    1.0214178543196182E+00 
    1.0212987691516697E+00 
    1.0251794952043851E+00 
    1.0543111287428362E+00 
    1.0411128730656984E+00 
    1.0409643162088174E+00 
    1.0540890710602957E+00 
    1.0536529558080145E+00 
    1.0406706577852460E+00 
    1.0402384277919787E+00 
    1.0530173279623616E+00 
    1.0522016512031869E+00 
    1.0396767373967855E+00 
    1.0389965573317508E+00 
    1.0512282579141903E+00 
    1.0501203080790651E+00 
    1.0382099699978717E+00 
    1.0373297291309631E+00 
    1.0489005841950392E+00 
    1.0475907352457527E+00 
    1.0363688884768905E+00 
    1.0353405491750682E+00 
    1.0462110124501076E+00 
    1.0447797859896237E+00 
    1.0342573108203732E+00 
    1.0331308484843873E+00 
    1.0433133063886284E+00 
    1.0418260005358027E+00 
    1.0319721638420276E+00 
    1.0307913868800465E+00 
    1.0403304310986050E+00 
    1.0388373122217096E+00 
    1.0295975618203159E+00 
    1.0283989154563151E+00 
    1.0373559130692631E+00 
    1.0358941769815462E+00 
    1.0272029116463577E+00 
    1.0260161883906220E+00 
    1.0344587510123036E+00 
    1.0330552034768503E+00 
    1.0248446331649843E+00 
    1.0236937162733628E+00 
    1.0316884743069368E+00 
    1.0303628819973039E+00 
    1.0225683973948836E+00 
    1.0214729834626490E+00 
    1.0290821431743680E+00 
    1.0278496206473176E+00 
    1.0204114557198576E+00 
    1.0193874081627370E+00 
    1.0266682123637310E+00 
    1.0255403773456626E+00 
    1.0184039782130814E+00 
    1.0174641253426986E+00 
    1.0244684187441708E+00 
    1.0234545097590633E+00 
    1.0165706667740888E+00 
    1.0157261535422777E+00 
    1.0225006032377877E+00 
    1.0216084863660944E+00 
    1.0149328695734781E+00 
    1.0141930681880735E+00 
    1.0207799547684142E+00 
    1.0200166929850463E+00 
    1.0135088936450203E+00 
    1.0128822800884589E+00 
    1.0193203064385499E+00 
    1.0186924972912199E+00 
    1.0123152017426957E+00 
    1.0118095570930503E+00 
    1.0181348797510585E+00 
    1.0176489136769735E+00 
    1.0113669324590400E+00 
    1.0109897445105605E+00 
    1.0172369230497353E+00 
    1.0168937104043476E+00 
    1.0106677646200031E+00 
    1.0103683000656591E+00 
    1.0165779404409514E+00 
    1.0163390273231296E+00 
    1.0101463461459752E+00 
    1.0100435022440750E+00 
    1.0162276581230731E+00 
    1.0284880787755530E+00 
    1.0160881113935387E+00 
    1.0160079132739397E+00 
    1.0283815457848080E+00 
    1.0281702669894575E+00 
    1.0158485535692108E+00 
    1.0156119835832613E+00 
    1.0278576446616214E+00 
    1.0274484441612337E+00 
    1.0153009863168154E+00 
    1.0149191540316096E+00 
    1.0269485670042879E+00 
    1.0263649976702454E+00 
    1.0144710455262003E+00 
    1.0139618164350586E+00 
    1.0257056140044631E+00 
    1.0249787226677161E+00 
    1.0133968642145530E+00 
    1.0127817209170236E+00 
    1.0241927852519275E+00 
    1.0233562258997002E+00 
    1.0121221420863380E+00 
    1.0114239442903810E+00 
    1.0224772271972553E+00 
    1.0215637712011947E+00 
    1.0106929610235469E+00 
    1.0099349037986023E+00 
    1.0206235302915725E+00 
    1.0196636349551422E+00 
    1.0091553400766944E+00 
    1.0083596980789811E+00 
    1.0186908220858462E+00 
    1.0177114786170065E+00 
    1.0075532851586086E+00 
    1.0067411243156021E+00 
    1.0167315762287135E+00 
    1.0157566170494270E+00 
    1.0059279738886469E+00 
    1.0051183795854415E+00 
    1.0147917646122393E+00 
    1.0138417947614973E+00 
    1.0043166052554107E+00 
    1.0035266276803536E+00 
    1.0129110094270501E+00 
    1.0120034212814675E+00 
    1.0027522775839217E+00 
    1.0019971408016399E+00 
    1.0111227911368545E+00 
    1.0102725287045440E+00 
    1.0012645866424787E+00 
    1.0005578281749690E+00 
    1.0094558453462934E+00 
    1.0086757918989122E+00 
    9.9987993496243166E-01 
    9.9923374298912071E-01 
    1.0079351921107704E+00 
    1.0072366106099742E+00 
    9.9862193164011959E-01 
    9.9804712458664024E-01 
    1.0065825230974521E+00 
    1.0059753064570882E+00 
    9.9751178732127155E-01 
    9.9701823494219088E-01 
    1.0054170968790086E+00 
    1.0049099525660043E+00 
    9.9656875058841810E-01 
    9.9616543425714821E-01 
    1.0044558364921949E+00 
    1.0040564472867730E+00 
    9.9581046698520070E-01 
    9.9550621204224343E-01 
    1.0037141776191743E+00 
    1.0034122646029577E+00 
    9.9522616493757277E-01 
    9.9495864613661722E-01 
    1.0031292110901575E+00 
    1.0029258265260552E+00 
    9.9477123905758680E-01 
    9.9468470291978583E-01 
    1.0028321011385457E+00 
    1.0037076669922194E+00 
    9.9121733679272517E-01 
    9.9116704296469826E-01 
    1.0036450829237333E+00 
    1.0035205403174068E+00 
    9.9106687066212573E-01 
    9.9091767317888946E-01 
    1.0033352648665750E+00 
    1.0030910776330859E+00 
    9.9072079760253384E-01 
    9.9047808291001660E-01 
    1.0027904980999276E+00 
    1.0024366751961975E+00 
    9.9019169957193054E-01 
    9.8986396801202059E-01 
    1.0020330113788671E+00 
    1.0015830460154154E+00 
    9.8949741825671156E-01 
    9.8909493119679803E-01 
    1.0010906583959926E+00 
    1.0005599698973664E+00 
    9.8865959274471049E-01 
    9.8819459795647546E-01 
    9.9999520258537378E-01 
    9.9940073303965082E-01 
    9.8770328957194109E-01 
    9.8718910765097134E-01 
    9.9878093657161271E-01 
    9.9814015594107108E-01 
    9.8665545164350288E-01 
    9.8610576151589446E-01 
    9.9748274685016247E-01 
    9.9681301161642055E-01 
    9.8554347590613600E-01 
    9.8497196188266400E-01 
    9.9613505622138165E-01 
    9.9545280176221840E-01 
    9.8439448626675707E-01 
    9.8381435349510249E-01 
    9.9477016677039809E-01 
    9.9409088431886938E-01 
    9.8323481473130103E-01 
    9.8265893507501367E-01 
    9.9341846443692738E-01 
    9.9275642296236921E-01 
    9.8208980549373381E-01 
    9.8153042982556127E-01 
    9.9210807809028645E-01 
    9.9147653543712655E-01 
    9.8098359333709484E-01 
    9.8045207173152082E-01 
    9.9086483608135378E-01 
    9.9027594399795349E-01 
    9.7993858954934676E-01 
    9.7944574548108043E-01 
    9.8971261909746677E-01 
    9.8917748741239986E-01 
    9.7897601937063405E-01 
    9.7853190770258569E-01 
    9.8867321882652726E-01 
    9.8820233528076284E-01 
    9.7811584257584927E-01 
    9.7773016022070625E-01 
    9.8776727768680683E-01 
    9.8737058569782410E-01 
    9.7737726671605818E-01 
    9.7705954232426273E-01 
    9.8701471123149553E-01 
    9.8670288049492239E-01 
    9.7678083824827089E-01 
    9.7654331156940777E-01 
    9.8643773299115134E-01 
    9.8618208168345611E-01 
    9.7630557682140096E-01 
    9.7607150683417943E-01 
    9.8593027221413398E-01 
    9.8575515606197062E-01 
    9.7591141770769652E-01 
    9.7583326211573529E-01 
    9.8567245036270212E-01 
    9.7853289428729928E-01 
    9.6559858274255383E-01 
    9.6556375915281378E-01 
    9.7849149067020735E-01 
    9.7840898760441042E-01 
    9.6549436218238105E-01 
    9.6539088702275699E-01 
    9.7828602597655823E-01 
    9.7812361727024211E-01 
    9.6525408963677706E-01 
    9.6508492614152142E-01 
    9.7792309936078436E-01 
    9.7768600991913956E-01 
    9.6488456220108787E-01 
    9.6465436300487850E-01 
    9.7741406511550977E-01 
    9.7710921097544134E-01 
    9.6439588819406796E-01 
    9.6411095141112768E-01 
    9.7677369963648453E-01 
    9.7640993912171992E-01 
    9.6380149506037915E-01 
    9.6346946184790960E-01 
    9.7602039775678928E-01 
    9.7560771705297611E-01 
    9.6311694761390165E-01 
    9.6274609411615752E-01 
    9.7517459692550457E-01 
    9.7472368274183407E-01 
    9.6235903835980463E-01 
    9.6195806767156122E-01 
    9.7425774363121875E-01 
    9.7377959436721429E-01 
    9.6154555951140075E-01 
    9.6112385081012264E-01 
    9.7329201258266340E-01 
    9.7279774346278414E-01 
    9.6069525995861049E-01 
    9.6026221760925357E-01 
    9.7229960626706080E-01 
    9.7180039329757051E-01 
    9.5982711121164688E-01 
    9.5939223157154885E-01 
    9.7130274246878023E-01 
    9.7080937062649753E-01 
    9.5895995769173681E-01 
    9.5853261465808393E-01 
    9.7032292279429344E-01 
    9.6984584815489949E-01 
    9.5811238526647435E-01 
    9.5770148335129179E-01 
    9.6938065086707093E-01 
    9.6892979622142961E-01 
    9.5730215013119091E-01 
    9.5691646206377412E-01 
    9.6849560459974038E-01 
    9.6808028551766090E-01 
    9.5654634919776071E-01 
    9.5619381988569541E-01 
    9.6768609365398239E-01 
    9.6731516721933164E-01 
    9.5586068740027708E-01 
    9.5554846212580258E-01 
    9.6696943565136306E-01 
    9.6665090303900802E-01 
    9.5525862163967901E-01 
    9.5499268308725238E-01 
    9.6636144777907984E-01 
    9.6610411162457899E-01 
    9.5475205769252602E-01 
    9.5452381592568569E-01 
    9.6587636772761165E-01 
    9.6564071451629241E-01 
    9.5427983462605304E-01 
    9.5407555318973503E-01 
    9.6542307500855085E-01 
    9.6528252808719295E-01 
    9.5395347845874834E-01 
    9.5389234257771016E-01 
    9.6521257374641234E-01 
    9.5237796207673342E-01 
    9.3884776848192264E-01 
    9.3882159716191971E-01 
    9.5234808733299414E-01 
    9.5228853946557090E-01 
    9.3876940685343158E-01 
    9.3869150990498529E-01 
    9.5219970289175060E-01 
    9.5208214202731689E-01 
    9.3858833042065715E-01 
    9.3846044357567560E-01 
    9.5193656672067395E-01 
    9.5176390161199809E-01 
    9.3830859296744018E-01 
    9.3813370265818941E-01 
    9.5156525716975437E-01 
    9.5134191771266940E-01 
    9.3793683310984655E-01 
    9.3771921579879702E-01 
    9.5109536849710297E-01 
    9.5082718397080601E-01 
    9.3748212703962730E-01 
    9.3722687371707902E-01 
    9.5053893043947146E-01 
    9.5023230063836051E-01 
    9.3695490270109716E-01 
    9.3666776634456228E-01 
    9.4990906354837601E-01 
    9.4957106152212289E-01 
    9.3636707358326421E-01 
    9.3605451105921689E-01 
    9.4922023513193055E-01 
    9.4885860609774708E-01 
    9.3573183812961636E-01 
    9.3540080100384038E-01 
    9.4848818255808820E-01 
    9.4811096983461962E-01 
    9.3506314498261744E-01 
    9.3472071492968511E-01 
    9.4772905831043575E-01 
    9.4734451645960938E-01 
    9.3437535407582817E-01 
    9.3402886339732860E-01 
    9.4695938769103083E-01 
    9.4657574633745212E-01 
    9.3368312071577708E-01 
    9.3334002507598923E-01 
    9.4619567125132031E-01 
    9.4582117823817691E-01 
    9.3300141484473309E-01 
    9.3266914953045421E-01 
    9.4545425547854267E-01 
    9.4509695049140952E-01 
    9.3234515706319299E-01 
    9.3203128476769470E-01 
    9.4475120690525294E-01 
    9.4441886588461377E-01 
    9.3172936738679035E-01 
    9.3144134946371127E-01 
    9.4410181435386487E-01 
    9.4380180750352882E-01 
    9.3116919334243986E-01 
    9.3091487992849353E-01 
    9.4352041308380841E-01 
    9.4325912306965065E-01 
    9.3068069707684764E-01 
    9.3047036347070577E-01 
    9.4302011757054860E-01 
    9.4280425728307460E-01 
    9.3028528148258516E-01 
    9.3007993997130156E-01 
    9.4258173762794806E-01 
    9.4233110081741356E-01 
    9.2983237258909635E-01 
    9.2963368873968377E-01 
    9.4213284084874072E-01 
    9.4201830262532404E-01 
    9.2951336757623981E-01 
    9.2945332003839642E-01 
    9.4196072407082165E-01 
    9.2499408429733965E-01 
    9.1080945547178505E-01 
    9.1078782806388170E-01 
    9.2497060319727409E-01 
    9.2492377112753799E-01 
    9.1074469073973097E-01 
    9.1068026046544359E-01 
    9.2485384315120700E-01 
    9.2476116922314788E-01 
    9.1059485023278341E-01 
    9.1048890892306922E-01 
    9.2464623171210947E-01 
    9.2450967058189382E-01 
    9.1036301597658753E-01 
    9.1021785423731838E-01 
    9.2435226783898583E-01 
    9.2417490311516270E-01 
    9.1005416761325442E-01 
    9.0987283422624765E-01 
    9.2397859997166631E-01 
    9.2376443672099384E-01 
    9.0967481623682001E-01 
    9.0946116104503982E-01 
    9.2353355021323658E-01 
    9.2328726228371882E-01 
    9.0923310164251914E-01 
    9.0899189514219758E-01 
    9.2302697245677801E-01 
    9.2275407534752818E-01 
    9.0873877755269117E-01 
    9.0847509700137419E-01 
    9.2247006156881095E-01 
    9.2217651360165143E-01 
    9.0820228964752969E-01 
    9.0792175759472415E-01 
    9.2187497593106915E-01 
    9.2156697570499257E-01 
    9.0763489458486946E-01 
    9.0734325393517679E-01 
    9.2125419754688076E-01 
    9.2093831521282910E-01 
    9.0704837355158974E-01 
    9.0675171448184566E-01 
    9.2062091060925311E-01 
    9.2030374036969775E-01 
    9.0645491614273044E-01 
    9.0615956494341054E-01 
    9.1998854513677730E-01 
    9.1967695878043110E-01 
    9.0586717033155451E-01 
    9.0557932004255814E-01 
    9.1937071621424815E-01 
    9.1907160941880017E-01 
    9.0529762164446104E-01 
    9.0502359387412823E-01 
    9.1878132630439224E-01 
    9.1850150457496382E-01 
    9.0475863914062238E-01 
    9.0450423932297375E-01 
    9.1823395541978592E-01 
    9.1798047728243493E-01 
    9.0426169610653173E-01 
    9.0403195713238194E-01 
    9.1774274944890966E-01 
    9.1752303003541502E-01 
    9.0381640624736059E-01 
    9.0361547752184901E-01 
    9.1732445216725189E-01 
    9.1714509617611473E-01 
    9.0341575444338562E-01 
    9.0318321167581395E-01 
    9.1694014401870338E-01 
    9.1670606243362796E-01 
    9.0296057541155172E-01 
    9.0280412687014622E-01 
    9.1652271228723914E-01 
    9.1640427213559006E-01 
    9.0269972662897258E-01 
    9.0264735134017515E-01 
    9.1634528272784543E-01 
    8.9629040670367921E-01 
    8.8143746178254756E-01 
    8.8141755074844264E-01 
    8.9626993325331361E-01 
    8.9622909467958356E-01 
    8.8137782860354841E-01 
    8.8131847863076385E-01 
    8.9616808494159350E-01 
    8.9608721252804979E-01 
    8.8123980277872671E-01 
    8.8114222153886568E-01 
    8.9598690870142605E-01 
    8.9586772067913201E-01 
    8.8102628148400342E-01 
    8.8089257856926884E-01 
    8.9573027426691398E-01 
    8.9557524684103018E-01 
    8.8074176844219887E-01 
    8.8057461443722573E-01 
    8.9540342794787786E-01 
    8.9521572285699280E-01 
    8.8039200750458713E-01 
    8.8019492058811200E-01 
    8.9501314453806124E-01 
    8.9479682343428069E-01 
    8.7998440599399552E-01 
    8.7976153477058650E-01 
    8.9456789779087631E-01 
    8.9432751280945944E-01 
    8.7952738946533915E-01 
    8.7928315568917215E-01 
    8.9407691327641081E-01 
    8.9381741742121301E-01 
    8.7903009519009179E-01 
    8.7876948815373912E-01 
    8.9355034149885193E-01 
    8.9327702159322386E-01 
    8.7850262539924595E-01 
    8.7823089835283341E-01 
    8.9299890009765970E-01 
    8.9271743163624895E-01 
    8.7795573634120505E-01 
    8.7767855159369523E-01 
    8.9243404292527695E-01 
    8.9215026305783696E-01 
    8.7740081133628056E-01 
    8.7712399557920928E-01 
    8.9186758509996922E-01 
    8.9158748912109120E-01 
    8.7684955775123963E-01 
    8.7657900241902975E-01 
    8.9131149185737613E-01 
    8.9104111544102904E-01 
    8.7631387591097176E-01 
    8.7605574143184695E-01 
    8.9077786432869710E-01 
    8.9052318306802913E-01 
    8.7580620440480583E-01 
    8.7556705720883543E-01 
    8.9027859012852506E-01 
    8.9004545474660535E-01 
    8.7534010763479475E-01 
    8.7512750428342523E-01 
    8.8982504944569107E-01 
    8.8961939389717415E-01 
    8.7493259903902421E-01 
    8.7475542735458667E-01 
    8.8942800328292326E-01 
    8.8921577621062864E-01 
    8.7453944369243464E-01 
    8.7425453823491239E-01 