# vtk DataFile Version 2.0
Pressure Field Data 
ASCII 
DATASET UNSTRUCTURED_GRID 

POINTS 1681 double 

    0.0000000000000000E+00     0.0000000000000000E+00     0.0000000000000000E+00 
    1.0000000000000000E+00     0.0000000000000000E+00     0.0000000000000000E+00 
    1.0000000000000000E+00     1.0000000000000000E+00     0.0000000000000000E+00 
    0.0000000000000000E+00     1.0000000000000000E+00     0.0000000000000000E+00 
    5.2499999999875258E-01     0.0000000000000000E+00     0.0000000000000000E+00 
    7.4999999999856765E-02     0.0000000000000000E+00     0.0000000000000000E+00 
    1.2499999999975850E-01     0.0000000000000000E+00     0.0000000000000000E+00 
    1.7499999999962990E-01     0.0000000000000000E+00     0.0000000000000000E+00 
    2.2499999999948389E-01     0.0000000000000000E+00     0.0000000000000000E+00 
    2.7499999999933789E-01     0.0000000000000000E+00     0.0000000000000000E+00 
    3.2499999999919210E-01     0.0000000000000000E+00     0.0000000000000000E+00 
    3.7499999999904610E-01     0.0000000000000000E+00     0.0000000000000000E+00 
    4.2499999999890020E-01     0.0000000000000000E+00     0.0000000000000000E+00 
    4.7499999999875958E-01     0.0000000000000000E+00     0.0000000000000000E+00 
    2.4999999999949701E-02     0.0000000000000000E+00     0.0000000000000000E+00 
    5.7499999999887907E-01     0.0000000000000000E+00     0.0000000000000000E+00 
    6.2499999999901101E-01     0.0000000000000000E+00     0.0000000000000000E+00 
    6.7499999999914273E-01     0.0000000000000000E+00     0.0000000000000000E+00 
    7.2499999999927467E-01     0.0000000000000000E+00     0.0000000000000000E+00 
    7.7499999999940661E-01     0.0000000000000000E+00     0.0000000000000000E+00 
    8.2499999999953844E-01     0.0000000000000000E+00     0.0000000000000000E+00 
    8.7499999999967026E-01     0.0000000000000000E+00     0.0000000000000000E+00 
    9.2499999999980220E-01     0.0000000000000000E+00     0.0000000000000000E+00 
    9.7499999999993414E-01     0.0000000000000000E+00     0.0000000000000000E+00 
    5.4999999999881310E-01     0.0000000000000000E+00     0.0000000000000000E+00 
    9.9999999999814140E-02     0.0000000000000000E+00     0.0000000000000000E+00 
    1.4999999999970290E-01     0.0000000000000000E+00     0.0000000000000000E+00 
    1.9999999999955689E-01     0.0000000000000000E+00     0.0000000000000000E+00 
    2.4999999999941089E-01     0.0000000000000000E+00     0.0000000000000000E+00 
    2.9999999999926502E-01     0.0000000000000000E+00     0.0000000000000000E+00 
    3.4999999999911913E-01     0.0000000000000000E+00     0.0000000000000000E+00 
    3.9999999999897312E-01     0.0000000000000000E+00     0.0000000000000000E+00 
    4.4999999999882723E-01     0.0000000000000000E+00     0.0000000000000000E+00 
    4.9999999999869210E-01     0.0000000000000000E+00     0.0000000000000000E+00 
    4.9999999999899403E-02     0.0000000000000000E+00     0.0000000000000000E+00 
    5.9999999999894504E-01     0.0000000000000000E+00     0.0000000000000000E+00 
    6.4999999999907687E-01     0.0000000000000000E+00     0.0000000000000000E+00 
    6.9999999999920870E-01     0.0000000000000000E+00     0.0000000000000000E+00 
    7.4999999999934064E-01     0.0000000000000000E+00     0.0000000000000000E+00 
    7.9999999999947247E-01     0.0000000000000000E+00     0.0000000000000000E+00 
    8.4999999999960441E-01     0.0000000000000000E+00     0.0000000000000000E+00 
    8.9999999999973623E-01     0.0000000000000000E+00     0.0000000000000000E+00 
    9.4999999999986817E-01     0.0000000000000000E+00     0.0000000000000000E+00 
    1.0000000000000000E+00     5.2499999999875258E-01     0.0000000000000000E+00 
    1.0000000000000000E+00     7.4999999999856765E-02     0.0000000000000000E+00 
    1.0000000000000000E+00     1.2499999999975850E-01     0.0000000000000000E+00 
    1.0000000000000000E+00     1.7499999999962990E-01     0.0000000000000000E+00 
    1.0000000000000000E+00     2.2499999999948389E-01     0.0000000000000000E+00 
    1.0000000000000000E+00     2.7499999999933789E-01     0.0000000000000000E+00 
    1.0000000000000000E+00     3.2499999999919210E-01     0.0000000000000000E+00 
    1.0000000000000000E+00     3.7499999999904610E-01     0.0000000000000000E+00 
    1.0000000000000000E+00     4.2499999999890020E-01     0.0000000000000000E+00 
    1.0000000000000000E+00     4.7499999999875958E-01     0.0000000000000000E+00 
    1.0000000000000000E+00     2.4999999999949701E-02     0.0000000000000000E+00 
    1.0000000000000000E+00     5.7499999999887907E-01     0.0000000000000000E+00 
    1.0000000000000000E+00     6.2499999999901101E-01     0.0000000000000000E+00 
    1.0000000000000000E+00     6.7499999999914273E-01     0.0000000000000000E+00 
    1.0000000000000000E+00     7.2499999999927467E-01     0.0000000000000000E+00 
    1.0000000000000000E+00     7.7499999999940661E-01     0.0000000000000000E+00 
    1.0000000000000000E+00     8.2499999999953844E-01     0.0000000000000000E+00 
    1.0000000000000000E+00     8.7499999999967026E-01     0.0000000000000000E+00 
    1.0000000000000000E+00     9.2499999999980220E-01     0.0000000000000000E+00 
    1.0000000000000000E+00     9.7499999999993414E-01     0.0000000000000000E+00 
    1.0000000000000000E+00     5.4999999999881310E-01     0.0000000000000000E+00 
    1.0000000000000000E+00     9.9999999999814140E-02     0.0000000000000000E+00 
    1.0000000000000000E+00     1.4999999999970290E-01     0.0000000000000000E+00 
    1.0000000000000000E+00     1.9999999999955689E-01     0.0000000000000000E+00 
    1.0000000000000000E+00     2.4999999999941089E-01     0.0000000000000000E+00 
    1.0000000000000000E+00     2.9999999999926502E-01     0.0000000000000000E+00 
    1.0000000000000000E+00     3.4999999999911913E-01     0.0000000000000000E+00 
    1.0000000000000000E+00     3.9999999999897312E-01     0.0000000000000000E+00 
    1.0000000000000000E+00     4.4999999999882723E-01     0.0000000000000000E+00 
    1.0000000000000000E+00     4.9999999999869210E-01     0.0000000000000000E+00 
    1.0000000000000000E+00     4.9999999999899403E-02     0.0000000000000000E+00 
    1.0000000000000000E+00     5.9999999999894504E-01     0.0000000000000000E+00 
    1.0000000000000000E+00     6.4999999999907687E-01     0.0000000000000000E+00 
    1.0000000000000000E+00     6.9999999999920870E-01     0.0000000000000000E+00 
    1.0000000000000000E+00     7.4999999999934064E-01     0.0000000000000000E+00 
    1.0000000000000000E+00     7.9999999999947247E-01     0.0000000000000000E+00 
    1.0000000000000000E+00     8.4999999999960441E-01     0.0000000000000000E+00 
    1.0000000000000000E+00     8.9999999999973623E-01     0.0000000000000000E+00 
    1.0000000000000000E+00     9.4999999999986817E-01     0.0000000000000000E+00 
    4.7500000000196618E-01     1.0000000000000000E+00     0.0000000000000000E+00 
    9.2499999999968763E-01     1.0000000000000000E+00     0.0000000000000000E+00 
    8.7499999999961831E-01     1.0000000000000000E+00     0.0000000000000000E+00 
    8.2499999999982654E-01     1.0000000000000000E+00     0.0000000000000000E+00 
    7.7500000000017355E-01     1.0000000000000000E+00     0.0000000000000000E+00 
    7.2500000000052045E-01     1.0000000000000000E+00     0.0000000000000000E+00 
    6.7500000000086724E-01     1.0000000000000000E+00     0.0000000000000000E+00 
    6.2500000000121403E-01     1.0000000000000000E+00     0.0000000000000000E+00 
    5.7500000000156093E-01     1.0000000000000000E+00     0.0000000000000000E+00 
    5.2500000000189684E-01     1.0000000000000000E+00     0.0000000000000000E+00 
    9.7499999999989595E-01     1.0000000000000000E+00     0.0000000000000000E+00 
    4.2500000000176902E-01     1.0000000000000000E+00     0.0000000000000000E+00 
    3.7500000000156092E-01     1.0000000000000000E+00     0.0000000000000000E+00 
    3.2500000000135282E-01     1.0000000000000000E+00     0.0000000000000000E+00 
    2.7500000000114472E-01     1.0000000000000000E+00     0.0000000000000000E+00 
    2.2500000000093659E-01     1.0000000000000000E+00     0.0000000000000000E+00 
    1.7500000000072849E-01     1.0000000000000000E+00     0.0000000000000000E+00 
    1.2500000000052039E-01     1.0000000000000000E+00     0.0000000000000000E+00 
    7.5000000000312261E-02     1.0000000000000000E+00     0.0000000000000000E+00 
    2.5000000000104109E-02     1.0000000000000000E+00     0.0000000000000000E+00 
    4.5000000000187301E-01     1.0000000000000000E+00     0.0000000000000000E+00 
    8.9999999999958358E-01     1.0000000000000000E+00     0.0000000000000000E+00 
    8.4999999999965303E-01     1.0000000000000000E+00     0.0000000000000000E+00 
    8.0000000000000004E-01     1.0000000000000000E+00     0.0000000000000000E+00 
    7.5000000000034706E-01     1.0000000000000000E+00     0.0000000000000000E+00 
    7.0000000000069384E-01     1.0000000000000000E+00     0.0000000000000000E+00 
    6.5000000000104063E-01     1.0000000000000000E+00     0.0000000000000000E+00 
    6.0000000000138742E-01     1.0000000000000000E+00     0.0000000000000000E+00 
    5.5000000000173432E-01     1.0000000000000000E+00     0.0000000000000000E+00 
    5.0000000000205946E-01     1.0000000000000000E+00     0.0000000000000000E+00 
    9.4999999999979179E-01     1.0000000000000000E+00     0.0000000000000000E+00 
    4.0000000000166491E-01     1.0000000000000000E+00     0.0000000000000000E+00 
    3.5000000000145681E-01     1.0000000000000000E+00     0.0000000000000000E+00 
    3.0000000000124871E-01     1.0000000000000000E+00     0.0000000000000000E+00 
    2.5000000000104061E-01     1.0000000000000000E+00     0.0000000000000000E+00 
    2.0000000000083251E-01     1.0000000000000000E+00     0.0000000000000000E+00 
    1.5000000000062441E-01     1.0000000000000000E+00     0.0000000000000000E+00 
    1.0000000000041630E-01     1.0000000000000000E+00     0.0000000000000000E+00 
[...]
CELL_DATA 1600 
SCALARS Pressure double 1 
LOOKUP_TABLE default 

    1.3834990213759375E+00 
    1.3357789285695980E+00 
    1.3332740021571718E+00 
    1.3677609828059587E+00 
    1.3550755213052268E+00 
    1.3294422311299077E+00 
    1.3249378101229388E+00 
    1.3445045365485611E+00 
    1.3354668324990602E+00 
    1.3201413555155195E+00 
    1.3152711655086773E+00 
    1.3275727143874079E+00 
    1.3205583385649409E+00 
    1.3104505096498289E+00 
    1.3057430130164434E+00 
    1.3142315603936545E+00 
    1.3084473008037025E+00 
    1.3011787141793458E+00 
    1.2967726175130221E+00 
    1.3031035704595080E+00 
    1.2981290988084779E+00 
    1.2925309798394953E+00 
    1.2884528350933868E+00 
    1.2934702710769226E+00 
    1.2890837880710990E+00 
    1.2845326518368749E+00 
    1.2807638357645885E+00 
    1.2849347032144522E+00 
    1.2809976138260941E+00 
    1.2771411354173248E+00 
    1.2736597992781946E+00 
    1.2772538184625477E+00 
    1.2736877618254381E+00 
    1.2703148217791902E+00 
    1.2671016273432738E+00 
    1.2702866474923689E+00 
    1.2670406332548210E+00 
    1.2640165884104533E+00 
    1.2610567655117375E+00 
    1.2639421030876254E+00 
    1.2609848111719695E+00 
    1.2582196263039926E+00 
    1.2555030366608206E+00 
    1.2581637003315607E+00 
    1.2554748984777750E+00 
    1.2529054638214527E+00 
    1.2504257698476324E+00 
    1.2529153565771929E+00 
    1.2504826935901996E+00 
    1.2480631226265133E+00 
    1.2458169347070509E+00 
    1.2481750682036368E+00 
    1.2459908085696765E+00 
    1.2436866568750558E+00 
    1.2416727688583045E+00 
    1.2439287817580700E+00 
    1.2419932515667458E+00 
    1.2397829018012718E+00 
    1.2379873736703757E+00 
    1.2401638617855739E+00 
    1.2382093235936125E+00 
    1.2360304924767267E+00 
    1.2340588139004129E+00 
    1.2362325421783025E+00 
    1.2345596259151881E+00 
    1.2324181242695365E+00 
    1.2309909558188048E+00 
    1.2331078133010851E+00 
    1.2318677060397909E+00 
    1.2297712640944296E+00 
    1.2287573467381576E+00 
    1.2308372613815037E+00 
    1.2300148259424599E+00 
    1.2279478255315333E+00 
    1.2273416155627241E+00 
    1.2293991075795681E+00 
    1.2289891545845617E+00 
    1.2269379169375623E+00 
    1.2267361983229821E+00 
    1.2287843403789640E+00 
    1.3097127250826222E+00 
    1.2892465908630566E+00 
    1.2887845654562460E+00 
    1.3088454806654619E+00 
    1.3072385590293989E+00 
    1.2878876298475586E+00 
    1.2865998197301964E+00 
    1.3050475639758743E+00 
    1.3024220103759687E+00 
    1.2849742330855285E+00 
    1.2830667258438597E+00 
    1.2994876863332741E+00 
    1.2963454798811243E+00 
    1.2809313806045162E+00 
    1.2786172393671531E+00 
    1.2930732213980136E+00 
    1.2897302926051726E+00 
    1.2761673197602676E+00 
    1.2736185658651762E+00 
    1.2863616562113740E+00 
    1.2830002723109062E+00 
    1.2710019428555066E+00 
    1.2683434297940954E+00 
    1.2796694423805810E+00 
    1.2763861170993511E+00 
    1.2656651911293557E+00 
    1.2629856748017663E+00 
    1.2731632137468656E+00 
    1.2700105945172837E+00 
    1.2603198938076374E+00 
    1.2576804042973433E+00 
    1.2669353844825453E+00 
    1.2639427051520959E+00 
    1.2550777568612281E+00 
    1.2525207871745976E+00 
    1.2610364852612455E+00 
    1.2582199172760178E+00 
    1.2500169036937001E+00 
    1.2475725534632229E+00 
    1.2554955574908053E+00 
    1.2528654139227942E+00 
    1.2451931708314432E+00 
    1.2428834154715902E+00 
    1.2503311437709255E+00 
    1.2478943375020661E+00 
    1.2406475041998959E+00 
    1.2384890227237788E+00 
    1.2455563804040377E+00 
    1.2433184537961228E+00 
    1.2364109361241225E+00 
    1.2344156514647517E+00 
    1.2411815106485207E+00 
    1.2391460235729417E+00 
    1.2325049962521946E+00 
    1.2306841001424946E+00 
    1.2372144802156271E+00 
    1.2353945681356433E+00 
    1.2289529803675066E+00 
    1.2271997510826724E+00 
    1.2336343247660886E+00 
    1.2316899057701949E+00 
    1.2252732093727192E+00 
    1.2234549582282492E+00 
    1.2297662783030661E+00 
    1.2281813242805191E+00 
    1.2219361066251435E+00 
    1.2206104736006529E+00 
    1.2267993377784732E+00 
    1.2256170587227315E+00 
    1.2194757560954601E+00 
    1.2185313043244026E+00 
    1.2246334707701219E+00 
    1.2238476960246607E+00 
    1.2177765191169156E+00 
    1.2172108940327762E+00 
    1.2232590094887996E+00 
    1.2228668595369976E+00 
    1.2168340317263937E+00 
    1.2166456628238103E+00 
    1.2226708713763956E+00 
    1.2707544583242312E+00 
    1.2529649414176491E+00 
    1.2527482003616355E+00 
    1.2704543581439645E+00 
    1.2698632844629718E+00 
    1.2523189940659751E+00 
    1.2516856077559233E+00 
    1.2689977043319587E+00 
    1.2678805953834784E+00 
    1.2508598120807957E+00 
    1.2498557053966068E+00 
    1.2665392466268313E+00 
    1.2650017297636240E+00 
    1.2486889955678675E+00 
    1.2473766318981419E+00 
    1.2632957434966197E+00 
    1.2614481674007703E+00 
    1.2459357585769311E+00 
    1.2443835761827329E+00 
    1.2594846924049303E+00 
    1.2574289546949096E+00 
    1.2427367520306041E+00 
    1.2410107147835865E+00 
    1.2553020415139724E+00 
    1.2531231916141436E+00 
    1.2392204802009703E+00 
    1.2373801979416794E+00 
    1.2509094545271611E+00 
    1.2486756282500153E+00 
    1.2355026069119468E+00 
    1.2335996817294415E+00 
    1.2464351113074030E+00 
    1.2441999077457628E+00 
    1.2316826212380756E+00 
    1.2297614940397636E+00 
    1.2419803840135655E+00 
    1.2397855056791609E+00 
    1.2278452871605807E+00 
    1.2259424855714303E+00 
    1.2376235314133479E+00 
    1.2355017652939853E+00 
    1.2240607908439840E+00 
    1.2222068012257943E+00 
    1.2334264608028602E+00 
    1.2314034124508391E+00 
    1.2203867641470258E+00 
    1.2186064787246405E+00 
    1.2294377075699852E+00 
    1.2275336093610361E+00 
    1.2168710085115488E+00 
    1.2151853787940312E+00 
    1.2256948235540017E+00 
    1.2239253805917520E+00 
    1.2135550719906001E+00 
    1.2119748364287917E+00 
    1.2222308684890093E+00 
    1.2205857467272614E+00 
    1.2103372764218758E+00 
    1.2084867893172739E+00 
    1.2188029139416567E+00 
    1.2169030490532553E+00 
    1.2066781081069395E+00 
    1.2051384384756889E+00 
    1.2152221448332612E+00 
    1.2137751436261079E+00 
    1.2037795370516560E+00 
    1.2025916863738890E+00 
    1.2125122661654253E+00 
    1.2114316241515726E+00 
    1.2015743354073680E+00 
    1.2007271020420682E+00 
    1.2105322983813740E+00 
    1.2098135944707100E+00 
    1.2000496763864621E+00 
    1.1995418164572951E+00 
    1.2092749949425159E+00 
    1.2089161288054704E+00 
    1.1992033435659237E+00 
    1.1990341385946566E+00 
    1.2087367574560928E+00 
    1.2352916951935540E+00 
    1.2174371925234513E+00 
    1.2173037918553253E+00 
    1.2351253592540397E+00 
    1.2347951217995037E+00 
    1.2170384411952595E+00 
    1.2166438189951025E+00 
    1.2343055668719782E+00 
    1.2336630503934705E+00 
    1.2161237847117290E+00 
    1.2154835270550950E+00 
    1.2328756977635773E+00 
    1.2319534556343170E+00 
    1.2147295385669326E+00 
    1.2138688729825775E+00 
    1.2309072842813638E+00 
    1.2297482816579812E+00 
    1.2129091430236978E+00 
    1.2118587558836342E+00 
    1.2284879237174169E+00 
    1.2271380810816952E+00 
    1.2107265857227609E+00 
    1.2095213460373144E+00 
    1.2257103628203470E+00 
    1.2242162541650357E+00 
    1.2082517858106256E+00 
    1.2069264832890094E+00 
    1.2226669160777346E+00 
    1.2210727486197532E+00 
    1.2055537117097934E+00 
    1.2041416069392228E+00 
    1.2194437327284069E+00 
    1.2177894520472747E+00 
    1.2026982105018880E+00 
    1.2012311576020840E+00 
    1.2161188721767413E+00 
    1.2144402427026151E+00 
    1.1997476011731629E+00 
    1.1982542766432061E+00 
    1.2127613048406136E+00 
    1.2110891071031484E+00 
    1.1967572946241469E+00 
    1.1952622214318682E+00 
    1.2094298476330225E+00 
    1.2077894447685082E+00 
    1.1937747418104157E+00 
    1.1923005906500597E+00 
    1.2061736704907116E+00 
    1.2045879281369209E+00 
    1.1908450370138406E+00 
    1.1894097389283156E+00 
    1.2030378702774773E+00 
    1.2015237576049023E+00 
    1.1879559324891837E+00 
    1.1863397092375498E+00 
    1.1999878768448935E+00 
    1.1982585652785136E+00 
    1.1845140877009974E+00 
    1.1827921689615231E+00 
    1.1964052948171497E+00 
    1.1947622640581947E+00 
    1.1813063631479603E+00 
    1.1799774353788544E+00 
    1.1933394395256749E+00 
    1.1920741476539449E+00 
    1.1787961702757594E+00 
    1.1777624250055647E+00 
    1.1909661323240637E+00 
    1.1900159453131984E+00 
    1.1768762409528661E+00 
    1.1761376652157809E+00 
    1.1892239012351764E+00 
    1.1885901684458307E+00 
    1.1755467492361198E+00 
    1.1751035310885261E+00 
    1.1881148321882511E+00 
    1.1877979305333937E+00 
    1.1748080366690696E+00 
    1.1746602777436521E+00 
    1.1876394768060101E+00 
    1.1992238378136488E+00 
    1.1805164555611629E+00 
    1.1804208449495912E+00 
    1.1991126031355419E+00 
    1.1988909709252213E+00 
    1.1802301733429859E+00 
    1.1799456288504695E+00 
    1.1985606487728946E+00 
    1.1981243653961302E+00 
    1.1795693156609481E+00 
    1.1791041294042073E+00 
    1.1975858968225026E+00 
    1.1969497730123106E+00 
    1.1785535950214254E+00 
    1.1779217364924126E+00 
    1.1962209967138435E+00 
    1.1954052400276673E+00 
    1.1772127927630363E+00 
    1.1764312813553457E+00 
    1.1945089009631789E+00 
    1.1935384311925523E+00 
    1.1755819246804544E+00 
    1.1746696051324461E+00 
    1.1925001794224721E+00 
    1.1914008914270822E+00 
    1.1736996205095425E+00 
    1.1726774504535862E+00 
    1.1902473162135789E+00 
    1.1890459558642643E+00 
    1.1716083495609839E+00 
    1.1704977171656639E+00 
    1.1878033852702576E+00 
    1.1865262345419263E+00 
    1.1693510018251709E+00 
    1.1681734780014732E+00 
    1.1852209145831933E+00 
    1.1838934808740427E+00 
    1.1669702081825510E+00 
    1.1657464153323243E+00 
    1.1825499141967593E+00 
    1.1811958428057101E+00 
    1.1645073731406743E+00 
    1.1632578556306015E+00 
    1.1798363533942506E+00 
    1.1784770508669680E+00 
    1.1620011348617145E+00 
    1.1607320501955245E+00 
    1.1771232445600950E+00 
    1.1757745540809472E+00 
    1.1593976932300414E+00 
    1.1578764255048428E+00 
    1.1743941945936005E+00 
    1.1728531145634613E+00 
    1.1561011209346121E+00 
    1.1543033606732598E+00 
    1.1710671840447844E+00 
    1.1692927610940109E+00 
    1.1527280811858283E+00 
    1.1513352855906358E+00 
    1.1677462482411500E+00 
    1.1663743045595549E+00 
    1.1500700020253827E+00 
    1.1489311057136145E+00 
    1.1651401389899059E+00 
    1.1640431343539723E+00 
    1.1479186994226516E+00 
    1.1470328317187635E+00 
    1.1630832565753229E+00 
    1.1622604919536985E+00 
    1.1462735220738438E+00 
    1.1456407742008579E+00 
    1.1615748404751023E+00 
    1.1610263081752337E+00 
    1.1451345846097654E+00 
    1.1447549500047256E+00 
    1.1606149022813124E+00 
    1.1603406280637698E+00 
    1.1445018665532452E+00 
    1.1443753326006143E+00 
    1.1602034909151469E+00 
    1.1612341693275179E+00 
    1.1413512510438952E+00 
    1.1412753689654671E+00 
    1.1611499784200112E+00 
    1.1609821788764942E+00 
    1.1411243487094740E+00 
    1.1408995898649223E+00 
    1.1607319410862424E+00 
    1.1604008971075597E+00 
    1.1406025011161698E+00 
    1.1402343349475421E+00 
    1.1599910389206345E+00 
    1.1595050755890470E+00 
    1.1397968792420192E+00 
    1.1392922556125278E+00 
    1.1589461731211312E+00 
    1.1583172970926474E+00 
    1.1387227292389963E+00 
    1.1380912238740186E+00 
    1.1576217649513283E+00 
    1.1568633881637751E+00 
    1.1374008378946534E+00 
    1.1366548164195482E+00 
    1.1560461005412919E+00 
    1.1551742765997757E+00 
    1.1358570322233115E+00 
    1.1350113084156139E+00 
    1.1542525196165707E+00 
    1.1532851466967609E+00 
    1.1341211354266962E+00 
    1.1331903820729792E+00 
    1.1522766949489389E+00 
    1.1512317520938564E+00 
    1.1322230807370555E+00 
    1.1312229777512399E+00 
    1.1501548224064535E+00 
    1.1490504549600422E+00 
    1.1301923627952506E+00 
    1.1291303880132748E+00 
    1.1479228984568484E+00 
    1.1467753338739564E+00 
    1.1280247092689017E+00 
    1.1268221854263103E+00 
    1.1456066812874064E+00 
    1.1443996700793353E+00 
    1.1254211324511920E+00 
    1.1237456054748749E+00 
    1.1430699658867605E+00 
    1.1415031679271221E+00 
    1.1219110485044415E+00 
    1.1201652719234465E+00 
    1.1397069490168508E+00 
    1.1379142419444781E+00 
    1.1186254922123322E+00 
    1.1172495190152769E+00 
    1.1363378761408807E+00 
    1.1349411843431896E+00 
    1.1159822786453468E+00 
    1.1148217326421979E+00 
    1.1336630194995585E+00 
    1.1325017549825243E+00 
    1.1137674550712453E+00 
    1.1128191315745866E+00 
    1.1314570963864148E+00 
    1.1305288376893134E+00 
    1.1119765297966848E+00 
    1.1112394854846566E+00 
    1.1297168330675456E+00 
    1.1290209726376392E+00 
    1.1106078841192688E+00 
    1.1100816387975958E+00 
    1.1284411840281006E+00 
    1.1279774092079600E+00 
    1.1096606902059536E+00 
    1.1093449998671083E+00 
    1.1276296120839604E+00 
    1.1273977667715160E+00 
    1.1091345528019461E+00 
    1.1090293476017254E+00 
    1.1272818623264327E+00 
    1.1208628330013399E+00 
    1.0997573023938170E+00 
    1.0996939903377958E+00 
    1.1207933326364301E+00 
    1.1206547507845184E+00 
    1.0995668072566911E+00 
    1.0993753275965501E+00 
    1.1204480345637631E+00 
    1.1201744902316120E+00 
    1.0991202723252529E+00 
    1.0988038704166800E+00 
    1.1198357820894214E+00 
    1.1194334215282140E+00 
    1.0984280036458778E+00 
    1.0979936096329692E+00 
    1.1189685106209981E+00 
    1.1184430439821249E+00 
    1.0975016771524924E+00 
    1.0969529904058177E+00 
    1.1178594469378296E+00 
    1.1172195546460528E+00 
    1.0963480466143674E+00 
    1.0956873178098778E+00 
    1.1165259944227532E+00 
    1.1157822655267449E+00 
    1.0949709829447114E+00 
    1.0941995776098499E+00 
    1.1149912544460447E+00 
    1.1141554224745869E+00 
    1.0933734555214236E+00 
    1.0924914413573432E+00 
    1.1132774581124938E+00 
    1.1123590888314410E+00 
    1.0915310925071326E+00 
    1.0904218957698635E+00 
    1.1113970251741863E+00 
    1.1103806482063407E+00 
    1.0890944399595592E+00 
    1.0875326167410988E+00 
    1.1092596116335314E+00 
    1.1079356507124778E+00 
    1.0857695374679246E+00 
    1.0839655540210362E+00 
    1.1063583370876531E+00 
    1.1045658133509872E+00 
    1.0822852840652493E+00 
    1.0807986720521285E+00 
    1.1027422458404932E+00 
    1.1010960156474925E+00 
    1.0794665517821411E+00 
    1.0782228383382748E+00 
    1.0996427890868981E+00 
    1.0983180248664000E+00 
    1.0770613190502469E+00 
    1.0759816733554304E+00 
    1.0970898596221261E+00 
    1.0959565439788961E+00 
    1.0749840344638266E+00 
    1.0740685694706578E+00 
    1.0949179009579904E+00 
    1.0939737986678852E+00 
    1.0732354724257720E+00 
    1.0724849571478181E+00 
    1.0931241370418265E+00 
    1.0923688718823885E+00 
    1.0718172189975876E+00 
    1.0712324587396860E+00 
    1.0917079766989302E+00 
    1.0911414508176138E+00 
    1.0707308636696784E+00 
    1.0703125911768163E+00 
    1.0906692996149656E+00 
    1.0902915418077457E+00 
    1.0699777792791700E+00 
    1.0697265450070337E+00 
    1.0900081846671013E+00 
    1.0898192533425719E+00 
    1.0695589653386153E+00 
    1.0694750900857735E+00 
    1.0897247475927343E+00 
    1.0779924842283433E+00 
    1.0553482915220391E+00 
    1.0552968871529544E+00 
    1.0779357839415120E+00 
    1.0778216044822044E+00 
    1.0551923002958266E+00 
    1.0550315868509597E+00 
    1.0776484378739313E+00 
    1.0774146718297424E+00 
    1.0548094857292356E+00 
    1.0545171897906429E+00 
    1.0771193255080620E+00 
    1.0767619850437926E+00 
    1.0541409695592896E+00 
    1.0536603091686028E+00 
    1.0763426412137549E+00 
    1.0758609959763021E+00 
    1.0530507942938736E+00 
    1.0522950967301115E+00 
    1.0753171632568539E+00 
    1.0747109459413318E+00 
    1.0513868190156297E+00 
    1.0503326733237917E+00 
    1.0740370640264263E+00 
    1.0732811251938832E+00 
    1.0491470729765868E+00 
    1.0478410300478773E+00 
    1.0724131979863871E+00 
    1.0713866259778557E+00 
    1.0464198164381275E+00 
    1.0449021264774214E+00 
    1.0701686558089525E+00 
    1.0687546902265292E+00 
    1.0433409227972041E+00 
    1.0418230554948833E+00 
    1.0671534495369634E+00 
    1.0654254546838284E+00 
    1.0404371981298199E+00 
    1.0392057580129956E+00 
    1.0636989206012253E+00 
    1.0620902088422230E+00 
    1.0380681634176483E+00 
    1.0369769448334476E+00 
    1.0606668560010097E+00 
    1.0593883918767599E+00 
    1.0359299955561416E+00 
    1.0349297626650722E+00 
    1.0581880912473602E+00 
    1.0570540716682955E+00 
    1.0339784694677197E+00 
    1.0330781761762888E+00 
    1.0559864221923785E+00 
    1.0549859518543723E+00 
    1.0322307126077321E+00 
    1.0314377070686171E+00 
    1.0540534527980145E+00 
    1.0531896797313263E+00 
    1.0307006172240896E+00 
    1.0300207341130054E+00 
    1.0523953417287570E+00 
    1.0516710927168065E+00 
    1.0293992059925132E+00 
    1.0288370676969596E+00 
    1.0510175329217708E+00 
    1.0504352050492602E+00 
    1.0283351999242973E+00 
    1.0278943910394052E+00 
    1.0499245947998983E+00 
    1.0494861189783720E+00 
    1.0275153232788243E+00 
    1.0271985739887073E+00 
    1.0491201492881130E+00 
    1.0488269903026046E+00 
    1.0269446119348669E+00 
    1.0267538283036002E+00 
    1.0486068898036511E+00 
    1.0484600230071872E+00 
    1.0266264974667658E+00 
    1.0265628200528325E+00 
    1.0483865116841629E+00 
    1.0302063125180625E+00 
    1.0016464663224756E+00 
    1.0015199378085782E+00 
    1.0300940953673901E+00 
    1.0298707910679830E+00 
    1.0012711348375352E+00 
    1.0009069540185331E+00 
    1.0295393765923941E+00 
    1.0291055308954442E+00 
    1.0004373336103867E+00 
    9.9987513373688364E-01 
    1.0285745883037705E+00 
    1.0279475347816334E+00 
    9.9923771707059528E-01 
    9.9854936874453737E-01 
    1.0272181828619353E+00 
    1.0263774596934965E+00 
    9.9784075034360331E-01 
    9.9713802630813819E-01 
    1.0254220351117380E+00 
    1.0243561245225430E+00 
    9.9645330063461768E-01 
    9.9578335136495522E-01 
    1.0232002175169013E+00 
    1.0219852338527560E+00 
    9.9511210652641091E-01 
    9.9442164816321732E-01 
    1.0207557952234854E+00 
    1.0195670163864199E+00 
    9.9369992015098019E-01 
    9.9295171068652632E-01 
    1.0184653436129714E+00 
    1.0174607134265774E+00 
    9.9219356450696616E-01 
    9.9143483753514250E-01 
    1.0165127500018891E+00 
    1.0155791615922700E+00 
    9.9067906306402553E-01 
    9.8992984333971024E-01 
    1.0146536242583584E+00 
    1.0137463127163395E+00 
    9.8919161290691471E-01 
    9.8846853402245360E-01 
    1.0128623499845117E+00 
    1.0120062722271028E+00 
    9.8776445014197323E-01 
    9.8708288938237509E-01 
    1.0111819712180103E+00 
    1.0103927752926840E+00 
    9.8642704930084235E-01 
    9.8579983502003732E-01 
    1.0096415665105190E+00 
    1.0089308657503864E+00 
    9.8520386559685935E-01 
    9.8464150416518625E-01 
    1.0082628910633997E+00 
    1.0076395954190422E+00 
    9.8411486861881792E-01 
    9.8362586933016005E-01 
    1.0070627109236803E+00 
    1.0065337610851566E+00 
    9.8317621391941035E-01 
    9.8276740115582839E-01 
    1.0060540972803418E+00 
    1.0056248875931746E+00 
    9.8240077986762508E-01 
    9.8207750632784196E-01 
    1.0052471656297497E+00 
    1.0049218085859635E+00 
    9.8179858603914827E-01 
    9.8156488243069373E-01 