# vtk DataFile Version 2.0
Pressure Field Data 
ASCII 
DATASET UNSTRUCTURED_GRID 

POINTS 1681 double 

    0.0000000000000000E+00     0.0000000000000000E+00     0.0000000000000000E+00 
    1.0000000000000000E+00     0.0000000000000000E+00     0.0000000000000000E+00 
    1.0000000000000000E+00     1.0000000000000000E+00     0.0000000000000000E+00 
    0.0000000000000000E+00     1.0000000000000000E+00     0.0000000000000000E+00 
    5.2499999999875258E-01     0.0000000000000000E+00     0.0000000000000000E+00 
    7.4999999999856765E-02     0.0000000000000000E+00     0.0000000000000000E+00 
    1.2499999999975850E-01     0.0000000000000000E+00     0.0000000000000000E+00 
    1.7499999999962990E-01     0.0000000000000000E+00     0.0000000000000000E+00 
    2.2499999999948389E-01     0.0000000000000000E+00     0.0000000000000000E+00 
    2.7499999999933789E-01     0.0000000000000000E+00     0.0000000000000000E+00 
    3.2499999999919210E-01     0.0000000000000000E+00     0.0000000000000000E+00 
    3.7499999999904610E-01     0.0000000000000000E+00     0.0000000000000000E+00 
    4.2499999999890020E-01     0.0000000000000000E+00     0.0000000000000000E+00 
    4.7499999999875958E-01     0.0000000000000000E+00     0.0000000000000000E+00 
    2.4999999999949701E-02     0.0000000000000000E+00     0.0000000000000000E+00 
    5.7499999999887907E-01     0.0000000000000000E+00     0.0000000000000000E+00 
    6.2499999999901101E-01     0.0000000000000000E+00     0.0000000000000000E+00 
    6.7499999999914273E-01     0.0000000000000000E+00     0.0000000000000000E+00 
    7.2499999999927467E-01     0.0000000000000000E+00     0.0000000000000000E+00 
    7.7499999999940661E-01     0.0000000000000000E+00     0.0000000000000000E+00 
    8.2499999999953844E-01     0.0000000000000000E+00     0.0000000000000000E+00 
    8.7499999999967026E-01     0.0000000000000000E+00     0.0000000000000000E+00 
    9.2499999999980220E-01     0.0000000000000000E+00     0.0000000000000000E+00 
    9.7499999999993414E-01     0.0000000000000000E+00     0.0000000000000000E+00 
    5.4999999999881310E-01     0.0000000000000000E+00     0.0000000000000000E+00 
    9.9999999999814140E-02     0.0000000000000000E+00     0.0000000000000000E+00 
    1.4999999999970290E-01     0.0000000000000000E+00     0.0000000000000000E+00 
    1.9999999999955689E-01     0.0000000000000000E+00     0.0000000000000000E+00 
    2.4999999999941089E-01     0.0000000000000000E+00     0.0000000000000000E+00 
    2.9999999999926502E-01     0.0000000000000000E+00     0.0000000000000000E+00 
    3.4999999999911913E-01     0.0000000000000000E+00     0.0000000000000000E+00 
    3.9999999999897312E-01     0.0000000000000000E+00     0.0000000000000000E+00 
    4.4999999999882723E-01     0.0000000000000000E+00     0.0000000000000000E+00 
    4.9999999999869210E-01     0.0000000000000000E+00     0.0000000000000000E+00 
    4.9999999999899403E-02     0.0000000000000000E+00     0.0000000000000000E+00 
    5.9999999999894504E-01     0.0000000000000000E+00     0.0000000000000000E+00 
    6.4999999999907687E-01     0.0000000000000000E+00     0.0000000000000000E+00 
    6.9999999999920870E-01     0.0000000000000000E+00     0.0000000000000000E+00 
    7.4999999999934064E-01     0.0000000000000000E+00     0.0000000000000000E+00 
    7.9999999999947247E-01     0.0000000000000000E+00     0.0000000000000000E+00 
    8.4999999999960441E-01     0.0000000000000000E+00     0.0000000000000000E+00 
    8.9999999999973623E-01     0.0000000000000000E+00     0.0000000000000000E+00 
    9.4999999999986817E-01     0.0000000000000000E+00     0.0000000000000000E+00 
    1.0000000000000000E+00     5.2499999999875258E-01     0.0000000000000000E+00 
    1.0000000000000000E+00     7.4999999999856765E-02     0.0000000000000000E+00 
    1.0000000000000000E+00     1.2499999999975850E-01     0.0000000000000000E+00 
    1.0000000000000000E+00     1.7499999999962990E-01     0.0000000000000000E+00 
    1.0000000000000000E+00     2.2499999999948389E-01     0.0000000000000000E+00 
    1.0000000000000000E+00     2.7499999999933789E-01     0.0000000000000000E+00 
    1.0000000000000000E+00     3.2499999999919210E-01     0.0000000000000000E+00 
    1.0000000000000000E+00     3.7499999999904610E-01     0.0000000000000000E+00 
    1.0000000000000000E+00     4.2499999999890020E-01     0.0000000000000000E+00 
    1.0000000000000000E+00     4.7499999999875958E-01     0.0000000000000000E+00 
    1.0000000000000000E+00     2.4999999999949701E-02     0.0000000000000000E+00 
    1.0000000000000000E+00     5.7499999999887907E-01     0.0000000000000000E+00 
    1.0000000000000000E+00     6.2499999999901101E-01     0.0000000000000000E+00 
    1.0000000000000000E+00     6.7499999999914273E-01     0.0000000000000000E+00 
    1.0000000000000000E+00     7.2499999999927467E-01     0.0000000000000000E+00 
    1.0000000000000000E+00     7.7499999999940661E-01     0.0000000000000000E+00 
    1.0000000000000000E+00     8.2499999999953844E-01     0.0000000000000000E+00 
    1.0000000000000000E+00     8.7499999999967026E-01     0.0000000000000000E+00 
    1.0000000000000000E+00     9.2499999999980220E-01     0.0000000000000000E+00 
    1.0000000000000000E+00     9.7499999999993414E-01     0.0000000000000000E+00 
    1.0000000000000000E+00     5.4999999999881310E-01     0.0000000000000000E+00 
    1.0000000000000000E+00     9.9999999999814140E-02     0.0000000000000000E+00 
    1.0000000000000000E+00     1.4999999999970290E-01     0.0000000000000000E+00 
    1.0000000000000000E+00     1.9999999999955689E-01     0.0000000000000000E+00 
    1.0000000000000000E+00     2.4999999999941089E-01     0.0000000000000000E+00 
    1.0000000000000000E+00     2.9999999999926502E-01     0.0000000000000000E+00 
    1.0000000000000000E+00     3.4999999999911913E-01     0.0000000000000000E+00 
    1.0000000000000000E+00     3.9999999999897312E-01     0.0000000000000000E+00 
    1.0000000000000000E+00     4.4999999999882723E-01     0.0000000000000000E+00 
    1.0000000000000000E+00     4.9999999999869210E-01     0.0000000000000000E+00 
    1.0000000000000000E+00     4.9999999999899403E-02     0.0000000000000000E+00 
    1.0000000000000000E+00     5.9999999999894504E-01     0.0000000000000000E+00 
    1.0000000000000000E+00     6.4999999999907687E-01     0.0000000000000000E+00 
    1.0000000000000000E+00     6.9999999999920870E-01     0.0000000000000000E+00 
    1.0000000000000000E+00     7.4999999999934064E-01     0.0000000000000000E+00 
    1.0000000000000000E+00     7.9999999999947247E-01     0.0000000000000000E+00 
    1.0000000000000000E+00     8.4999999999960441E-01     0.0000000000000000E+00 
    1.0000000000000000E+00     8.9999999999973623E-01     0.0000000000000000E+00 
    1.0000000000000000E+00     9.4999999999986817E-01     0.0000000000000000E+00 
    4.7500000000196618E-01     1.0000000000000000E+00     0.0000000000000000E+00 
    9.2499999999968763E-01     1.0000000000000000E+00     0.0000000000000000E+00 
    8.7499999999961831E-01     1.0000000000000000E+00     0.0000000000000000E+00 
    8.2499999999982654E-01     1.0000000000000000E+00     0.0000000000000000E+00 
    7.7500000000017355E-01     1.0000000000000000E+00     0.0000000000000000E+00 
    7.2500000000052045E-01     1.0000000000000000E+00     0.0000000000000000E+00 
    6.7500000000086724E-01     1.0000000000000000E+00     0.0000000000000000E+00 
    6.2500000000121403E-01     1.0000000000000000E+00     0.0000000000000000E+00 
    5.7500000000156093E-01     1.0000000000000000E+00     0.0000000000000000E+00 
    5.2500000000189684E-01     1.0000000000000000E+00     0.0000000000000000E+00 
    9.7499999999989595E-01     1.0000000000000000E+00     0.0000000000000000E+00 
    4.2500000000176902E-01     1.0000000000000000E+00     0.0000000000000000E+00 
    3.7500000000156092E-01     1.0000000000000000E+00     0.0000000000000000E+00 
    3.2500000000135282E-01     1.0000000000000000E+00     0.0000000000000000E+00 
    2.7500000000114472E-01     1.0000000000000000E+00     0.0000000000000000E+00 
    2.2500000000093659E-01     1.0000000000000000E+00     0.0000000000000000E+00 
    1.7500000000072849E-01     1.0000000000000000E+00     0.0000000000000000E+00 
    1.2500000000052039E-01     1.0000000000000000E+00     0.0000000000000000E+00 
    7.5000000000312261E-02     1.0000000000000000E+00     0.0000000000000000E+00 
    2.5000000000104109E-02     1.0000000000000000E+00     0.0000000000000000E+00 
    4.5000000000187301E-01     1.0000000000000000E+00     0.0000000000000000E+00 
    8.9999999999958358E-01     1.0000000000000000E+00     0.0000000000000000E+00 
    8.4999999999965303E-01     1.0000000000000000E+00     0.0000000000000000E+00 
    8.0000000000000004E-01     1.0000000000000000E+00     0.0000000000000000E+00 
    7.5000000000034706E-01     1.0000000000000000E+00     0.0000000000000000E+00 
    7.0000000000069384E-01     1.0000000000000000E+00     0.0000000000000000E+00 
    6.5000000000104063E-01     1.0000000000000000E+00     0.0000000000000000E+00 
    6.0000000000138742E-01     1.0000000000000000E+00     0.0000000000000000E+00 
    5.5000000000173432E-01     1.0000000000000000E+00     0.0000000000000000E+00 
    5.0000000000205946E-01     1.0000000000000000E+00     0.0000000000000000E+00 
    9.4999999999979179E-01     1.0000000000000000E+00     0.0000000000000000E+00 
    4.0000000000166491E-01     1.0000000000000000E+00     0.0000000000000000E+00 
    3.5000000000145681E-01     1.0000000000000000E+00     0.0000000000000000E+00 
    3.0000000000124871E-01     1.0000000000000000E+00     0.0000000000000000E+00 
    2.5000000000104061E-01     1.0000000000000000E+00     0.0000000000000000E+00 
    2.0000000000083251E-01     1.0000000000000000E+00     0.0000000000000000E+00 
    1.5000000000062441E-01     1.0000000000000000E+00     0.0000000000000000E+00 
    1.0000000000041630E-01     1.0000000000000000E+00     0.0000000000000000E+00 
[...]
CELL_DATA 1600 
SCALARS Pressure double 1 
LOOKUP_TABLE default 

    1.0257016587226013E+00 
    9.7988239281785094E-01 
    9.7751260234377713E-01 
    1.0101386779759165E+00 
    9.9774249069818732E-01 
    9.7393841358874511E-01 
    9.6981963554961326E-01 
    9.8761657409600978E-01 
    9.7915931444131177E-01 
    9.6552710169967859E-01 
    9.6126555899885580E-01 
    9.7195737786922287E-01 
    9.6572028937804699E-01 
    9.5714285993343007E-01 
    9.5321085104978276E-01 
    9.6023989670409327E-01 
    9.5536435190735169E-01 
    9.4948975086108134E-01 
    9.4598243678240557E-01 
    9.5098109646674789E-01 
    9.4700552740963029E-01 
    9.4268284957890824E-01 
    9.3958068602450651E-01 
    9.4337329890134014E-01 
    9.4003488606577412E-01 
    9.3666406946011593E-01 
    9.3392071824903600E-01 
    9.3695145069711927E-01 
    9.3409180971806482E-01 
    9.3133857544392051E-01 
    9.2890632978998855E-01 
    9.3143057689973185E-01 
    9.2894717686037187E-01 
    9.2661392978012003E-01 
    9.2445265980279456E-01 
    9.2662504594112971E-01 
    9.2445077046303759E-01 
    9.2241500549503819E-01 
    9.2049445028171883E-01 
    9.2241333671471815E-01 
    9.2050361083403920E-01 
    9.1868537373006198E-01 
    9.1698287553978475E-01 
    9.1871398624416944E-01 
    9.1703802941135248E-01 
    9.1538266187607820E-01 
    9.1388095744142728E-01 
    9.1547022473795214E-01 
    9.1400598353291218E-01 
    9.1247459549039867E-01 
    9.1116102567252744E-01 
    9.1264162254525916E-01 
    9.1137417393834297E-01 
    9.0993820770024658E-01 
    9.0880444454980214E-01 
    9.1020118389311644E-01 
    9.0912065330334457E-01 
    9.0775835537275540E-01 
    9.0679889808221326E-01 
    9.0813103037403842E-01 
    9.0723115645652319E-01 
    9.0592536763857545E-01 
    9.0513734334759199E-01 
    9.0642025854464925E-01 
    9.0569789870594253E-01 
    9.0443468106413905E-01 
    9.0381748390441430E-01 
    9.0506390348181764E-01 
    9.0451843476034255E-01 
    9.0328611482330723E-01 
    9.0284121784465821E-01 
    9.0406200190515507E-01 
    9.0369539514611763E-01 
    9.0248374316409252E-01 
    9.0221485955010672E-01 
    9.0341961796562376E-01 
    9.0320429231220456E-01 
    9.0200424986059879E-01 
    9.0188282513516249E-01 
    9.0308054795371939E-01 
    9.5680564190517514E-01 
    9.4031826201204283E-01 
    9.3995861531917846E-01 
    9.5605700300916718E-01 
    9.5468346526530767E-01 
    9.3926389006171129E-01 
    9.3827432991306114E-01 
    9.5283614173409203E-01 
    9.5065616902665750E-01 
    9.3703792539280295E-01 
    9.3560406212239544E-01 
    9.4826118720294905E-01 
    9.4574281579027486E-01 
    9.3401919401468025E-01 
    9.3232475989133834E-01 
    9.4316937125941613E-01 
    9.4059033946040849E-01 
    9.3055631707057007E-01 
    9.2874363630561607E-01 
    9.3804068326909729E-01 
    9.3554451838331310E-01 
    9.2691097263427324E-01 
    9.2507773929071668E-01 
    9.3311792681539651E-01 
    9.3077121546872055E-01 
    9.2325932118939957E-01 
    9.2146776389102247E-01 
    9.2851044436157681E-01 
    9.2633874723160914E-01 
    9.1971240654349085E-01 
    9.1800059672253620E-01 
    9.2425740089881625E-01 
    9.2226661875235938E-01 
    9.1633806925140182E-01 
    9.1472925610783340E-01 
    9.2036592338508016E-01 
    9.1855442157419809E-01 
    9.1317755396923095E-01 
    9.1168563985697049E-01 
    9.1683097682615389E-01 
    9.1519433264948480E-01 
    9.1025549971526420E-01 
    9.0888857219238717E-01 
    9.1364312071582976E-01 
    9.1217596708743687E-01 
    9.0758597444414912E-01 
    9.0634861281440049E-01 
    9.1079155858766858E-01 
    9.0948880089054318E-01 
    9.0517728924811725E-01 
    9.0407280604178464E-01 
    9.0826686071299922E-01 
    9.0712509463747437E-01 
    9.0303588155056802E-01 
    9.0206712097605513E-01 
    9.0606295481511345E-01 
    9.0508004039288670E-01 
    9.0116712187487624E-01 
    9.0033659215033945E-01 
    9.0417615131421525E-01 
    9.0335127685556005E-01 
    8.9957624408834569E-01 
    8.9888685466362817E-01 
    9.0260558140514580E-01 
    9.0193941942382150E-01 
    8.9826932766781853E-01 
    8.9772458891079765E-01 
    9.0135330936529123E-01 
    9.0084797912068260E-01 
    8.9725373363021987E-01 
    8.9685809683511597E-01 
    9.0042435953735622E-01 
    9.0008362146496268E-01 
    8.9653921668061620E-01 
    8.9629814170759214E-01 
    8.9982702060113851E-01 
    8.9962472012702366E-01 
    8.9610654039982929E-01 
    8.9599547875026242E-01 
    8.9950758653541840E-01 
    9.2657313699943167E-01 
    9.1416041877507470E-01 
    9.1402059764192722E-01 
    9.2636102514935104E-01 
    9.2594464810647192E-01 
    9.1374428881298153E-01 
    9.1333778585030256E-01 
    9.2533823464809539E-01 
    9.2456072569137293E-01 
    9.1280992324971133E-01 
    9.1217149052878654E-01 
    9.2363393336513488E-01 
    9.2258066492272695E-01 
    9.1143439384605229E-01 
    9.1061097866939256E-01 
    9.2142339805630491E-01 
    9.2018337682929063E-01 
    9.0971364919933673E-01 
    9.0875474620232377E-01 
    9.1888022715296114E-01 
    9.1753155465273339E-01 
    9.0774616931738716E-01 
    9.0669902145483872E-01 
    9.1615282041104640E-01 
    9.1475762352775991E-01 
    9.0562372665763569E-01 
    9.0452984875757070E-01 
    9.1335774943449011E-01 
    9.1196322758918147E-01 
    9.0342594210393257E-01 
    9.0231977059919399E-01 
    9.1058268496876504E-01 
    9.0922350080103853E-01 
    9.0121834667928424E-01 
    9.0012786415588564E-01 
    9.0789188262713993E-01 
    9.0659302041410250E-01 
    8.9905371949590385E-01 
    8.9800077435300030E-01 
    9.0533137828654608E-01 
    9.0411067534787992E-01 
    8.9697334455975331E-01 
    8.9597518405169241E-01 
    9.0293397531014918E-01 
    9.0180401481240247E-01 
    8.9500979737794839E-01 
    8.9408037973412413E-01 
    9.0072321588557336E-01 
    8.9969368761504076E-01 
    8.9318971283975035E-01 
    8.9234035152404723E-01 
    8.9871737079696157E-01 
    8.9779602026092875E-01 
    8.9153466628132672E-01 
    8.9077479020031214E-01 
    8.9693116312301358E-01 
    8.9612419617954298E-01 
    8.9006264906656785E-01 
    8.8940015376879988E-01 
    8.9537655355506751E-01 
    8.9468958714539193E-01 
    8.8878911260790994E-01 
    8.8823114555184790E-01 
    8.9406456924131461E-01 
    8.9350285374851379E-01 
    8.8772791317762556E-01 
    8.8728102714298795E-01 
    8.9300574253165299E-01 
    8.9257457033089904E-01 
    8.8689195366515561E-01 
    8.8656226072593303E-01 
    8.9221093425850717E-01 
    8.9191681891703400E-01 
    8.8629392643334226E-01 
    8.8608666310923612E-01 
    8.9169301369091858E-01 
    8.9151361429519960E-01 
    8.8591804636428917E-01 
    8.8582072232934206E-01 
    8.9140960379274958E-01 
    9.0241856845609869E-01 
    8.9098915204704954E-01 
    8.9091597457667260E-01 
    9.0231979987778721E-01 
    9.0212396080484225E-01 
    8.9077060575647149E-01 
    8.9055493633963878E-01 
    9.0183432423630028E-01 
    9.0145558576455187E-01 
    8.9027168710260129E-01 
    8.8992421448207359E-01 
    9.0099357751099585E-01 
    9.0045493338494431E-01 
    8.8951654295217919E-01 
    8.8905326517774286E-01 
    8.9984686321688734E-01 
    8.9917701072173861E-01 
    8.8853946949565821E-01 
    8.8798050574242882E-01 
    8.9845335766288614E-01 
    8.9768393901724763E-01 
    8.8738184017804900E-01 
    8.8674890131058315E-01 
    8.9687654629492719E-01 
    8.9603871258953338E-01 
    8.8608712142608059E-01 
    8.8540183822896190E-01 
    8.9517766222107642E-01 
    8.9430013348272630E-01 
    8.8469822448297053E-01 
    8.8398123404975915E-01 
    8.9341245296428018E-01 
    8.9252052531488468E-01 
    8.8325564157597714E-01 
    8.8252594990350564E-01 
    8.9162978070279109E-01 
    8.9074515390246789E-01 
    8.8179644159959425E-01 
    8.8107121687610535E-01 
    8.8987123559387749E-01 
    8.8901228081837802E-01 
    8.8035414170124049E-01 
    8.7964882325904392E-01 
    8.8817216712339697E-01 
    8.8735451667000986E-01 
    8.7895869412469141E-01 
    8.7828692557377441E-01 
    8.8656269530469545E-01 
    8.8579971009575820E-01 
    8.7763646157787156E-01 
    8.7701007864416980E-01 
    8.8506834013395397E-01 
    8.8437119929072661E-01 
    8.7641042387080315E-01 
    8.7583994694861977E-01 
    8.8371071515436816E-01 
    8.8308910664721574E-01 
    8.7530094919569967E-01 
    8.7479565008660565E-01 
    8.8250851143621956E-01 
    8.8197096873304504E-01 
    8.7432610679725054E-01 
    8.7389422926208982E-01 
    8.8147831945915400E-01 
    8.8103237183352656E-01 
    8.7350189617924667E-01 
    8.7315085059588926E-01 
    8.8063490039124426E-01 
    8.8028745940978126E-01 
    8.7284268465809367E-01 
    8.7257891504840734E-01 
    8.7999149342505578E-01 
    8.7974863933943892E-01 
    8.7236109364024894E-01 
    8.7218372183559700E-01 
    8.7955630062546786E-01 
    8.7939663293811809E-01 
    8.7203355931498250E-01 
    8.7194895307889630E-01 
    8.7930564015877022E-01 
    8.7966016739537256E-01 
    8.6829885212747682E-01 
    8.6825444861258860E-01 
    8.7960400373095093E-01 
    8.7949227632611693E-01 
    8.6816603497059253E-01 
    8.6803438046745329E-01 
    8.7932615331196196E-01 
    8.7910728640638258E-01 
    8.6786060191840064E-01 
    8.6764620912578461E-01 
    8.7883781242097070E-01 
    8.7852043375469058E-01 
    8.6739316458935978E-01 
    8.6710375129313588E-01 
    8.7815833080302341E-01 
    8.7775498702433963E-01 
    8.6678038689091585E-01 
    8.6642562942928159E-01 
    8.7731408579354420E-01 
    8.7683938578552367E-01 
    8.6604218541006805E-01 
    8.6563292197499264E-01 
    8.7633473691305153E-01 
    8.7580415613909712E-01 
    8.6520083608064202E-01 
    8.6474897688642705E-01 
    8.7525163761210512E-01 
    8.7468109221261636E-01 
    8.6428036263526986E-01 
    8.6379807538135667E-01 
    8.7409640236627129E-01 
    8.7350141453022578E-01 
    8.6330522731388104E-01 
    8.6280488198452721E-01 
    8.7289984217768568E-01 
    8.7229526264376001E-01 
    8.6230000362752057E-01 
    8.6179355175389483E-01 
    8.7169122850562852E-01 
    8.7109110450825000E-01 
    8.6128840480325297E-01 
    8.6078726802297922E-01 
    8.7049803562862926E-01 
    8.6991512351370870E-01 
    8.6029284788376392E-01 
    8.5980776785065016E-01 
    8.6934526817711244E-01 
    8.6879117754893231E-01 
    8.5933447403899454E-01 
    8.5887540057174083E-01 
    8.6825548860738433E-01 
    8.6774076204308437E-01 
    8.5843292678511995E-01 
    8.5800930553848709E-01 
    8.6724936740981518E-01 
    8.6678352495717736E-01 
    8.5760666607051350E-01 
    8.5722712039877036E-01 
    8.6634543668753861E-01 
    8.6593712111910814E-01 
    8.5687268991338750E-01 
    8.5654528364720350E-01 
    8.6556046253193830E-01 
    8.6521733118731503E-01 
    8.5624679838469531E-01 
    8.5597899504173536E-01 
    8.6490937684693436E-01 
    8.6463809322797591E-01 
    8.5574354120945806E-01 
    8.5554198416923644E-01 
    8.6440483830264747E-01 
    8.6421094598877612E-01 
    8.5537600983161444E-01 
    8.5523087709569268E-01 
    8.6404663170591567E-01 
    8.6390398675950353E-01 
    8.5510012680905634E-01 
    8.5502725670142177E-01 
    8.6382562641511151E-01 
    8.5681905543645609E-01 
    8.4516261476435428E-01 
    8.4513273795548094E-01 
    8.5678304817427797E-01 
    8.5671130820984465E-01 
    8.4507319520821966E-01 
    8.4498440003209974E-01 
    8.5660438051487242E-01 
    8.5646309478315386E-01 
    8.4486701953351795E-01 
    8.4472197734461452E-01 
    8.5628862529888550E-01 
    8.5608245102629665E-01 
    8.4455039253145092E-01 
    8.4435345424441477E-01 
    8.5584620324130090E-01 
    8.5558157868984241E-01 
    8.4413243899296764E-01 
    8.4388884515207152E-01 
    8.5529047191244101E-01 
    8.5497495499133291E-01 
    8.4362432153870959E-01 
    8.4334055953580300E-01 
    8.5463719806972360E-01 
    8.5427952156115461E-01 
    8.4303941354844092E-01 
    8.4272280773276098E-01 
    8.5390431200904371E-01 
    8.5351394977926354E-01 
    8.4239266234188925E-01 
    8.4205100386958465E-01 
    8.5311093877737965E-01 
    8.5269781545839851E-01 
    8.4169990994200861E-01 
    8.4134141227136305E-01 
    8.5227706655477631E-01 
    8.5185112518862749E-01 
    8.4097751783270880E-01 
    8.4061032404788116E-01 
    8.5142246525650078E-01 
    8.5099352813706752E-01 
    8.4024190300713075E-01 
    8.3987424984082160E-01 
    8.5056662378500192E-01 
    8.5014413149782941E-01 
    8.3950944383935922E-01 
    8.3914952910508345E-01 
    8.4972837764457587E-01 
    8.4932153593862969E-01 
    8.3879643620007904E-01 
    8.3845213930044404E-01 
    8.4892583366131402E-01 
    8.4854346237995693E-01 
    8.3811864064071795E-01 
    8.3779783664783702E-01 
    8.4817649775419124E-01 
    8.4782693893429784E-01 
    8.3749154965090900E-01 
    8.3720174518997459E-01 
    8.4749684573586559E-01 
    8.4718822311906206E-01 
    8.3693033834528596E-01 
    8.3667915062084763E-01 
    8.4690296500211226E-01 
    8.4664310542992016E-01 
    8.3645026013407875E-01 
    8.3624572950766185E-01 
    8.4641062525504795E-01 
    8.4620752545210109E-01 
    8.3606758613917898E-01 
    8.3591848660310986E-01 
    8.4603618762010380E-01 
    8.4589939105959167E-01 
    8.3580143593748679E-01 
    8.3569064033067841E-01 
    8.4577611151163412E-01 
    8.4565682449668589E-01 
    8.3557744727178418E-01 
    8.3551230232034746E-01 
    8.4558770340162248E-01 
    8.3328979045391027E-01 
    8.2117396902242867E-01 
    8.2115207361224729E-01 
    8.3326447856147268E-01 
    8.3321401686077723E-01 
    8.2110840457534395E-01 
    8.2104323648321198E-01 
    8.3313873375469738E-01 
    8.3303917089234958E-01 
    8.2095699007504730E-01 
    8.2085023248621702E-01 
    8.3291604628964833E-01 
    8.3277021032023724E-01 
    8.2072362364903706E-01 
    8.2057793263801571E-01 
    8.3260258262543341E-01 
    8.3241420814749012E-01 
    8.2041404040152677E-01 
    8.2023299197534960E-01 
    8.3220631721026594E-01 
    8.3198025173886669E-01 
    8.2003591218051364E-01 
    8.1982397638363202E-01 
    8.3173739854170314E-01 
    8.3147927859808080E-01 
    8.1959844976607921E-01 
    8.1936062795978204E-01 
    8.3120745872820667E-01 
    8.3092352314959050E-01 
    8.1911182316034292E-01 
    8.1885341663351929E-01 
    8.3062911755231594E-01 
    8.3032595095793849E-01 
    8.1858686808984271E-01 
    8.1831364108031168E-01 
    8.3001572754712416E-01 
    8.2970015447412593E-01 
    8.1803520467857216E-01 
    8.1775310554496228E-01 
    8.2938101213354276E-01 
    8.2906007456195008E-01 
    8.1746889488128249E-01 
    8.1718409672118020E-01 
    8.2873910082453317E-01 
    8.2841987485169677E-01 
    8.1690027591952719E-01 
    8.1661900309039981E-01 
    8.2810418309980760E-01 
    8.2779375621463558E-01 
    8.1634179099320481E-01 
    8.1607014557372726E-01 
    8.2749030710313620E-01 
    8.2719560165631600E-01 
    8.1580562395413070E-01 
    8.1554969181896797E-01 
    8.2691133813572615E-01 
    8.2663915680757083E-01 
    8.1530377157269485E-01 
    8.1506933262939996E-01 
    8.2638079258807029E-01 
    8.2613793386705814E-01 
    8.1484777112533879E-01 
    8.1464042337582321E-01 
    8.2591223182928564E-01 
    8.2570549799910542E-01 
    8.1444865842647562E-01 
    8.1427374965082622E-01 
    8.2551951106316146E-01 
    8.2535596659443478E-01 
    8.1411690822716543E-01 
    8.1398004485787900E-01 
    8.2521709339471139E-01 
    8.2510434309794201E-01 
    8.1386278901182552E-01 
    8.1374632825221693E-01 
    8.2499449595624652E-01 
    8.2489009677552361E-01 
    8.1364748087822081E-01 
    8.1359881316639804E-01 
    8.2483339685070078E-01 
    8.0879888282939028E-01 
    7.9615617693196383E-01 
    7.9613859045577928E-01 
    8.0877950643852126E-01 
    8.0874086283780722E-01 
    7.9610352407244300E-01 
    7.9605117444581341E-01 
    8.0868318143817053E-01 
    8.0860679589027273E-01 
    7.9598181651630329E-01 
    7.9589582358626521E-01 
    8.0851214777335678E-01 
    8.0839978862890072E-01 
    7.9579367139154544E-01 
    7.9567593312896412E-01 
    8.0827037949408986E-01 
    8.0812467390349663E-01 
    7.9554326633139494E-01 
    7.9539647950256143E-01 
    8.0796358014367209E-01 
    8.0778807831689259E-01 
    7.9523643375692443E-01 
    7.9506398252962729E-01 
    8.0759916328985326E-01 
    8.0739791083402068E-01 
    7.9488007161387741E-01 
    7.9468567734910345E-01 
    8.0718542292706763E-01 
    8.0696281307590623E-01 
    7.9448180348500796E-01 
    7.9426955807049848E-01 
    8.0673129178396230E-01 
    8.0649216645259281E-01 
    7.9405013097669064E-01 
    7.9382468478815726E-01 
    8.0624672450105739E-01 
    8.0599623951326904E-01 
    7.9359437180438464E-01 
    7.9336046453566045E-01 
    8.0574210227977883E-01 
    8.0548569723665542E-01 
    7.9312422070489352E-01 
    7.9288683505036872E-01 
    8.0522833978654695E-01 
    8.0497145557263972E-01 
    7.9264963249579279E-01 
    7.9241389760358738E-01 
    8.0471645209004850E-01 
    8.0446464027771158E-01 
    7.9218084662077359E-01 
    7.9195175239848281E-01 
    8.0421738395308284E-01 
    8.0397609715166884E-01 
    7.9172792444089723E-01 
    7.9151059045855776E-01 
    8.0374207399048270E-01 
    8.0351652816207575E-01 
    7.9130089112488800E-01 
    7.9110003701260445E-01 
    8.0330075068096396E-01 
    8.0309593451911754E-01 
    7.9090916026513880E-01 
    7.9072921120531903E-01 
    8.0290310075502647E-01 
    8.0272329755387817E-01 
    7.9056114342961648E-01 
    7.9040569689761597E-01 
    8.0255736299386193E-01 
    8.0240588653718303E-01 
    7.9026342062018662E-01 
    7.9013450195200052E-01 
    8.0226987779296255E-01 
    8.0214538662195889E-01 
    7.9000861599428740E-01 
    7.8987507596609075E-01 
    8.0201915768580312E-01 
    8.0192334897401707E-01 
    7.8977802186068391E-01 
    7.8973739063961945E-01 
    8.0188088768868337E-01 
    7.8324254737893861E-01 
    7.7005882220179300E-01 
    7.7004301529880093E-01 
    7.8322612682832848E-01 
    7.8319339134313226E-01 
    7.7001150013605957E-01 
    7.6996444998950597E-01 
    7.8314451761425563E-01 
    7.8307976063122009E-01 
    7.6990210885192945E-01 
    7.6982477476398226E-01 
    7.8299944621915241E-01 
    7.8290399291260371E-01 
    7.6973284125287711E-01 
    7.6962678787816363E-01 
    7.8279391425260858E-01 
    7.8266981802109592E-01 
    7.6950719068254392E-01 
    7.6937470018688958E-01 
    7.8253242237192100E-01 
    7.8238248757606177E-01 
    7.6923001395726054E-01 
    7.6907387236683156E-01 
    7.8222079081975049E-01 
    7.8204819087904709E-01 
    7.6890710609025370E-01 
    7.6873061332307169E-01 
    7.8186559953266088E-01 
    7.8167397826701313E-01 
    7.6854532637096407E-01 
    7.6835224992788598E-01 
    7.8147436762815936E-01 
    7.8126786233841850E-01 
    7.6815242961333408E-01 
    7.6794691746025767E-01 
    7.8105554729374549E-01 
    7.8083852167745604E-01 
    7.6773677569393928E-01 
    7.6752314627917539E-01 
    7.8061796606565081E-01 
    7.8039505741072690E-01 
    7.6730717498659784E-01 
    7.6708999713133996E-01 
    7.8017094703798406E-01 
    7.7994688253515421E-01 
    7.6687282162299819E-01 
    7.6665685846993348E-01 
    7.7972407825892209E-01 
    7.7950373809071782E-01 
    7.6644331108353203E-01 
    7.6623344293063345E-01 
    7.7928710761933506E-01 
    7.7907543928384604E-01 
    7.6602852336093785E-01 
    7.6582981709300380E-01 
    7.7886996075141390E-01 
    7.7867184625931030E-01 
    7.6563857444114236E-01 
    7.6545615281167667E-01 
    7.7848232647896798E-01 
    7.7830257117282009E-01 
    7.6528389867557300E-01 
    7.6512315375333506E-01 
    7.7813364050522693E-01 
    7.7797659290030297E-01 
    7.6497543656975509E-01 
    7.6484237648296105E-01 
    7.7783232938820113E-01 
    7.7770198888440634E-01 
    7.6472666469980788E-01 
    7.6463051337326804E-01 