# vtk DataFile Version 2.0
Pressure Field Data 
ASCII 
DATASET UNSTRUCTURED_GRID 

POINTS 1681 double 

    0.0000000000000000E+00     0.0000000000000000E+00     0.0000000000000000E+00 
    1.0000000000000000E+00     0.0000000000000000E+00     0.0000000000000000E+00 
    1.0000000000000000E+00     1.0000000000000000E+00     0.0000000000000000E+00 
    0.0000000000000000E+00     1.0000000000000000E+00     0.0000000000000000E+00 
    5.2499999999875258E-01     0.0000000000000000E+00     0.0000000000000000E+00 
    7.4999999999856765E-02     0.0000000000000000E+00     0.0000000000000000E+00 
    1.2499999999975850E-01     0.0000000000000000E+00     0.0000000000000000E+00 
    1.7499999999962990E-01     0.0000000000000000E+00     0.0000000000000000E+00 
    2.2499999999948389E-01     0.0000000000000000E+00     0.0000000000000000E+00 
    2.7499999999933789E-01     0.0000000000000000E+00     0.0000000000000000E+00 
    3.2499999999919210E-01     0.0000000000000000E+00     0.0000000000000000E+00 
    3.7499999999904610E-01     0.0000000000000000E+00     0.0000000000000000E+00 
    4.2499999999890020E-01     0.0000000000000000E+00     0.0000000000000000E+00 
    4.7499999999875958E-01     0.0000000000000000E+00     0.0000000000000000E+00 
    2.4999999999949701E-02     0.0000000000000000E+00     0.0000000000000000E+00 
    5.7499999999887907E-01     0.0000000000000000E+00     0.0000000000000000E+00 
    6.2499999999901101E-01     0.0000000000000000E+00     0.0000000000000000E+00 
    6.7499999999914273E-01     0.0000000000000000E+00     0.0000000000000000E+00 
    7.2499999999927467E-01     0.0000000000000000E+00     0.0000000000000000E+00 
    7.7499999999940661E-01     0.0000000000000000E+00     0.0000000000000000E+00 
    8.2499999999953844E-01     0.0000000000000000E+00     0.0000000000000000E+00 
    8.7499999999967026E-01     0.0000000000000000E+00     0.0000000000000000E+00 
    9.2499999999980220E-01     0.0000000000000000E+00     0.0000000000000000E+00 
    9.7499999999993414E-01     0.0000000000000000E+00     0.0000000000000000E+00 
    5.4999999999881310E-01     0.0000000000000000E+00     0.0000000000000000E+00 
    9.9999999999814140E-02     0.0000000000000000E+00     0.0000000000000000E+00 
    1.4999999999970290E-01     0.0000000000000000E+00     0.0000000000000000E+00 
    1.9999999999955689E-01     0.0000000000000000E+00     0.0000000000000000E+00 
    2.4999999999941089E-01     0.0000000000000000E+00     0.0000000000000000E+00 
    2.9999999999926502E-01     0.0000000000000000E+00     0.0000000000000000E+00 
    3.4999999999911913E-01     0.0000000000000000E+00     0.0000000000000000E+00 
    3.9999999999897312E-01     0.0000000000000000E+00     0.0000000000000000E+00 
    4.4999999999882723E-01     0.0000000000000000E+00     0.0000000000000000E+00 
    4.9999999999869210E-01     0.0000000000000000E+00     0.0000000000000000E+00 
    4.9999999999899403E-02     0.0000000000000000E+00     0.0000000000000000E+00 
    5.9999999999894504E-01     0.0000000000000000E+00     0.0000000000000000E+00 
    6.4999999999907687E-01     0.0000000000000000E+00     0.0000000000000000E+00 
    6.9999999999920870E-01     0.0000000000000000E+00     0.0000000000000000E+00 
    7.4999999999934064E-01     0.0000000000000000E+00     0.0000000000000000E+00 
    7.9999999999947247E-01     0.0000000000000000E+00     0.0000000000000000E+00 
    8.4999999999960441E-01     0.0000000000000000E+00     0.0000000000000000E+00 
    8.9999999999973623E-01     0.0000000000000000E+00     0.0000000000000000E+00 
    9.4999999999986817E-01     0.0000000000000000E+00     0.0000000000000000E+00 
    1.0000000000000000E+00     5.2499999999875258E-01     0.0000000000000000E+00 
    1.0000000000000000E+00     7.4999999999856765E-02     0.0000000000000000E+00 
    1.0000000000000000E+00     1.2499999999975850E-01     0.0000000000000000E+00 
    1.0000000000000000E+00     1.7499999999962990E-01     0.0000000000000000E+00 
    1.0000000000000000E+00     2.2499999999948389E-01     0.0000000000000000E+00 
    1.0000000000000000E+00     2.7499999999933789E-01     0.0000000000000000E+00 
    1.0000000000000000E+00     3.2499999999919210E-01     0.0000000000000000E+00 
    1.0000000000000000E+00     3.7499999999904610E-01     0.0000000000000000E+00 
    1.0000000000000000E+00     4.2499999999890020E-01     0.0000000000000000E+00 
    1.0000000000000000E+00     4.7499999999875958E-01     0.0000000000000000E+00 
    1.0000000000000000E+00     2.4999999999949701E-02     0.0000000000000000E+00 
    1.0000000000000000E+00     5.7499999999887907E-01     0.0000000000000000E+00 
    1.0000000000000000E+00     6.2499999999901101E-01     0.0000000000000000E+00 
    1.0000000000000000E+00     6.7499999999914273E-01     0.0000000000000000E+00 
    1.0000000000000000E+00     7.2499999999927467E-01     0.0000000000000000E+00 
    1.0000000000000000E+00     7.7499999999940661E-01     0.0000000000000000E+00 
    1.0000000000000000E+00     8.2499999999953844E-01     0.0000000000000000E+00 
    1.0000000000000000E+00     8.7499999999967026E-01     0.0000000000000000E+00 
    1.0000000000000000E+00     9.2499999999980220E-01     0.0000000000000000E+00 
    1.0000000000000000E+00     9.7499999999993414E-01     0.0000000000000000E+00 
    1.0000000000000000E+00     5.4999999999881310E-01     0.0000000000000000E+00 
    1.0000000000000000E+00     9.9999999999814140E-02     0.0000000000000000E+00 
    1.0000000000000000E+00     1.4999999999970290E-01     0.0000000000000000E+00 
    1.0000000000000000E+00     1.9999999999955689E-01     0.0000000000000000E+00 
    1.0000000000000000E+00     2.4999999999941089E-01     0.0000000000000000E+00 
    1.0000000000000000E+00     2.9999999999926502E-01     0.0000000000000000E+00 
    1.0000000000000000E+00     3.4999999999911913E-01     0.0000000000000000E+00 
    1.0000000000000000E+00     3.9999999999897312E-01     0.0000000000000000E+00 
    1.0000000000000000E+00     4.4999999999882723E-01     0.0000000000000000E+00 
    1.0000000000000000E+00     4.9999999999869210E-01     0.0000000000000000E+00 
    1.0000000000000000E+00     4.9999999999899403E-02     0.0000000000000000E+00 
    1.0000000000000000E+00     5.9999999999894504E-01     0.0000000000000000E+00 
    1.0000000000000000E+00     6.4999999999907687E-01     0.0000000000000000E+00 
    1.0000000000000000E+00     6.9999999999920870E-01     0.0000000000000000E+00 
    1.0000000000000000E+00     7.4999999999934064E-01     0.0000000000000000E+00 
    1.0000000000000000E+00     7.9999999999947247E-01     0.0000000000000000E+00 
    1.0000000000000000E+00     8.4999999999960441E-01     0.0000000000000000E+00 
    1.0000000000000000E+00     8.9999999999973623E-01     0.0000000000000000E+00 
    1.0000000000000000E+00     9.4999999999986817E-01     0.0000000000000000E+00 
    4.7500000000196618E-01     1.0000000000000000E+00     0.0000000000000000E+00 
    9.2499999999968763E-01     1.0000000000000000E+00     0.0000000000000000E+00 
    8.7499999999961831E-01     1.0000000000000000E+00     0.0000000000000000E+00 
    8.2499999999982654E-01     1.0000000000000000E+00     0.0000000000000000E+00 
    7.7500000000017355E-01     1.0000000000000000E+00     0.0000000000000000E+00 
    7.2500000000052045E-01     1.0000000000000000E+00     0.0000000000000000E+00 
    6.7500000000086724E-01     1.0000000000000000E+00     0.0000000000000000E+00 
    6.2500000000121403E-01     1.0000000000000000E+00     0.0000000000000000E+00 
    5.7500000000156093E-01     1.0000000000000000E+00     0.0000000000000000E+00 
    5.2500000000189684E-01     1.0000000000000000E+00     0.0000000000000000E+00 
    9.7499999999989595E-01     1.0000000000000000E+00     0.0000000000000000E+00 
    4.2500000000176902E-01     1.0000000000000000E+00     0.0000000000000000E+00 
    3.7500000000156092E-01     1.0000000000000000E+00     0.0000000000000000E+00 
    3.2500000000135282E-01     1.0000000000000000E+00     0.0000000000000000E+00 
    2.7500000000114472E-01     1.0000000000000000E+00     0.0000000000000000E+00 
    2.2500000000093659E-01     1.0000000000000000E+00     0.0000000000000000E+00 
    1.7500000000072849E-01     1.0000000000000000E+00     0.0000000000000000E+00 
    1.2500000000052039E-01     1.0000000000000000E+00     0.0000000000000000E+00 
    7.5000000000312261E-02     1.0000000000000000E+00     0.0000000000000000E+00 
    2.5000000000104109E-02     1.0000000000000000E+00     0.0000000000000000E+00 
    4.5000000000187301E-01     1.0000000000000000E+00     0.0000000000000000E+00 
    8.9999999999958358E-01     1.0000000000000000E+00     0.0000000000000000E+00 
    8.4999999999965303E-01     1.0000000000000000E+00     0.0000000000000000E+00 
    8.0000000000000004E-01     1.0000000000000000E+00     0.0000000000000000E+00 
    7.5000000000034706E-01     1.0000000000000000E+00     0.0000000000000000E+00 
    7.0000000000069384E-01     1.0000000000000000E+00     0.0000000000000000E+00 
    6.5000000000104063E-01     1.0000000000000000E+00     0.0000000000000000E+00 
    6.0000000000138742E-01     1.0000000000000000E+00     0.0000000000000000E+00 
    5.5000000000173432E-01     1.0000000000000000E+00     0.0000000000000000E+00 
    5.0000000000205946E-01     1.0000000000000000E+00     0.0000000000000000E+00 
    9.4999999999979179E-01     1.0000000000000000E+00     0.0000000000000000E+00 
    4.0000000000166491E-01     1.0000000000000000E+00     0.0000000000000000E+00 
    3.5000000000145681E-01     1.0000000000000000E+00     0.0000000000000000E+00 
    3.0000000000124871E-01     1.0000000000000000E+00     0.0000000000000000E+00 
    2.5000000000104061E-01     1.0000000000000000E+00     0.0000000000000000E+00 
    2.0000000000083251E-01     1.0000000000000000E+00     0.0000000000000000E+00 
    1.5000000000062441E-01     1.0000000000000000E+00     0.0000000000000000E+00 
    1.0000000000041630E-01     1.0000000000000000E+00     0.0000000000000000E+00 
[...]
CELL_DATA 1600 
SCALARS Pressure double 1 
LOOKUP_TABLE default 

    1.1895818666500317E+00 
    1.1434085459811496E+00 
    1.1410180694242469E+00 
    1.1739902414165526E+00 
    1.1615515306332203E+00 
    1.1374053841804608E+00 
    1.1332283125432345E+00 
    1.1513603151383851E+00 
    1.1428164204337365E+00 
    1.1288581268240083E+00 
    1.1245008947955779E+00 
    1.1355092076247482E+00 
    1.1291500602193003E+00 
    1.1202657450972222E+00 
    1.1162061511170247E+00 
    1.1235323319381219E+00 
    1.1185060893466514E+00 
    1.1123444273219625E+00 
    1.1086859103824347E+00 
    1.1139614958667030E+00 
    1.1098169168288170E+00 
    1.1052267694299034E+00 
    1.1019579584831061E+00 
    1.1060099327846418E+00 
    1.1024913452453200E+00 
    1.0988680298642561E+00 
    1.0959453077847023E+00 
    1.0992222593654053E+00 
    1.0961724700666671E+00 
    1.0931791528696553E+00 
    1.0905601231549937E+00 
    1.0933184568115306E+00 
    1.0906414853834157E+00 
    1.0880798727214456E+00 
    1.0857309974156397E+00 
    1.0881264147222560E+00 
    1.0857608136287276E+00 
    1.0835068643691348E+00 
    1.0814014472945856E+00 
    1.0835341855540741E+00 
    1.0814376869088074E+00 
    1.0794095192911086E+00 
    1.0775268149041246E+00 
    1.0794642220022845E+00 
    1.0776082027082263E+00 
    1.0757499438957567E+00 
    1.0740760291197040E+00 
    1.0758650157661991E+00 
    1.0742307725918114E+00 
    1.0725025817469096E+00 
    1.0710275467827366E+00 
    1.0727022828817439E+00 
    1.0712770159851086E+00 
    1.0696493524408750E+00 
    1.0683668154374701E+00 
    1.0699530009024554E+00 
    1.0687287501560745E+00 
    1.0671790785077431E+00 
    1.0660855714065176E+00 
    1.0676031807062345E+00 
    1.0665755462767936E+00 
    1.0650860145889454E+00 
    1.0641803871983799E+00 
    1.0656454735411660E+00 
    1.0648129138244298E+00 
    1.0633689238088386E+00 
    1.0626520706698968E+00 
    1.0640780512276333E+00 
    1.0634412298292826E+00 
    1.0620303786792282E+00 
    1.0615057729391864E+00 
    1.0629043416403201E+00 
    1.0624440431355244E+00 
    1.0610518658593957E+00 
    1.0606516460285960E+00 
    1.0620386283816921E+00 
    1.0617524135356904E+00 
    1.0603712717307949E+00 
    1.0602359646551467E+00 
    1.0616145335021510E+00 
    1.1197477357677792E+00 
    1.1024537035124911E+00 
    1.1020769942800674E+00 
    1.1189806679329084E+00 
    1.1175705619367693E+00 
    1.1013484966628451E+00 
    1.1003090306975822E+00 
    1.1156684464795372E+00 
    1.1134163887799806E+00 
    1.0990075770331653E+00 
    1.0974945529379259E+00 
    1.1109331566831331E+00 
    1.1083116044040089E+00 
    1.0958173777582998E+00 
    1.0940184255983161E+00 
    1.1056215929853173E+00 
    1.1029142400243830E+00 
    1.0921341085045666E+00 
    1.0901950823483126E+00 
    1.1002260041370187E+00 
    1.0975821570704618E+00 
    1.0882265677124843E+00 
    1.0862490967125698E+00 
    1.0949996073682988E+00 
    1.0924895584911698E+00 
    1.0842794098346633E+00 
    1.0823309965322920E+00 
    1.0900593686462641E+00 
    1.0877138045826560E+00 
    1.0804145717310105E+00 
    1.0785387237066377E+00 
    1.0854557874678965E+00 
    1.0832869227829702E+00 
    1.0767102026689830E+00 
    1.0749341977758655E+00 
    1.0812077748850213E+00 
    1.0792181464198385E+00 
    1.0732147103058076E+00 
    1.0715550860613368E+00 
    1.0773174069989693E+00 
    1.0755048850050901E+00 
    1.0699581272340497E+00 
    1.0684262030178413E+00 
    1.0737800291331503E+00 
    1.0721424218891795E+00 
    1.0669613537067812E+00 
    1.0655652326217364E+00 
    1.0705915964256070E+00 
    1.0691270911155208E+00 
    1.0642392304996804E+00 
    1.0629847174427440E+00 
    1.0677485907460134E+00 
    1.0664559766503960E+00 
    1.0618030089744517E+00 
    1.0606953131795371E+00 
    1.0652492590256366E+00 
    1.0641285847201607E+00 
    1.0596628029177908E+00 
    1.0587067367630447E+00 
    1.0630942493899935E+00 
    1.0621466950701908E+00 
    1.0578283407404561E+00 
    1.0570288965797485E+00 
    1.0612865107511613E+00 
    1.0605144470603096E+00 
    1.0563098122486889E+00 
    1.0556724429439697E+00 
    1.0598313533071275E+00 
    1.0592381593850773E+00 
    1.0551183090910521E+00 
    1.0546492248892139E+00 
    1.0587367324990777E+00 
    1.0582949855365602E+00 
    1.0542252104447294E+00 
    1.0538485071723196E+00 
    1.0579045611574089E+00 
    1.0576350649907496E+00 
    1.0535932121662019E+00 
    1.0534690033858702E+00 
    1.0575046119633440E+00 
    1.0877134332150222E+00 
    1.0741463837049146E+00 
    1.0739934312323158E+00 
    1.0874863434896784E+00 
    1.0870402527478238E+00 
    1.0736910475297818E+00 
    1.0732458627617143E+00 
    1.0863898892138570E+00 
    1.0855549621353517E+00 
    1.0726670478586779E+00 
    1.0719656175391254E+00 
    1.0845579706805684E+00 
    1.0834221885354793E+00 
    1.0711538702745267E+00 
    1.0702449746112603E+00 
    1.0821706228551173E+00 
    1.0808252884982283E+00 
    1.0692523877501270E+00 
    1.0681895177220264E+00 
    1.0794068956984992E+00 
    1.0779342587585172E+00 
    1.0670692193216007E+00 
    1.0659034090560495E+00 
    1.0764240070448050E+00 
    1.0748909325033926E+00 
    1.0647033529431802E+00 
    1.0634794202352911E+00 
    1.0733479324324247E+00 
    1.0718059921882577E+00 
    1.0622408499534814E+00 
    1.0609960965974086E+00 
    1.0702746068050735E+00 
    1.0687619257714593E+00 
    1.0597529229465277E+00 
    1.0585183067704143E+00 
    1.0672748334965194E+00 
    1.0658192195852274E+00 
    1.0572984654913629E+00 
    1.0560991625874723E+00 
    1.0644004147384010E+00 
    1.0630230782675798E+00 
    1.0549255829934829E+00 
    1.0537822048577956E+00 
    1.0616911520288395E+00 
    1.0604081724782550E+00 
    1.0526732080096564E+00 
    1.0516024221924236E+00 
    1.0591772248105282E+00 
    1.0580009957086742E+00 
    1.0505732247031816E+00 
    1.0495888104364881E+00 
    1.0568820431370338E+00 
    1.0558227790483161E+00 
    1.0486522147109245E+00 
    1.0477661882124432E+00 
    1.0548253603969049E+00 
    1.0538917717859975E+00 
    1.0469332258065494E+00 
    1.0461558331837328E+00 
    1.0530240442755128E+00 
    1.0522241181069520E+00 
    1.0454364229897801E+00 
    1.0447772064570966E+00 
    1.0514938584793643E+00 
    1.0508352565817551E+00 
    1.0441804868224123E+00 
    1.0436485072561048E+00 
    1.0502502270856724E+00 
    1.0497411338985423E+00 
    1.0431845408112927E+00 
    1.0427900095355198E+00 
    1.0493098720856888E+00 
    1.0489080671677828E+00 
    1.0424110810911362E+00 
    1.0420708918961734E+00 
    1.0485482398691501E+00 
    1.0483088438537678E+00 
    1.0418492785786240E+00 
    1.0417396189537815E+00 
    1.0481914193278088E+00 
    1.0611095137827053E+00 
    1.0482587163823482E+00 
    1.0481749688278215E+00 
    1.0609990650568628E+00 
    1.0607799907380822E+00 
    1.0480085257167457E+00 
    1.0477613707024305E+00 
    1.0604557287619987E+00 
    1.0600310689659531E+00 
    1.0474363981463413E+00 
    1.0470374510805285E+00 
    1.0595120619627520E+00 
    1.0589060478743757E+00 
    1.0465693502982365E+00 
    1.0460373413540316E+00 
    1.0582212532560318E+00 
    1.0574661435901149E+00 
    1.0454468428665831E+00 
    1.0448035361753207E+00 
    1.0566492908870553E+00 
    1.0557793217225517E+00 
    1.0441134125305154E+00 
    1.0433824874911308E+00 
    1.0548646455855646E+00 
    1.0539134508712238E+00 
    1.0426167922505902E+00 
    1.0418222880456101E+00 
    1.0529336184608138E+00 
    1.0519325225336700E+00 
    1.0410048221417125E+00 
    1.0401700847814954E+00 
    1.0509172019162074E+00 
    1.0498943637174147E+00 
    1.0393236004366437E+00 
    1.0384705676946859E+00 
    1.0488702600126969E+00 
    1.0478506168757615E+00 
    1.0376159120670567E+00 
    1.0367643683626553E+00 
    1.0468407930158175E+00 
    1.0458457522263132E+00 
    1.0359204032948064E+00 
    1.0350882002366364E+00 
    1.0448699892132336E+00 
    1.0439177383826734E+00 
    1.0342718019940271E+00 
    1.0334749875386475E+00 
    1.0429929931677844E+00 
    1.0420993751797811E+00 
    1.0327012909208162E+00 
    1.0319540703918870E+00 
    1.0412402872150686E+00 
    1.0404189569892366E+00 
    1.0312365299385662E+00 
    1.0305516298222774E+00 
    1.0396383840917991E+00 
    1.0389013233694713E+00 
    1.0299021580214904E+00 
    1.0292908141893289E+00 
    1.0382104562115364E+00 
    1.0375683730346026E+00 
    1.0287200925463584E+00 
    1.0281922848687703E+00 
    1.0369774403404417E+00 
    1.0364400079434208E+00 
    1.0277095745791458E+00 
    1.0272739617803883E+00 
    1.0359583428333266E+00 
    1.0355362071272531E+00 
    1.0268887787646985E+00 
    1.0265461955384265E+00 
    1.0351724236908519E+00 
    1.0348134310955703E+00 
    1.0262007574583887E+00 
    1.0259059610444461E+00 
    1.0344949316698915E+00 
    1.0342922545240210E+00 
    1.0257238410627936E+00 
    1.0256327011141941E+00 
    1.0341912386946279E+00 
    1.0353907966974139E+00 
    1.0223771257964913E+00 
    1.0223239005600675E+00 
    1.0353249804370290E+00 
    1.0351939875364486E+00 
    1.0222178867317633E+00 
    1.0220600015836292E+00 
    1.0349991015989206E+00 
    1.0347422969426163E+00 
    1.0218516938048776E+00 
    1.0215948635369601E+00 
    1.0344262817079106E+00 
    1.0340542828638708E+00 
    1.0212916950887909E+00 
    1.0209445942740025E+00 
    1.0336297033452586E+00 
    1.0331561901886224E+00 
    1.0205562787934332E+00 
    1.0201298340357230E+00 
    1.0326378489233645E+00 
    1.0320790099087638E+00 
    1.0196685270419088E+00 
    1.0191757306705498E+00 
    1.0314840756583081E+00 
    1.0308576466039405E+00 
    1.0186549599403130E+00 
    1.0181097957407923E+00 
    1.0302043330330151E+00 
    1.0295286690345369E+00 
    1.0175437541165713E+00 
    1.0169604137413173E+00 
    1.0288351687537003E+00 
    1.0281282876061393E+00 
    1.0163633835968975E+00 
    1.0157562188545581E+00 
    1.0274122932212246E+00 
    1.0266912848810881E+00 
    1.0151423789646088E+00 
    1.0145253660833082E+00 
    1.0259693897534281E+00 
    1.0252505488411461E+00 
    1.0139086253298029E+00 
    1.0132953980104333E+00 
    1.0245384615094804E+00 
    1.0238368320886853E+00 
    1.0126889497662273E+00 
    1.0120924549030352E+00 
    1.0231491455842048E+00 
    1.0224786430829260E+00 
    1.0115088567434178E+00 
    1.0109411029264617E+00 
    1.0218284973889076E+00 
    1.0212018004247945E+00 
    1.0103920973461940E+00 
    1.0098646034420597E+00 
    1.0206014113369593E+00 
    1.0200300010874290E+00 
    1.0093612409971942E+00 
    1.0088846353965051E+00 
    1.0194902247242326E+00 
    1.0189844870095266E+00 
    1.0084373229051951E+00 
    1.0080216857450017E+00 
    1.0185149572262830E+00 
    1.0180835920987359E+00 
    1.0076400173962028E+00 
    1.0072956434676215E+00 
    1.0176924652785508E+00 
    1.0173439154503925E+00 
    1.0069903545760175E+00 
    1.0066861834345573E+00 
    1.0170182361351334E+00 
    1.0166831833262244E+00 
    1.0063604840399765E+00 
    1.0061019380904046E+00 
    1.0164106684364151E+00 
    1.0162455446490342E+00 
    1.0059439805532897E+00 
    1.0058649339942043E+00 
    1.0161627567998444E+00 
    1.0091348080882054E+00 
    9.9561029901446285E-01 
    9.9557305076785052E-01 
    1.0090907504013644E+00 
    1.0090029648170176E+00 
    9.9549882632811404E-01 
    9.9538814570224543E-01 
    1.0088721382665331E+00 
    1.0086993111895415E+00 
    9.9524176033087719E-01 
    9.9506062493060032E-01 
    1.0084858179141043E+00 
    1.0082332417377065E+00 
    9.9484596866925157E-01 
    9.9459926697687895E-01 
    1.0079434360641186E+00 
    1.0076185130088475E+00 
    9.9432219835286251E-01 
    9.9401670315582624E-01 
    1.0072608907221041E+00 
    1.0068731344599151E+00 
    9.9368481596950442E-01 
    9.9332853208308958E-01 
    1.0064578276291101E+00 
    1.0060177027104633E+00 
    9.9295004138634313E-01 
    9.9255164036973320E-01 
    1.0055555662810209E+00 
    1.0050742031160387E+00 
    9.9213564706701762E-01 
    9.9170452759475736E-01 
    1.0045765596386802E+00 
    1.0040656387002693E+00 
    9.9126082905982627E-01 
    9.9080704534944242E-01 
    1.0035444012934212E+00 
    1.0030157700430815E+00 
    9.9034564968427252E-01 
    9.8987923494697305E-01 
    1.0024827439237132E+00 
    1.0019482895247629E+00 
    9.8941034440668196E-01 
    9.8894142522008754E-01 
    1.0014152120001618E+00 
    1.0008864056201605E+00 
    9.8847503007103776E-01 
    9.8801366945654101E-01 
    1.0003647019221733E+00 
    9.9985274420061043E-01 
    9.8755971894485517E-01 
    9.8711558484865281E-01 
    9.9935325441404066E-01 
    9.9886893012573352E-01 
    9.8668371366315377E-01 
    9.8626639329530419E-01 
    9.9840233569587200E-01 
    9.9795595617684973E-01 
    9.8586578870820740E-01 
    9.8548418103164481E-01 
    9.9753238964873903E-01 
    9.9713420129260966E-01 
    9.8512369130246935E-01 
    9.8478613807555526E-01 
    9.9676384830314013E-01 
    9.9642420809784960E-01 
    9.8447390236673460E-01 
    9.8419027911434975E-01 
    9.9611993078105576E-01 
    9.9585193337732625E-01 
    9.8392912832085744E-01 
    9.8364053996006284E-01 
    9.9556704992705281E-01 
    9.9525288390141320E-01 
    9.8334698975439494E-01 
    9.8313117819460039E-01 
    9.9500795648415163E-01 
    9.9485361965793417E-01 
    9.8298970425508381E-01 
    9.8291903572365646E-01 
    9.9477668052474499E-01 
    9.8176919304128818E-01 
    9.6758900275241189E-01 
    9.6756063264973025E-01 
    9.8173704773513959E-01 
    9.8167297182167623E-01 
    9.6750404987052563E-01 
    9.6741957532349243E-01 
    9.8157736307423482E-01 
    9.8145078781545347E-01 
    9.6730765350243231E-01 
    9.6716889878944556E-01 
    9.8129397465250590E-01 
    9.8110790075498089E-01 
    9.6700410791809333E-01 
    9.6681426546283888E-01 
    9.8089375101568022E-01 
    9.8065289032047187E-01 
    9.6660047365913859E-01 
    9.6636398052232120E-01 
    9.8038686665626584E-01 
    9.8009729143996216E-01 
    9.6610611374658040E-01 
    9.6582831726994567E-01 
    9.7978580519752845E-01 
    9.7945425623046334E-01 
    9.6553221659089872E-01 
    9.6521951824825747E-01 
    9.7910459803807748E-01 
    9.7873884101723296E-01 
    9.6489194863856909E-01 
    9.6455130695956881E-01 
    9.7835906981043241E-01 
    9.7796744535801627E-01 
    9.6419947387384375E-01 
    9.6383831959178667E-01 
    9.7756611154469608E-01 
    9.7715721100928754E-01 
    9.6346971207341114E-01 
    9.6309563273663379E-01 
    9.7674297946613398E-01 
    9.7632562789535826E-01 
    9.6271806353602529E-01 
    9.6233893899740974E-01 
    9.7590734224272691E-01 
    9.7549035836211861E-01 
    9.6196028318737781E-01 
    9.6158413298630740E-01 
    9.7507691653166417E-01 
    9.7466918306439976E-01 
    9.6121243859517191E-01 
    9.6084717168665312E-01 
    9.7426927965127053E-01 
    9.7387938231562110E-01 
    9.6049035943555283E-01 
    9.6014393350744487E-01 
    9.7350154454487769E-01 
    9.7313769195520505E-01 
    9.5980978922849391E-01 
    9.5948990759904995E-01 
    9.7278975384248523E-01 
    9.7245943037406857E-01 
    9.5918620653166009E-01 
    9.5890066924119988E-01 
    9.7214806993824932E-01 
    9.7185757367886194E-01 
    9.5863639837664072E-01 
    9.5839334631104567E-01 
    9.7158854232587399E-01 
    9.7131856883231593E-01 
    9.5812321583855520E-01 
    9.5779488608185914E-01 
    9.7100993199126973E-01 
    9.7073291901794290E-01 
    9.5751960519087509E-01 
    9.5733816305313602E-01 
    9.7054435480471435E-01 
    9.7041808134638197E-01 
    9.5721700276495858E-01 
    9.5715624204232985E-01 
    9.7035467426912825E-01 
    9.5305523991838548E-01 
    9.3815941957966731E-01 
    9.3813560822921693E-01 
    9.5302957483937167E-01 
    9.5297837509892436E-01 
    9.3808810268666121E-01 
    9.3801712381553226E-01 
    9.5290190315246792E-01 
    9.5280054068261000E-01 
    9.3792301699590497E-01 
    9.3780630598815518E-01 
    9.5267482921121993E-01 
    9.5252548188879882E-01 
    9.3766765868103685E-01 
    9.3750780927879251E-01 
    9.5235333666768074E-01 
    9.5215929020482348E-01 
    9.3732752913262551E-01 
    9.3712777640363254E-01 
    9.5194439569145561E-01 
    9.5170983683248844E-01 
    9.3690964732432347E-01 
    9.3667431071151641E-01 
    9.5145690651617998E-01 
    9.5118707040662054E-01 
    9.3642308770820415E-01 
    9.3615729493564370E-01 
    9.5090182685894187E-01 
    9.5060264483884038E-01 
    9.3587822598631387E-01 
    9.3558732217473273E-01 
    9.5029111373208419E-01 
    9.4996893164183738E-01 
    9.3528612739105255E-01 
    9.3497615002616463E-01 
    9.4963775642958304E-01 
    9.4929922668871414E-01 
    9.3465889088070164E-01 
    9.3433603725138770E-01 
    9.4895516377165579E-01 
    9.4860738224547214E-01 
    9.3400926609077595E-01 
    9.3368016410928245E-01 
    9.4825758809816063E-01 
    9.4790767538256848E-01 
    9.3335049467169218E-01 
    9.3302195138373056E-01 
    9.4755950283890555E-01 
    9.4721480263584201E-01 
    9.3269614089030961E-01 
    9.3237475685232951E-01 
    9.4687542711492578E-01 
    9.4654327857717691E-01 
    9.3205951235118167E-01 
    9.3175205415696249E-01 
    9.4622016139534271E-01 
    9.4590784294218633E-01 
    9.3145391956083101E-01 
    9.3116670096000620E-01 
    9.4560829437585259E-01 
    9.4532346579465243E-01 
    9.3089162435767814E-01 
    9.3062979174593286E-01 
    9.4505563527978931E-01 
    9.4480827633773423E-01 
    9.3038128486844995E-01 
    9.3012604082433725E-01 
    9.4457829288652662E-01 
    9.4430468407730872E-01 
    9.2981863161728384E-01 
    9.2951283431413756E-01 
    9.4397697560174298E-01 
    9.4371296960384743E-01 
    9.2928328095642365E-01 
    9.2911230935857048E-01 
    9.4353104935994336E-01 
    9.4341031529949937E-01 
    9.2899812861391362E-01 
    9.2894101316255273E-01 
    9.4335003401662765E-01 
    9.2289753988767809E-01 
    9.0727057485191820E-01 
    9.0724852602016570E-01 
    9.2287489740799200E-01 
    9.2282972192613544E-01 
    9.0720452933011142E-01 
    9.0713876568584084E-01 
    9.2276220557965694E-01 
    9.2267268365874522E-01 
    9.0705155315480779E-01 
    9.0694337077402853E-01 
    9.2256166137206863E-01 
    9.2242977101087553E-01 
    9.0681483174390243E-01 
    9.0666659439615105E-01 
    9.2227769134978466E-01 
    9.2210616425492775E-01 
    9.0649941140617063E-01 
    9.0631416311754298E-01 
    9.2191609584509759E-01 
    9.2170850832891094E-01 
    9.0611181474982794E-01 
    9.0589336580995694E-01 
    9.2148448377714409E-01 
    9.2124519806637950E-01 
    9.0565989674904857E-01 
    9.0541252495544444E-01 
    9.2099183489254899E-01 
    9.2072559805225762E-01 
    9.0515239872606135E-01 
    9.0488078573676189E-01 
    9.2044781970076783E-01 
    9.2015991764519933E-01 
    9.0459904541078773E-01 
    9.0430855307718616E-01 
    9.1986331035978297E-01 
    9.1955943719716149E-01 
    9.0401069326499639E-01 
    9.0370695539573920E-01 
    9.1924986183390700E-01 
    9.1893617499061231E-01 
    9.0339889610185198E-01 
    9.0308806166041411E-01 
    9.1861994069280262E-01 
    9.1830280574850354E-01 
    9.0277603312577048E-01 
    9.0246438214160440E-01 
    9.1798637609071321E-01 
    9.1767223669478071E-01 
    9.0215462110079647E-01 
    9.0184831102101426E-01 
    9.1736201764793390E-01 
    9.1705740909795008E-01 
    9.0154712120788827E-01 
    9.0125279691865889E-01 
    9.1676017948405608E-01 
    9.1647214421632539E-01 
    9.0096720543744580E-01 
    9.0069260633093295E-01 
    9.1619534316037465E-01 
    9.1593186082756162E-01 
    9.0043194950608496E-01 
    9.0018801493005063E-01 
    9.1568377986151483E-01 
    9.1544979078926603E-01 
    8.9995548311939899E-01 
    8.9966528961139047E-01 
    9.1517529098346617E-01 
    9.1482093411052112E-01 
    8.9930054389014669E-01 
    8.9899255182415994E-01 