# vtk DataFile Version 2.0
Pressure Field Data 
ASCII 
DATASET UNSTRUCTURED_GRID 

POINTS 1681 double 

    0.0000000000000000E+00     0.0000000000000000E+00     0.0000000000000000E+00 
    1.0000000000000000E+00     0.0000000000000000E+00     0.0000000000000000E+00 
    1.0000000000000000E+00     1.0000000000000000E+00     0.0000000000000000E+00 
    0.0000000000000000E+00     1.0000000000000000E+00     0.0000000000000000E+00 
    5.2499999999875258E-01     0.0000000000000000E+00     0.0000000000000000E+00 
    7.4999999999856765E-02     0.0000000000000000E+00     0.0000000000000000E+00 
    1.2499999999975850E-01     0.0000000000000000E+00     0.0000000000000000E+00 
    1.7499999999962990E-01     0.0000000000000000E+00     0.0000000000000000E+00 
    2.2499999999948389E-01     0.0000000000000000E+00     0.0000000000000000E+00 
    2.7499999999933789E-01     0.0000000000000000E+00     0.0000000000000000E+00 
    3.2499999999919210E-01     0.0000000000000000E+00     0.0000000000000000E+00 
    3.7499999999904610E-01     0.0000000000000000E+00     0.0000000000000000E+00 
    4.2499999999890020E-01     0.0000000000000000E+00     0.0000000000000000E+00 
    4.7499999999875958E-01     0.0000000000000000E+00     0.0000000000000000E+00 
    2.4999999999949701E-02     0.0000000000000000E+00     0.0000000000000000E+00 
    5.7499999999887907E-01     0.0000000000000000E+00     0.0000000000000000E+00 
    6.2499999999901101E-01     0.0000000000000000E+00     0.0000000000000000E+00 
    6.7499999999914273E-01     0.0000000000000000E+00     0.0000000000000000E+00 
    7.2499999999927467E-01     0.0000000000000000E+00     0.0000000000000000E+00 
    7.7499999999940661E-01     0.0000000000000000E+00     0.0000000000000000E+00 
    8.2499999999953844E-01     0.0000000000000000E+00     0.0000000000000000E+00 
    8.7499999999967026E-01     0.0000000000000000E+00     0.0000000000000000E+00 
    9.2499999999980220E-01     0.0000000000000000E+00     0.0000000000000000E+00 
    9.7499999999993414E-01     0.0000000000000000E+00     0.0000000000000000E+00 
    5.4999999999881310E-01     0.0000000000000000E+00     0.0000000000000000E+00 
    9.9999999999814140E-02     0.0000000000000000E+00     0.0000000000000000E+00 
    1.4999999999970290E-01     0.0000000000000000E+00     0.0000000000000000E+00 
    1.9999999999955689E-01     0.0000000000000000E+00     0.0000000000000000E+00 
    2.4999999999941089E-01     0.0000000000000000E+00     0.0000000000000000E+00 
    2.9999999999926502E-01     0.0000000000000000E+00     0.0000000000000000E+00 
    3.4999999999911913E-01     0.0000000000000000E+00     0.0000000000000000E+00 
    3.9999999999897312E-01     0.0000000000000000E+00     0.0000000000000000E+00 
    4.4999999999882723E-01     0.0000000000000000E+00     0.0000000000000000E+00 
    4.9999999999869210E-01     0.0000000000000000E+00     0.0000000000000000E+00 
    4.9999999999899403E-02     0.0000000000000000E+00     0.0000000000000000E+00 
    5.9999999999894504E-01     0.0000000000000000E+00     0.0000000000000000E+00 
    6.4999999999907687E-01     0.0000000000000000E+00     0.0000000000000000E+00 
    6.9999999999920870E-01     0.0000000000000000E+00     0.0000000000000000E+00 
    7.4999999999934064E-01     0.0000000000000000E+00     0.0000000000000000E+00 
    7.9999999999947247E-01     0.0000000000000000E+00     0.0000000000000000E+00 
    8.4999999999960441E-01     0.0000000000000000E+00     0.0000000000000000E+00 
    8.9999999999973623E-01     0.0000000000000000E+00     0.0000000000000000E+00 
    9.4999999999986817E-01     0.0000000000000000E+00     0.0000000000000000E+00 
    1.0000000000000000E+00     5.2499999999875258E-01     0.0000000000000000E+00 
    1.0000000000000000E+00     7.4999999999856765E-02     0.0000000000000000E+00 
    1.0000000000000000E+00     1.2499999999975850E-01     0.0000000000000000E+00 
    1.0000000000000000E+00     1.7499999999962990E-01     0.0000000000000000E+00 
    1.0000000000000000E+00     2.2499999999948389E-01     0.0000000000000000E+00 
    1.0000000000000000E+00     2.7499999999933789E-01     0.0000000000000000E+00 
    1.0000000000000000E+00     3.2499999999919210E-01     0.0000000000000000E+00 
    1.0000000000000000E+00     3.7499999999904610E-01     0.0000000000000000E+00 
    1.0000000000000000E+00     4.2499999999890020E-01     0.0000000000000000E+00 
    1.0000000000000000E+00     4.7499999999875958E-01     0.0000000000000000E+00 
    1.0000000000000000E+00     2.4999999999949701E-02     0.0000000000000000E+00 
    1.0000000000000000E+00     5.7499999999887907E-01     0.0000000000000000E+00 
    1.0000000000000000E+00     6.2499999999901101E-01     0.0000000000000000E+00 
    1.0000000000000000E+00     6.7499999999914273E-01     0.0000000000000000E+00 
    1.0000000000000000E+00     7.2499999999927467E-01     0.0000000000000000E+00 
    1.0000000000000000E+00     7.7499999999940661E-01     0.0000000000000000E+00 
    1.0000000000000000E+00     8.2499999999953844E-01     0.0000000000000000E+00 
    1.0000000000000000E+00     8.7499999999967026E-01     0.0000000000000000E+00 
    1.0000000000000000E+00     9.2499999999980220E-01     0.0000000000000000E+00 
    1.0000000000000000E+00     9.7499999999993414E-01     0.0000000000000000E+00 
    1.0000000000000000E+00     5.4999999999881310E-01     0.0000000000000000E+00 
    1.0000000000000000E+00     9.9999999999814140E-02     0.0000000000000000E+00 
    1.0000000000000000E+00     1.4999999999970290E-01     0.0000000000000000E+00 
    1.0000000000000000E+00     1.9999999999955689E-01     0.0000000000000000E+00 
    1.0000000000000000E+00     2.4999999999941089E-01     0.0000000000000000E+00 
    1.0000000000000000E+00     2.9999999999926502E-01     0.0000000000000000E+00 
    1.0000000000000000E+00     3.4999999999911913E-01     0.0000000000000000E+00 
    1.0000000000000000E+00     3.9999999999897312E-01     0.0000000000000000E+00 
    1.0000000000000000E+00     4.4999999999882723E-01     0.0000000000000000E+00 
    1.0000000000000000E+00     4.9999999999869210E-01     0.0000000000000000E+00 
    1.0000000000000000E+00     4.9999999999899403E-02     0.0000000000000000E+00 
    1.0000000000000000E+00     5.9999999999894504E-01     0.0000000000000000E+00 
    1.0000000000000000E+00     6.4999999999907687E-01     0.0000000000000000E+00 
    1.0000000000000000E+00     6.9999999999920870E-01     0.0000000000000000E+00 
    1.0000000000000000E+00     7.4999999999934064E-01     0.0000000000000000E+00 
    1.0000000000000000E+00     7.9999999999947247E-01     0.0000000000000000E+00 
    1.0000000000000000E+00     8.4999999999960441E-01     0.0000000000000000E+00 
    1.0000000000000000E+00     8.9999999999973623E-01     0.0000000000000000E+00 
    1.0000000000000000E+00     9.4999999999986817E-01     0.0000000000000000E+00 
    4.7500000000196618E-01     1.0000000000000000E+00     0.0000000000000000E+00 
    9.2499999999968763E-01     1.0000000000000000E+00     0.0000000000000000E+00 
    8.7499999999961831E-01     1.0000000000000000E+00     0.0000000000000000E+00 
    8.2499999999982654E-01     1.0000000000000000E+00     0.0000000000000000E+00 
    7.7500000000017355E-01     1.0000000000000000E+00     0.0000000000000000E+00 
    7.2500000000052045E-01     1.0000000000000000E+00     0.0000000000000000E+00 
    6.7500000000086724E-01     1.0000000000000000E+00     0.0000000000000000E+00 
    6.2500000000121403E-01     1.0000000000000000E+00     0.0000000000000000E+00 
    5.7500000000156093E-01     1.0000000000000000E+00     0.0000000000000000E+00 
    5.2500000000189684E-01     1.0000000000000000E+00     0.0000000000000000E+00 
    9.7499999999989595E-01     1.0000000000000000E+00     0.0000000000000000E+00 
    4.2500000000176902E-01     1.0000000000000000E+00     0.0000000000000000E+00 
    3.7500000000156092E-01     1.0000000000000000E+00     0.0000000000000000E+00 
    3.2500000000135282E-01     1.0000000000000000E+00     0.0000000000000000E+00 
    2.7500000000114472E-01     1.0000000000000000E+00     0.0000000000000000E+00 
    2.2500000000093659E-01     1.0000000000000000E+00     0.0000000000000000E+00 
    1.7500000000072849E-01     1.0000000000000000E+00     0.0000000000000000E+00 
    1.2500000000052039E-01     1.0000000000000000E+00     0.0000000000000000E+00 
    7.5000000000312261E-02     1.0000000000000000E+00     0.0000000000000000E+00 
    2.5000000000104109E-02     1.0000000000000000E+00     0.0000000000000000E+00 
    4.5000000000187301E-01     1.0000000000000000E+00     0.0000000000000000E+00 
    8.9999999999958358E-01     1.0000000000000000E+00     0.0000000000000000E+00 
    8.4999999999965303E-01     1.0000000000000000E+00     0.0000000000000000E+00 
    8.0000000000000004E-01     1.0000000000000000E+00     0.0000000000000000E+00 
    7.5000000000034706E-01     1.0000000000000000E+00     0.0000000000000000E+00 
    7.0000000000069384E-01     1.0000000000000000E+00     0.0000000000000000E+00 
    6.5000000000104063E-01     1.0000000000000000E+00     0.0000000000000000E+00 
    6.0000000000138742E-01     1.0000000000000000E+00     0.0000000000000000E+00 
    5.5000000000173432E-01     1.0000000000000000E+00     0.0000000000000000E+00 
    5.0000000000205946E-01     1.0000000000000000E+00     0.0000000000000000E+00 
    9.4999999999979179E-01     1.0000000000000000E+00     0.0000000000000000E+00 
    4.0000000000166491E-01     1.0000000000000000E+00     0.0000000000000000E+00 
    3.5000000000145681E-01     1.0000000000000000E+00     0.0000000000000000E+00 
    3.0000000000124871E-01     1.0000000000000000E+00     0.0000000000000000E+00 
    2.5000000000104061E-01     1.0000000000000000E+00     0.0000000000000000E+00 
    2.0000000000083251E-01     1.0000000000000000E+00     0.0000000000000000E+00 
    1.5000000000062441E-01     1.0000000000000000E+00     0.0000000000000000E+00 
    1.0000000000041630E-01     1.0000000000000000E+00     0.0000000000000000E+00 
[...]
CELL_DATA 1600 
SCALARS Pressure double 1 
LOOKUP_TABLE default 

    1.0655198535468553E+00 
    1.0196485214976230E+00 
    1.0172758787214191E+00 
    1.0499527401645825E+00 
    1.0375506957057292E+00 
    1.0136964470410630E+00 
    1.0095697264049874E+00 
    1.0274158867726668E+00 
    1.0189467690695353E+00 
    1.0052665479262777E+00 
    1.0009918463191065E+00 
    1.0117303683324956E+00 
    1.0054764803514427E+00 
    9.9685363271344440E-01 
    9.9290392856433329E-01 
    9.9997714943364135E-01 
    9.9508070695009365E-01 
    9.8916316740682098E-01 
    9.8563450598888291E-01 
    9.9067483724609617E-01 
    9.8667527422227386E-01 
    9.8231221738188168E-01 
    9.7918631444669957E-01 
    9.8301806385863477E-01 
    9.7965398821858940E-01 
    9.7624511984595375E-01 
    9.7347639100617656E-01 
    9.7654427538012500E-01 
    9.7365766831392975E-01 
    9.7086808400464153E-01 
    9.6840904590916332E-01 
    9.7096885015250678E-01 
    9.6845751155985715E-01 
    9.6608950081117473E-01 
    9.6390098438980343E-01 
    9.6610737025545690E-01 
    9.6390520742801378E-01 
    9.6183616290764218E-01 
    9.5988867109602383E-01 
    9.6184016062441824E-01 
    9.5990322737682932E-01 
    9.5805300866135179E-01 
    9.5632431743282864E-01 
    9.5808685755044654E-01 
    9.5638461569327149E-01 
    9.5469831613166245E-01 
    9.5317132314500530E-01 
    9.5479105232402606E-01 
    9.5330174492305764E-01 
    9.5174034224968751E-01 
    9.5040296421031334E-01 
    9.5191316604801446E-01 
    9.5062242265847652E-01 
    9.4915721420374510E-01 
    9.4800143362118583E-01 
    9.4942709798398617E-01 
    9.4832525700157932E-01 
    9.4693430714112203E-01 
    9.4595487924948651E-01 
    9.4731543956156572E-01 
    9.4639657302128832E-01 
    9.4506252323447970E-01 
    9.4425687951930093E-01 
    9.4556795624567991E-01 
    9.4482922306731454E-01 
    9.4353786329320499E-01 
    9.4290564607066019E-01 
    9.4418028477864036E-01 
    9.4362140273912565E-01 
    9.4236065889994614E-01 
    9.4190360823031971E-01 
    9.4315320214745024E-01 
    9.4277685296985281E-01 
    9.4153578994908427E-01 
    9.4125603877667741E-01 
    9.4249152086519594E-01 
    9.4226530220309668E-01 
    9.4103378208806077E-01 
    9.4090768013580173E-01 
    9.4213680626500640E-01 
    9.9648541068434215E-01 
    9.7987772202450785E-01 
    9.7951569741478450E-01 
    9.9573425182905584E-01 
    9.9435570886922109E-01 
    9.7881626114228770E-01 
    9.7781971978010884E-01 
    9.9250084775326430E-01 
    9.9031090452540371E-01 
    9.7657417831063376E-01 
    9.7512915227075558E-01 
    9.8790366337161262E-01 
    9.8537087864560535E-01 
    9.7353123331730351E-01 
    9.7182201466808582E-01 
    9.8278104649363551E-01 
    9.8018387453255773E-01 
    9.7003720255530457E-01 
    9.6820670084550298E-01 
    9.7761456618121845E-01 
    9.7509745913107493E-01 
    9.6635487491070471E-01 
    9.6450124215871069E-01 
    9.7264879853750708E-01 
    9.7027898863142881E-01 
    9.6266132114190806E-01 
    9.6084732933575512E-01 
    9.6799416759920021E-01 
    9.6579761146603471E-01 
    9.5906880719728416E-01 
    9.5733331047208969E-01 
    9.6369082492049118E-01 
    9.6167426529810340E-01 
    9.5564676008603056E-01 
    9.5401374605011813E-01 
    9.5974765495962089E-01 
    9.5791026216411135E-01 
    9.5243779867406952E-01 
    9.5092169604174082E-01 
    9.5616108799703869E-01 
    9.5449896205118345E-01 
    9.4946748095425915E-01 
    9.4807664838787742E-01 
    9.5292254638626139E-01 
    9.5143052107459225E-01 
    9.4675043206705156E-01 
    9.4548989830017161E-01 
    9.5002170800541230E-01 
    9.4869517826780014E-01 
    9.4429598670534376E-01 
    9.4316958166682563E-01 
    9.4745021199681745E-01 
    9.4628621770471821E-01 
    9.4211144886915654E-01 
    9.4112224748061524E-01 
    9.4520269015059033E-01 
    9.4419929718853957E-01 
    9.4020264703641587E-01 
    9.3935342578555248E-01 
    9.4327591744444517E-01 
    9.4243260314890742E-01 
    9.3857534080459559E-01 
    9.3786919182134942E-01 
    9.4166956224938270E-01 
    9.4098718912588952E-01 
    9.3723589813243136E-01 
    9.3667638591047153E-01 
    9.4038604427590256E-01 
    9.3986688948279085E-01 
    9.3619174444394471E-01 
    9.3578330129901244E-01 
    9.3943066780463125E-01 
    9.3907887838007542E-01 
    9.3545293874803925E-01 
    9.3519763528718391E-01 
    9.3880954893086244E-01 
    9.3859469792393013E-01 
    9.3499296418300804E-01 
    9.3487771664167274E-01 
    9.3847312090987034E-01 
    9.6598278464909304E-01 
    9.5339523991644581E-01 
    9.5325355431020098E-01 
    9.6576855709886222E-01 
    9.6534797933089045E-01 
    9.5297354048637750E-01 
    9.5256154266529058E-01 
    9.6473534028312702E-01 
    9.6394968732322217E-01 
    9.5202646965930360E-01 
    9.5137917474046552E-01 
    9.6301295679038434E-01 
    9.6194805514877768E-01 
    9.5063159965640653E-01 
    9.4979613522916528E-01 
    9.6077753403644006E-01 
    9.5952270549896368E-01 
    9.4888527904195341E-01 
    9.4791152006070556E-01 
    9.5820329197869614E-01 
    9.5683702701861295E-01 
    9.4688692277775954E-01 
    9.4582273453814014E-01 
    9.5543952335802773E-01 
    9.5402456065662022E-01 
    9.4472951713214048E-01 
    9.4361696371560466E-01 
    9.5260410374223414E-01 
    9.5118834230534999E-01 
    9.4249374629840321E-01 
    9.4136774799384193E-01 
    9.4978605751508915E-01 
    9.4840477477262286E-01 
    9.4024609300137330E-01 
    9.3913506462538343E-01 
    9.4705082447338884E-01 
    9.4572948763283604E-01 
    9.3804013617548654E-01 
    9.3696626905258662E-01 
    9.4444530330576748E-01 
    9.4320207026126635E-01 
    9.3591791068828600E-01 
    9.3489896033710163E-01 
    9.4200296606215295E-01 
    9.4085088348418378E-01 
    9.3391306736319890E-01 
    9.3296354105271040E-01 
    9.3974839173337044E-01 
    9.3869769876447240E-01 
    9.3205324094915920E-01 
    9.3118479675120813E-01 
    9.3770081018384988E-01 
    9.3675954302811038E-01 
    9.3036067073862083E-01 
    9.2958309580850285E-01 
    9.3587549887175314E-01 
    9.3505015248328249E-01 
    9.2885408991443896E-01 
    9.2817564544633080E-01 
    9.3428500542528836E-01 
    9.3358144974065449E-01 
    9.2754963431532289E-01 
    9.2697772434598591E-01 
    9.3294077419758525E-01 
    9.3236433788022888E-01 
    9.2646161808276795E-01 
    9.2600292611735946E-01 
    9.3185341092552898E-01 
    9.3140926283518155E-01 
    9.2560304199209575E-01 
    9.2526325579931434E-01 
    9.3103335878390048E-01 
    9.3072771961484180E-01 
    9.2498513625294543E-01 
    9.2475938504162924E-01 
    9.3048732120207012E-01 
    9.3029268187385661E-01 
    9.2457323774395972E-01 
    9.2447149543091311E-01 
    9.3018426715897262E-01 
    9.4145624545100248E-01 
    9.2980948188863477E-01 
    9.2973481171485217E-01 
    9.4135582176514676E-01 
    9.4115669198607887E-01 
    9.2958647066957445E-01 
    9.2936636676455131E-01 
    9.4086216374972986E-01 
    9.4047696144671977E-01 
    9.2907722655352076E-01 
    9.2872242291564810E-01 
    9.4000692663250762E-01 
    9.3945872518258200E-01 
    9.2830606313924169E-01 
    9.2783287963068362E-01 
    9.3883966916308481E-01 
    9.3815755295442882E-01 
    9.2730808141061938E-01 
    9.2673708396072585E-01 
    9.3742050274144795E-01 
    9.3663666417941382E-01 
    9.2612540111495267E-01 
    9.2547853016461934E-01 
    9.3581391410989156E-01 
    9.3495987997322472E-01 
    9.2480199610148306E-01 
    9.2410122526503258E-01 
    9.3408189173964040E-01 
    9.3318678519927578E-01 
    9.2338146585629055E-01 
    9.2264775143560152E-01 
    9.3228097581915492E-01 
    9.3137045416382791E-01 
    9.2190495624255875E-01 
    9.2115770119075824E-01 
    9.3046074240444754E-01 
    9.2955688521518642E-01 
    9.2041039678182557E-01 
    9.1966727205237386E-01 
    9.2866360884029953E-01 
    9.2778531338351589E-01 
    9.1893230731716735E-01 
    9.1820920743777845E-01 
    9.2692600544954662E-01 
    9.2608941737818662E-01 
    9.1750149930495184E-01 
    9.1681245110018961E-01 
    9.2527900891256831E-01 
    9.2449787518874815E-01 
    9.1614511604472526E-01 
    9.1550239744785211E-01 
    9.2374889827416395E-01 
    9.2303481223948869E-01 
    9.1488708022731169E-01 
    9.1430175326411089E-01 
    9.2235816828396411E-01 
    9.2172130245953687E-01 
    9.1374886016697809E-01 
    9.1323077389068308E-01 
    9.2112646601333337E-01 
    9.2057581318190296E-01 
    9.1274972285720979E-01 
    9.1230781479046141E-01 
    9.2007130664841719E-01 
    9.1961488827499616E-01 
    9.1190715130436961E-01 
    9.1154971824780384E-01 
    9.1920846182181404E-01 
    9.1885370121465915E-01 
    9.1123743033259563E-01 
    9.1097227105209821E-01 
    9.1855206584713156E-01 
    9.1830511070317711E-01 
    9.1075621036684984E-01 
    9.1057129898167088E-01 
    9.1809888583754873E-01 
    9.1792598499738043E-01 
    9.1041373945631276E-01 
    9.1032800239859657E-01 
    9.1783183124923318E-01 
    9.1824460222510673E-01 
    9.0662986345016838E-01 
    9.0658419835658000E-01 
    9.1818707220250706E-01 
    9.1807261920445049E-01 
    9.0649326558816068E-01 
    9.0635784578893264E-01 
    9.1790242048855097E-01 
    9.1767814392955749E-01 
    9.0617909434050892E-01 
    9.0595860122331051E-01 
    9.1740198467180378E-01 
    9.1707675584389248E-01 
    9.0569841098588844E-01 
    9.0540083385618297E-01 
    9.1670573614211648E-01 
    9.1629244471308990E-01 
    9.0506828365971237E-01 
    9.0470335474074481E-01 
    9.1584058142560776E-01 
    9.1535395665676600E-01 
    9.0430883285579489E-01 
    9.0388766178757252E-01 
    9.1483650301953645E-01 
    9.1429232148504191E-01 
    9.0344290293159435E-01 
    9.0297767718835786E-01 
    9.1372547530493176E-01 
    9.1313994873434934E-01 
    9.0249509185364962E-01 
    9.0199833014529307E-01 
    9.1253972303163033E-01 
    9.1192876162489989E-01 
    9.0149059841691115E-01 
    9.0097503786374666E-01 
    9.1131089158905099E-01 
    9.1068978954785051E-01 
    9.0045467811148261E-01 
    8.9993254733906314E-01 
    9.1006910219146320E-01 
    9.0945227972183817E-01 
    8.9941159936735460E-01 
    8.9889461749103639E-01 
    9.0884254864418590E-01 
    9.0824310658479501E-01 
    8.9838439879930854E-01 
    8.9788366430308275E-01 
    9.0765696014677277E-01 
    9.0708693205863955E-01 
    8.9739495565570904E-01 
    8.9692080870383728E-01 
    9.0653578792863387E-01 
    9.0600622707398437E-01 
    8.9646370946160203E-01 
    8.9602602274403398E-01 
    9.0550076306434191E-01 
    9.0502177246853932E-01 
    8.9561000324098883E-01 
    8.9521792140941947E-01 
    9.0457164708162918E-01 
    9.0415263752752217E-01 
    8.9485200111979346E-01 
    8.9451440604799459E-01 
    9.0376691398671338E-01 
    9.0341670552678532E-01 
    8.9420737700964104E-01 
    8.9393315455008726E-01 
    9.0310410314647460E-01 
    9.0283117915617295E-01 
    8.9369402473835957E-01 
    8.9349271396044205E-01 
    9.0260027287936984E-01 
    9.0241385385762463E-01 
    8.9333212998526623E-01 
    8.9318445136453151E-01 
    9.0224838807111296E-01 
    9.0210154455877378E-01 
    8.9304796307734657E-01 
    8.9297320366965316E-01 
    9.0202176713790783E-01 
    8.9487964116961194E-01 
    8.8293616396673302E-01 
    8.8290520740318135E-01 
    8.9484246650664701E-01 
    8.9476839602810843E-01 
    8.8284351145173945E-01 
    8.8275150840239758E-01 
    8.9465799165788706E-01 
    8.9451212931273927E-01 
    8.8262989973718653E-01 
    8.8247963578701216E-01 
    8.9433204579915959E-01 
    8.9411925183737073E-01 
    8.8230184005460488E-01 
    8.8209771589017971E-01 
    8.9387537613778700E-01 
    8.9360213606881556E-01 
    8.8186859306909748E-01 
    8.8161604365354673E-01 
    8.9330149632000122E-01 
    8.9297560672633058E-01 
    8.8134177943030123E-01 
    8.8104754847324940E-01 
    8.9262669643890535E-01 
    8.9225715116550419E-01 
    8.8073527464442025E-01 
    8.8040694722290813E-01 
    8.9186943843441313E-01 
    8.9146601799209046E-01 
    8.8006453436362597E-01 
    8.7971010457086818E-01 
    8.9104946445770883E-01 
    8.9062237225228857E-01 
    8.7934578157938459E-01 
    8.7897364714259252E-01 
    8.9018727899885908E-01 
    8.8974667075903568E-01 
    8.7859576390640259E-01 
    8.7821429352485836E-01 
    8.8930308531836788E-01 
    8.8885903416103373E-01 
    8.7783137009784573E-01 
    8.7744904381402367E-01 
    8.8841689556305192E-01 
    8.8797912162751225E-01 
    8.7706944647235396E-01 
    8.7669466518850170E-01 
    8.8754810764572500E-01 
    8.8712608465918508E-01 
    8.7632665812885380E-01 
    8.7596741228581620E-01 
    8.8671533478383735E-01 
    8.8631809666753325E-01 
    8.7561893046486572E-01 
    8.7528308532536447E-01 
    8.8593648255518043E-01 
    8.8557252160898314E-01 
    8.7496164672612176E-01 
    8.7465649323872074E-01 
    8.8522830492029192E-01 
    8.8490585365185215E-01 
    8.7436938974449985E-01 
    8.7410192011808141E-01 
    8.8460705174187571E-01 
    8.8433391259830729E-01 
    8.7385582286941044E-01 
    8.7363266265906780E-01 
    8.8408838059571304E-01 
    8.8387233349280847E-01 
    8.7343370142354637E-01 
    8.7326075925457325E-01 
    8.8368836719268540E-01 
    8.8353823456234692E-01 
    8.7311223860317799E-01 
    8.7296618604389509E-01 
    8.8339584613744659E-01 
    8.8327002395588661E-01 
    8.7284691900614331E-01 
    8.7278987978774847E-01 
    8.8320467570150774E-01 
    8.7076022776796591E-01 
    8.5832593341067043E-01 
    8.5830310638633278E-01 
    8.7073391631378227E-01 
    8.7068146288854620E-01 
    8.5825758122056728E-01 
    8.5818964360546113E-01 
    8.7060321169267851E-01 
    8.7049972000736753E-01 
    8.5809971645196825E-01 
    8.5798836196051131E-01 
    8.7037170735702718E-01 
    8.7022002894316919E-01 
    8.5785625337970950E-01 
    8.5770419972675427E-01 
    8.7004564082306057E-01 
    8.6984964705194179E-01 
    8.5753312880379495E-01 
    8.5734413634896489E-01 
    8.6963333807103904E-01 
    8.6939811335350159E-01 
    8.5713840036758249E-01 
    8.5691713883119358E-01 
    8.6914541734301165E-01 
    8.6887682297360869E-01 
    8.5668164472228936E-01 
    8.5643324203398008E-01 
    8.6859393335828794E-01 
    8.6829836540028693E-01 
    8.5617328710808549E-01 
    8.5590322129860852E-01 
    8.6799180745687321E-01 
    8.6767602415058176E-01 
    8.5562457116286539E-01 
    8.5533886423206840E-01 
    8.6735277920082798E-01 
    8.6702383991340393E-01 
    8.5504763034918074E-01 
    8.5475247931972487E-01 
    8.6669104885843062E-01 
    8.6635623659206629E-01 
    8.5445502213437929E-01 
    8.5415683808436749E-01 
    8.6602121183480374E-01 
    8.6568780423928393E-01 
    8.5385954891739768E-01 
    8.5356478013445081E-01 
    8.6535783764828478E-01 
    8.6503306683899750E-01 
    8.5327409230290985E-01 
    8.5298903917223534E-01 
    8.6471521340529489E-01 
    8.6440604260595499E-01 
    8.5271122417226519E-01 
    8.5244214685687048E-01 
    8.6410722795016859E-01 
    8.6382035053689399E-01 
    8.5218324233677489E-01 
    8.5193596608633515E-01 
    8.6354704106950964E-01 
    8.6328881942325686E-01 
    8.5170166039897932E-01 
    8.5148154017320210E-01 
    8.6304707972179184E-01 
    8.6282326572801937E-01 
    8.5127674755126681E-01 
    8.5108814439440594E-01 
    8.6261863355210566E-01 
    8.6243422825876870E-01 
    8.5091656185947395E-01 
    8.5076273220528686E-01 
    8.6227136780711600E-01 
    8.6212390438136843E-01 
    8.5061329992927059E-01 
    8.5045659221414804E-01 
    8.6197347129854951E-01 
    8.6185723421453675E-01 
    8.5034587779806559E-01 
    8.5030041273168444E-01 
    8.6180502163771999E-01 
    8.4561777091433998E-01 
    8.3262800288136662E-01 
    8.3260956074835357E-01 
    8.4559751256234983E-01 
    8.4555711134843536E-01 
    8.3257278807357105E-01 
    8.3251788653373338E-01 
    8.4549680376075231E-01 
    8.4541692185413564E-01 
    8.3244513274806453E-01 
    8.3235490705392046E-01 
    8.4531790644107996E-01 
    8.4520032631354369E-01 
    8.3224770154102745E-01 
    8.3212411135602404E-01 
    8.4506487281238640E-01 
    8.4491233418875766E-01 
    8.3198482183217859E-01 
    8.3183067192246640E-01 
    8.4474366224061559E-01 
    8.4455987492686602E-01 
    8.3166254045318710E-01 
    8.3148129625344669E-01 
    8.4436198817355501E-01 
    8.4415110250829373E-01 
    8.3128792764145665E-01 
    8.3108347562442242E-01 
    8.4392836529639759E-01 
    8.4369495193958277E-01 
    8.3086901114188105E-01 
    8.3064570895027745E-01 
    8.4345214363638010E-01 
    8.4320131683966970E-01 
    8.3041482050592197E-01 
    8.3017756533723064E-01 
    8.4294382074027052E-01 
    8.4268098819668580E-01 
    8.2993515341334168E-01 
    8.2968892635810076E-01 
    8.4241427828767323E-01 
    8.4214514353873127E-01 
    8.2944021174704785E-01 
    8.2919027337820661E-01 
    8.4187496362353964E-01 
    8.4160524248985935E-01 
    8.2894052306526833E-01 
    8.2869234099230404E-01 
    8.4133746975897095E-01 
    8.4107304311198872E-01 
    8.2844705312171540E-01 
    8.2820606912884975E-01 
    8.4081343421173382E-01 
    8.4056017796216187E-01 
    8.2797085658468683E-01 
    8.2774283657452852E-01 
    8.4031470121702245E-01 
    8.4007836713337236E-01 
    8.2752339269182518E-01 
    8.2731406530793272E-01 
    8.3985265068048098E-01 
    8.3963896512849567E-01 
    8.2711642805782026E-01 
    8.2693203999349474E-01 
    8.3943858722252762E-01 
    8.3925287320414921E-01 
    8.2676272139512441E-01 
    8.2661059511942714E-01 
    8.3908300787381562E-01 
    8.3893052146210012E-01 
    8.2647900182162259E-01 
    8.2637092472643126E-01 
    8.3879634302909378E-01 
    8.3865657404046801E-01 
    8.2625279073344360E-01 
    8.2610296529024918E-01 
    8.3849992369763149E-01 
    8.3838974726466187E-01 
    8.2598781993900849E-01 
    8.2593546385653815E-01 
    8.3834443756608390E-01 
    8.1935366694512124E-01 
    8.0579570476878670E-01 
    8.0577902737684926E-01 
    8.1933639300752159E-01 
    8.1930195421813212E-01 
    8.0574577331857311E-01 
    8.0569612078291974E-01 
    8.1925053175839280E-01 
    8.1918238854020120E-01 
    8.0563032636645182E-01 
    8.0554870759696406E-01 
    8.1909786424342812E-01 
    8.1899739466388632E-01 
    8.0545168146678647E-01 
    8.0533975194606156E-01 
    8.1888151440061063E-01 
    8.1875085412924387E-01 
    8.0521351254184692E-01 
    8.0507361987648396E-01 
    8.1860614623027483E-01 
    8.1844815974335983E-01 
    8.0492078850148574E-01 
    8.0475580588316886E-01 
    8.1827770107342301E-01 
    8.1809568974691482E-01 
    8.0457956918087603E-01 
    8.0439303484832958E-01 
    8.1790310609687289E-01 
    8.1770096984529228E-01 
    8.0419717854636841E-01 
    8.0399304614300859E-01 
    8.1749037518074275E-01 
    8.1727246793276698E-01 
    8.0378172792908020E-01 
    8.0356432249818532E-01 
    8.1704838439802552E-01 
    8.1681927738569393E-01 
    8.0334193866322978E-01 
    8.0311576566850518E-01 
    8.1658638733437638E-01 
    8.1635095200657470E-01 
    8.0288699837343203E-01 
    8.0265681658428145E-01 
    8.1611418389469537E-01 
    8.1587740081131777E-01 
    8.0242647177204962E-01 
    8.0219721455832227E-01 
    8.1564189478241567E-01 
    8.1540895538609259E-01 
    8.0197027794880971E-01 
    8.0174693816373244E-01 
    8.1517992398358718E-01 
    8.1495615706416202E-01 
    8.0152846115601917E-01 
    8.0131608074342708E-01 
    8.1473900863549364E-01 
    8.1452980715418788E-01 
    8.0111097935762376E-01 
    8.0091439742546666E-01 
    8.1432999125888295E-01 
    8.1414100635736164E-01 
    8.0072748675153660E-01 
    8.0055126975629998E-01 
    8.1396430372787509E-01 
    8.1380150199641588E-01 
    8.0038674311622215E-01 
    8.0023504136786350E-01 
    8.1365460757495567E-01 
    8.1352699897257263E-01 
    8.0009775641601355E-01 
    7.9997085875996088E-01 