# vtk DataFile Version 2.0
Pressure Field Data 
ASCII 
DATASET UNSTRUCTURED_GRID 

POINTS 1681 double 

    0.0000000000000000E+00     0.0000000000000000E+00     0.0000000000000000E+00 
    1.0000000000000000E+00     0.0000000000000000E+00     0.0000000000000000E+00 
    1.0000000000000000E+00     1.0000000000000000E+00     0.0000000000000000E+00 
    0.0000000000000000E+00     1.0000000000000000E+00     0.0000000000000000E+00 
    5.2499999999875258E-01     0.0000000000000000E+00     0.0000000000000000E+00 
    7.4999999999856765E-02     0.0000000000000000E+00     0.0000000000000000E+00 
    1.2499999999975850E-01     0.0000000000000000E+00     0.0000000000000000E+00 
    1.7499999999962990E-01     0.0000000000000000E+00     0.0000000000000000E+00 
    2.2499999999948389E-01     0.0000000000000000E+00     0.0000000000000000E+00 
    2.7499999999933789E-01     0.0000000000000000E+00     0.0000000000000000E+00 
    3.2499999999919210E-01     0.0000000000000000E+00     0.0000000000000000E+00 
    3.7499999999904610E-01     0.0000000000000000E+00     0.0000000000000000E+00 
    4.2499999999890020E-01     0.0000000000000000E+00     0.0000000000000000E+00 
    4.7499999999875958E-01     0.0000000000000000E+00     0.0000000000000000E+00 
    2.4999999999949701E-02     0.0000000000000000E+00     0.0000000000000000E+00 
    5.7499999999887907E-01     0.0000000000000000E+00     0.0000000000000000E+00 
    6.2499999999901101E-01     0.0000000000000000E+00     0.0000000000000000E+00 
    6.7499999999914273E-01     0.0000000000000000E+00     0.0000000000000000E+00 
    7.2499999999927467E-01     0.0000000000000000E+00     0.0000000000000000E+00 
    7.7499999999940661E-01     0.0000000000000000E+00     0.0000000000000000E+00 
    8.2499999999953844E-01     0.0000000000000000E+00     0.0000000000000000E+00 
    8.7499999999967026E-01     0.0000000000000000E+00     0.0000000000000000E+00 
    9.2499999999980220E-01     0.0000000000000000E+00     0.0000000000000000E+00 
    9.7499999999993414E-01     0.0000000000000000E+00     0.0000000000000000E+00 
    5.4999999999881310E-01     0.0000000000000000E+00     0.0000000000000000E+00 
    9.9999999999814140E-02     0.0000000000000000E+00     0.0000000000000000E+00 
    1.4999999999970290E-01     0.0000000000000000E+00     0.0000000000000000E+00 
    1.9999999999955689E-01     0.0000000000000000E+00     0.0000000000000000E+00 
    2.4999999999941089E-01     0.0000000000000000E+00     0.0000000000000000E+00 
    2.9999999999926502E-01     0.0000000000000000E+00     0.0000000000000000E+00 
    3.4999999999911913E-01     0.0000000000000000E+00     0.0000000000000000E+00 
    3.9999999999897312E-01     0.0000000000000000E+00     0.0000000000000000E+00 
    4.4999999999882723E-01     0.0000000000000000E+00     0.0000000000000000E+00 
    4.9999999999869210E-01     0.0000000000000000E+00     0.0000000000000000E+00 
    4.9999999999899403E-02     0.0000000000000000E+00     0.0000000000000000E+00 
    5.9999999999894504E-01     0.0000000000000000E+00     0.0000000000000000E+00 
    6.4999999999907687E-01     0.0000000000000000E+00     0.0000000000000000E+00 
    6.9999999999920870E-01     0.0000000000000000E+00     0.0000000000000000E+00 
    7.4999999999934064E-01     0.0000000000000000E+00     0.0000000000000000E+00 
    7.9999999999947247E-01     0.0000000000000000E+00     0.0000000000000000E+00 
    8.4999999999960441E-01     0.0000000000000000E+00     0.0000000000000000E+00 
    8.9999999999973623E-01     0.0000000000000000E+00     0.0000000000000000E+00 
    9.4999999999986817E-01     0.0000000000000000E+00     0.0000000000000000E+00 
    1.0000000000000000E+00     5.2499999999875258E-01     0.0000000000000000E+00 
    1.0000000000000000E+00     7.4999999999856765E-02     0.0000000000000000E+00 
    1.0000000000000000E+00     1.2499999999975850E-01     0.0000000000000000E+00 
    1.0000000000000000E+00     1.7499999999962990E-01     0.0000000000000000E+00 
    1.0000000000000000E+00     2.2499999999948389E-01     0.0000000000000000E+00 
    1.0000000000000000E+00     2.7499999999933789E-01     0.0000000000000000E+00 
    1.0000000000000000E+00     3.2499999999919210E-01     0.0000000000000000E+00 
    1.0000000000000000E+00     3.7499999999904610E-01     0.0000000000000000E+00 
    1.0000000000000000E+00     4.2499999999890020E-01     0.0000000000000000E+00 
    1.0000000000000000E+00     4.7499999999875958E-01     0.0000000000000000E+00 
    1.0000000000000000E+00     2.4999999999949701E-02     0.0000000000000000E+00 
    1.0000000000000000E+00     5.7499999999887907E-01     0.0000000000000000E+00 
    1.0000000000000000E+00     6.2499999999901101E-01     0.0000000000000000E+00 
    1.0000000000000000E+00     6.7499999999914273E-01     0.0000000000000000E+00 
    1.0000000000000000E+00     7.2499999999927467E-01     0.0000000000000000E+00 
    1.0000000000000000E+00     7.7499999999940661E-01     0.0000000000000000E+00 
    1.0000000000000000E+00     8.2499999999953844E-01     0.0000000000000000E+00 
    1.0000000000000000E+00     8.7499999999967026E-01     0.0000000000000000E+00 
    1.0000000000000000E+00     9.2499999999980220E-01     0.0000000000000000E+00 
    1.0000000000000000E+00     9.7499999999993414E-01     0.0000000000000000E+00 
    1.0000000000000000E+00     5.4999999999881310E-01     0.0000000000000000E+00 
    1.0000000000000000E+00     9.9999999999814140E-02     0.0000000000000000E+00 
    1.0000000000000000E+00     1.4999999999970290E-01     0.0000000000000000E+00 
    1.0000000000000000E+00     1.9999999999955689E-01     0.0000000000000000E+00 
    1.0000000000000000E+00     2.4999999999941089E-01     0.0000000000000000E+00 
    1.0000000000000000E+00     2.9999999999926502E-01     0.0000000000000000E+00 
    1.0000000000000000E+00     3.4999999999911913E-01     0.0000000000000000E+00 
    1.0000000000000000E+00     3.9999999999897312E-01     0.0000000000000000E+00 
    1.0000000000000000E+00     4.4999999999882723E-01     0.0000000000000000E+00 
    1.0000000000000000E+00     4.9999999999869210E-01     0.0000000000000000E+00 
    1.0000000000000000E+00     4.9999999999899403E-02     0.0000000000000000E+00 
    1.0000000000000000E+00     5.9999999999894504E-01     0.0000000000000000E+00 
    1.0000000000000000E+00     6.4999999999907687E-01     0.0000000000000000E+00 
    1.0000000000000000E+00     6.9999999999920870E-01     0.0000000000000000E+00 
    1.0000000000000000E+00     7.4999999999934064E-01     0.0000000000000000E+00 
    1.0000000000000000E+00     7.9999999999947247E-01     0.0000000000000000E+00 
    1.0000000000000000E+00     8.4999999999960441E-01     0.0000000000000000E+00 
    1.0000000000000000E+00     8.9999999999973623E-01     0.0000000000000000E+00 
    1.0000000000000000E+00     9.4999999999986817E-01     0.0000000000000000E+00 
    4.7500000000196618E-01     1.0000000000000000E+00     0.0000000000000000E+00 
    9.2499999999968763E-01     1.0000000000000000E+00     0.0000000000000000E+00 
    8.7499999999961831E-01     1.0000000000000000E+00     0.0000000000000000E+00 
    8.2499999999982654E-01     1.0000000000000000E+00     0.0000000000000000E+00 
    7.7500000000017355E-01     1.0000000000000000E+00     0.0000000000000000E+00 
    7.2500000000052045E-01     1.0000000000000000E+00     0.0000000000000000E+00 
    6.7500000000086724E-01     1.0000000000000000E+00     0.0000000000000000E+00 
    6.2500000000121403E-01     1.0000000000000000E+00     0.0000000000000000E+00 
    5.7500000000156093E-01     1.0000000000000000E+00     0.0000000000000000E+00 
    5.2500000000189684E-01     1.0000000000000000E+00     0.0000000000000000E+00 
    9.7499999999989595E-01     1.0000000000000000E+00     0.0000000000000000E+00 
    4.2500000000176902E-01     1.0000000000000000E+00     0.0000000000000000E+00 
    3.7500000000156092E-01     1.0000000000000000E+00     0.0000000000000000E+00 
    3.2500000000135282E-01     1.0000000000000000E+00     0.0000000000000000E+00 
    2.7500000000114472E-01     1.0000000000000000E+00     0.0000000000000000E+00 
    2.2500000000093659E-01     1.0000000000000000E+00     0.0000000000000000E+00 
    1.7500000000072849E-01     1.0000000000000000E+00     0.0000000000000000E+00 
    1.2500000000052039E-01     1.0000000000000000E+00     0.0000000000000000E+00 
    7.5000000000312261E-02     1.0000000000000000E+00     0.0000000000000000E+00 
    2.5000000000104109E-02     1.0000000000000000E+00     0.0000000000000000E+00 
    4.5000000000187301E-01     1.0000000000000000E+00     0.0000000000000000E+00 
    8.9999999999958358E-01     1.0000000000000000E+00     0.0000000000000000E+00 
    8.4999999999965303E-01     1.0000000000000000E+00     0.0000000000000000E+00 
    8.0000000000000004E-01     1.0000000000000000E+00     0.0000000000000000E+00 
    7.5000000000034706E-01     1.0000000000000000E+00     0.0000000000000000E+00 
    7.0000000000069384E-01     1.0000000000000000E+00     0.0000000000000000E+00 
    6.5000000000104063E-01     1.0000000000000000E+00     0.0000000000000000E+00 
    6.0000000000138742E-01     1.0000000000000000E+00     0.0000000000000000E+00 
    5.5000000000173432E-01     1.0000000000000000E+00     0.0000000000000000E+00 
    5.0000000000205946E-01     1.0000000000000000E+00     0.0000000000000000E+00 
    9.4999999999979179E-01     1.0000000000000000E+00     0.0000000000000000E+00 
    4.0000000000166491E-01     1.0000000000000000E+00     0.0000000000000000E+00 
    3.5000000000145681E-01     1.0000000000000000E+00     0.0000000000000000E+00 
    3.0000000000124871E-01     1.0000000000000000E+00     0.0000000000000000E+00 
    2.5000000000104061E-01     1.0000000000000000E+00     0.0000000000000000E+00 
    2.0000000000083251E-01     1.0000000000000000E+00     0.0000000000000000E+00 
    1.5000000000062441E-01     1.0000000000000000E+00     0.0000000000000000E+00 
    1.0000000000041630E-01     1.0000000000000000E+00     0.0000000000000000E+00 
[...]
CELL_DATA 1600 
SCALARS Pressure double 1 
LOOKUP_TABLE default 

    1.3664952449060876E+00 
    1.3190440924039941E+00 
    1.3165608824297304E+00 
    1.3507851527907344E+00 
    1.3381482199743033E+00 
    1.3127709375326295E+00 
    1.3083284977500942E+00 
    1.3276515226304269E+00 
    1.3187094746298975E+00 
    1.3036118487923114E+00 
    1.2988362215901976E+00 
    1.3109257076927747E+00 
    1.3040304387043009E+00 
    1.2941224094636496E+00 
    1.2895333963760547E+00 
    1.2978326846053929E+00 
    1.2921879043271391E+00 
    1.2850973235653484E+00 
    1.2808257395844724E+00 
    1.2869896538645620E+00 
    1.2821632367597628E+00 
    1.2767227731433166E+00 
    1.2727871091280469E+00 
    1.2776542152609649E+00 
    1.2734204534774212E+00 
    1.2690135620951393E+00 
    1.2653946416122432E+00 
    1.2694272598364873E+00 
    1.2656470790694976E+00 
    1.2619232122700621E+00 
    1.2585937812498615E+00 
    1.2620599304489182E+00 
    1.2586505520731424E+00 
    1.2554014323370775E+00 
    1.2523412395839171E+00 
    1.2554060958791333E+00 
    1.2523160875358617E+00 
    1.2494089225992286E+00 
    1.2466011333769158E+00 
    1.2493724461374596E+00 
    1.2465687989820857E+00 
    1.2439151893086620E+00 
    1.2413487676259252E+00 
    1.2438999793414611E+00 
    1.2413618459473810E+00 
    1.2389000377176209E+00 
    1.2365676686203100E+00 
    1.2389511666945405E+00 
    1.2366654838063411E+00 
    1.2343507139482541E+00 
    1.2322485390594549E+00 
    1.2345029408214154E+00 
    1.2324621113683720E+00 
    1.2302607847257450E+00 
    1.2283871235100177E+00 
    1.2305417477530702E+00 
    1.2287410552900924E+00 
    1.2266279339924389E+00 
    1.2249900318411500E+00 
    1.2270640278708251E+00 
    1.2254933678405262E+00 
    1.2234488201181992E+00 
    1.2217827437219904E+00 
    1.2238247107576337E+00 
    1.2221586191073852E+00 
    1.2201243181475088E+00 
    1.2187679925958042E+00 
    1.2207769484293431E+00 
    1.2196000614704512E+00 
    1.2176104240304046E+00 
    1.2166482397086851E+00 
    1.2186221632611089E+00 
    1.2178416812480175E+00 
    1.2158800794363698E+00 
    1.2153048736316010E+00 
    1.2172573821064725E+00 
    1.2168683551350983E+00 
    1.2149218364373413E+00 
    1.2147304458408357E+00 
    1.2166739997447109E+00 
    1.2933785054023079E+00 
    1.2734265697995337E+00 
    1.2729798755802637E+00 
    1.2925298239197416E+00 
    1.2909591798868358E+00 
    1.2721132757268532E+00 
    1.2708704497232881E+00 
    1.2888211792351596E+00 
    1.2862641063300662E+00 
    1.2693036188897677E+00 
    1.2674670266686527E+00 
    1.2834122856292505E+00 
    1.2803648438679001E+00 
    1.2654133463396244E+00 
    1.2631905112764072E+00 
    1.2771978389510987E+00 
    1.2739686608535976E+00 
    1.2608405298260141E+00 
    1.2583995323136834E+00 
    1.2707206627575736E+00 
    1.2674859601519952E+00 
    1.2558975647483723E+00 
    1.2533594984874756E+00 
    1.2642873470771381E+00 
    1.2611408880086326E+00 
    1.2508063959726541E+00 
    1.2482558793444996E+00 
    1.2580581167119576E+00 
    1.2550478482582115E+00 
    1.2457224233387283E+00 
    1.2432180541536946E+00 
    1.2521168515534900E+00 
    1.2492699186284570E+00 
    1.2407526845239689E+00 
    1.2383345549172953E+00 
    1.2465103663459853E+00 
    1.2438408204020817E+00 
    1.2359706529111687E+00 
    1.2336671008915427E+00 
    1.2412635183673324E+00 
    1.2387802547975457E+00 
    1.2314289985635740E+00 
    1.2292606806279969E+00 
    1.2363924057910174E+00 
    1.2341012915975949E+00 
    1.2271661355168386E+00 
    1.2251488454654877E+00 
    1.2319081624829957E+00 
    1.2298141700322545E+00 
    1.2232118143041226E+00 
    1.2213577990701097E+00 
    1.2278204308657596E+00 
    1.2259279705027681E+00 
    1.2195890729570116E+00 
    1.2179072433245310E+00 
    1.2241374314400415E+00 
    1.2224510302454212E+00 
    1.2163168651387086E+00 
    1.2148218424014492E+00 
    1.2208769502851644E+00 
    1.2193721237109791E+00 
    1.2133367155107986E+00 
    1.2117053890946898E+00 
    1.2177200390287282E+00 
    1.2160999033639914E+00 
    1.2101663948047969E+00 
    1.2089112350086133E+00 
    1.2147883672712541E+00 
    1.2136669211924089E+00 
    1.2078371314674710E+00 
    1.2069429291890412E+00 
    1.2127340783114118E+00 
    1.2119889124720571E+00 
    1.2062281786639100E+00 
    1.2056924863371032E+00 
    1.2114306807060375E+00 
    1.2110588297567999E+00 
    1.2053355346279111E+00 
    1.2051571065556443E+00 
    1.2108729874970383E+00 
    1.2555277980967523E+00 
    1.2383961364397105E+00 
    1.2381906206953135E+00 
    1.2552407914941006E+00 
    1.2546757625930747E+00 
    1.2377836628628540E+00 
    1.2371831197465759E+00 
    1.2538487119741053E+00 
    1.2527815982544750E+00 
    1.2364004066310121E+00 
    1.2354494179467230E+00 
    1.2515008686373446E+00 
    1.2500341898483476E+00 
    1.2343452389968255E+00 
    1.2331038629739577E+00 
    1.2484084865446485E+00 
    1.2466496826287408E+00 
    1.2317417465569525E+00 
    1.2302755650143407E+00 
    1.2447825318641814E+00 
    1.2428297024738466E+00 
    1.2287214435637632E+00 
    1.2270942672181342E+00 
    1.2408115077913073E+00 
    1.2387465760803502E+00 
    1.2254084207914240E+00 
    1.2236773880369343E+00 
    1.2366513683829790E+00 
    1.2345400483179800E+00 
    1.2219133188188867E+00 
    1.2201276705240582E+00 
    1.2324253462778541E+00 
    1.2303186730344757E+00 
    1.2183311822867278E+00 
    1.2165334972987245E+00 
    1.2282299362747056E+00 
    1.2261677186592777E+00 
    1.2147431957797641E+00 
    1.2129683916830083E+00 
    1.2241398668728467E+00 
    1.2221533008091783E+00 
    1.2112165359898124E+00 
    1.2094941063353262E+00 
    1.2202140067229905E+00 
    1.2183275894212471E+00 
    1.2078072305364715E+00 
    1.2061615073069718E+00 
    1.2164990210629394E+00 
    1.2147325696874050E+00 
    1.2045617517720413E+00 
    1.2030123970323077E+00 
    1.2130321654564402E+00 
    1.2114011746815370E+00 
    1.2015174688843060E+00 
    1.2000815483611555E+00 
    1.2098428955138871E+00 
    1.2083637369732039E+00 
    1.1987066247283888E+00 
    1.1973402220596985E+00 
    1.2069548000611627E+00 
    1.2054636064804376E+00 
    1.1958139264146630E+00 
    1.1942653909134162E+00 
    1.2038536900936443E+00 
    1.2024249600619623E+00 
    1.1929585426972238E+00 
    1.1918322735428606E+00 
    1.2012303089205409E+00 
    1.2002080910500346E+00 
    1.1908675865093474E+00 
    1.1900640409941670E+00 
    1.1993570202010599E+00 
    1.1986766589453117E+00 
    1.1894214346989342E+00 
    1.1889396128025183E+00 
    1.1981666732700527E+00 
    1.1978268176720888E+00 
    1.1886184624583109E+00 
    1.1884579086930549E+00 
    1.1976569326641275E+00 
    1.2214366080862211E+00 
    1.2043387773198639E+00 
    1.2042139621492913E+00 
    1.2212798042927147E+00 
    1.2209685027256909E+00 
    1.2039657646548720E+00 
    1.2035968396740155E+00 
    1.2205072015509544E+00 
    1.2199022438402578E+00 
    1.2031109135804385E+00 
    1.2025128877407445E+00 
    1.2191614604532379E+00 
    1.2182942039661893E+00 
    1.2018090178910010E+00 
    1.2010062558261152E+00 
    1.2173109971843423E+00 
    1.2162227295527164E+00 
    1.2001118956076575E+00 
    1.1991336960461758E+00 
    1.2150404912072605E+00 
    1.2137754747976663E+00 
    1.1980799305957142E+00 
    1.1969589662813367E+00 
    1.2124386217885772E+00 
    1.2110408719025973E+00 
    1.1957792559205720E+00 
    1.1945490598116495E+00 
    1.2095929112386410E+00 
    1.2081047244962710E+00 
    1.1932763476904829E+00 
    1.1919689347739051E+00 
    1.2065858942208612E+00 
    1.2050455959867430E+00 
    1.1906345069229356E+00 
    1.1892803743969731E+00 
    1.2034924005462155E+00 
    1.2019342540224458E+00 
    1.1879134980512165E+00 
    1.1865406099414910E+00 
    1.2003787447457379E+00 
    1.1988329300631657E+00 
    1.1851679215062603E+00 
    1.1838010540891373E+00 
    1.1973031105606686E+00 
    1.1957951986781081E+00 
    1.1824454590424593E+00 
    1.1811063688030363E+00 
    1.1943147595966459E+00 
    1.1928668950368113E+00 
    1.1797889164832027E+00 
    1.1784985196391111E+00 
    1.1914565308609550E+00 
    1.1900887455537708E+00 
    1.1772408715700950E+00 
    1.1760109952790228E+00 
    1.1887675074517463E+00 
    1.1874751562526091E+00 
    1.1747216533507114E+00 
    1.1732312602008179E+00 
    1.1860783840895297E+00 
    1.1845163428091372E+00 
    1.1717180506293041E+00 
    1.1704215235555662E+00 
    1.1830815446591927E+00 
    1.1818751969018868E+00 
    1.1692929182242162E+00 
    1.1683053746988248E+00 
    1.1808203273949274E+00 
    1.1799157756805683E+00 
    1.1674586074982467E+00 
    1.1667527170932517E+00 
    1.1791617750581507E+00 
    1.1785584647209153E+00 
    1.1661878301475050E+00 
    1.1657640589098930E+00 
    1.1781059291639207E+00 
    1.1778042175654961E+00 
    1.1654814918937764E+00 
    1.1653401844186377E+00 
    1.1776533557305446E+00 
    1.1869304964990155E+00 
    1.1690895641770480E+00 
    1.1690015429198228E+00 
    1.1868273984637787E+00 
    1.1866220724655570E+00 
    1.1688260364777017E+00 
    1.1685641681784640E+00 
    1.1863162040765716E+00 
    1.1859122760113743E+00 
    1.1682178602614297E+00 
    1.1677898122836539E+00 
    1.1854137325467511E+00 
    1.1848248808247608E+00 
    1.1672832335197756E+00 
    1.1667017224970337E+00 
    1.1841504158073799E+00 
    1.1833955239021667E+00 
    1.1660493660305922E+00 
    1.1653307549914562E+00 
    1.1825662410721123E+00 
    1.1816689034314407E+00 
    1.1645505826579676E+00 
    1.1637135281647701E+00 
    1.1807097645557700E+00 
    1.1796953197981597E+00 
    1.1628245779880719E+00 
    1.1618889204013134E+00 
    1.1786320356193203E+00 
    1.1775261771771846E+00 
    1.1609115912838959E+00 
    1.1598977299874698E+00 
    1.1763840767968115E+00 
    1.1752121160740525E+00 
    1.1588525437259809E+00 
    1.1577811725929172E+00 
    1.1740164740606958E+00 
    1.1728030411330759E+00 
    1.1566886240100225E+00 
    1.1555798965371733E+00 
    1.1715776462297205E+00 
    1.1703456569628283E+00 
    1.1544598295053321E+00 
    1.1533328725650738E+00 
    1.1691118873415460E+00 
    1.1678812868765456E+00 
    1.1522035096176930E+00 
    1.1510767022196626E+00 
    1.1666587831687920E+00 
    1.1654492372465401E+00 
    1.1499566634258165E+00 
    1.1488411897018571E+00 
    1.1642571669855353E+00 
    1.1630813089730307E+00 
    1.1476776728956284E+00 
    1.1463315297467134E+00 
    1.1618605521954350E+00 
    1.1604504938387372E+00 
    1.1447975841241920E+00 
    1.1433542994191030E+00 
    1.1589085853357746E+00 
    1.1575332353957013E+00 
    1.1421099085320794E+00 
    1.1410022832196192E+00 
    1.1563535822263569E+00 
    1.1553033963268406E+00 
    1.1400175415772054E+00 
    1.1391555472833148E+00 
    1.1543828281065200E+00 
    1.1535927179268810E+00 
    1.1384163926924600E+00 
    1.1378001990485247E+00 
    1.1529336404003983E+00 
    1.1524059931447186E+00 
    1.1373070858630960E+00 
    1.1369371587816040E+00 
    1.1520100505108972E+00 
    1.1517459952099762E+00 
    1.1366904991359041E+00 
    1.1365671632403755E+00 
    1.1516139416465483E+00 
    1.1507264773880255E+00 
    1.1317947134002233E+00 
    1.1317256816291619E+00 
    1.1506494262429798E+00 
    1.1504957277670953E+00 
    1.1315881042704039E+00 
    1.1313829210679709E+00 
    1.1502662303129534E+00 
    1.1499624437408693E+00 
    1.1311113981818346E+00 
    1.1307749714966744E+00 
    1.1495864796505011E+00 
    1.1491409324782471E+00 
    1.1303756385919836E+00 
    1.1299158484398626E+00 
    1.1486288334384385E+00 
    1.1480533260649604E+00 
    1.1293978998664789E+00 
    1.1288243098190167E+00 
    1.1474177416778129E+00 
    1.1467256139414455E+00 
    1.1281980049814373E+00 
    1.1275220537400135E+00 
    1.1459806006569959E+00 
    1.1451867757150356E+00 
    1.1267998801675152E+00 
    1.1260351041321950E+00 
    1.1443483942826691E+00 
    1.1434695837330782E+00 
    1.1252312539869196E+00 
    1.1243919236193645E+00 
    1.1425546386369456E+00 
    1.1416079424115710E+00 
    1.1235209174498606E+00 
    1.1226218736370461E+00 
    1.1406337185734270E+00 
    1.1396360831717158E+00 
    1.1216984624708191E+00 
    1.1207545180901888E+00 
    1.1386192992666189E+00 
    1.1375876595206955E+00 
    1.1197934844500281E+00 
    1.1188179020174827E+00 
    1.1365453331328248E+00 
    1.1354966358196723E+00 
    1.1178278363107241E+00 
    1.1168072340192770E+00 
    1.1344440566419027E+00 
    1.1333809977601037E+00 
    1.1156730910326396E+00 
    1.1143099966236676E+00 
    1.1322502860589243E+00 
    1.1309272860805735E+00 
    1.1127460840286958E+00 
    1.1112233789736010E+00 
    1.1293936422540565E+00 
    1.1279023146694158E+00 
    1.1098975877263042E+00 
    1.1087220491368719E+00 
    1.1266074327585884E+00 
    1.1254576919364829E+00 
    1.1076547050820675E+00 
    1.1066945419208698E+00 
    1.1244234331123870E+00 
    1.1235041853773218E+00 
    1.1058414250607125E+00 
    1.1050952260915530E+00 
    1.1226998902189591E+00 
    1.1220105067929096E+00 
    1.1044558324658640E+00 
    1.1039231415870794E+00 
    1.1214360228809190E+00 
    1.1209764302609380E+00 
    1.1034970722344897E+00 
    1.1031775635997763E+00 
    1.1206317339352416E+00 
    1.1204019389942894E+00 
    1.1029645825175287E+00 
    1.1028581146688345E+00 
    1.1202870556543179E+00 
    1.1122829678045267E+00 
    1.0921917555904015E+00 
    1.0921326130576985E+00 
    1.1122196799354831E+00 
    1.1120937009579994E+00 
    1.0920147155341171E+00 
    1.0918389562057218E+00 
    1.1119061878040899E+00 
    1.1116583402203621E+00 
    1.0916064554188891E+00 
    1.0913186149278700E+00 
    1.1113511411506678E+00 
    1.1109859412834462E+00 
    1.0909767691811949E+00 
    1.0905818246107473E+00 
    1.1105644136503521E+00 
    1.1100883518330986E+00 
    1.0901352876929247E+00 
    1.0896393659219270E+00 
    1.1095600432140837E+00 
    1.1089819989576963E+00 
    1.0890957586382766E+00 
    1.0885064253706385E+00 
    1.1083567981254714E+00 
    1.1076874571508899E+00 
    1.0878743743485544E+00 
    1.0872023102913029E+00 
    1.1069771292636947E+00 
    1.1062287886695685E+00 
    1.0864922551374674E+00 
    1.0857467888074206E+00 
    1.1054454703920351E+00 
    1.1046305727962893E+00 
    1.0849692042453121E+00 
    1.0841614283679319E+00 
    1.1037874541050647E+00 
    1.1029194626586263E+00 
    1.0833217600545888E+00 
    1.0824441563608058E+00 
    1.1020291786165939E+00 
    1.1011162812798190E+00 
    1.0814951984594656E+00 
    1.0803819092930411E+00 
    1.1001706340358171E+00 
    1.0991499228848030E+00 
    1.0790257750204761E+00 
    1.0774376974576805E+00 
    1.0979529137252468E+00 
    1.0964918939800870E+00 
    1.0757982880475105E+00 
    1.0743278486627124E+00 
    1.0948812452014596E+00 
    1.0933641546204524E+00 
    1.0730385825652791E+00 
    1.0718690443356682E+00 
    1.0920348388835361E+00 
    1.0908485969917474E+00 
    1.0707919291666810E+00 
    1.0698058843568570E+00 
    1.0897643375227613E+00 
    1.0887801373234394E+00 
    1.0689104961320988E+00 
    1.0681054212101344E+00 
    1.0878954107334349E+00 
    1.0871097424289240E+00 
    1.0673903569960017E+00 
    1.0667650738568446E+00 
    1.0864228089529004E+00 
    1.0858343704514162E+00 
    1.0662293918795862E+00 
    1.0657831619978462E+00 
    1.0853442377297016E+00 
    1.0849522741721265E+00 
    1.0654262728437998E+00 
    1.0651586467197283E+00 
    1.0846583650550969E+00 
    1.0844624468776745E+00 
    1.0649802160264707E+00 
    1.0648909355996010E+00 
    1.0843644599203992E+00 
    1.0715201485666854E+00 
    1.0502570280635737E+00 
    1.0502038705026904E+00 
    1.0714644138796965E+00 
    1.0713527103342337E+00 
    1.0500973565462988E+00 
    1.0499373673798460E+00 
    1.0711850481192378E+00 
    1.0709623435243785E+00 
    1.0497243586825560E+00 
    1.0494597436500988E+00 
    1.0706868084001324E+00 
    1.0703604680505103E+00 
    1.0491451921136101E+00 
    1.0487817935401467E+00 
    1.0699842136551683E+00 
    1.0695588970018317E+00 
    1.0483687546355969E+00 
    1.0479040909735784E+00 
    1.0690855539080426E+00 
    1.0685649812687339E+00 
    1.0473862259249884E+00 
    1.0468142925276147E+00 
    1.0679984550519566E+00 
    1.0673879743762291E+00 
    1.0461892082290356E+00 
    1.0455094518382024E+00 
    1.0667350191803244E+00 
    1.0660398276195366E+00 
    1.0447646175029737E+00 
    1.0439286649020412E+00 
    1.0653013698585030E+00 
    1.0645196006511717E+00 
    1.0429459416150302E+00 
    1.0417568056055042E+00 
    1.0636857252883511E+00 
    1.0627615369065371E+00 
    1.0403647213743858E+00 
    1.0387989684705974E+00 
    1.0616672444435449E+00 
    1.0603363691585261E+00 
    1.0371515893253387E+00 
    1.0355851190402656E+00 
    1.0587734523948538E+00 
    1.0571147792453512E+00 
    1.0341996642616673E+00 
    1.0329807966141815E+00 
    1.0555515020699628E+00 
    1.0541796482710943E+00 
    1.0318564405194386E+00 
    1.0308009072026065E+00 
    1.0529631937534556E+00 
    1.0518351041971419E+00 
    1.0298139612191080E+00 
    1.0288959594188991E+00 
    1.0507890921043563E+00 
    1.0498243674128775E+00 
    1.0280472288148710E+00 
    1.0272680610898433E+00 
    1.0489405600530299E+00 
    1.0481374165206225E+00 
    1.0265587278090147E+00 
    1.0259195031546240E+00 
    1.0474147681971790E+00 
    1.0467725046155285E+00 
    1.0253506145047444E+00 
    1.0248522929652035E+00 
    1.0462105594242508E+00 
    1.0457288862730203E+00 
    1.0244247496303893E+00 
    1.0240681733473171E+00 
    1.0453274746004027E+00 
    1.0450063197710091E+00 
    1.0237827167136264E+00 
    1.0235685241738250E+00 
    1.0447654285028432E+00 
    1.0446047980827451E+00 
    1.0234256879380004E+00 
    1.0233542889120781E+00 
    1.0445244337782185E+00 
    1.0283394132178465E+00 
    1.0053867971363837E+00 
    1.0053064471846689E+00 
    1.0282838423598268E+00 
    1.0281729529797696E+00 
    1.0051418537945431E+00 
    1.0048865959943198E+00 
    1.0280071616517303E+00 
    1.0277871497075530E+00 
    1.0045330806123938E+00 
    1.0040742975829471E+00 
    1.0275138095772596E+00 
    1.0271887374738349E+00 
    1.0035053279950830E+00 
    1.0028256211002748E+00 
    1.0268135197668220E+00 
    1.0263849063847381E+00 
    1.0020410510727351E+00 
    1.0011619510038914E+00 
    1.0258915040613354E+00 
    1.0253132644751819E+00 
    1.0001950581709536E+00 
    9.9913976119684766E-01 
    1.0246213341391259E+00 
    1.0237855817910952E+00 
    9.9799248611673974E-01 
    9.9675511216166246E-01 
    1.0227852407552547E+00 
    1.0216203022538668E+00 
    9.9545251906699372E-01 
    9.9413287719998167E-01 
    1.0203100362891346E+00 
    1.0188657844234095E+00 
    9.9286021144497294E-01 
    9.9170232997364871E-01 
    1.0173223239465534E+00 
    1.0157829633789517E+00 
    9.9067062435714692E-01 
    9.8970338622550047E-01 
    1.0143344567523285E+00 
    1.0130425969537755E+00 
    9.8876094268786896E-01 
    9.8784687678718619E-01 
    1.0118992330537060E+00 
    1.0108328298939557E+00 
    9.8696589114925037E-01 
    9.8612078667533853E-01 
    1.0098187798413547E+00 
    1.0088586637123815E+00 
    9.8531435136596390E-01 
    9.8454896244451062E-01 
    1.0079531990826125E+00 
    1.0071033949626895E+00 
    9.8382669002395740E-01 
    9.8314935482856280E-01 
    1.0063102276820812E+00 
    1.0055746072364995E+00 
    9.8251856184769149E-01 
    9.8193574016694629E-01 
    1.0048973810448187E+00 
    1.0042793134103645E+00 
    9.8140215918225748E-01 
    9.8091892046466977E-01 
    1.0037211054956110E+00 
    1.0032233664229440E+00 
    9.8048701770315705E-01 
    9.8010729370504157E-01 
    1.0027866542727009E+00 
    1.0024114431858622E+00 
    9.7978048409303264E-01 
    9.7950722035121485E-01 