# vtk DataFile Version 2.0
Pressure Field Data 
ASCII 
DATASET UNSTRUCTURED_GRID 

POINTS 1681 double 

    0.0000000000000000E+00     0.0000000000000000E+00     0.0000000000000000E+00 
    1.0000000000000000E+00     0.0000000000000000E+00     0.0000000000000000E+00 
    1.0000000000000000E+00     1.0000000000000000E+00     0.0000000000000000E+00 
    0.0000000000000000E+00     1.0000000000000000E+00     0.0000000000000000E+00 
    5.2499999999875258E-01     0.0000000000000000E+00     0.0000000000000000E+00 
    7.4999999999856765E-02     0.0000000000000000E+00     0.0000000000000000E+00 
    1.2499999999975850E-01     0.0000000000000000E+00     0.0000000000000000E+00 
    1.7499999999962990E-01     0.0000000000000000E+00     0.0000000000000000E+00 
    2.2499999999948389E-01     0.0000000000000000E+00     0.0000000000000000E+00 
    2.7499999999933789E-01     0.0000000000000000E+00     0.0000000000000000E+00 
    3.2499999999919210E-01     0.0000000000000000E+00     0.0000000000000000E+00 
    3.7499999999904610E-01     0.0000000000000000E+00     0.0000000000000000E+00 
    4.2499999999890020E-01     0.0000000000000000E+00     0.0000000000000000E+00 
    4.7499999999875958E-01     0.0000000000000000E+00     0.0000000000000000E+00 
    2.4999999999949701E-02     0.0000000000000000E+00     0.0000000000000000E+00 
    5.7499999999887907E-01     0.0000000000000000E+00     0.0000000000000000E+00 
    6.2499999999901101E-01     0.0000000000000000E+00     0.0000000000000000E+00 
    6.7499999999914273E-01     0.0000000000000000E+00     0.0000000000000000E+00 
    7.2499999999927467E-01     0.0000000000000000E+00     0.0000000000000000E+00 
    7.7499999999940661E-01     0.0000000000000000E+00     0.0000000000000000E+00 
    8.2499999999953844E-01     0.0000000000000000E+00     0.0000000000000000E+00 
    8.7499999999967026E-01     0.0000000000000000E+00     0.0000000000000000E+00 
    9.2499999999980220E-01     0.0000000000000000E+00     0.0000000000000000E+00 
    9.7499999999993414E-01     0.0000000000000000E+00     0.0000000000000000E+00 
    5.4999999999881310E-01     0.0000000000000000E+00     0.0000000000000000E+00 
    9.9999999999814140E-02     0.0000000000000000E+00     0.0000000000000000E+00 
    1.4999999999970290E-01     0.0000000000000000E+00     0.0000000000000000E+00 
    1.9999999999955689E-01     0.0000000000000000E+00     0.0000000000000000E+00 
    2.4999999999941089E-01     0.0000000000000000E+00     0.0000000000000000E+00 
    2.9999999999926502E-01     0.0000000000000000E+00     0.0000000000000000E+00 
    3.4999999999911913E-01     0.0000000000000000E+00     0.0000000000000000E+00 
    3.9999999999897312E-01     0.0000000000000000E+00     0.0000000000000000E+00 
    4.4999999999882723E-01     0.0000000000000000E+00     0.0000000000000000E+00 
    4.9999999999869210E-01     0.0000000000000000E+00     0.0000000000000000E+00 
    4.9999999999899403E-02     0.0000000000000000E+00     0.0000000000000000E+00 
    5.9999999999894504E-01     0.0000000000000000E+00     0.0000000000000000E+00 
    6.4999999999907687E-01     0.0000000000000000E+00     0.0000000000000000E+00 
    6.9999999999920870E-01     0.0000000000000000E+00     0.0000000000000000E+00 
    7.4999999999934064E-01     0.0000000000000000E+00     0.0000000000000000E+00 
    7.9999999999947247E-01     0.0000000000000000E+00     0.0000000000000000E+00 
    8.4999999999960441E-01     0.0000000000000000E+00     0.0000000000000000E+00 
    8.9999999999973623E-01     0.0000000000000000E+00     0.0000000000000000E+00 
    9.4999999999986817E-01     0.0000000000000000E+00     0.0000000000000000E+00 
    1.0000000000000000E+00     5.2499999999875258E-01     0.0000000000000000E+00 
    1.0000000000000000E+00     7.4999999999856765E-02     0.0000000000000000E+00 
    1.0000000000000000E+00     1.2499999999975850E-01     0.0000000000000000E+00 
    1.0000000000000000E+00     1.7499999999962990E-01     0.0000000000000000E+00 
    1.0000000000000000E+00     2.2499999999948389E-01     0.0000000000000000E+00 
    1.0000000000000000E+00     2.7499999999933789E-01     0.0000000000000000E+00 
    1.0000000000000000E+00     3.2499999999919210E-01     0.0000000000000000E+00 
    1.0000000000000000E+00     3.7499999999904610E-01     0.0000000000000000E+00 
    1.0000000000000000E+00     4.2499999999890020E-01     0.0000000000000000E+00 
    1.0000000000000000E+00     4.7499999999875958E-01     0.0000000000000000E+00 
    1.0000000000000000E+00     2.4999999999949701E-02     0.0000000000000000E+00 
    1.0000000000000000E+00     5.7499999999887907E-01     0.0000000000000000E+00 
    1.0000000000000000E+00     6.2499999999901101E-01     0.0000000000000000E+00 
    1.0000000000000000E+00     6.7499999999914273E-01     0.0000000000000000E+00 
    1.0000000000000000E+00     7.2499999999927467E-01     0.0000000000000000E+00 
    1.0000000000000000E+00     7.7499999999940661E-01     0.0000000000000000E+00 
    1.0000000000000000E+00     8.2499999999953844E-01     0.0000000000000000E+00 
    1.0000000000000000E+00     8.7499999999967026E-01     0.0000000000000000E+00 
    1.0000000000000000E+00     9.2499999999980220E-01     0.0000000000000000E+00 
    1.0000000000000000E+00     9.7499999999993414E-01     0.0000000000000000E+00 
    1.0000000000000000E+00     5.4999999999881310E-01     0.0000000000000000E+00 
    1.0000000000000000E+00     9.9999999999814140E-02     0.0000000000000000E+00 
    1.0000000000000000E+00     1.4999999999970290E-01     0.0000000000000000E+00 
    1.0000000000000000E+00     1.9999999999955689E-01     0.0000000000000000E+00 
    1.0000000000000000E+00     2.4999999999941089E-01     0.0000000000000000E+00 
    1.0000000000000000E+00     2.9999999999926502E-01     0.0000000000000000E+00 
    1.0000000000000000E+00     3.4999999999911913E-01     0.0000000000000000E+00 
    1.0000000000000000E+00     3.9999999999897312E-01     0.0000000000000000E+00 
    1.0000000000000000E+00     4.4999999999882723E-01     0.0000000000000000E+00 
    1.0000000000000000E+00     4.9999999999869210E-01     0.0000000000000000E+00 
    1.0000000000000000E+00     4.9999999999899403E-02     0.0000000000000000E+00 
    1.0000000000000000E+00     5.9999999999894504E-01     0.0000000000000000E+00 
    1.0000000000000000E+00     6.4999999999907687E-01     0.0000000000000000E+00 
    1.0000000000000000E+00     6.9999999999920870E-01     0.0000000000000000E+00 
    1.0000000000000000E+00     7.4999999999934064E-01     0.0000000000000000E+00 
    1.0000000000000000E+00     7.9999999999947247E-01     0.0000000000000000E+00 
    1.0000000000000000E+00     8.4999999999960441E-01     0.0000000000000000E+00 
    1.0000000000000000E+00     8.9999999999973623E-01     0.0000000000000000E+00 
    1.0000000000000000E+00     9.4999999999986817E-01     0.0000000000000000E+00 
    4.7500000000196618E-01     1.0000000000000000E+00     0.0000000000000000E+00 
    9.2499999999968763E-01     1.0000000000000000E+00     0.0000000000000000E+00 
    8.7499999999961831E-01     1.0000000000000000E+00     0.0000000000000000E+00 
    8.2499999999982654E-01     1.0000000000000000E+00     0.0000000000000000E+00 
    7.7500000000017355E-01     1.0000000000000000E+00     0.0000000000000000E+00 
    7.2500000000052045E-01     1.0000000000000000E+00     0.0000000000000000E+00 
    6.7500000000086724E-01     1.0000000000000000E+00     0.0000000000000000E+00 
    6.2500000000121403E-01     1.0000000000000000E+00     0.0000000000000000E+00 
    5.7500000000156093E-01     1.0000000000000000E+00     0.0000000000000000E+00 
    5.2500000000189684E-01     1.0000000000000000E+00     0.0000000000000000E+00 
    9.7499999999989595E-01     1.0000000000000000E+00     0.0000000000000000E+00 
    4.2500000000176902E-01     1.0000000000000000E+00     0.0000000000000000E+00 
    3.7500000000156092E-01     1.0000000000000000E+00     0.0000000000000000E+00 
    3.2500000000135282E-01     1.0000000000000000E+00     0.0000000000000000E+00 
    2.7500000000114472E-01     1.0000000000000000E+00     0.0000000000000000E+00 
    2.2500000000093659E-01     1.0000000000000000E+00     0.0000000000000000E+00 
    1.7500000000072849E-01     1.0000000000000000E+00     0.0000000000000000E+00 
    1.2500000000052039E-01     1.0000000000000000E+00     0.0000000000000000E+00 
    7.5000000000312261E-02     1.0000000000000000E+00     0.0000000000000000E+00 
    2.5000000000104109E-02     1.0000000000000000E+00     0.0000000000000000E+00 
    4.5000000000187301E-01     1.0000000000000000E+00     0.0000000000000000E+00 
    8.9999999999958358E-01     1.0000000000000000E+00     0.0000000000000000E+00 
    8.4999999999965303E-01     1.0000000000000000E+00     0.0000000000000000E+00 
    8.0000000000000004E-01     1.0000000000000000E+00     0.0000000000000000E+00 
    7.5000000000034706E-01     1.0000000000000000E+00     0.0000000000000000E+00 
    7.0000000000069384E-01     1.0000000000000000E+00     0.0000000000000000E+00 
    6.5000000000104063E-01     1.0000000000000000E+00     0.0000000000000000E+00 
    6.0000000000138742E-01     1.0000000000000000E+00     0.0000000000000000E+00 
    5.5000000000173432E-01     1.0000000000000000E+00     0.0000000000000000E+00 
    5.0000000000205946E-01     1.0000000000000000E+00     0.0000000000000000E+00 
    9.4999999999979179E-01     1.0000000000000000E+00     0.0000000000000000E+00 
    4.0000000000166491E-01     1.0000000000000000E+00     0.0000000000000000E+00 
    3.5000000000145681E-01     1.0000000000000000E+00     0.0000000000000000E+00 
    3.0000000000124871E-01     1.0000000000000000E+00     0.0000000000000000E+00 
    2.5000000000104061E-01     1.0000000000000000E+00     0.0000000000000000E+00 
    2.0000000000083251E-01     1.0000000000000000E+00     0.0000000000000000E+00 
    1.5000000000062441E-01     1.0000000000000000E+00     0.0000000000000000E+00 
    1.0000000000041630E-01     1.0000000000000000E+00     0.0000000000000000E+00 
[...]
CELL_DATA 1600 
SCALARS Pressure double 1 
LOOKUP_TABLE default 

    1.1683461336827035E+00 
    1.1222459054934302E+00 
    1.1198599407850112E+00 
    1.1527605428395684E+00 
    1.1403311298532528E+00 
    1.1162557280430325E+00 
    1.1120914714479533E+00 
    1.1301542922303953E+00 
    1.1216293860247577E+00 
    1.1077382773233944E+00 
    1.1034019312507650E+00 
    1.1143451851708666E+00 
    1.1080126897016238E+00 
    1.0991912463547984E+00 
    1.0951592597598354E+00 
    1.1024248799314491E+00 
    1.0974312495107650E+00 
    1.0913277308328544E+00 
    1.0877014229757673E+00 
    1.0929211892692232E+00 
    1.0888124319770041E+00 
    1.0842761407434824E+00 
    1.0810427938458842E+00 
    1.0850424733540456E+00 
    1.0815623257920457E+00 
    1.0779899014716317E+00 
    1.0751054436921952E+00 
    1.0783329333190095E+00 
    1.0753235496582270E+00 
    1.0723782742758556E+00 
    1.0697985526943059E+00 
    1.0725101855448271E+00 
    1.0698738136993091E+00 
    1.0673576519805099E+00 
    1.0650479616339181E+00 
    1.0673990614497932E+00 
    1.0650734004922904E+00 
    1.0628627883842934E+00 
    1.0607961221187969E+00 
    1.0628863893561726E+00 
    1.0608291230586324E+00 
    1.0588425958247574E+00 
    1.0569976446762905E+00 
    1.0588942222846380E+00 
    1.0570758311495663E+00 
    1.0552576415914370E+00 
    1.0536196257682897E+00 
    1.0553692411264624E+00 
    1.0537705408510376E+00 
    1.0520810677241839E+00 
    1.0506398153094507E+00 
    1.0522764636563520E+00 
    1.0508843593820703E+00 
    1.0492941661028654E+00 
    1.0480428292436870E+00 
    1.0495921572135034E+00 
    1.0483983081412636E+00 
    1.0468848765871936E+00 
    1.0458196820529397E+00 
    1.0473016870904537E+00 
    1.0463015000610316E+00 
    1.0448469024014413E+00 
    1.0439664683249388E+00 
    1.0453973360738946E+00 
    1.0445891373061040E+00 
    1.0431785973946353E+00 
    1.0424837428347835E+00 
    1.0438771053446163E+00 
    1.0432617164466247E+00 
    1.0418825297961916E+00 
    1.0413768367604050E+00 
    1.0427446474956383E+00 
    1.0423220699895301E+00 
    1.0409617880737965E+00 
    1.0405866587727293E+00 
    1.0419408999314206E+00 
    1.0416529983381633E+00 
    1.0403041664395185E+00 
    1.0401719719963443E+00 
    1.0415183167631981E+00 
    1.0987049532769351E+00 
    1.0815751228752479E+00 
    1.0812020886887732E+00 
    1.0979419224766864E+00 
    1.0965398182632300E+00 
    1.0804808593852220E+00 
    1.0794521069661445E+00 
    1.0946496420374114E+00 
    1.0924132207835426E+00 
    1.0781645699746152E+00 
    1.0766684382533884E+00 
    1.0899490539705718E+00 
    1.0873496811513894E+00 
    1.0750109471777500E+00 
    1.0732343078019926E+00 
    1.0846846028609001E+00 
    1.0820046054389885E+00 
    1.0713747680018786E+00 
    1.0694627690920315E+00 
    1.0793458880626883E+00 
    1.0767335444627195E+00 
    1.0675232613817192E+00 
    1.0655764647809480E+00 
    1.0741843102408659E+00 
    1.0717090901275206E+00 
    1.0636387835904433E+00 
    1.0617233971910480E+00 
    1.0693148320615018E+00 
    1.0670059147051159E+00 
    1.0598407609994758E+00 
    1.0579992532538325E+00 
    1.0647849555525541E+00 
    1.0626533318934399E+00 
    1.0562054801832510E+00 
    1.0544645401379802E+00 
    1.0606114781879969E+00 
    1.0586591556926206E+00 
    1.0527803141723628E+00 
    1.0511559237296424E+00 
    1.0567956413960420E+00 
    1.0550200212431615E+00 
    1.0495938996330307E+00 
    1.0480964023342443E+00 
    1.0533314605139616E+00 
    1.0517293651060049E+00 
    1.0466653520884821E+00 
    1.0453023133745627E+00 
    1.0502131946229563E+00 
    1.0487824094639000E+00 
    1.0440085525050571E+00 
    1.0427852771206063E+00 
    1.0474365619266779E+00 
    1.0461753865652148E+00 
    1.0416336448018177E+00 
    1.0405547305265777E+00 
    1.0449987730921086E+00 
    1.0439067754437104E+00 
    1.0395495848982594E+00 
    1.0386193235613472E+00 
    1.0428995975432831E+00 
    1.0419775774171545E+00 
    1.0377650118420754E+00 
    1.0369877687296105E+00 
    1.0411412126847170E+00 
    1.0403911828777763E+00 
    1.0362888279227589E+00 
    1.0356693791789060E+00 
    1.0397282874630154E+00 
    1.0391533922957548E+00 
    1.0351305481357991E+00 
    1.0346746280594856E+00 
    1.0386686219107968E+00 
    1.0382670012518973E+00 
    1.0342910046328937E+00 
    1.0339422334197739E+00 
    1.0379031522917816E+00 
    1.0376314050489057E+00 
    1.0336851360106067E+00 
    1.0335646420146629E+00 
    1.0375041803435980E+00 
    1.0670357786904909E+00 
    1.0537005587552477E+00 
    1.0535503935733919E+00 
    1.0668118795247445E+00 
    1.0663721129402952E+00 
    1.0532535426972700E+00 
    1.0528165755407284E+00 
    1.0657310903063422E+00 
    1.0649083696711938E+00 
    1.0522486309937891E+00 
    1.0515606938130562E+00 
    1.0639263530716447E+00 
    1.0628082421069298E+00 
    1.0507649096377043E+00 
    1.0498741719174280E+00 
    1.0615768888726416E+00 
    1.0602540622474279E+00 
    1.0489016880143582E+00 
    1.0478606842698004E+00 
    1.0588601761874892E+00 
    1.0574137667981829E+00 
    1.0467638593128965E+00 
    1.0456229770155194E+00 
    1.0559312290749596E+00 
    1.0544271281270041E+00 
    1.0444491388852954E+00 
    1.0432525681718594E+00 
    1.0529141542916092E+00 
    1.0514031290764743E+00 
    1.0420423819753146E+00 
    1.0408268840157566E+00 
    1.0499034117995256E+00 
    1.0484230202926286E+00 
    1.0396136375840184E+00 
    1.0384094006423410E+00 
    1.0469686763095556E+00 
    1.0455460516573039E+00 
    1.0372201876761142E+00 
    1.0360515903251082E+00 
    1.0441602276418005E+00 
    1.0428156603771641E+00 
    1.0349086637371563E+00 
    1.0337957830127114E+00 
    1.0415161635640700E+00 
    1.0402651667919256E+00 
    1.0327170012949112E+00 
    1.0316759990699054E+00 
    1.0390656286122668E+00 
    1.0379200826202568E+00 
    1.0306760073744092E+00 
    1.0297200827078428E+00 
    1.0368309217064877E+00 
    1.0358004045278324E+00 
    1.0288111342490562E+00 
    1.0279517954900821E+00 
    1.0348305526199482E+00 
    1.0339232091023665E+00 
    1.0271444314564215E+00 
    1.0263913903617958E+00 
    1.0330802288064123E+00 
    1.0323033555810825E+00 
    1.0256949141071776E+00 
    1.0250570245230288E+00 
    1.0315942413956958E+00 
    1.0309546213114880E+00 
    1.0244797772958689E+00 
    1.0239651525768974E+00 
    1.0303861359331639E+00 
    1.0298902165978143E+00 
    1.0235149621048372E+00 
    1.0231316311658019E+00 
    1.0294692483010028E+00 
    1.0291064861430066E+00 
    1.0227904623902389E+00 
    1.0224753465662528E+00 
    1.0287741691353907E+00 
    1.0285335621835243E+00 
    1.0222529973822916E+00 
    1.0221484148424755E+00 
    1.0284206366643462E+00 
    1.0409225156574817E+00 
    1.0283547239038495E+00 
    1.0282732297197461E+00 
    1.0408145520410952E+00 
    1.0406004260318606E+00 
    1.0281112839714106E+00 
    1.0278708479894336E+00 
    1.0402835546863265E+00 
    1.0398687090730516E+00 
    1.0275547377530589E+00 
    1.0271666320666450E+00 
    1.0393618324855616E+00 
    1.0387700316285888E+00 
    1.0267111967527414E+00 
    1.0261936367062923E+00 
    1.0381013241602715E+00 
    1.0373640923797856E+00 
    1.0256193560772311E+00 
    1.0249939300675697E+00 
    1.0365668403165900E+00 
    1.0357180600068605E+00 
    1.0243231980854219E+00 
    1.0236130526280125E+00 
    1.0348260175326696E+00 
    1.0338987742781727E+00 
    1.0228693957960404E+00 
    1.0220980233421668E+00 
    1.0329440763122617E+00 
    1.0319691346944799E+00 
    1.0213046053039452E+00 
    1.0204946748104684E+00 
    1.0309807914032632E+00 
    1.0299855545171011E+00 
    1.0196736300118612E+00 
    1.0188465654991727E+00 
    1.0289895097898107E+00 
    1.0279982537459509E+00 
    1.0180183032512220E+00 
    1.0171934580143354E+00 
    1.0270170303112447E+00 
    1.0260506883274290E+00 
    1.0163763687515053E+00 
    1.0155710922555539E+00 
    1.0251036028418770E+00 
    1.0241798733457121E+00 
    1.0147815463534220E+00 
    1.0140114018858319E+00 
    1.0232833583319534E+00 
    1.0224175642082127E+00 
    1.0132641083191405E+00 
    1.0125429568358300E+00 
    1.0215857979034277E+00 
    1.0207912052340578E+00 
    1.0118510981751876E+00 
    1.0111914586771802E+00 
    1.0200367098804248E+00 
    1.0193249924685737E+00 
    1.0105668273498201E+00 
    1.0099799595918553E+00 
    1.0186586695730426E+00 
    1.0180402807648981E+00 
    1.0094334829367770E+00 
    1.0089299301209225E+00 
    1.0174721539710825E+00 
    1.0169565877528539E+00 
    1.0084718997052846E+00 
    1.0080619027748650E+00 
    1.0164958304580269E+00 
    1.0160923716750487E+00 
    1.0077033528770079E+00 
    1.0073985455672427E+00 
    1.0157486948844023E+00 
    1.0154308487751331E+00 
    1.0071044199537311E+00 
    1.0068244395671619E+00 
    1.0151335984903811E+00 
    1.0149287023236671E+00 
    1.0066346245900730E+00 
    1.0065430988916506E+00 
    1.0148315072436827E+00 
    1.0157927537692866E+00 
    1.0031075003047365E+00 
    1.0030561309751629E+00 
    1.0157289873988635E+00 
    1.0156020848589227E+00 
    1.0029538147089809E+00 
    1.0028014279737631E+00 
    1.0154132905009323E+00 
    1.0151644798260795E+00 
    1.0026003603642815E+00 
    1.0023524825259336E+00 
    1.0148582491759615E+00 
    1.0144977879644328E+00 
    1.0020599694774670E+00 
    1.0017251623683827E+00 
    1.0140864963561806E+00 
    1.0136279400348729E+00 
    1.0013506552467775E+00 
    1.0009394060723880E+00 
    1.0131260767322467E+00 
    1.0125851068662133E+00 
    1.0004945666768139E+00 
    1.0000193978487681E+00 
    1.0120093162353196E+00 
    1.0114031600361524E+00 
    9.9951731306142422E-01 
    9.9899181229276979E-01 
    1.0107711042596927E+00 
    1.0101175719645579E+00 
    9.9844633904661972E-01 
    9.9788437936965058E-01 
    1.0094469838997189E+00 
    1.0087636991800624E+00 
    9.9730942819843715E-01 
    9.9672491673175889E-01 
    1.0080718793219858E+00 
    1.0073755064497456E+00 
    9.9613417937615578E-01 
    9.9554059134501216E-01 
    1.0066785729868803E+00 
    1.0059848880711453E+00 
    9.9494747235321590E-01 
    9.9435794706769465E-01 
    1.0052980321366884E+00 
    1.0046215918885937E+00 
    9.9377516274172484E-01 
    9.9320217206796690E-01 
    1.0039589480668833E+00 
    1.0033132562717151E+00 
    9.9264179555307164E-01 
    9.9209683879301602E-01 
    1.0026876031126712E+00 
    1.0020849961977680E+00 
    9.9157004660683290E-01 
    9.9106401374743713E-01 
    1.0015082320440782E+00 
    1.0009599597087184E+00 
    9.9058117537819945E-01 
    9.9012393323303882E-01 
    1.0004428565838439E+00 
    9.9995942990459730E-01 
    9.8969454811534729E-01 
    9.8929506350444374E-01 
    9.9951207791524943E-01 
    9.9910326342684919E-01 
    9.8892738843584782E-01 
    9.8859328987643080E-01 
    9.9873532189002134E-01 
    9.9841205454571647E-01 
    9.8829575823521354E-01 
    9.8802965260007625E-01 
    9.9813428201703236E-01 
    9.9785665397171863E-01 
    9.8775644752020020E-01 
    9.8751611762828784E-01 
    9.9759595441544691E-01 
    9.9742412014819393E-01 
    9.8736551677172280E-01 
    9.8729010319652810E-01 
    9.9733953197161740E-01 
    9.9021513878505496E-01 
    9.7706064897877354E-01 
    9.7702493599688922E-01 
    9.9017275953441142E-01 
    9.9008831436629685E-01 
    9.7695376839991854E-01 
    9.7684765203124524E-01 
    9.8996246273485888E-01 
    9.8979623221485669E-01 
    9.7670734231510536E-01 
    9.7653379274401464E-01 
    9.8959096152964443E-01 
    9.8934820003982160E-01 
    9.7632819108021318E-01 
    9.7609194583506365E-01 
    9.8906971142213618E-01 
    9.8875750524396777E-01 
    9.7582666311951682E-01 
    9.7553420794783641E-01 
    9.8841389587548523E-01 
    9.8804135238277113E-01 
    9.7521656560714165E-01 
    9.7487570166888404E-01 
    9.8764239407859367E-01 
    9.8721970146318061E-01 
    9.7451373917511996E-01 
    9.7413286710954639E-01 
    9.8677600969628365E-01 
    9.8631400724631935E-01 
    9.7373528526680897E-01 
    9.7332334876259463E-01 
    9.8583652259623267E-01 
    9.8534643785224529E-01 
    9.7289950083718180E-01 
    9.7246613919012825E-01 
    9.8484659798921170E-01 
    9.8433981394711123E-01 
    9.7202564164245009E-01 
    9.7158050167964460E-01 
    9.8382897057408192E-01 
    9.8331692290435413E-01 
    9.7113316778218828E-01 
    9.7068599274109357E-01 
    9.8280636699328061E-01 
    9.8230007857409074E-01 
    9.7024142464438212E-01 
    9.6980186529755241E-01 
    9.8180075966740554E-01 
    9.8131091367543033E-01 
    9.6936958346625035E-01 
    9.6894688948863517E-01 
    9.8083310176432492E-01 
    9.8036984231066804E-01 
    9.6853613657542215E-01 
    9.6813953123392493E-01 
    9.7992349348781671E-01 
    9.7949628347824425E-01 
    9.6775916758912317E-01 
    9.6739727049022828E-01 
    9.7909046461759175E-01 
    9.7870812890314907E-01 
    9.6705594080141510E-01 
    9.6673707228934003E-01 
    9.7835108358540057E-01 
    9.7802106375048226E-01 
    9.6644270748619676E-01 
    9.6617584557529357E-01 
    9.7771994444521271E-01 
    9.7744937837959978E-01 
    9.6593783503530073E-01 
    9.6569260922072975E-01 
    9.7719203320277703E-01 
    9.7691788059741624E-01 
    9.6541607968965271E-01 
    9.6519588561374381E-01 
    9.7669086551921880E-01 
    9.7655478072195290E-01 
    9.6506590609140253E-01 
    9.6500091619110850E-01 
    9.7648656888388596E-01 
    9.6360838862253906E-01 
    9.4983555110461149E-01 
    9.4980858416055292E-01 
    9.6357768624477858E-01 
    9.6351648834154702E-01 
    9.4975480500176501E-01 
    9.4967452888170645E-01 
    9.6342518487038731E-01 
    9.6330433901784596E-01 
    9.4956818474099347E-01 
    9.4943635940157667E-01 
    9.6315466453313092E-01 
    9.6297710577935602E-01 
    9.4927981398307260E-01 
    9.4909949503151181E-01 
    9.6277280233405116E-01 
    9.6254307220672242E-01 
    9.4889648353382172E-01 
    9.4867202055750022E-01 
    9.6228943204968187E-01 
    9.6201347324002029E-01 
    9.4842739396833675E-01 
    9.4816395066552883E-01 
    9.6171678113358938E-01 
    9.6140109505457216E-01 
    9.4788320288935035E-01 
    9.4758676675320885E-01 
    9.6106825034366794E-01 
    9.6072015616283635E-01 
    9.4727630121414108E-01 
    9.4695353752035960E-01 
    9.6035881133854040E-01 
    9.5998629196139695E-01 
    9.4662028067825954E-01 
    9.4627832296755976E-01 
    9.5960465876020717E-01 
    9.5921597045023754E-01 
    9.4592945548899843E-01 
    9.4557557317538909E-01 
    9.5882237460776154E-01 
    9.5842599622163038E-01 
    9.4521856860336839E-01 
    9.4486028907148523E-01 
    9.5802893752591822E-01 
    9.5763334055835980E-01 
    9.4450266514701986E-01 
    9.4414764414264285E-01 
    9.5724136035585849E-01 
    9.5685509479797137E-01 
    9.4379709955518754E-01 
    9.4345291774154960E-01 
    9.5647662082386875E-01 
    9.5610809167254907E-01 
    9.4311703790324475E-01 
    9.4279129543875539E-01 
    9.5575158373097624E-01 
    9.5540911553970065E-01 
    9.4247747518798164E-01 
    9.4217741921279785E-01 
    9.5508282132175371E-01 
    9.5477481842622836E-01 
    9.4189289253602015E-01 
    9.4162551330630462E-01 
    9.5448719949981975E-01 
    9.5422244692224512E-01 
    9.4137730607705572E-01 
    9.4115084671851423E-01 
    9.5398461595457651E-01 
    9.5377463684549779E-01 
    9.4094108754426986E-01 
    9.4070398105489483E-01 
    9.5354259816670617E-01 
    9.5327214462825860E-01 
    9.4045352362280699E-01 
    9.4026558285949957E-01 
    9.5306023536667916E-01 
    9.5293020254994776E-01 
    9.4014253896526689E-01 
    9.4008108625745690E-01 
    9.5286533566192333E-01 
    9.3572818282557890E-01 
    9.2127850528275224E-01 
    9.2125608441287787E-01 
    9.3570391288113697E-01 
    9.3565550363521699E-01 
    9.2121136065242526E-01 
    9.2114455321504229E-01 
    9.3558321292244673E-01 
    9.3548740111134798E-01 
    9.2105598748969897E-01 
    9.2094613834522809E-01 
    9.3536856916747024E-01 
    9.3522738055702126E-01 
    9.2081561630359143E-01 
    9.2066512401119105E-01 
    9.3506463877865453E-01 
    9.3488123189587835E-01 
    9.2049541149734826E-01 
    9.2030737668067086E-01 
    9.3467818833012795E-01 
    9.3445661533976465E-01 
    9.2010202809776120E-01 
    9.1988046535765988E-01 
    9.3421770627180434E-01 
    9.3396284412467001E-01 
    9.1964396368076340E-01 
    9.1939380647121804E-01 
    9.3369347298989736E-01 
    9.3341101888014599E-01 
    9.1913125212132896E-01 
    9.1885768342816510E-01 
    9.3311700923745977E-01 
    9.3281306932072128E-01 
    9.1857457760216832E-01 
    9.1828337722277587E-01 
    9.3250078571502149E-01 
    9.3218172648625786E-01 
    9.1798551700676623E-01 
    9.1768260087978593E-01 
    9.3185762437391118E-01 
    9.3153020175198520E-01 
    9.1737622080598402E-01 
    9.1706788847659537E-01 
    9.3120108273976754E-01 
    9.3087207058116672E-01 
    9.1675929771429443E-01 
    9.1645208607149964E-01 
    9.3054494064728033E-01 
    9.3022134583336724E-01 
    9.1614781840365256E-01 
    9.1584815273259801E-01 
    9.2990303295193233E-01 
    9.2959178201345338E-01 
    9.1555478409075786E-01 
    9.1526935183062541E-01 
    9.2928923135672337E-01 
    9.2899690813450464E-01 
    9.1499343440700953E-01 
    9.1472877851205203E-01 
    9.2871642277187172E-01 
    9.2844918958185818E-01 
    9.1447706154202923E-01 
    9.1423995748711329E-01 
    9.2819625014334284E-01 
    9.2795917738908906E-01 
    9.1402024835147300E-01 
    9.1381783917630865E-01 
    9.2773807184520796E-01 
    9.2751337507889253E-01 
    9.1358787294846089E-01 
    9.1329778859312416E-01 
    9.2725135492439370E-01 
    9.2701175712133421E-01 
    9.1305113592861953E-01 
    9.1289063963533557E-01 
    9.2684760878981798E-01 
    9.2673748305792281E-01 
    9.1278354005014695E-01 
    9.1272990384739328E-01 
    9.2668215172364554E-01 
    9.0648276406960715E-01 
    8.9134153128568894E-01 
    8.9132082952352332E-01 
    9.0646149473318627E-01 
    9.0641906587829890E-01 
    8.9127952679632017E-01 
    8.9121780710786580E-01 
    9.0635567208866563E-01 
    9.0627163394891586E-01 
    8.9113598035128683E-01 
    8.9103449136161950E-01 
    9.0616741065569673E-01 
    9.0604358214515979E-01 
    8.9091391461601122E-01 
    8.9077486690672691E-01 
    9.0590079291466175E-01 
    9.0573973698693855E-01 
    8.9061803395808148E-01 
    8.9044422398729894E-01 
    9.0556124126305715E-01 
    9.0536625944620808E-01 
    8.9025436455732476E-01 
    8.9004944595705504E-01 
    9.0515583980412762E-01 
    9.0493113560556226E-01 
    8.8983053232255838E-01 
    8.8959871137151414E-01 
    9.0469330263688141E-01 
    9.0444350775823090E-01 
    8.8935508846222688E-01 
    8.8910087946578598E-01 
    9.0418302797246308E-01 
    9.0391321974664030E-01 
    8.8883738292875736E-01 
    8.8856591627611736E-01 
    9.0363543844622396E-01 
    9.0335106097246554E-01 
    8.8828780696049192E-01 
    8.8800448677641874E-01 
    9.0306157708001256E-01 
    9.0276849519772007E-01 
    8.8771743313369533E-01 
    8.8742810494250113E-01 
    9.0247329435902268E-01 
    9.0217755178892689E-01 
    8.8713800577262791E-01 
    8.8684864454865409E-01 
    9.0188281012033367E-01 
    9.0159060322283457E-01 
    8.8656148265180579E-01 
    8.8627801284547936E-01 
    9.0130250853089200E-01 
    9.0102013252270963E-01 
    8.8599975720368140E-01 
    8.8572822325804612E-01 
    9.0074510614220737E-01 
    9.0047906747898687E-01 
    8.8546489472837830E-01 
    8.8521130115407343E-01 
    9.0022381876581159E-01 
    8.9998113082478237E-01 
    8.8496872168470975E-01 
    8.8473833710373084E-01 
    8.9975313207158691E-01 
    8.9954298261185894E-01 
    8.8452017535810001E-01 
    8.8429869991045318E-01 
    8.9934890333589568E-01 
    8.9911185452033437E-01 
    8.8402731013447111E-01 
    8.8374315997944941E-01 