# vtk DataFile Version 2.0
Pressure Field Data 
ASCII 
DATASET UNSTRUCTURED_GRID 

POINTS 1681 double 

    0.0000000000000000E+00     0.0000000000000000E+00     0.0000000000000000E+00 
    1.0000000000000000E+00     0.0000000000000000E+00     0.0000000000000000E+00 
    1.0000000000000000E+00     1.0000000000000000E+00     0.0000000000000000E+00 
    0.0000000000000000E+00     1.0000000000000000E+00     0.0000000000000000E+00 
    5.2499999999875258E-01     0.0000000000000000E+00     0.0000000000000000E+00 
    7.4999999999856765E-02     0.0000000000000000E+00     0.0000000000000000E+00 
    1.2499999999975850E-01     0.0000000000000000E+00     0.0000000000000000E+00 
    1.7499999999962990E-01     0.0000000000000000E+00     0.0000000000000000E+00 
    2.2499999999948389E-01     0.0000000000000000E+00     0.0000000000000000E+00 
    2.7499999999933789E-01     0.0000000000000000E+00     0.0000000000000000E+00 
    3.2499999999919210E-01     0.0000000000000000E+00     0.0000000000000000E+00 
    3.7499999999904610E-01     0.0000000000000000E+00     0.0000000000000000E+00 
    4.2499999999890020E-01     0.0000000000000000E+00     0.0000000000000000E+00 
    4.7499999999875958E-01     0.0000000000000000E+00     0.0000000000000000E+00 
    2.4999999999949701E-02     0.0000000000000000E+00     0.0000000000000000E+00 
    5.7499999999887907E-01     0.0000000000000000E+00     0.0000000000000000E+00 
    6.2499999999901101E-01     0.0000000000000000E+00     0.0000000000000000E+00 
    6.7499999999914273E-01     0.0000000000000000E+00     0.0000000000000000E+00 
    7.2499999999927467E-01     0.0000000000000000E+00     0.0000000000000000E+00 
    7.7499999999940661E-01     0.0000000000000000E+00     0.0000000000000000E+00 
    8.2499999999953844E-01     0.0000000000000000E+00     0.0000000000000000E+00 
    8.7499999999967026E-01     0.0000000000000000E+00     0.0000000000000000E+00 
    9.2499999999980220E-01     0.0000000000000000E+00     0.0000000000000000E+00 
    9.7499999999993414E-01     0.0000000000000000E+00     0.0000000000000000E+00 
    5.4999999999881310E-01     0.0000000000000000E+00     0.0000000000000000E+00 
    9.9999999999814140E-02     0.0000000000000000E+00     0.0000000000000000E+00 
    1.4999999999970290E-01     0.0000000000000000E+00     0.0000000000000000E+00 
    1.9999999999955689E-01     0.0000000000000000E+00     0.0000000000000000E+00 
    2.4999999999941089E-01     0.0000000000000000E+00     0.0000000000000000E+00 
    2.9999999999926502E-01     0.0000000000000000E+00     0.0000000000000000E+00 
    3.4999999999911913E-01     0.0000000000000000E+00     0.0000000000000000E+00 
    3.9999999999897312E-01     0.0000000000000000E+00     0.0000000000000000E+00 
    4.4999999999882723E-01     0.0000000000000000E+00     0.0000000000000000E+00 
    4.9999999999869210E-01     0.0000000000000000E+00     0.0000000000000000E+00 
    4.9999999999899403E-02     0.0000000000000000E+00     0.0000000000000000E+00 
    5.9999999999894504E-01     0.0000000000000000E+00     0.0000000000000000E+00 
    6.4999999999907687E-01     0.0000000000000000E+00     0.0000000000000000E+00 
    6.9999999999920870E-01     0.0000000000000000E+00     0.0000000000000000E+00 
    7.4999999999934064E-01     0.0000000000000000E+00     0.0000000000000000E+00 
    7.9999999999947247E-01     0.0000000000000000E+00     0.0000000000000000E+00 
    8.4999999999960441E-01     0.0000000000000000E+00     0.0000000000000000E+00 
    8.9999999999973623E-01     0.0000000000000000E+00     0.0000000000000000E+00 
    9.4999999999986817E-01     0.0000000000000000E+00     0.0000000000000000E+00 
    1.0000000000000000E+00     5.2499999999875258E-01     0.0000000000000000E+00 
    1.0000000000000000E+00     7.4999999999856765E-02     0.0000000000000000E+00 
    1.0000000000000000E+00     1.2499999999975850E-01     0.0000000000000000E+00 
    1.0000000000000000E+00     1.7499999999962990E-01     0.0000000000000000E+00 
    1.0000000000000000E+00     2.2499999999948389E-01     0.0000000000000000E+00 
    1.0000000000000000E+00     2.7499999999933789E-01     0.0000000000000000E+00 
    1.0000000000000000E+00     3.2499999999919210E-01     0.0000000000000000E+00 
    1.0000000000000000E+00     3.7499999999904610E-01     0.0000000000000000E+00 
    1.0000000000000000E+00     4.2499999999890020E-01     0.0000000000000000E+00 
    1.0000000000000000E+00     4.7499999999875958E-01     0.0000000000000000E+00 
    1.0000000000000000E+00     2.4999999999949701E-02     0.0000000000000000E+00 
    1.0000000000000000E+00     5.7499999999887907E-01     0.0000000000000000E+00 
    1.0000000000000000E+00     6.2499999999901101E-01     0.0000000000000000E+00 
    1.0000000000000000E+00     6.7499999999914273E-01     0.0000000000000000E+00 
    1.0000000000000000E+00     7.2499999999927467E-01     0.0000000000000000E+00 
    1.0000000000000000E+00     7.7499999999940661E-01     0.0000000000000000E+00 
    1.0000000000000000E+00     8.2499999999953844E-01     0.0000000000000000E+00 
    1.0000000000000000E+00     8.7499999999967026E-01     0.0000000000000000E+00 
    1.0000000000000000E+00     9.2499999999980220E-01     0.0000000000000000E+00 
    1.0000000000000000E+00     9.7499999999993414E-01     0.0000000000000000E+00 
    1.0000000000000000E+00     5.4999999999881310E-01     0.0000000000000000E+00 
    1.0000000000000000E+00     9.9999999999814140E-02     0.0000000000000000E+00 
    1.0000000000000000E+00     1.4999999999970290E-01     0.0000000000000000E+00 
    1.0000000000000000E+00     1.9999999999955689E-01     0.0000000000000000E+00 
    1.0000000000000000E+00     2.4999999999941089E-01     0.0000000000000000E+00 
    1.0000000000000000E+00     2.9999999999926502E-01     0.0000000000000000E+00 
    1.0000000000000000E+00     3.4999999999911913E-01     0.0000000000000000E+00 
    1.0000000000000000E+00     3.9999999999897312E-01     0.0000000000000000E+00 
    1.0000000000000000E+00     4.4999999999882723E-01     0.0000000000000000E+00 
    1.0000000000000000E+00     4.9999999999869210E-01     0.0000000000000000E+00 
    1.0000000000000000E+00     4.9999999999899403E-02     0.0000000000000000E+00 
    1.0000000000000000E+00     5.9999999999894504E-01     0.0000000000000000E+00 
    1.0000000000000000E+00     6.4999999999907687E-01     0.0000000000000000E+00 
    1.0000000000000000E+00     6.9999999999920870E-01     0.0000000000000000E+00 
    1.0000000000000000E+00     7.4999999999934064E-01     0.0000000000000000E+00 
    1.0000000000000000E+00     7.9999999999947247E-01     0.0000000000000000E+00 
    1.0000000000000000E+00     8.4999999999960441E-01     0.0000000000000000E+00 
    1.0000000000000000E+00     8.9999999999973623E-01     0.0000000000000000E+00 
    1.0000000000000000E+00     9.4999999999986817E-01     0.0000000000000000E+00 
    4.7500000000196618E-01     1.0000000000000000E+00     0.0000000000000000E+00 
    9.2499999999968763E-01     1.0000000000000000E+00     0.0000000000000000E+00 
    8.7499999999961831E-01     1.0000000000000000E+00     0.0000000000000000E+00 
    8.2499999999982654E-01     1.0000000000000000E+00     0.0000000000000000E+00 
    7.7500000000017355E-01     1.0000000000000000E+00     0.0000000000000000E+00 
    7.2500000000052045E-01     1.0000000000000000E+00     0.0000000000000000E+00 
    6.7500000000086724E-01     1.0000000000000000E+00     0.0000000000000000E+00 
    6.2500000000121403E-01     1.0000000000000000E+00     0.0000000000000000E+00 
    5.7500000000156093E-01     1.0000000000000000E+00     0.0000000000000000E+00 
    5.2500000000189684E-01     1.0000000000000000E+00     0.0000000000000000E+00 
    9.7499999999989595E-01     1.0000000000000000E+00     0.0000000000000000E+00 
    4.2500000000176902E-01     1.0000000000000000E+00     0.0000000000000000E+00 
    3.7500000000156092E-01     1.0000000000000000E+00     0.0000000000000000E+00 
    3.2500000000135282E-01     1.0000000000000000E+00     0.0000000000000000E+00 
    2.7500000000114472E-01     1.0000000000000000E+00     0.0000000000000000E+00 
    2.2500000000093659E-01     1.0000000000000000E+00     0.0000000000000000E+00 
    1.7500000000072849E-01     1.0000000000000000E+00     0.0000000000000000E+00 
    1.2500000000052039E-01     1.0000000000000000E+00     0.0000000000000000E+00 
    7.5000000000312261E-02     1.0000000000000000E+00     0.0000000000000000E+00 
    2.5000000000104109E-02     1.0000000000000000E+00     0.0000000000000000E+00 
    4.5000000000187301E-01     1.0000000000000000E+00     0.0000000000000000E+00 
    8.9999999999958358E-01     1.0000000000000000E+00     0.0000000000000000E+00 
    8.4999999999965303E-01     1.0000000000000000E+00     0.0000000000000000E+00 
    8.0000000000000004E-01     1.0000000000000000E+00     0.0000000000000000E+00 
    7.5000000000034706E-01     1.0000000000000000E+00     0.0000000000000000E+00 
    7.0000000000069384E-01     1.0000000000000000E+00     0.0000000000000000E+00 
    6.5000000000104063E-01     1.0000000000000000E+00     0.0000000000000000E+00 
    6.0000000000138742E-01     1.0000000000000000E+00     0.0000000000000000E+00 
    5.5000000000173432E-01     1.0000000000000000E+00     0.0000000000000000E+00 
    5.0000000000205946E-01     1.0000000000000000E+00     0.0000000000000000E+00 
    9.4999999999979179E-01     1.0000000000000000E+00     0.0000000000000000E+00 
    4.0000000000166491E-01     1.0000000000000000E+00     0.0000000000000000E+00 
    3.5000000000145681E-01     1.0000000000000000E+00     0.0000000000000000E+00 
    3.0000000000124871E-01     1.0000000000000000E+00     0.0000000000000000E+00 
    2.5000000000104061E-01     1.0000000000000000E+00     0.0000000000000000E+00 
    2.0000000000083251E-01     1.0000000000000000E+00     0.0000000000000000E+00 
    1.5000000000062441E-01     1.0000000000000000E+00     0.0000000000000000E+00 
    1.0000000000041630E-01     1.0000000000000000E+00     0.0000000000000000E+00 
[...]
CELL_DATA 1600 
SCALARS Pressure double 1 
LOOKUP_TABLE default 

    1.1968163647941568E+00 
    1.1506167889843018E+00 
    1.1482246650965318E+00 
    1.1812225562824470E+00 
    1.1687804452534913E+00 
    1.1446088790214066E+00 
    1.1404271204173406E+00 
    1.1585839658340256E+00 
    1.1500331307384324E+00 
    1.1360507287434163E+00 
    1.1316858755254600E+00 
    1.1427175127487692E+00 
    1.1363486344815734E+00 
    1.1274418124801227E+00 
    1.1233721847414593E+00 
    1.1307200000338500E+00 
    1.1256819122047506E+00 
    1.1194995187081407E+00 
    1.1158293526743732E+00 
    1.1211248310076654E+00 
    1.1169673176757129E+00 
    1.1123579588811898E+00 
    1.1090762891075254E+00 
    1.1131469276306394E+00 
    1.1096143977334476E+00 
    1.1059729349114436E+00 
    1.1030363810517534E+00 
    1.1063309506553067E+00 
    1.1032665932197339E+00 
    1.1002561723504800E+00 
    1.0976229974130898E+00 
    1.1003979554226200E+00 
    1.0977064024615979E+00 
    1.0951286057856484E+00 
    1.0927656517580300E+00 
    1.0951768675869882E+00 
    1.0927969257099286E+00 
    1.0905275026734449E+00 
    1.0884081400065497E+00 
    1.0905560612974703E+00 
    1.0884454939268844E+00 
    1.0864024233320171E+00 
    1.0845062018044993E+00 
    1.0864582484683345E+00 
    1.0845888133853747E+00 
    1.0827161489425368E+00 
    1.0810294063981911E+00 
    1.0828325935835144E+00 
    1.0811857178790443E+00 
    1.0794435108914440E+00 
    1.0779564572689433E+00 
    1.0796450403719429E+00 
    1.0782080812639416E+00 
    1.0765667268252292E+00 
    1.0752731781686475E+00 
    1.0768729084152679E+00 
    1.0756380618330110E+00 
    1.0740749860925562E+00 
    1.0729716151960893E+00 
    1.0745024860706385E+00 
    1.0734654661545673E+00 
    1.0719628252449034E+00 
    1.0710486283799827E+00 
    1.0725266532370292E+00 
    1.0716860153863370E+00 
    1.0702292852724344E+00 
    1.0695052550290673E+00 
    1.0709437391320660E+00 
    1.0703002384700819E+00 
    1.0688772077355981E+00 
    1.0683465324432735E+00 
    1.0697569049155164E+00 
    1.0692784750513384E+00 
    1.0678745288234091E+00 
    1.0674631308390243E+00 
    1.0688619419310845E+00 
    1.0685773212382159E+00 
    1.0671842902313986E+00 
    1.0670478252417348E+00 
    1.0684382743146705E+00 
    1.1269130375966592E+00 
    1.1095603500726450E+00 
    1.1091823061780410E+00 
    1.1261444952698965E+00 
    1.1247314679716065E+00 
    1.1084511696230379E+00 
    1.1074078170040553E+00 
    1.1228249998709108E+00 
    1.1205672505430686E+00 
    1.1061013190352249E+00 
    1.1045821726872436E+00 
    1.1180770894662717E+00 
    1.1154474894038817E+00 
    1.1028978584964537E+00 
    1.1010908069972181E+00 
    1.1127484412437150E+00 
    1.1100311762249830E+00 
    1.0991974937466586E+00 
    1.0972486616108867E+00 
    1.1073322391581741E+00 
    1.1046769647344157E+00 
    1.0952696383380522E+00 
    1.0932810737460139E+00 
    1.1020823366785133E+00 
    1.0995596852699971E+00 
    1.0912998288331286E+00 
    1.0893395001132284E+00 
    1.0971165233615989E+00 
    1.0947577508680384E+00 
    1.0874108890215324E+00 
    1.0855226494019194E+00 
    1.0924863900102728E+00 
    1.0903041169318168E+00 
    1.0836815732153140E+00 
    1.0818928827869199E+00 
    1.0882115263708130E+00 
    1.0862084348907504E+00 
    1.0801606380883078E+00 
    1.0784882794948567E+00 
    1.0842942698004936E+00 
    1.0824684654474983E+00 
    1.0768787015239079E+00 
    1.0753343299473135E+00 
    1.0807305624689219E+00 
    1.0790801871568272E+00 
    1.0738572367710428E+00 
    1.0724491094457236E+00 
    1.0775168958646864E+00 
    1.0760402662236883E+00 
    1.0711113887689614E+00 
    1.0698455016958639E+00 
    1.0746500397192742E+00 
    1.0733461524375556E+00 
    1.0686528144430636E+00 
    1.0675345772926650E+00 
    1.0721286596049275E+00 
    1.0709977485389741E+00 
    1.0664920075106306E+00 
    1.0655264214131750E+00 
    1.0699537640631871E+00 
    1.0689972043248104E+00 
    1.0646391112448557E+00 
    1.0638314340949315E+00 
    1.0681287144876757E+00 
    1.0673491053884698E+00 
    1.0631048967604448E+00 
    1.0624609537227712E+00 
    1.0666592781439719E+00 
    1.0660604233324809E+00 
    1.0619016001593327E+00 
    1.0614282185194732E+00 
    1.0655539114138752E+00 
    1.0650948122827701E+00 
    1.0609880037408448E+00 
    1.0606000698951970E+00 
    1.0646932167179501E+00 
    1.0644246552571131E+00 
    1.0603447116706453E+00 
    1.0602186333640287E+00 
    1.0642927496260579E+00 
    1.0947485002032802E+00 
    1.0810990175611710E+00 
    1.0809450553164215E+00 
    1.0945202549001360E+00 
    1.0940718742617741E+00 
    1.0806406670475652E+00 
    1.0801925023567789E+00 
    1.0934181288155571E+00 
    1.0925787778343123E+00 
    1.0796097399563533E+00 
    1.0789034100173516E+00 
    1.0915763490867725E+00 
    1.0904341454443724E+00 
    1.0780858804996230E+00 
    1.0771704256194647E+00 
    1.0891752427624233E+00 
    1.0878217549534537E+00 
    1.0761705839978963E+00 
    1.0750998193728287E+00 
    1.0863945003629494E+00 
    1.0849123892332100E+00 
    1.0739710411356067E+00 
    1.0727962211681588E+00 
    1.0833921310134846E+00 
    1.0818485959650594E+00 
    1.0715866815243962E+00 
    1.0703528408839189E+00 
    1.0802947507876608E+00 
    1.0787416328633852E+00 
    1.0691039847343953E+00 
    1.0678486298934968E+00 
    1.0771987825421763E+00 
    1.0756744017657163E+00 
    1.0665946177543117E+00 
    1.0653490042059581E+00 
    1.0741754444731832E+00 
    1.0727078847148936E+00 
    1.0641180706871065E+00 
    1.0629076305429135E+00 
    1.0712771356722632E+00 
    1.0698879138927428E+00 
    1.0617229072647332E+00 
    1.0605684137409299E+00 
    1.0685441949311911E+00 
    1.0672495504549397E+00 
    1.0594483738535125E+00 
    1.0583666646388730E+00 
    1.0660071108438556E+00 
    1.0648196116576778E+00 
    1.0573267025095932E+00 
    1.0563317121597431E+00 
    1.0636896564019940E+00 
    1.0626196936896444E+00 
    1.0553847495026967E+00 
    1.0544885781054185E+00 
    1.0616119089798723E+00 
    1.0606683174905003E+00 
    1.0536457011240914E+00 
    1.0528586237965327E+00 
    1.0597909872591267E+00 
    1.0589818930037307E+00 
    1.0521297416574347E+00 
    1.0514612279727507E+00 
    1.0582429337274908E+00 
    1.0575761451166237E+00 
    1.0508553306695809E+00 
    1.0503141834816208E+00 
    1.0569834551465405E+00 
    1.0564677280575483E+00 
    1.0498414055248673E+00 
    1.0494360293853131E+00 
    1.0560300436133985E+00 
    1.0556119658283543E+00 
    1.0490393825424373E+00 
    1.0486908246123021E+00 
    1.0552419392569583E+00 
    1.0550026633019423E+00 
    1.0484699730832190E+00 
    1.0483596973496823E+00 
    1.0548837467881067E+00 
    1.0679702721545166E+00 
    1.0550191130266140E+00 
    1.0549345480970722E+00 
    1.0678589216777166E+00 
    1.0676380512250043E+00 
    1.0547664735307043E+00 
    1.0545168833952672E+00 
    1.0673111054682782E+00 
    1.0668828856642374E+00 
    1.0541887066264060E+00 
    1.0537858471777566E+00 
    1.0663594921618262E+00 
    1.0657483522145701E+00 
    1.0533131704172041E+00 
    1.0527759268477688E+00 
    1.0650577544033348E+00 
    1.0642961827567810E+00 
    1.0521795462870664E+00 
    1.0515297577690381E+00 
    1.0634722368359311E+00 
    1.0625945972223865E+00 
    1.0508326075998577E+00 
    1.0500941553302394E+00 
    1.0616717237731113E+00 
    1.0607118500079593E+00 
    1.0493204845860751E+00 
    1.0485176207670994E+00 
    1.0597229114532396E+00 
    1.0587123488237888E+00 
    1.0476914715798875E+00 
    1.0468477762701909E+00 
    1.0576872735282847E+00 
    1.0566544584654509E+00 
    1.0459920993077712E+00 
    1.0451296765246150E+00 
    1.0556202070260818E+00 
    1.0545902859121710E+00 
    1.0442654743868436E+00 
    1.0434042762772977E+00 
    1.0535700936643682E+00 
    1.0525646372883828E+00 
    1.0425505993698945E+00 
    1.0417086757671483E+00 
    1.0515784563553852E+00 
    1.0506158324400388E+00 
    1.0408825961387120E+00 
    1.0400761820052677E+00 
    1.0496808019276656E+00 
    1.0487770189889050E+00 
    1.0392930038399966E+00 
    1.0385364557277075E+00 
    1.0479079094991055E+00 
    1.0470767178098315E+00 
    1.0378097783307787E+00 
    1.0371159657120166E+00 
    1.0462864535828054E+00 
    1.0455398691325695E+00 
    1.0364578300062919E+00 
    1.0358380829307996E+00 
    1.0448396215417470E+00 
    1.0441882490101129E+00 
    1.0352592092235284E+00 
    1.0347234553870550E+00 
    1.0435880230931371E+00 
    1.0430411347635204E+00 
    1.0342328670067253E+00 
    1.0337894800826450E+00 
    1.0425496711458138E+00 
    1.0421172965262411E+00 
    1.0333960810640561E+00 
    1.0330361065874354E+00 
    1.0417375039476251E+00 
    1.0413586443598306E+00 
    1.0326720540581604E+00 
    1.0323738821448265E+00 
    1.0410343769838519E+00 
    1.0408333963162362E+00 
    1.0321921075403049E+00 
    1.0321010379152049E+00 
    1.0407328915354952E+00 
    1.0420427068419231E+00 
    1.0289126118002976E+00 
    1.0288587190230358E+00 
    1.0419761498151652E+00 
    1.0418436793012698E+00 
    1.0287513757972035E+00 
    1.0285915137478436E+00 
    1.0416465951201272E+00 
    1.0413869068172568E+00 
    1.0283805977568448E+00 
    1.0281205325317857E+00 
    1.0410673550628120E+00 
    1.0406911734342577E+00 
    1.0278135089474538E+00 
    1.0274619639424176E+00 
    1.0402617722820144E+00 
    1.0397828381328968E+00 
    1.0270686611214010E+00 
    1.0266367305076738E+00 
    1.0392585311803979E+00 
    1.0386932279364620E+00 
    1.0261694811140012E+00 
    1.0256703224761254E+00 
    1.0380913760379720E+00 
    1.0374576283215440E+00 
    1.0251427988916870E+00 
    1.0245905168634857E+00 
    1.0367966405893154E+00 
    1.0361129802898355E+00 
    1.0240170215900344E+00 
    1.0234259306030542E+00 
    1.0354111938374377E+00 
    1.0346957749692225E+00 
    1.0228208979467657E+00 
    1.0222055249876763E+00 
    1.0339710349707860E+00 
    1.0332411201564538E+00 
    1.0215833158746024E+00 
    1.0209578173187046E+00 
    1.0325102093300833E+00 
    1.0317822938401093E+00 
    1.0203325185158136E+00 
    1.0197107018061766E+00 
    1.0310611196025163E+00 
    1.0303504391031577E+00 
    1.0190956756359135E+00 
    1.0184906600889487E+00 
    1.0296537847342808E+00 
    1.0289744454936671E+00 
    1.0178986474555476E+00 
    1.0173226423421375E+00 
    1.0283156521347874E+00 
    1.0276805650382685E+00 
    1.0167656130657721E+00 
    1.0162303973303191E+00 
    1.0270721197186810E+00 
    1.0264930756072816E+00 
    1.0157197083885059E+00 
    1.0152363005984835E+00 
    1.0259462023334185E+00 
    1.0254340522715426E+00 
    1.0147828975275632E+00 
    1.0143621548205033E+00 
    1.0249589898728255E+00 
    1.0245232025972091E+00 
    1.0139768558409643E+00 
    1.0136315056903917E+00 
    1.0241295467831599E+00 
    1.0237799801565457E+00 
    1.0133276579337420E+00 
    1.0130143491768253E+00 
    1.0234418559515404E+00 
    1.0230914228947230E+00 
    1.0126769651716840E+00 
    1.0124129838753795E+00 
    1.0228136476860674E+00 
    1.0226436495564974E+00 
    1.0122470224152584E+00 
    1.0121642035956517E+00 
    1.0225584780896246E+00 
    1.0155463617335725E+00 
    1.0018909898957549E+00 
    1.0018531862286337E+00 
    1.0155017011296565E+00 
    1.0154127155466708E+00 
    1.0017778557158883E+00 
    1.0016655224019100E+00 
    1.0152801002077969E+00 
    1.0151048966244667E+00 
    1.0015169368335775E+00 
    1.0013330564125660E+00 
    1.0148884376370217E+00 
    1.0146323224394584E+00 
    1.0011151254987374E+00 
    1.0008646415335913E+00 
    1.0143384369640225E+00 
    1.0140089281525333E+00 
    1.0005833069304528E+00 
    1.0002730835868234E+00 
    1.0136462499719927E+00 
    1.0132529970839148E+00 
    9.9993601769237728E-01 
    9.9957411799674711E-01 
    1.0128317691648376E+00 
    1.0123853175508379E+00 
    9.9918960811655055E-01 
    9.9878482971132954E-01 
    1.0119164814311501E+00 
    1.0114280867259138E+00 
    9.9836214330634754E-01 
    9.9792405243151194E-01 
    1.0109231239660184E+00 
    1.0104046383032232E+00 
    9.9747313926423742E-01 
    9.9701193101111218E-01 
    1.0098756300137974E+00 
    1.0093390592588147E+00 
    9.9654293390959170E-01 
    9.9606877516968262E-01 
    1.0087979623552494E+00 
    1.0082553413421433E+00 
    9.9559203010431019E-01 
    9.9511517804764904E-01 
    1.0077140346085633E+00 
    1.0071769711050331E+00 
    9.9464080650536302E-01 
    9.9417145861483469E-01 
    1.0066470173602975E+00 
    1.0061268476200860E+00 
    9.9370953591283462E-01 
    9.9325746001072868E-01 
    1.0056192086247073E+00 
    1.0051268122161996E+00 
    9.9281768298689566E-01 
    9.9239247820206478E-01 
    1.0046522218785696E+00 
    1.0041978992019529E+00 
    9.9198396457852811E-01 
    9.9159432731924979E-01 
    1.0037663863583113E+00 
    1.0033601348806052E+00 
    9.9122549225548473E-01 
    9.9087892838687963E-01 
    1.0029813784700501E+00 
    1.0026328519394150E+00 
    9.9055672372897663E-01 
    9.9026056860001710E-01 
    1.0023188375066476E+00 
    1.0020363029320545E+00 
    9.8997389447765860E-01 
    9.8965351556238645E-01 
    1.0017306950174809E+00 
    1.0014131114357669E+00 
    9.8935733417966265E-01 
    9.8915108148313524E-01 
    1.0011746724068600E+00 
    1.0010192913669125E+00 
    9.8901329736942667E-01 
    9.8894423313634061E-01 
    1.0009417792000754E+00 
    9.8791245286582297E-01 
    9.7358821741538248E-01 
    9.7355932635302067E-01 
    9.8787977830967055E-01 
    9.8781464660851126E-01 
    9.7350170233644129E-01 
    9.7341566897497367E-01 
    9.8771745813911438E-01 
    9.8758878291663055E-01 
    9.7330167846299054E-01 
    9.7316035828921488E-01 
    9.8742935748128002E-01 
    9.8724017164805711E-01 
    9.7299252111084189E-01 
    9.7279916537672950E-01 
    9.8702242629627079E-01 
    9.8677749953251226E-01 
    9.7258139794655485E-01 
    9.7234047179133398E-01 
    9.8650694539134798E-01 
    9.8621238542220624E-01 
    9.7207773880115922E-01 
    9.7179468374087874E-01 
    9.8589549069753746E-01 
    9.8555815482017006E-01 
    9.7149297013607960E-01 
    9.7117433118354768E-01 
    9.8520237223469009E-01 
    9.8483018546820622E-01 
    9.7084051473586186E-01 
    9.7049334484632799E-01 
    9.8444370818687499E-01 
    9.8404513197566190E-01 
    9.7013473112804904E-01 
    9.6976657313559689E-01 
    9.8363663215615449E-01 
    9.8322038285502456E-01 
    9.6939076847098371E-01 
    9.6900933295948743E-01 
    9.8279865421825041E-01 
    9.8237369256837892E-01 
    9.6862428534692513E-01 
    9.6823759496755823E-01 
    9.8194772062609592E-01 
    9.8152301563917488E-01 
    9.6785132259532747E-01 
    9.6746754100360577E-01 
    9.8110185898554469E-01 
    9.8068645821420397E-01 
    9.6708823515634690E-01 
    9.6671541947651141E-01 
    9.8027898122909396E-01 
    9.7988166196868232E-01 
    9.6635117108429314E-01 
    9.6599748775545202E-01 
    9.7949662697903472E-01 
    9.7912590370078145E-01 
    9.6565635919711179E-01 
    9.6532990375589367E-01 
    9.7877156974464641E-01 
    9.7843553711425535E-01 
    9.6502025623060939E-01 
    9.6472991676990949E-01 
    9.7811956197332917E-01 
    9.7782639649431369E-01 
    9.6446268282818104E-01 
    9.6421717377640859E-01 
    9.7755620394733544E-01 
    9.7726828151315581E-01 
    9.6393245876559741E-01 
    9.6358828590034062E-01 
    9.7692911724558262E-01 
    9.7664060730602986E-01 
    9.6330660260599077E-01 
    9.6311470391612353E-01 
    9.7644881200580325E-01 
    9.7632043747865627E-01 
    9.6298723744674941E-01 
    9.6292353124344154E-01 
    9.7625601159717312E-01 
    9.5890350127739299E-01 
    9.4384961102247888E-01 
    9.4382528432841506E-01 
    9.5887731667749465E-01 
    9.5882507767942982E-01 
    9.4377674737215234E-01 
    9.4370422098669693E-01 
    9.5874704850547554E-01 
    9.5864361928541186E-01 
    9.4360805713102758E-01 
    9.4348879810751385E-01 
    9.5851534924753157E-01 
    9.5836297222108402E-01 
    9.4334713270627601E-01 
    9.4318380708682514E-01 
    9.5818733816625534E-01 
    9.5798934869419161E-01 
    9.4299960676336037E-01 
    9.4279551893845304E-01 
    9.5777007472372988E-01 
    9.5753073418268808E-01 
    9.4257267031118985E-01 
    9.4233224739536170E-01 
    9.5727265284906360E-01 
    9.5699731932222454E-01 
    9.4207558310813821E-01 
    9.4180400578123225E-01 
    9.5670624775451818E-01 
    9.5640092273801502E-01 
    9.4151882377958518E-01 
    9.4122150099569202E-01 
    9.5608295729979920E-01 
    9.5575407702170778E-01 
    9.4091360688697390E-01 
    9.4059667482553255E-01 
    9.5541596623519010E-01 
    9.5507029058949633E-01 
    9.4027223190705456E-01 
    9.3994199776977660E-01 
    9.5471890525471337E-01 
    9.5436365914233157E-01 
    9.3960768355049940E-01 
    9.3927090868755692E-01 
    9.5400628600097326E-01 
    9.5364870784597899E-01 
    9.3893346881243001E-01 
    9.3859708776298667E-01 
    9.5329280459919252E-01 
    9.5294032076282786E-01 
    9.3826340349457316E-01 
    9.3793415123190749E-01 
    9.5259311636119981E-01 
    9.5225308416145249E-01 
    9.3761110745399801E-01 
    9.3729602514543631E-01 
    9.5192199626378526E-01 
    9.5160153734321196E-01 
    9.3699059972965948E-01 
    9.3669667064761686E-01 
    9.5129349399360708E-01 
    9.5099943448119695E-01 
    9.3641583753224744E-01 
    9.3614959152813071E-01 
    9.5072108328987182E-01 
    9.5046010937607917E-01 
    9.3589701147477566E-01 
    9.3561253324804516E-01 
    9.5020336669215666E-01 
    9.4989664780728933E-01 
    9.3525560308635591E-01 
    9.3493798375001536E-01 
    9.4957082562919015E-01 
    9.4931961481076133E-01 
    9.3471451023671626E-01 
    9.3454540532343777E-01 
    9.4913655549554665E-01 
    9.4901471962728645E-01 
    9.3443192095957428E-01 
    9.3437500722284661E-01 
    9.4895381122823375E-01 
    9.2842261431006223E-01 
    9.1262380028443146E-01 
    9.1260124795757624E-01 
    9.2839946414982033E-01 
    9.2835327235925269E-01 
    9.1255624475570696E-01 
    9.1248897036588117E-01 
    9.2828422957528700E-01 
    9.2819267468297839E-01 
    9.1239974560811754E-01 
    9.1228905868967003E-01 
    9.2807912812711113E-01 
    9.2794423910707657E-01 
    9.1215753360127760E-01 
    9.1200584609379787E-01 
    9.2778870110736833E-01 
    9.2761327969340590E-01 
    9.1183477602086838E-01 
    9.1164522569543205E-01 
    9.2741891070344673E-01 
    9.2720663464702557E-01 
    9.1143816681423595E-01 
    9.1121460005613120E-01 
    9.2697753963791618E-01 
    9.2673280883020492E-01 
    9.1097561371384761E-01 
    9.1072233953378467E-01 
    9.2647363756376655E-01 
    9.2620124578169583E-01 
    9.1045594464781132E-01 
    9.1017771799942415E-01 
    9.2591698735824035E-01 
    9.2562230374158272E-01 
    9.0988904155893158E-01 
    9.0959131318836117E-01 
    9.2531863684151616E-01 
    9.2500744933581680E-01 
    9.0928593731870799E-01 
    9.0897442178526422E-01 
    9.2469033084285213E-01 
    9.2436890300416019E-01 
    9.0865834908245902E-01 
    9.0833929393790369E-01 
    9.2404476408370462E-01 
    9.2371958807020027E-01 
    9.0801885640163993E-01 
    9.0769861261314533E-01 
    9.2339500239463690E-01 
    9.2307260933389335E-01 
    9.0738005928448373E-01 
    9.0706471757414120E-01 
    9.2275406253221948E-01 
    9.2244110121549494E-01 
    9.0675418155613174E-01 
    9.0645002782615258E-01 
    9.2213558160426623E-01 
    9.2183946026967389E-01 
    9.0615379701939547E-01 
    9.0586723011711423E-01 
    9.2155506833976952E-01 
    9.2128516469263200E-01 
    9.0559252803667034E-01 
    9.0533011924819340E-01 
    9.2103234625697417E-01 
    9.2079306831603169E-01 
    9.0506024379563133E-01 
    9.0472480036286085E-01 
    9.2049759375712392E-01 
    9.2012058068155567E-01 
    9.0436407588674494E-01 
    9.0407500889670600E-01 