# vtk DataFile Version 2.0
Pressure Field Data 
ASCII 
DATASET UNSTRUCTURED_GRID 

POINTS 1681 double 

    0.0000000000000000E+00     0.0000000000000000E+00     0.0000000000000000E+00 
    1.0000000000000000E+00     0.0000000000000000E+00     0.0000000000000000E+00 
    1.0000000000000000E+00     1.0000000000000000E+00     0.0000000000000000E+00 
    0.0000000000000000E+00     1.0000000000000000E+00     0.0000000000000000E+00 
    5.2499999999875258E-01     0.0000000000000000E+00     0.0000000000000000E+00 
    7.4999999999856765E-02     0.0000000000000000E+00     0.0000000000000000E+00 
    1.2499999999975850E-01     0.0000000000000000E+00     0.0000000000000000E+00 
    1.7499999999962990E-01     0.0000000000000000E+00     0.0000000000000000E+00 
    2.2499999999948389E-01     0.0000000000000000E+00     0.0000000000000000E+00 
    2.7499999999933789E-01     0.0000000000000000E+00     0.0000000000000000E+00 
    3.2499999999919210E-01     0.0000000000000000E+00     0.0000000000000000E+00 
    3.7499999999904610E-01     0.0000000000000000E+00     0.0000000000000000E+00 
    4.2499999999890020E-01     0.0000000000000000E+00     0.0000000000000000E+00 
    4.7499999999875958E-01     0.0000000000000000E+00     0.0000000000000000E+00 
    2.4999999999949701E-02     0.0000000000000000E+00     0.0000000000000000E+00 
    5.7499999999887907E-01     0.0000000000000000E+00     0.0000000000000000E+00 
    6.2499999999901101E-01     0.0000000000000000E+00     0.0000000000000000E+00 
    6.7499999999914273E-01     0.0000000000000000E+00     0.0000000000000000E+00 
    7.2499999999927467E-01     0.0000000000000000E+00     0.0000000000000000E+00 
    7.7499999999940661E-01     0.0000000000000000E+00     0.0000000000000000E+00 
    8.2499999999953844E-01     0.0000000000000000E+00     0.0000000000000000E+00 
    8.7499999999967026E-01     0.0000000000000000E+00     0.0000000000000000E+00 
    9.2499999999980220E-01     0.0000000000000000E+00     0.0000000000000000E+00 
    9.7499999999993414E-01     0.0000000000000000E+00     0.0000000000000000E+00 
    5.4999999999881310E-01     0.0000000000000000E+00     0.0000000000000000E+00 
    9.9999999999814140E-02     0.0000000000000000E+00     0.0000000000000000E+00 
    1.4999999999970290E-01     0.0000000000000000E+00     0.0000000000000000E+00 
    1.9999999999955689E-01     0.0000000000000000E+00     0.0000000000000000E+00 
    2.4999999999941089E-01     0.0000000000000000E+00     0.0000000000000000E+00 
    2.9999999999926502E-01     0.0000000000000000E+00     0.0000000000000000E+00 
    3.4999999999911913E-01     0.0000000000000000E+00     0.0000000000000000E+00 
    3.9999999999897312E-01     0.0000000000000000E+00     0.0000000000000000E+00 
    4.4999999999882723E-01     0.0000000000000000E+00     0.0000000000000000E+00 
    4.9999999999869210E-01     0.0000000000000000E+00     0.0000000000000000E+00 
    4.9999999999899403E-02     0.0000000000000000E+00     0.0000000000000000E+00 
    5.9999999999894504E-01     0.0000000000000000E+00     0.0000000000000000E+00 
    6.4999999999907687E-01     0.0000000000000000E+00     0.0000000000000000E+00 
    6.9999999999920870E-01     0.0000000000000000E+00     0.0000000000000000E+00 
    7.4999999999934064E-01     0.0000000000000000E+00     0.0000000000000000E+00 
    7.9999999999947247E-01     0.0000000000000000E+00     0.0000000000000000E+00 
    8.4999999999960441E-01     0.0000000000000000E+00     0.0000000000000000E+00 
    8.9999999999973623E-01     0.0000000000000000E+00     0.0000000000000000E+00 
    9.4999999999986817E-01     0.0000000000000000E+00     0.0000000000000000E+00 
    1.0000000000000000E+00     5.2499999999875258E-01     0.0000000000000000E+00 
    1.0000000000000000E+00     7.4999999999856765E-02     0.0000000000000000E+00 
    1.0000000000000000E+00     1.2499999999975850E-01     0.0000000000000000E+00 
    1.0000000000000000E+00     1.7499999999962990E-01     0.0000000000000000E+00 
    1.0000000000000000E+00     2.2499999999948389E-01     0.0000000000000000E+00 
    1.0000000000000000E+00     2.7499999999933789E-01     0.0000000000000000E+00 
    1.0000000000000000E+00     3.2499999999919210E-01     0.0000000000000000E+00 
    1.0000000000000000E+00     3.7499999999904610E-01     0.0000000000000000E+00 
    1.0000000000000000E+00     4.2499999999890020E-01     0.0000000000000000E+00 
    1.0000000000000000E+00     4.7499999999875958E-01     0.0000000000000000E+00 
    1.0000000000000000E+00     2.4999999999949701E-02     0.0000000000000000E+00 
    1.0000000000000000E+00     5.7499999999887907E-01     0.0000000000000000E+00 
    1.0000000000000000E+00     6.2499999999901101E-01     0.0000000000000000E+00 
    1.0000000000000000E+00     6.7499999999914273E-01     0.0000000000000000E+00 
    1.0000000000000000E+00     7.2499999999927467E-01     0.0000000000000000E+00 
    1.0000000000000000E+00     7.7499999999940661E-01     0.0000000000000000E+00 
    1.0000000000000000E+00     8.2499999999953844E-01     0.0000000000000000E+00 
    1.0000000000000000E+00     8.7499999999967026E-01     0.0000000000000000E+00 
    1.0000000000000000E+00     9.2499999999980220E-01     0.0000000000000000E+00 
    1.0000000000000000E+00     9.7499999999993414E-01     0.0000000000000000E+00 
    1.0000000000000000E+00     5.4999999999881310E-01     0.0000000000000000E+00 
    1.0000000000000000E+00     9.9999999999814140E-02     0.0000000000000000E+00 
    1.0000000000000000E+00     1.4999999999970290E-01     0.0000000000000000E+00 
    1.0000000000000000E+00     1.9999999999955689E-01     0.0000000000000000E+00 
    1.0000000000000000E+00     2.4999999999941089E-01     0.0000000000000000E+00 
    1.0000000000000000E+00     2.9999999999926502E-01     0.0000000000000000E+00 
    1.0000000000000000E+00     3.4999999999911913E-01     0.0000000000000000E+00 
    1.0000000000000000E+00     3.9999999999897312E-01     0.0000000000000000E+00 
    1.0000000000000000E+00     4.4999999999882723E-01     0.0000000000000000E+00 
    1.0000000000000000E+00     4.9999999999869210E-01     0.0000000000000000E+00 
    1.0000000000000000E+00     4.9999999999899403E-02     0.0000000000000000E+00 
    1.0000000000000000E+00     5.9999999999894504E-01     0.0000000000000000E+00 
    1.0000000000000000E+00     6.4999999999907687E-01     0.0000000000000000E+00 
    1.0000000000000000E+00     6.9999999999920870E-01     0.0000000000000000E+00 
    1.0000000000000000E+00     7.4999999999934064E-01     0.0000000000000000E+00 
    1.0000000000000000E+00     7.9999999999947247E-01     0.0000000000000000E+00 
    1.0000000000000000E+00     8.4999999999960441E-01     0.0000000000000000E+00 
    1.0000000000000000E+00     8.9999999999973623E-01     0.0000000000000000E+00 
    1.0000000000000000E+00     9.4999999999986817E-01     0.0000000000000000E+00 
    4.7500000000196618E-01     1.0000000000000000E+00     0.0000000000000000E+00 
    9.2499999999968763E-01     1.0000000000000000E+00     0.0000000000000000E+00 
    8.7499999999961831E-01     1.0000000000000000E+00     0.0000000000000000E+00 
    8.2499999999982654E-01     1.0000000000000000E+00     0.0000000000000000E+00 
    7.7500000000017355E-01     1.0000000000000000E+00     0.0000000000000000E+00 
    7.2500000000052045E-01     1.0000000000000000E+00     0.0000000000000000E+00 
    6.7500000000086724E-01     1.0000000000000000E+00     0.0000000000000000E+00 
    6.2500000000121403E-01     1.0000000000000000E+00     0.0000000000000000E+00 
    5.7500000000156093E-01     1.0000000000000000E+00     0.0000000000000000E+00 
    5.2500000000189684E-01     1.0000000000000000E+00     0.0000000000000000E+00 
    9.7499999999989595E-01     1.0000000000000000E+00     0.0000000000000000E+00 
    4.2500000000176902E-01     1.0000000000000000E+00     0.0000000000000000E+00 
    3.7500000000156092E-01     1.0000000000000000E+00     0.0000000000000000E+00 
    3.2500000000135282E-01     1.0000000000000000E+00     0.0000000000000000E+00 
    2.7500000000114472E-01     1.0000000000000000E+00     0.0000000000000000E+00 
    2.2500000000093659E-01     1.0000000000000000E+00     0.0000000000000000E+00 
    1.7500000000072849E-01     1.0000000000000000E+00     0.0000000000000000E+00 
    1.2500000000052039E-01     1.0000000000000000E+00     0.0000000000000000E+00 
    7.5000000000312261E-02     1.0000000000000000E+00     0.0000000000000000E+00 
    2.5000000000104109E-02     1.0000000000000000E+00     0.0000000000000000E+00 
    4.5000000000187301E-01     1.0000000000000000E+00     0.0000000000000000E+00 
    8.9999999999958358E-01     1.0000000000000000E+00     0.0000000000000000E+00 
    8.4999999999965303E-01     1.0000000000000000E+00     0.0000000000000000E+00 
    8.0000000000000004E-01     1.0000000000000000E+00     0.0000000000000000E+00 
    7.5000000000034706E-01     1.0000000000000000E+00     0.0000000000000000E+00 
    7.0000000000069384E-01     1.0000000000000000E+00     0.0000000000000000E+00 
    6.5000000000104063E-01     1.0000000000000000E+00     0.0000000000000000E+00 
    6.0000000000138742E-01     1.0000000000000000E+00     0.0000000000000000E+00 
    5.5000000000173432E-01     1.0000000000000000E+00     0.0000000000000000E+00 
    5.0000000000205946E-01     1.0000000000000000E+00     0.0000000000000000E+00 
    9.4999999999979179E-01     1.0000000000000000E+00     0.0000000000000000E+00 
    4.0000000000166491E-01     1.0000000000000000E+00     0.0000000000000000E+00 
    3.5000000000145681E-01     1.0000000000000000E+00     0.0000000000000000E+00 
    3.0000000000124871E-01     1.0000000000000000E+00     0.0000000000000000E+00 
    2.5000000000104061E-01     1.0000000000000000E+00     0.0000000000000000E+00 
    2.0000000000083251E-01     1.0000000000000000E+00     0.0000000000000000E+00 
    1.5000000000062441E-01     1.0000000000000000E+00     0.0000000000000000E+00 
    1.0000000000041630E-01     1.0000000000000000E+00     0.0000000000000000E+00 
[...]
CELL_DATA 1600 
SCALARS Pressure double 1 
LOOKUP_TABLE default 

    1.3575897257479139E+00 
    1.3102594612138729E+00 
    1.3077858260480257E+00 
    1.3418918754961502E+00 
    1.3292760896335072E+00 
    1.3040143089891498E+00 
    1.2995992352460064E+00 
    1.3188117901106926E+00 
    1.3099116685821590E+00 
    1.2949179313960630E+00 
    1.2901843582509702E+00 
    1.3021769707013406E+00 
    1.2953349373904830E+00 
    1.2855180426360449E+00 
    1.2809815859332747E+00 
    1.2891942233466320E+00 
    1.2836111759391451E+00 
    1.2766027012822960E+00 
    1.2723915515819872E+00 
    1.2784780610804818E+00 
    1.2737183366572122E+00 
    1.2683510060997882E+00 
    1.2644792520467985E+00 
    1.2692767295065981E+00 
    1.2651111575836282E+00 
    1.2607711770700731E+00 
    1.2572193150053788E+00 
    1.2611874632614255E+00 
    1.2574776751269461E+00 
    1.2538158476334038E+00 
    1.2505545570116288E+00 
    1.2539608326457432E+00 
    1.2506214427386642E+00 
    1.2474304104327223E+00 
    1.2444384847714318E+00 
    1.2474467937004543E+00 
    1.2444262509230688E+00 
    1.2415742572919373E+00 
    1.2388340872365264E+00 
    1.2415514286154870E+00 
    1.2388157742572887E+00 
    1.2362151294991535E+00 
    1.2337149786763000E+00 
    1.2362140552969219E+00 
    1.2337420323217916E+00 
    1.2313316717796774E+00 
    1.2290637054132296E+00 
    1.2313963170657298E+00 
    1.2291743518572882E+00 
    1.2269100108520263E+00 
    1.2248698336817694E+00 
    1.2270742103495660E+00 
    1.2250944330615912E+00 
    1.2229427064755476E+00 
    1.2211282915131694E+00 
    1.2232338815971571E+00 
    1.2214915442080592E+00 
    1.2194261383160141E+00 
    1.2178394169670856E+00 
    1.2198687464967910E+00 
    1.2183653750085273E+00 
    1.2163665148032006E+00 
    1.2149108558136532E+00 
    1.2169112249723308E+00 
    1.2153771624467409E+00 
    1.2133867608492057E+00 
    1.2120085401368674E+00 
    1.2139589284415102E+00 
    1.2128144267792129E+00 
    1.2108818799145580E+00 
    1.2099452682388274E+00 
    1.2118635095407297E+00 
    1.2111044438987648E+00 
    1.2091973900682240E+00 
    1.2086373036685594E+00 
    1.2105361097533289E+00 
    1.2101576807453984E+00 
    1.2082643059220732E+00 
    1.2080779234551720E+00 
    1.2099686119008328E+00 
    1.2847760050783277E+00 
    1.2650592956436071E+00 
    1.2646194586703519E+00 
    1.2839355743417082E+00 
    1.2823810729361969E+00 
    1.2637664085300919E+00 
    1.2625436584344731E+00 
    1.2802666402536829E+00 
    1.2777400033353512E+00 
    1.2610031348432118E+00 
    1.2591984274674268E+00 
    1.2749249187086957E+00 
    1.2719197839868597E+00 
    1.2571815004724987E+00 
    1.2549997503071817E+00 
    1.2687999203207354E+00 
    1.2656218591085537E+00 
    1.2526946956931730E+00 
    1.2503020878978024E+00 
    1.2624281064887020E+00 
    1.2592502547041187E+00 
    1.2478516338570016E+00 
    1.2453677808879369E+00 
    1.2561108627922808E+00 
    1.2530257611387130E+00 
    1.2428710734549331E+00 
    1.2403786668949475E+00 
    1.2500059813992488E+00 
    1.2470597169179996E+00 
    1.2379047246909685E+00 
    1.2354610606448511E+00 
    1.2441933942581647E+00 
    1.2414117028550369E+00 
    1.2330573474889861E+00 
    1.2307015402864219E+00 
    1.2387177701094605E+00 
    1.2361139283451568E+00 
    1.2284003753775605E+00 
    1.2261597995311988E+00 
    1.2336021770310850E+00 
    1.2311841816147686E+00 
    1.2239847798881245E+00 
    1.2218795089342771E+00 
    1.2288612105664594E+00 
    1.2266344314648208E+00 
    1.2198478309535157E+00 
    1.2178931484227955E+00 
    1.2245049581650169E+00 
    1.2224738606810255E+00 
    1.2160184450439442E+00 
    1.2142265354694459E+00 
    1.2205421975961610E+00 
    1.2187110022386334E+00 
    1.2125199329207135E+00 
    1.2109006177993271E+00 
    1.2169811164171123E+00 
    1.2153531444950574E+00 
    1.2093709379185518E+00 
    1.2079398405207826E+00 
    1.2138335411446217E+00 
    1.2124158919005914E+00 
    1.2065905235707526E+00 
    1.2051460183960918E+00 
    1.2109628315083181E+00 
    1.2094594799432952E+00 
    1.2036706349172284E+00 
    1.2024275161741189E+00 
    1.2081452298035367E+00 
    1.2070503073085646E+00 
    1.2013755911627213E+00 
    1.2005007458109975E+00 
    1.2061396947917191E+00 
    1.2054123947789148E+00 
    1.1998019587164013E+00 
    1.1992784800510221E+00 
    1.2048676127749924E+00 
    1.2045047527142267E+00 
    1.1989297728240673E+00 
    1.1987554943158851E+00 
    1.2043234120761088E+00 
    1.2474331975417701E+00 
    1.2306043063712344E+00 
    1.2304039090006009E+00 
    1.2471520696317959E+00 
    1.2465987409381227E+00 
    1.2300071099761560E+00 
    1.2294215580758991E+00 
    1.2457890614622673E+00 
    1.2447445553803045E+00 
    1.2286584266431493E+00 
    1.2277315107142104E+00 
    1.2434911805580646E+00 
    1.2420563847990007E+00 
    1.2266557166972576E+00 
    1.2254466351762039E+00 
    1.2404668348184842E+00 
    1.2387480585487998E+00 
    1.2241203406532128E+00 
    1.2226932084631286E+00 
    1.2369244105314028E+00 
    1.2350181151633244E+00 
    1.2211810968000016E+00 
    1.2195986705922410E+00 
    1.2330490669404985E+00 
    1.2310355623528344E+00 
    1.2179600678023808E+00 
    1.2162784898647387E+00 
    1.2289938098874849E+00 
    1.2269377262211889E+00 
    1.2145658037826990E+00 
    1.2128332002426925E+00 
    1.2248797519066277E+00 
    1.2228310014988142E+00 
    1.2110911840240539E+00 
    1.2093492053445096E+00 
    1.2208011373242560E+00 
    1.2187985558030570E+00 
    1.2076156654693577E+00 
    1.2058984895105347E+00 
    1.2168309328147622E+00 
    1.2149050101071597E+00 
    1.2042049601893494E+00 
    1.2025414540645478E+00 
    1.2130266143247628E+00 
    1.2112012227531417E+00 
    1.2009140369382278E+00 
    1.1993282788490609E+00 
    1.2094337218613420E+00 
    1.2077283293358987E+00 
    1.1977890067263954E+00 
    1.1963007286876386E+00 
    1.2060889647341309E+00 
    1.2045191021020201E+00 
    1.1948675772037249E+00 
    1.1934932897891652E+00 
    1.2030214105266404E+00 
    1.2016000259072235E+00 
    1.1921834679481960E+00 
    1.1909335785141826E+00 
    1.2002609665038639E+00 
    1.1989550050146291E+00 
    1.1896245205943301E+00 
    1.1881729320859404E+00 
    1.1975111058200909E+00 
    1.1960904573540914E+00 
    1.1868472349693662E+00 
    1.1857551953692123E+00 
    1.1949251752208945E+00 
    1.1939298255654927E+00 
    1.1848195164098914E+00 
    1.1840394914265886E+00 
    1.1931009303251690E+00 
    1.1924381993913007E+00 
    1.1834153325197043E+00 
    1.1829471551169510E+00 
    1.1919413842257081E+00 
    1.1916102876787844E+00 
    1.1826350181395235E+00 
    1.1824789481544145E+00 
    1.1914447766048406E+00 
    1.2139748129832675E+00 
    1.1972285745432787E+00 
    1.1971076623214685E+00 
    1.2138224021001767E+00 
    1.2135198135563194E+00 
    1.1968672490573435E+00 
    1.1965099733382554E+00 
    1.2130714755002927E+00 
    1.2124837139865665E+00 
    1.1960395393603929E+00 
    1.1954607343123185E+00 
    1.2117642684334606E+00 
    1.2109222080910846E+00 
    1.1947796658042893E+00 
    1.1940032115302173E+00 
    1.2099677662790513E+00 
    1.2089116737444399E+00 
    1.1931386081388482E+00 
    1.1921934000356076E+00 
    1.2077649027519255E+00 
    1.2065384273939406E+00 
    1.1911755447599424E+00 
    1.1900931577507308E+00 
    1.2052429032520215E+00 
    1.2038889824077452E+00 
    1.1889545176276888E+00 
    1.1877677244693066E+00 
    1.2024871015797480E+00 
    1.2010470276247076E+00 
    1.1865405951922052E+00 
    1.1852807832101511E+00 
    1.1995781459262460E+00 
    1.1980894418367423E+00 
    1.1839958020335104E+00 
    1.1826927849756979E+00 
    1.1965893001274910E+00 
    1.1950854811452718E+00 
    1.1813785487404165E+00 
    1.1800597296890805E+00 
    1.1935854146404521E+00 
    1.1920960556334572E+00 
    1.1787425152517184E+00 
    1.1774325371365606E+00 
    1.1906236614491965E+00 
    1.1891741138769250E+00 
    1.1761352056718428E+00 
    1.1748555722394767E+00 
    1.1877529124883601E+00 
    1.1863650371962788E+00 
    1.1735984867745752E+00 
    1.1723688078527978E+00 
    1.1850152028108811E+00 
    1.1837079418378824E+00 
    1.1711718114233594E+00 
    1.1700114720040358E+00 
    1.1824478782141905E+00 
    1.1812367289230894E+00 
    1.1688722220830916E+00 
    1.1676308214665305E+00 
    1.1800302002638385E+00 
    1.1786747376547475E+00 
    1.1662183721476185E+00 
    1.1649068690207294E+00 
    1.1772630775324251E+00 
    1.1760590348166069E+00 
    1.1638071168738249E+00 
    1.1628460611855209E+00 
    1.1750325397873032E+00 
    1.1741527999662174E+00 
    1.1620217070004779E+00 
    1.1613343357426582E+00 
    1.1734195165184820E+00 
    1.1728327672500674E+00 
    1.1607841788918025E+00 
    1.1603714113054904E+00 
    1.1723926307479526E+00 
    1.1720991707271471E+00 
    1.1600961607407485E+00 
    1.1599585055097137E+00 
    1.1719524300779571E+00 
    1.1801918702108634E+00 
    1.1627479176992490E+00 
    1.1626634448870949E+00 
    1.1800924781653663E+00 
    1.1798945759058885E+00 
    1.1624950484576193E+00 
    1.1622438490335183E+00 
    1.1795998350630141E+00 
    1.1792106556460715E+00 
    1.1619116738081896E+00 
    1.1615010885225494E+00 
    1.1787303411337362E+00 
    1.1781631152835430E+00 
    1.1610151853977579E+00 
    1.1604573866788390E+00 
    1.1775136133456021E+00 
    1.1767868468608118E+00 
    1.1598315923173812E+00 
    1.1591423221995456E+00 
    1.1759885879372063E+00 
    1.1751250071922761E+00 
    1.1583942739114303E+00 
    1.1575920975379157E+00 
    1.1742022859237071E+00 
    1.1732268281107818E+00 
    1.1567406756345806E+00 
    1.1558450716391695E+00 
    1.1722049723231784E+00 
    1.1711428714442482E+00 
    1.1549102232502073E+00 
    1.1539411745062205E+00 
    1.1700467382357338E+00 
    1.1689228245549617E+00 
    1.1529430440024915E+00 
    1.1519209008651023E+00 
    1.1677771747433405E+00 
    1.1666155705972714E+00 
    1.1508797009850036E+00 
    1.1498243822242367E+00 
    1.1654437918779983E+00 
    1.1642672148677278E+00 
    1.1487596440941839E+00 
    1.1476897623645279E+00 
    1.1630906499967215E+00 
    1.1619189556044895E+00 
    1.1466190458302319E+00 
    1.1455519185596774E+00 
    1.1607568805103168E+00 
    1.1596090507547201E+00 
    1.1444928309883893E+00 
    1.1434456797064321E+00 
    1.1584804116928935E+00 
    1.1573760237406474E+00 
    1.1424066081071005E+00 
    1.1413123238836627E+00 
    1.1562907339479029E+00 
    1.1551404142922717E+00 
    1.1400247287059586E+00 
    1.1386066022525723E+00 
    1.1537904853361849E+00 
    1.1524053457191112E+00 
    1.1373445435799274E+00 
    1.1362647220965771E+00 
    1.1512199092506790E+00 
    1.1501925245877331E+00 
    1.1353037621225552E+00 
    1.1344614497708314E+00 
    1.1492927904653536E+00 
    1.1485208462287952E+00 
    1.1337384990198716E+00 
    1.1331354195071146E+00 
    1.1478770384048118E+00 
    1.1473616558398929E+00 
    1.1326525785946091E+00 
    1.1322902419971768E+00 
    1.1469749259659159E+00 
    1.1467170149420198E+00 
    1.1320485929081696E+00 
    1.1319277483508068E+00 
    1.1465880336067109E+00 
    1.1448077526707254E+00 
    1.1263170492630539E+00 
    1.1262513625264863E+00 
    1.1447340711142122E+00 
    1.1445870856812990E+00 
    1.1261203668554098E+00 
    1.1259248095583221E+00 
    1.1443675878262392E+00 
    1.1440770266450646E+00 
    1.1256658652558020E+00 
    1.1253450508484806E+00 
    1.1437174802953891E+00 
    1.1432914305433088E+00 
    1.1249643631892419E+00 
    1.1245262206852797E+00 
    1.1428017327816311E+00 
    1.1422515075468156E+00 
    1.1240329915032667E+00 
    1.1234871693298341E+00 
    1.1416441435410698E+00 
    1.1409831435406617E+00 
    1.1228915166957343E+00 
    1.1222489683779771E+00 
    1.1402720509339059E+00 
    1.1395147980636049E+00 
    1.1215628377192284E+00 
    1.1208365774006770E+00 
    1.1387155064498768E+00 
    1.1378782110538244E+00 
    1.1200735962158603E+00 
    1.1192774087467658E+00 
    1.1370071126684962E+00 
    1.1361064862352404E+00 
    1.1184517177082531E+00 
    1.1176000841450577E+00 
    1.1351805018431940E+00 
    1.1342332871407925E+00 
    1.1167259725457550E+00 
    1.1158330670522980E+00 
    1.1332691149418919E+00 
    1.1322922274975424E+00 
    1.1149250153924861E+00 
    1.1140055475711041E+00 
    1.1313066871074089E+00 
    1.1303165522224099E+00 
    1.1130788055593608E+00 
    1.1121468408114203E+00 
    1.1293260615430769E+00 
    1.1283381634491603E+00 
    1.1111967583190292E+00 
    1.1101572412003442E+00 
    1.1273466185134897E+00 
    1.1262915646852245E+00 
    1.1089073926908262E+00 
    1.1074655133517264E+00 
    1.1250456460604021E+00 
    1.1236235915537156E+00 
    1.1060839246969345E+00 
    1.1048881331047129E+00 
    1.1222945422172623E+00 
    1.1211514414629076E+00 
    1.1038266148270093E+00 
    1.1028720616906071E+00 
    1.1201334005323960E+00 
    1.1192284863902864E+00 
    1.1020239592335326E+00 
    1.1012821315415537E+00 
    1.1184365083177514E+00 
    1.1177574836833193E+00 
    1.1006464511907765E+00 
    1.1001168199633817E+00 
    1.1171914810046055E+00 
    1.1167385710454816E+00 
    1.0996931702987933E+00 
    1.0993754579675687E+00 
    1.1163988262521196E+00 
    1.1161723034710020E+00 
    1.0991636648818428E+00 
    1.0990577878090502E+00 
    1.1160590475724663E+00 
    1.1072566309816287E+00 
    1.0876259776864499E+00 
    1.0875702461870591E+00 
    1.1071967405771401E+00 
    1.1070774383306772E+00 
    1.0874592666197631E+00 
    1.0872940387208050E+00 
    1.1068996776891060E+00 
    1.1066645469388865E+00 
    1.0870755907348939E+00 
    1.0868048231110305E+00 
    1.1063730374588909E+00 
    1.1060265452037688E+00 
    1.0864827586175014E+00 
    1.0861104884388861E+00 
    1.1056269071224316E+00 
    1.1051759083088275E+00 
    1.0856894132548103E+00 
    1.0852215779431802E+00 
    1.1046755667740047E+00 
    1.1041282796180703E+00 
    1.0847090055556399E+00 
    1.0841536982586597E+00 
    1.1035365966509845E+00 
    1.1029032898911129E+00 
    1.0835583103042929E+00 
    1.0829255886182907E+00 
    1.1022313535242225E+00 
    1.1015238044713662E+00 
    1.0822578677528605E+00 
    1.0815576952437538E+00 
    1.1007835937752986E+00 
    1.1000138957949301E+00 
    1.0808281004524916E+00 
    1.0800719171226689E+00 
    1.0992177765890583E+00 
    1.0983984095395543E+00 
    1.0792918587203471E+00 
    1.0784893937755065E+00 
    1.0975591713864259E+00 
    1.0967028245324451E+00 
    1.0776612100109855E+00 
    1.0767928890650482E+00 
    1.0958304122620302E+00 
    1.0949386543887227E+00 
    1.0758275738317766E+00 
    1.0746654826531519E+00 
    1.0940072270509780E+00 
    1.0929432861647952E+00 
    1.0732422146640173E+00 
    1.0717010066192341E+00 
    1.0916334726053578E+00 
    1.0901485183295170E+00 
    1.0702904791777081E+00 
    1.0690636073739310E+00 
    1.0887368618120861E+00 
    1.0875126547247616E+00 
    1.0679650534764407E+00 
    1.0669598652508647E+00 
    1.0864238311867265E+00 
    1.0854353120739701E+00 
    1.0660472332335988E+00 
    1.0652267938645792E+00 
    1.0845464393784987E+00 
    1.0837569428531195E+00 
    1.0644982147332067E+00 
    1.0638612275390742E+00 
    1.0830665830478672E+00 
    1.0824751680540967E+00 
    1.0633156105598522E+00 
    1.0628611739613114E+00 
    1.0819825348985403E+00 
    1.0815885616131771E+00 
    1.0624977686673172E+00 
    1.0622252848693730E+00 
    1.0812931411866298E+00 
    1.0810962140919151E+00 
    1.0620436301374629E+00 
    1.0619527426508220E+00 
    1.0809977226148868E+00 
    1.0674268810094991E+00 
    1.0466560254611661E+00 
    1.0466065394637076E+00 
    1.0673743310663990E+00 
    1.0672693381618430E+00 
    1.0465071798258909E+00 
    1.0463575835061210E+00 
    1.0671123231177331E+00 
    1.0669041499745544E+00 
    1.0461581538631735E+00 
    1.0459105482837612E+00 
    1.0666463641339576E+00 
    1.0663404362642757E+00 
    1.0456164911042460E+00 
    1.0452768173575788E+00 
    1.0659869793112344E+00 
    1.0655869966440732E+00 
    1.0448919181387843E+00 
    1.0444621102965572E+00 
    1.0651422027936615E+00 
    1.0646537878023283E+00 
    1.0439877763877508E+00 
    1.0434697233836940E+00 
    1.0641230902940884E+00 
    1.0635526512504294E+00 
    1.0429089562637308E+00 
    1.0423062601274313E+00 
    1.0629449122404397E+00 
    1.0623015939624605E+00 
    1.0416617531538854E+00 
    1.0409748449975416E+00 
    1.0616247528985863E+00 
    1.0609164916091651E+00 
    1.0402414179027737E+00 
    1.0394464381434105E+00 
    1.0601772366708622E+00 
    1.0594045732334050E+00 
    1.0385352076596861E+00 
    1.0374217231756269E+00 
    1.0585867009575494E+00 
    1.0576759438151762E+00 
    1.0360731136186878E+00 
    1.0345280685685787E+00 
    1.0565784895978894E+00 
    1.0552345759275206E+00 
    1.0329413983054738E+00 
    1.0314856358366511E+00 
    1.0536942045158859E+00 
    1.0521462910803254E+00 
    1.0302169641020307E+00 
    1.0290849356554301E+00 
    1.0507763757850279E+00 
    1.0495804874820680E+00 
    1.0280327260630382E+00 
    1.0270571188550461E+00 
    1.0484909138863459E+00 
    1.0474878311197995E+00 
    1.0261573127156181E+00 
    1.0253329988938129E+00 
    1.0465700383747147E+00 
    1.0457369134575913E+00 
    1.0245839427675389E+00 
    1.0239099932365492E+00 
    1.0449879879264656E+00 
    1.0443229046936979E+00 
    1.0233110194834747E+00 
    1.0227869550562396E+00 
    1.0437413936298556E+00 
    1.0432432395664963E+00 
    1.0223377654789585E+00 
    1.0219634378206517E+00 
    1.0428282936815172E+00 
    1.0424964397157630E+00 
    1.0216639638634117E+00 
    1.0214393637178401E+00 
    1.0422475977274559E+00 
    1.0420817012796575E+00 
    1.0212896385241808E+00 
    1.0212148097635401E+00 
    1.0419987137675368E+00 
    1.0252939379463220E+00 
    1.0032325107620852E+00 
    1.0031820823175845E+00 
    1.0252468014061338E+00 
    1.0251526499511925E+00 
    1.0030828075713656E+00 
    1.0029362872266887E+00 
    1.0250114541519353E+00 
    1.0248229507893605E+00 
    1.0027422167791535E+00 
    1.0024990247881376E+00 
    1.0245869425858745E+00 
    1.0243033441514111E+00 
    1.0022049132762652E+00 
    1.0018562354919684E+00 
    1.0239719723967606E+00 
    1.0235911611536344E+00 
    1.0014415635220084E+00 
    1.0009388184261065E+00 
    1.0231582781989896E+00 
    1.0226722622735476E+00 
    1.0003200966337686E+00 
    9.9956158988459509E-01 
    1.0221335819770490E+00 
    1.0215408475505090E+00 
    9.9865104671438931E-01 
    9.9759372888695108E-01 
    1.0208894312276797E+00 
    1.0201627756527414E+00 
    9.9640471365678718E-01 
    9.9509484055166164E-01 
    1.0193183392910772E+00 
    1.0182978836966756E+00 
    9.9367663601073741E-01 
    9.9220248929814336E-01 
    1.0170782281189477E+00 
    1.0156710930257198E+00 
    9.9075975062448851E-01 
    9.8943568152241856E-01 
    1.0141153016181426E+00 
    1.0125432904001497E+00 
    9.8827829582048532E-01 
    9.8723522117632023E-01 
    1.0110879060166460E+00 
    1.0098152073560389E+00 
    9.8624693728336277E-01 
    9.8530420625872883E-01 
    1.0086856940337916E+00 
    1.0076333111258884E+00 
    9.8440927028552461E-01 
    9.8356381701705986E-01 
    1.0066462474266111E+00 
    1.0057235755114293E+00 
    9.8276926413245502E-01 
    9.8202685681793866E-01 
    1.0048654381670441E+00 
    1.0040720203381697E+00 
    9.8133768906096108E-01 
    9.8070274274718627E-01 
    1.0033435552323475E+00 
    1.0026802879034908E+00 
    9.8012289391778207E-01 
    9.7959890075820977E-01 
    1.0020824789338059E+00 
    1.0015503658599891E+00 
    9.7913146134224527E-01 
    9.7872116416705679E-01 
    1.0010841944832494E+00 
    1.0006841791344909E+00 
    9.7836852878316738E-01 
    9.7807400759511853E-01 