# vtk DataFile Version 2.0
Pressure Field Data 
ASCII 
DATASET UNSTRUCTURED_GRID 

POINTS 289 double 

    0.0000000000000000E+00     0.0000000000000000E+00     0.0000000000000000E+00 
    1.0000000000000000E+00     0.0000000000000000E+00     0.0000000000000000E+00 
    1.0000000000000000E+00     1.0000000000000000E+00     0.0000000000000000E+00 
    0.0000000000000000E+00     1.0000000000000000E+00     0.0000000000000000E+00 
    6.2499999999872928E-02     0.0000000000000000E+00     0.0000000000000000E+00 
    1.2499999999977310E-01     0.0000000000000000E+00     0.0000000000000000E+00 
    1.8749999999959341E-01     0.0000000000000000E+00     0.0000000000000000E+00 
    2.4999999999941089E-01     0.0000000000000000E+00     0.0000000000000000E+00 
    3.1249999999922851E-01     0.0000000000000000E+00     0.0000000000000000E+00 
    3.7499999999904610E-01     0.0000000000000000E+00     0.0000000000000000E+00 
    4.3749999999886358E-01     0.0000000000000000E+00     0.0000000000000000E+00 
    4.9999999999869210E-01     0.0000000000000000E+00     0.0000000000000000E+00 
    5.6249999999884603E-01     0.0000000000000000E+00     0.0000000000000000E+00 
    6.2499999999901090E-01     0.0000000000000000E+00     0.0000000000000000E+00 
    6.8749999999917577E-01     0.0000000000000000E+00     0.0000000000000000E+00 
    7.4999999999934064E-01     0.0000000000000000E+00     0.0000000000000000E+00 
    8.1249999999950551E-01     0.0000000000000000E+00     0.0000000000000000E+00 
    8.7499999999967026E-01     0.0000000000000000E+00     0.0000000000000000E+00 
    9.3749999999983513E-01     0.0000000000000000E+00     0.0000000000000000E+00 
    1.0000000000000000E+00     6.2499999999872928E-02     0.0000000000000000E+00 
    1.0000000000000000E+00     1.2499999999977310E-01     0.0000000000000000E+00 
    1.0000000000000000E+00     1.8749999999959341E-01     0.0000000000000000E+00 
    1.0000000000000000E+00     2.4999999999941089E-01     0.0000000000000000E+00 
    1.0000000000000000E+00     3.1249999999922851E-01     0.0000000000000000E+00 
    1.0000000000000000E+00     3.7499999999904610E-01     0.0000000000000000E+00 
    1.0000000000000000E+00     4.3749999999886358E-01     0.0000000000000000E+00 
    1.0000000000000000E+00     4.9999999999869210E-01     0.0000000000000000E+00 
    1.0000000000000000E+00     5.6249999999884603E-01     0.0000000000000000E+00 
    1.0000000000000000E+00     6.2499999999901090E-01     0.0000000000000000E+00 
    1.0000000000000000E+00     6.8749999999917577E-01     0.0000000000000000E+00 
    1.0000000000000000E+00     7.4999999999934064E-01     0.0000000000000000E+00 
    1.0000000000000000E+00     8.1249999999950551E-01     0.0000000000000000E+00 
    1.0000000000000000E+00     8.7499999999967026E-01     0.0000000000000000E+00 
    1.0000000000000000E+00     9.3749999999983513E-01     0.0000000000000000E+00 
    9.3749999999973976E-01     1.0000000000000000E+00     0.0000000000000000E+00 
    8.7499999999950118E-01     1.0000000000000000E+00     0.0000000000000000E+00 
    8.1249999999991318E-01     1.0000000000000000E+00     0.0000000000000000E+00 
    7.5000000000034706E-01     1.0000000000000000E+00     0.0000000000000000E+00 
    6.8750000000078049E-01     1.0000000000000000E+00     0.0000000000000000E+00 
    6.2500000000121403E-01     1.0000000000000000E+00     0.0000000000000000E+00 
    5.6250000000164757E-01     1.0000000000000000E+00     0.0000000000000000E+00 
    5.0000000000205946E-01     1.0000000000000000E+00     0.0000000000000000E+00 
    4.3750000000182099E-01     1.0000000000000000E+00     0.0000000000000000E+00 
    3.7500000000156092E-01     1.0000000000000000E+00     0.0000000000000000E+00 
    3.1250000000130068E-01     1.0000000000000000E+00     0.0000000000000000E+00 
    2.5000000000104050E-01     1.0000000000000000E+00     0.0000000000000000E+00 
    1.8750000000078040E-01     1.0000000000000000E+00     0.0000000000000000E+00 
    1.2500000000052031E-01     1.0000000000000000E+00     0.0000000000000000E+00 
    6.2500000000260125E-02     1.0000000000000000E+00     0.0000000000000000E+00 
    0.0000000000000000E+00     9.3749999999973976E-01     0.0000000000000000E+00 
    0.0000000000000000E+00     8.7499999999950118E-01     0.0000000000000000E+00 
    0.0000000000000000E+00     8.1249999999991318E-01     0.0000000000000000E+00 
    0.0000000000000000E+00     7.5000000000034706E-01     0.0000000000000000E+00 
    0.0000000000000000E+00     6.8750000000078049E-01     0.0000000000000000E+00 
    0.0000000000000000E+00     6.2500000000121403E-01     0.0000000000000000E+00 
    0.0000000000000000E+00     5.6250000000164757E-01     0.0000000000000000E+00 
    0.0000000000000000E+00     5.0000000000205946E-01     0.0000000000000000E+00 
    0.0000000000000000E+00     4.3750000000182099E-01     0.0000000000000000E+00 
    0.0000000000000000E+00     3.7500000000156092E-01     0.0000000000000000E+00 
    0.0000000000000000E+00     3.1250000000130068E-01     0.0000000000000000E+00 
    0.0000000000000000E+00     2.5000000000104050E-01     0.0000000000000000E+00 
    0.0000000000000000E+00     1.8750000000078040E-01     0.0000000000000000E+00 
    0.0000000000000000E+00     1.2500000000052031E-01     0.0000000000000000E+00 
    0.0000000000000000E+00     6.2500000000260125E-02     0.0000000000000000E+00 
    6.2499999999897131E-02     6.2500000000235922E-02     0.0000000000000000E+00 
    6.2499999999921327E-02     1.2500000000047351E-01     0.0000000000000000E+00 
    6.2499999999945530E-02     1.8750000000070621E-01     0.0000000000000000E+00 
    6.2499999999969733E-02     2.5000000000093858E-01     0.0000000000000000E+00 
    6.2499999999993928E-02     3.1250000000117117E-01     0.0000000000000000E+00 
    6.2500000000018124E-02     3.7500000000140382E-01     0.0000000000000000E+00 
    6.2500000000042327E-02     4.3750000000163619E-01     0.0000000000000000E+00 
    6.2500000000066530E-02     5.0000000000184897E-01     0.0000000000000000E+00 
    6.2500000000090733E-02     5.6250000000147260E-01     0.0000000000000000E+00 
    6.2500000000114922E-02     6.2500000000107636E-01     0.0000000000000000E+00 
    6.2500000000139125E-02     6.8750000000068034E-01     0.0000000000000000E+00 
    6.2500000000163328E-02     7.5000000000028411E-01     0.0000000000000000E+00 
    6.2500000000187531E-02     8.1249999999988787E-01     0.0000000000000000E+00 
    6.2500000000211720E-02     8.7499999999951172E-01     0.0000000000000000E+00 
    6.2500000000235922E-02     9.3749999999974565E-01     0.0000000000000000E+00 
    1.2499999999981980E-01     6.2500000000211733E-02     0.0000000000000000E+00 
    1.2499999999986650E-01     1.2500000000042691E-01     0.0000000000000000E+00 
    1.2499999999991319E-01     1.8750000000063199E-01     0.0000000000000000E+00 
    1.2499999999995989E-01     2.5000000000083678E-01     0.0000000000000000E+00 
    1.2500000000000661E-01     3.1250000000104172E-01     0.0000000000000000E+00 
    1.2500000000005329E-01     3.7500000000124661E-01     0.0000000000000000E+00 
    1.2500000000010000E-01     4.3750000000145117E-01     0.0000000000000000E+00 
    1.2500000000014669E-01     5.0000000000163858E-01     0.0000000000000000E+00 
    1.2500000000019340E-01     5.6250000000129741E-01     0.0000000000000000E+00 
    1.2500000000024011E-01     6.2500000000093847E-01     0.0000000000000000E+00 
    1.2500000000028680E-01     6.8750000000057998E-01     0.0000000000000000E+00 
    1.2500000000033351E-01     7.5000000000022127E-01     0.0000000000000000E+00 
    1.2500000000038020E-01     8.1249999999986211E-01     0.0000000000000000E+00 
    1.2500000000042691E-01     8.7499999999952238E-01     0.0000000000000000E+00 
    1.2500000000047359E-01     9.3749999999975164E-01     0.0000000000000000E+00 
    1.8749999999966760E-01     6.2500000000187531E-02     0.0000000000000000E+00 
    1.8749999999974179E-01     1.2500000000038020E-01     0.0000000000000000E+00 
    1.8749999999981601E-01     1.8750000000055780E-01     0.0000000000000000E+00 
    1.8749999999989009E-01     2.5000000000073502E-01     0.0000000000000000E+00 
    1.8749999999996431E-01     3.1250000000091221E-01     0.0000000000000000E+00 
    1.8750000000003850E-01     3.7500000000108941E-01     0.0000000000000000E+00 
    1.8750000000011269E-01     4.3750000000126649E-01     0.0000000000000000E+00 
    1.8750000000018691E-01     5.0000000000142808E-01     0.0000000000000000E+00 
    1.8750000000026110E-01     5.6250000000112244E-01     0.0000000000000000E+00 
    1.8750000000033529E-01     6.2500000000080080E-01     0.0000000000000000E+00 
    1.8750000000040951E-01     6.8750000000047962E-01     0.0000000000000000E+00 
    1.8750000000048361E-01     7.5000000000015843E-01     0.0000000000000000E+00 
    1.8750000000055780E-01     8.1249999999983680E-01     0.0000000000000000E+00 
    1.8750000000063199E-01     8.7499999999953304E-01     0.0000000000000000E+00 
    1.8750000000070621E-01     9.3749999999975764E-01     0.0000000000000000E+00 
    2.4999999999951281E-01     6.2500000000163314E-02     0.0000000000000000E+00 
    2.4999999999961461E-01     1.2500000000033351E-01     0.0000000000000000E+00 
    2.4999999999971650E-01     1.8750000000048361E-01     0.0000000000000000E+00 
    2.4999999999981831E-01     2.5000000000063310E-01     0.0000000000000000E+00 
    2.4999999999992020E-01     3.1250000000078260E-01     0.0000000000000000E+00 
    2.5000000000002198E-01     3.7500000000093209E-01     0.0000000000000000E+00 
    2.5000000000012390E-01     4.3750000000108180E-01     0.0000000000000000E+00 
    2.5000000000022571E-01     5.0000000000121769E-01     0.0000000000000000E+00 
    2.5000000000032763E-01     5.6250000000094724E-01     0.0000000000000000E+00 
    2.5000000000042938E-01     6.2500000000066314E-01     0.0000000000000000E+00 
    2.5000000000053119E-01     6.8750000000037925E-01     0.0000000000000000E+00 
[...]
CELL_DATA 256 
SCALARS Pressure double 1 
LOOKUP_TABLE default 

    8.2040244042322785E-01 
    7.6914058649112971E-01 
    7.3512800581155868E-01 
    7.0339737034742777E-01 
    6.7059057830957258E-01 
    6.3593409284807567E-01 
    5.9929188253999699E-01 
    5.6088055573041684E-01 
    5.2112970538382108E-01 
    4.8069928903118497E-01 
    4.4060813267574500E-01 
    4.0248999825100268E-01 
    3.6881711818588170E-01 
    3.4228781669918729E-01 
    3.2274766259287690E-01 
    3.1354088389987050E-01 
    8.0645428731264002E-01 
    7.7057217237685360E-01 
    7.3773078930699176E-01 
    7.0628739418022912E-01 
    6.7373147399528888E-01 
    6.3931552714309881E-01 
    6.0288553998456063E-01 
    5.6462990961768256E-01 
    5.2494789180150736E-01 
    4.8445816719687573E-01 
    4.4411814467450500E-01 
    4.0548023476557832E-01 
    3.7097241184297192E-01 
    3.4344349738271368E-01 
    3.2302765513183990E-01 
    3.1315246746173847E-01 
    7.9573521590541474E-01 
    7.6982186818749931E-01 
    7.3953783025127995E-01 
    7.0879854336951331E-01 
    6.7662653583658172E-01 
    6.4250569751931685E-01 
    6.0631441235124228E-01 
    5.6822181713638875E-01 
    5.2859155580750761E-01 
    4.8798985057863631E-01 
    4.4729733822107970E-01 
    4.0796739581117286E-01 
    3.7237229093396351E-01 
    3.4353737983999294E-01 
    3.2212483044637824E-01 
    3.1173081372878592E-01 
    7.8724938840860537E-01 
    7.6793625638596175E-01 
    7.4058486593509298E-01 
    7.1091321757460890E-01 
    6.7927766732548867E-01 
    6.4551423984139389E-01 
    6.0958786771678453E-01 
    5.7166729475641531E-01 
    5.3208134730368173E-01 
    4.9133328713147428E-01 
    4.5020802038836161E-01 
    4.1003359080305241E-01 
    3.7309992687691040E-01 
    3.4262040429123269E-01 
    3.1998445155580679E-01 
    3.0906963760396544E-01 
    7.8034320978324045E-01 
    7.6549575569619255E-01 
    7.4100060309941784E-01 
    7.1264001799599908E-01 
    6.8168862825693799E-01 
    6.4835404412776598E-01 
    6.1272337798416765E-01 
    5.7498651554347080E-01 
    5.3544463742812964E-01 
    4.9453194723979599E-01 
    4.5291794940994151E-01 
    4.1177149392411816E-01 
    3.7325432705522343E-01 
    3.4075058717387052E-01 
    3.1652189799955377E-01 
    3.0490977071272130E-01 
    7.7464588300544357E-01 
    7.6285575074158452E-01 
    7.4094002259919478E-01 
    7.1401498477365599E-01 
    6.8387018295667767E-01 
    6.5103838789999813E-01 
    6.1574212558450958E-01 
    5.7820690299544708E-01 
    5.3871527476647951E-01 
    4.9763263216898546E-01 
    4.5549744602130515E-01 
    4.1328198580289316E-01 
    3.7295169368198244E-01 
    3.3799696218190778E-01 
    3.1163059083773431E-01 
    2.9893285638176648E-01 
    7.6991820371661901E-01 
    7.6024335681696587E-01 
    7.4056290896254895E-01 
    7.1510034154357793E-01 
    6.8584683316854067E-01 
    6.5358364938793967E-01 
    6.1866410057974319E-01 
    5.8135637079918745E-01 
    5.4193007585198749E-01 
    5.0068462714605966E-01 
    4.5801961911010386E-01 
    4.1467325786069398E-01 
    3.7232668413902237E-01 
    3.3445264933836810E-01 
    3.0520965856494336E-01 
    2.9077113331705984E-01 
    7.6599101292665617E-01 
    7.5779854459938290E-01 
    7.4001231517376354E-01 
    7.1596925403962852E-01 
    6.8765322290482112E-01 
    6.5601059861987143E-01 
    6.2150842372422521E-01 
    5.8445882572990726E-01 
    5.4512294270393868E-01 
    5.0373775614600713E-01 
    4.6056117977453326E-01 
    4.1606430758358987E-01 
    3.7154112138566869E-01 
    3.3025821480484335E-01 
    2.9720635516170085E-01 
    2.8005165556164219E-01 
    7.6274202523835055E-01 
    7.5560358391104521E-01 
    7.3940540207755645E-01 
    7.1669635946159138E-01 
    6.8932997232604520E-01 
    6.5834372049567136E-01 
    6.2429377131959829E-01 
    5.8753352144286708E-01 
    5.4832143755405360E-01 
    5.0683727751486096E-01 
    4.6319832073004613E-01 
    4.1758286070560435E-01 
    3.7078845735058813E-01 
    3.2561794324984761E-01 
    2.8763580932006316E-01 
    2.6640356432085738E-01 
    7.6008243890594429E-01 
    7.5370611352303241E-01 
    7.3883441198701794E-01 
    7.1735297022986955E-01 
    6.9092222066565856E-01 
    6.6061155372805969E-01 
    6.2704021995007986E-01 
    5.9059810890534437E-01 
    5.5154882118711268E-01 
    5.1002242505638273E-01 
    4.6600248650152909E-01 
    4.1936069272082943E-01 
    3.7029267571864316E-01 
    3.2081364712521770E-01 
    2.7657897031986878E-01 
    2.4935707403415019E-01 
    7.5794857127389847E-01 
    7.5213679234594955E-01 
    7.3837553291881375E-01 
    7.1800837551027086E-01 
    6.9248025771698729E-01 
    6.6284980041143626E-01 
    6.2977383895728489E-01 
    5.9367382648370970E-01 
    5.5482828681137009E-01 
    5.1332615346911448E-01 
    4.6903442706693310E-01 
    4.2152628318663460E-01 
    3.7030725091887812E-01 
    3.1623688687071699E-01 
    2.6425275773575974E-01 
    2.2827139480583380E-01 
    7.5630100493652641E-01 
    7.5092475081504095E-01 
    7.3810026388645422E-01 
    7.1873386644208792E-01 
    6.9405987613492814E-01 
    6.6510215559618346E-01 
    6.3253075061603115E-01 
    5.9678757826481654E-01 
    5.5817912462813002E-01 
    5.1676504056522421E-01 
    4.7232641434573686E-01 
    4.2418277489597256E-01 
    3.7109746158015289E-01 
    3.1240273070313823E-01 
    2.5109794201315788E-01 
    2.0227942396771506E-01 
    7.5511347450746003E-01 
    7.5010157590187276E-01 
    7.3807796888099053E-01 
    7.1959985399981430E-01 
    6.9571409574177634E-01 
    6.6740901474816916E-01 
    6.3534485274701502E-01 
    5.9995657950231673E-01 
    5.6158123919126557E-01 
    5.2027244253767135E-01 
    4.7578251755201229E-01 
    4.2726922595788119E-01 
    3.7277071984760635E-01 
    3.0978681919516698E-01 
    2.3775326676614397E-01 
    1.7004484662660915E-01 
    7.5423953536193555E-01 
    7.4959823012413163E-01 
    7.3830520848693082E-01 
    7.2061893402303545E-01 
    6.9742591584145219E-01 
    6.6969891228341927E-01 
    6.3811685118067440E-01 
    6.0307973748076471E-01 
    5.6492332541967727E-01 
    5.2372764936093752E-01 
    4.7927073789706925E-01 
    4.3061525624728059E-01 
    3.7524643251056816E-01 
    3.0871180142890159E-01 
    2.2499309254860114E-01 
    1.2906180124637329E-01 
    7.5363261735366094E-01 
    7.4931548590153718E-01 
    7.3868361533599614E-01 
    7.2172198406398336E-01 
    6.9916040854141415E-01 
    6.7194930593709312E-01 
    6.4082413906027458E-01 
    6.0617730860890628E-01 
    5.6831056913059175E-01 
    5.2733711435018393E-01 
    4.8305575150851532E-01 
    4.3449974069946884E-01 
    3.7899291733282114E-01 
    3.1055345918463539E-01 
    2.1542423550008283E-01 
    7.4869744794736959E-02 
    7.5344965719265999E-01 
    7.4948164976286613E-01 
    7.3944857426901689E-01 
    7.2313652497742742E-01 
    7.0116113706583361E-01 
    6.7443801639052592E-01 
    6.4373931929055861E-01 
    6.0948294432173677E-01 
    5.7195323396902065E-01 
    5.3128414815132052E-01 
    4.8729461521062728E-01 
    4.3905994770672779E-01 
    3.8403817016685909E-01 
    3.1615630519862259E-01 
    2.1600452719232849E-01 
    0.0000000000000000E+00 

SCALARS Saturarion double 1 
LOOKUP_TABLE default 

    1.0000000000000011E+00 
    9.6926597190484787E-01 
    9.1518430466570244E-01 
    8.4794699643405025E-01 
    7.9087470144442240E-01 
    7.4255394917033046E-01 
    7.0239993097100706E-01 
    6.6860356462526183E-01 
    6.3906271064522713E-01 
    6.1195407438709215E-01 
    5.8584909864410895E-01 
    5.5963720560671670E-01 
    5.3211908823232201E-01 
    4.8857681871250264E-01 
    2.7144921503496555E-01 
    2.5845020484106069E-04 
    9.8768242548766905E-01 
    9.5854650488350746E-01 
    9.0192046520817371E-01 
    8.3897465802078008E-01 
    7.8543364295246298E-01 
    7.3921949290683198E-01 
    6.9979892444195713E-01 
    6.6609657165468694E-01 
    6.3670849534078944E-01 
    6.1007500124651104E-01 
    5.8483443328947182E-01 
    5.5969311412428524E-01 
    5.3322836161196852E-01 
    4.9155530947438697E-01 
    3.0102042051776146E-01 
    1.8407002414630210E-03 
    9.6833050257392095E-01 
    9.3977715193249700E-01 
    8.8349413453699988E-01 
    8.2378079852368991E-01 
    7.7455237295509782E-01 
    7.3196621794664440E-01 
    6.9432221966584340E-01 
    6.6098040322336293E-01 
    6.3167407526559449E-01 
    6.0561833474933591E-01 
    5.8170094136194705E-01 
    5.5829617202471182E-01 
    5.3362467420460657E-01 
    4.9572491515039530E-01 
    3.3485433470225112E-01 
    7.4505082368404550E-03 
    9.3438647227650362E-01 
    9.1110195677049077E-01 
    8.6128909125952735E-01 
    8.0597993579511451E-01 
    7.5881177189785465E-01 
    7.1965018062581376E-01 
    6.8515829477421208E-01 
    6.5411357281379745E-01 
    6.2615102759571506E-01 
    6.0115750969828374E-01 
    5.7828774731613730E-01 
    5.5633303359993491E-01 
    5.3358359591956828E-01 
    5.0010587423016573E-01 
    3.6523449429550836E-01 
    2.3093440845325153E-02 
    8.9532782443734416E-01 
    8.7562459374398571E-01 
    8.3228329293030390E-01 
    7.8306434500619182E-01 
    7.3925998090851719E-01 
    7.0264502029464282E-01 
    6.7137356040696194E-01 
    6.4366066830389834E-01 
    6.1864595402921640E-01 
    5.9585916717720377E-01 
    5.7478511379547559E-01 
    5.5445168931364108E-01 
    5.3341832666797817E-01 
    5.0378351856205217E-01 
    3.8943280140995701E-01 
    4.6781173517611539E-02 
    8.5423579014660700E-01 
    8.3819255021810635E-01 
    8.0149391338683851E-01 
    7.5837403921999880E-01 
    7.1853774511082225E-01 
    6.8415540151428245E-01 
    6.5477422095527615E-01 
    6.2972630156889686E-01 
    6.0773081594152567E-01 
    5.8770735858472867E-01 
    5.6908571597063340E-01 
    5.5133944915111799E-01 
    5.3294712899033536E-01 
    5.0717984914800607E-01 
    4.0865576486642691E-01 
    7.9086768545685845E-02 
    8.1132863447145565E-01 
    7.9967036088819177E-01 
    7.6999692852222457E-01 
    7.3262308717162472E-01 
    6.9674715196113357E-01 
    6.6501502224967657E-01 
    6.3780488508521826E-01 
    6.1441874423092624E-01 
    5.9438809206805443E-01 
    5.7683182666836907E-01 
    5.6095072556580361E-01 
    5.4605425446928391E-01 
    5.3103666258293802E-01 
    5.0955360393216675E-01 
    4.2459157717478785E-01 
    1.1881531701691993E-01 
    7.6670767688608454E-01 
    7.5970116764349371E-01 
    7.3742768626749367E-01 
    7.0591874629667384E-01 
    6.7364859591924420E-01 
    6.4453588323360478E-01 
    6.1920907972514339E-01 
    5.9755456545306718E-01 
    5.7913958371728413E-01 
    5.6368858452156290E-01 
    5.5048439065894861E-01 
    5.3873673842737568E-01 
    5.2726928578854337E-01 
    5.1126314569311537E-01 
    4.3970193771665361E-01 
    1.6206975738148074E-01 
    7.2054047638174901E-01 
    7.1772058530023730E-01 
    7.0215900725178249E-01 
    6.7676806458963001E-01 
    6.4888041352147074E-01 
    6.2254374105230914E-01 
    5.9906810659144516E-01 
    5.7849191327945337E-01 
    5.6114349747719439E-01 
    5.4731316124974172E-01 
    5.3681269829913947E-01 
    5.2867189140018334E-01 
    5.2135279585773153E-01 
    5.1082861041349381E-01 
    4.5295684571206235E-01 
    1.9918787292877693E-01 
    6.7275729513943483E-01 
    6.7362959941985856E-01 
    6.6404796965218038E-01 
    6.4441526112671355E-01 
    6.2135014074506367E-01 
    5.9851332775389732E-01 
    5.7711547786465434E-01 
    5.5796455368781839E-01 
    5.4181334151084304E-01 
    5.2933418224513196E-01 
    5.2038447680423905E-01 
    5.1507126173080953E-01 
    5.1245297668795520E-01 
    5.0812983865026329E-01 
    4.6401244711651590E-01 
    2.3326710538667825E-01 
    6.2350212376011394E-01 
    6.2750896164533310E-01 
    6.2330738231286265E-01 
    6.0913939204142931E-01 
    5.9098385142352483E-01 
    5.7219433474492587E-01 
    5.5413961265992406E-01 
    5.3729642498774632E-01 
    5.2269016691756176E-01 
    5.1101382707568110E-01 
    5.0236451052784459E-01 
    4.9794801036483027E-01 
    4.9931517536225017E-01 
    5.0247650839292246E-01 
    4.7311310973447018E-01 
    2.6627310691808548E-01 
    5.7463267926718020E-01 
    5.8079811948780968E-01 
    5.8148621909728904E-01 
    5.7261652532844698E-01 
    5.5854114222017415E-01 
    5.4301528172899760E-01 
    5.2855864166882716E-01 
    5.1528582779065402E-01 
    5.0193570327464587E-01 
    4.8953844068143892E-01 
    4.7935480035477607E-01 
    4.7466660955372070E-01 
    4.7971734155031182E-01 
    4.9150607026276172E-01 
    4.7894551547562353E-01 
    2.9799950439030809E-01 
    5.2474729121998043E-01 
    5.3395676007540682E-01 
    5.3800045025088794E-01 
    5.3331097051835707E-01 
    5.2184150427448217E-01 
    5.0763553275588624E-01 
    4.9417492600297663E-01 
    4.8103965244528968E-01 
    4.6469320109696899E-01 
    4.3698422101323292E-01 
    4.0682044570365727E-01 
    3.9118727272235004E-01 
    4.0895792663191405E-01 
    4.5512773596132805E-01 
    4.7246835094893014E-01 
    3.2714170725801739E-01 
    3.8756337131558333E-01 
    4.2898949407055659E-01 
    4.5250358100626020E-01 
    4.5570178161864122E-01 
    4.4249409468391326E-01 
    4.0835565943174912E-01 
    3.4299924492938422E-01 
    2.7586424110980717E-01 
    2.1589171016287370E-01 
    1.2395708756422776E-01 
    6.6987942078197624E-02 
    6.1992571895488249E-02 
    1.3700672069355760E-01 
    3.2174956857661485E-01 
    4.3506071728076756E-01 
    3.4570928706294946E-01 
    2.4920330808081100E-02 
    9.4075988219721116E-02 
    1.2289519661067312E-01 
    1.3293939407881866E-01 
    1.0280363664498800E-01 
    4.7108217581799561E-02 
    9.5091963929111734E-03 
    9.2247089315827086E-04 
    2.6053680614344953E-04 
    2.3198252859897094E-05 
    9.0666170321379991E-06 
    2.7656547291732149E-06 
    1.6112055526182158E-03 
    7.5262099350402567E-02 
    3.4146392263551906E-01 
    3.5222035958764097E-01 
    1.0003280050671388E-06 
    5.8398718545012308E-05 
    4.2938556005486600E-06 
    3.6142563478795848E-06 
    1.8665964051875895E-05 
    1.1218475046091731E-05 
    1.4179920024626602E-06 
    1.0076316821778602E-06 
    1.0006712870904586E-06 
    1.0000605225291640E-06 
    1.0000037684732677E-06 
    1.0000010412187024E-06 
    1.2266526988016506E-06 
    1.9437594069242150E-03 
    1.9957537447556517E-01 
    3.1646791740083441E-01 
