# vtk DataFile Version 2.0
Pressure Field Data 
ASCII 
DATASET UNSTRUCTURED_GRID 

POINTS 289 double 

    0.0000000000000000E+00     0.0000000000000000E+00     0.0000000000000000E+00 
    1.0000000000000000E+00     0.0000000000000000E+00     0.0000000000000000E+00 
    1.0000000000000000E+00     1.0000000000000000E+00     0.0000000000000000E+00 
    0.0000000000000000E+00     1.0000000000000000E+00     0.0000000000000000E+00 
    6.2499999999872928E-02     0.0000000000000000E+00     0.0000000000000000E+00 
    1.2499999999977310E-01     0.0000000000000000E+00     0.0000000000000000E+00 
    1.8749999999959341E-01     0.0000000000000000E+00     0.0000000000000000E+00 
    2.4999999999941089E-01     0.0000000000000000E+00     0.0000000000000000E+00 
    3.1249999999922851E-01     0.0000000000000000E+00     0.0000000000000000E+00 
    3.7499999999904610E-01     0.0000000000000000E+00     0.0000000000000000E+00 
    4.3749999999886358E-01     0.0000000000000000E+00     0.0000000000000000E+00 
    4.9999999999869210E-01     0.0000000000000000E+00     0.0000000000000000E+00 
    5.6249999999884603E-01     0.0000000000000000E+00     0.0000000000000000E+00 
    6.2499999999901090E-01     0.0000000000000000E+00     0.0000000000000000E+00 
    6.8749999999917577E-01     0.0000000000000000E+00     0.0000000000000000E+00 
    7.4999999999934064E-01     0.0000000000000000E+00     0.0000000000000000E+00 
    8.1249999999950551E-01     0.0000000000000000E+00     0.0000000000000000E+00 
    8.7499999999967026E-01     0.0000000000000000E+00     0.0000000000000000E+00 
    9.3749999999983513E-01     0.0000000000000000E+00     0.0000000000000000E+00 
    1.0000000000000000E+00     6.2499999999872928E-02     0.0000000000000000E+00 
    1.0000000000000000E+00     1.2499999999977310E-01     0.0000000000000000E+00 
    1.0000000000000000E+00     1.8749999999959341E-01     0.0000000000000000E+00 
    1.0000000000000000E+00     2.4999999999941089E-01     0.0000000000000000E+00 
    1.0000000000000000E+00     3.1249999999922851E-01     0.0000000000000000E+00 
    1.0000000000000000E+00     3.7499999999904610E-01     0.0000000000000000E+00 
    1.0000000000000000E+00     4.3749999999886358E-01     0.0000000000000000E+00 
    1.0000000000000000E+00     4.9999999999869210E-01     0.0000000000000000E+00 
    1.0000000000000000E+00     5.6249999999884603E-01     0.0000000000000000E+00 
    1.0000000000000000E+00     6.2499999999901090E-01     0.0000000000000000E+00 
    1.0000000000000000E+00     6.8749999999917577E-01     0.0000000000000000E+00 
    1.0000000000000000E+00     7.4999999999934064E-01     0.0000000000000000E+00 
    1.0000000000000000E+00     8.1249999999950551E-01     0.0000000000000000E+00 
    1.0000000000000000E+00     8.7499999999967026E-01     0.0000000000000000E+00 
    1.0000000000000000E+00     9.3749999999983513E-01     0.0000000000000000E+00 
    9.3749999999973976E-01     1.0000000000000000E+00     0.0000000000000000E+00 
    8.7499999999950118E-01     1.0000000000000000E+00     0.0000000000000000E+00 
    8.1249999999991318E-01     1.0000000000000000E+00     0.0000000000000000E+00 
    7.5000000000034706E-01     1.0000000000000000E+00     0.0000000000000000E+00 
    6.8750000000078049E-01     1.0000000000000000E+00     0.0000000000000000E+00 
    6.2500000000121403E-01     1.0000000000000000E+00     0.0000000000000000E+00 
    5.6250000000164757E-01     1.0000000000000000E+00     0.0000000000000000E+00 
    5.0000000000205946E-01     1.0000000000000000E+00     0.0000000000000000E+00 
    4.3750000000182099E-01     1.0000000000000000E+00     0.0000000000000000E+00 
    3.7500000000156092E-01     1.0000000000000000E+00     0.0000000000000000E+00 
    3.1250000000130068E-01     1.0000000000000000E+00     0.0000000000000000E+00 
    2.5000000000104050E-01     1.0000000000000000E+00     0.0000000000000000E+00 
    1.8750000000078040E-01     1.0000000000000000E+00     0.0000000000000000E+00 
    1.2500000000052031E-01     1.0000000000000000E+00     0.0000000000000000E+00 
    6.2500000000260125E-02     1.0000000000000000E+00     0.0000000000000000E+00 
    0.0000000000000000E+00     9.3749999999973976E-01     0.0000000000000000E+00 
    0.0000000000000000E+00     8.7499999999950118E-01     0.0000000000000000E+00 
    0.0000000000000000E+00     8.1249999999991318E-01     0.0000000000000000E+00 
    0.0000000000000000E+00     7.5000000000034706E-01     0.0000000000000000E+00 
    0.0000000000000000E+00     6.8750000000078049E-01     0.0000000000000000E+00 
    0.0000000000000000E+00     6.2500000000121403E-01     0.0000000000000000E+00 
    0.0000000000000000E+00     5.6250000000164757E-01     0.0000000000000000E+00 
    0.0000000000000000E+00     5.0000000000205946E-01     0.0000000000000000E+00 
    0.0000000000000000E+00     4.3750000000182099E-01     0.0000000000000000E+00 
    0.0000000000000000E+00     3.7500000000156092E-01     0.0000000000000000E+00 
    0.0000000000000000E+00     3.1250000000130068E-01     0.0000000000000000E+00 
    0.0000000000000000E+00     2.5000000000104050E-01     0.0000000000000000E+00 
    0.0000000000000000E+00     1.8750000000078040E-01     0.0000000000000000E+00 
    0.0000000000000000E+00     1.2500000000052031E-01     0.0000000000000000E+00 
    0.0000000000000000E+00     6.2500000000260125E-02     0.0000000000000000E+00 
    6.2499999999897131E-02     6.2500000000235922E-02     0.0000000000000000E+00 
    6.2499999999921327E-02     1.2500000000047351E-01     0.0000000000000000E+00 
    6.2499999999945530E-02     1.8750000000070621E-01     0.0000000000000000E+00 
    6.2499999999969733E-02     2.5000000000093858E-01     0.0000000000000000E+00 
    6.2499999999993928E-02     3.1250000000117117E-01     0.0000000000000000E+00 
    6.2500000000018124E-02     3.7500000000140382E-01     0.0000000000000000E+00 
    6.2500000000042327E-02     4.3750000000163619E-01     0.0000000000000000E+00 
    6.2500000000066530E-02     5.0000000000184897E-01     0.0000000000000000E+00 
    6.2500000000090733E-02     5.6250000000147260E-01     0.0000000000000000E+00 
    6.2500000000114922E-02     6.2500000000107636E-01     0.0000000000000000E+00 
    6.2500000000139125E-02     6.8750000000068034E-01     0.0000000000000000E+00 
    6.2500000000163328E-02     7.5000000000028411E-01     0.0000000000000000E+00 
    6.2500000000187531E-02     8.1249999999988787E-01     0.0000000000000000E+00 
    6.2500000000211720E-02     8.7499999999951172E-01     0.0000000000000000E+00 
    6.2500000000235922E-02     9.3749999999974565E-01     0.0000000000000000E+00 
    1.2499999999981980E-01     6.2500000000211733E-02     0.0000000000000000E+00 
    1.2499999999986650E-01     1.2500000000042691E-01     0.0000000000000000E+00 
    1.2499999999991319E-01     1.8750000000063199E-01     0.0000000000000000E+00 
    1.2499999999995989E-01     2.5000000000083678E-01     0.0000000000000000E+00 
    1.2500000000000661E-01     3.1250000000104172E-01     0.0000000000000000E+00 
    1.2500000000005329E-01     3.7500000000124661E-01     0.0000000000000000E+00 
    1.2500000000010000E-01     4.3750000000145117E-01     0.0000000000000000E+00 
    1.2500000000014669E-01     5.0000000000163858E-01     0.0000000000000000E+00 
    1.2500000000019340E-01     5.6250000000129741E-01     0.0000000000000000E+00 
    1.2500000000024011E-01     6.2500000000093847E-01     0.0000000000000000E+00 
    1.2500000000028680E-01     6.8750000000057998E-01     0.0000000000000000E+00 
    1.2500000000033351E-01     7.5000000000022127E-01     0.0000000000000000E+00 
    1.2500000000038020E-01     8.1249999999986211E-01     0.0000000000000000E+00 
    1.2500000000042691E-01     8.7499999999952238E-01     0.0000000000000000E+00 
    1.2500000000047359E-01     9.3749999999975164E-01     0.0000000000000000E+00 
    1.8749999999966760E-01     6.2500000000187531E-02     0.0000000000000000E+00 
    1.8749999999974179E-01     1.2500000000038020E-01     0.0000000000000000E+00 
    1.8749999999981601E-01     1.8750000000055780E-01     0.0000000000000000E+00 
    1.8749999999989009E-01     2.5000000000073502E-01     0.0000000000000000E+00 
    1.8749999999996431E-01     3.1250000000091221E-01     0.0000000000000000E+00 
    1.8750000000003850E-01     3.7500000000108941E-01     0.0000000000000000E+00 
    1.8750000000011269E-01     4.3750000000126649E-01     0.0000000000000000E+00 
    1.8750000000018691E-01     5.0000000000142808E-01     0.0000000000000000E+00 
    1.8750000000026110E-01     5.6250000000112244E-01     0.0000000000000000E+00 
    1.8750000000033529E-01     6.2500000000080080E-01     0.0000000000000000E+00 
    1.8750000000040951E-01     6.8750000000047962E-01     0.0000000000000000E+00 
    1.8750000000048361E-01     7.5000000000015843E-01     0.0000000000000000E+00 
    1.8750000000055780E-01     8.1249999999983680E-01     0.0000000000000000E+00 
    1.8750000000063199E-01     8.7499999999953304E-01     0.0000000000000000E+00 
    1.8750000000070621E-01     9.3749999999975764E-01     0.0000000000000000E+00 
    2.4999999999951281E-01     6.2500000000163314E-02     0.0000000000000000E+00 
    2.4999999999961461E-01     1.2500000000033351E-01     0.0000000000000000E+00 
    2.4999999999971650E-01     1.8750000000048361E-01     0.0000000000000000E+00 
    2.4999999999981831E-01     2.5000000000063310E-01     0.0000000000000000E+00 
    2.4999999999992020E-01     3.1250000000078260E-01     0.0000000000000000E+00 
    2.5000000000002198E-01     3.7500000000093209E-01     0.0000000000000000E+00 
    2.5000000000012390E-01     4.3750000000108180E-01     0.0000000000000000E+00 
    2.5000000000022571E-01     5.0000000000121769E-01     0.0000000000000000E+00 
    2.5000000000032763E-01     5.6250000000094724E-01     0.0000000000000000E+00 
    2.5000000000042938E-01     6.2500000000066314E-01     0.0000000000000000E+00 
    2.5000000000053119E-01     6.8750000000037925E-01     0.0000000000000000E+00 
[...]
CELL_DATA 256 
SCALARS Pressure double 1 
LOOKUP_TABLE default 

    1.0502324770035356E+00 
    9.9406352326672975E-01 
    9.5282136456985944E-01 
    9.1166271129638576E-01 
    8.6736859169901770E-01 
    8.1978988186081903E-01 
    7.6895619488330758E-01 
    7.1377587980561330E-01 
    6.4792467504557605E-01 
    5.7422246759580153E-01 
    5.0753670632059522E-01 
    4.4792517877659077E-01 
    3.9654983296886509E-01 
    3.5674313532262658E-01 
    3.3156631196737141E-01 
    3.2144732380989210E-01 
    1.0363213636935691E+00 
    9.9593760776851736E-01 
    9.5603387239632720E-01 
    9.1533231244552749E-01 
    8.7151405702419982E-01 
    8.2435176747235550E-01 
    7.7392897069092104E-01 
    7.1935258866920215E-01 
    6.5414017363434251E-01 
    5.8051762595942880E-01 
    5.1332750956009865E-01 
    4.5278300475406291E-01 
    4.0013634254361280E-01 
    3.5875478514472264E-01 
    3.3203207209082480E-01 
    3.2100499758617601E-01 
    1.0254111290866470E+00 
    9.9538737592436699E-01 
    9.5821623267182510E-01 
    9.1836487556859137E-01 
    8.7517520878858746E-01 
    8.2852364020940550E-01 
    7.7853914105309419E-01 
    7.2446612912139685E-01 
    6.5964377433036758E-01 
    5.8615929633692654E-01 
    5.1866478210274147E-01 
    4.5707167985984332E-01 
    4.0289327140637543E-01 
    3.5963263615186092E-01 
    3.3118392328557766E-01 
    3.1939464212925517E-01 
    1.0163399197903806E+00 
    9.9338474786862074E-01 
    9.5938775039239188E-01 
    9.2077526508287166E-01 
    8.7836196938705957E-01 
    8.3231301911229005E-01 
    7.8279944615811670E-01 
    7.2912392321451436E-01 
    6.6451677861828262E-01 
    5.9126087389554660E-01 
    5.2359873314074190E-01 
    4.6087593349178263E-01 
    4.0491423093015261E-01 
    3.5941811244151362E-01 
    3.2894172753685291E-01 
    3.1639379677294294E-01 
    1.0084851043560146E+00 
    9.9047789808327535E-01 
    9.5967165351712869E-01 
    9.2261180862789971E-01 
    8.8112426974161506E-01 
    8.3575714375879728E-01 
    7.8674040370108045E-01 
    7.3332077484500691E-01 
    6.6880807824198829E-01 
    5.9594673613574789E-01 
    5.2820301405505499E-01 
    4.6429375952259738E-01 
    4.0630788522082056E-01 
    3.5816557082881340E-01 
    3.2522216058777303E-01 
    3.1177173987536544E-01 
    1.0016491337994149E+00 
    9.8712618798766660E-01 
    9.5928365963116735E-01 
    9.2396393943442368E-01 
    8.8353432992223191E-01 
    8.3890583714024647E-01 
    7.9039675955073585E-01 
    7.3700931715894669E-01 
    6.7252679685792416E-01 
    6.0037032664169265E-01 
    5.3256942377672079E-01 
    4.6743799893513815E-01 
    4.0720400263386602E-01 
    3.5595254054509090E-01 
    3.1994312702556954E-01 
    3.0527246504541095E-01 
    9.9570418777483904E-01 
    9.8365380158687865E-01 
    9.5844630017945198E-01 
    9.2493464662421876E-01 
    8.8566278389212016E-01 
    8.4181248469073988E-01 
    7.9379764856198876E-01 
    7.4013663565136945E-01 
    6.7570886202309755E-01 
    6.0472262324286552E-01 
    5.3680403327150550E-01 
    4.7043584552453915E-01 
    4.0775893837123450E-01 
    3.5289266425849558E-01 
    3.1303218343937222E-01 
    2.9659933438068320E-01 
    9.9056374978877582E-01 
    9.8028613127667441E-01 
    9.5736375734703505E-01 
    9.2563441106848365E-01 
    8.8757978237425106E-01 
    8.4453077025861478E-01 
    7.9691592374059295E-01 
    7.4272093210594969E-01 
    6.7853680347925427E-01 
    6.0914471446619267E-01 
    5.4101969238873149E-01 
    4.7342632563089349E-01 
    4.0815947038510447E-01 
    3.4915057728817722E-01 
    3.0443891416558666E-01 
    2.8539218308668712E-01 
    9.8618802943867612E-01 
    9.7719463400491935E-01 
    9.5622179048980060E-01 
    9.2618164332500619E-01 
    8.8935624390929335E-01 
    8.4708773321234143E-01 
    7.9957649594298896E-01 
    7.4480445048762212E-01 
    6.8134609667213852E-01 
    6.1363470423166677E-01 
    5.4531775829082474E-01 
    4.7655467170578841E-01 
    4.0862467374152850E-01 
    3.4496118199478681E-01 
    2.9415863686413551E-01 
    2.7119835253604280E-01 
    9.8256464131568044E-01 
    9.7451073728792215E-01 
    9.5517759713309514E-01 
    9.2668506080594037E-01 
    8.9102245165996252E-01 
    8.4932834182775263E-01 
    8.0161188393202498E-01 
    7.4666921479126147E-01 
    6.8451730739773053E-01 
    6.1815690009405833E-01 
    5.4978014156576438E-01 
    4.7996464880945100E-01 
    4.0940382949663534E-01 
    3.4065176513284301E-01 
    2.8227265369900167E-01 
    2.5343138139979832E-01 
    9.7956301011273295E-01 
    9.7223197575131071E-01 
    9.5427941069141020E-01 
    9.2710846614004827E-01 
    8.9233359796405143E-01 
    8.5098465485142427E-01 
    8.0325773416401058E-01 
    7.4891458407967459E-01 
    6.8817533485491422E-01 
    6.2277521758704313E-01 
    5.5447813554735592E-01 
    4.8379005844555967E-01 
    4.1076833545454822E-01 
    3.3666526642658740E-01 
    2.6901748915941398E-01 
    2.3131492176993651E-01 
    9.7656996675043051E-01 
    9.6985935622791508E-01 
    9.5309843745395528E-01 
    9.2709893974794788E-01 
    8.9313985946128849E-01 
    8.5237517711398725E-01 
    8.0527468872494801E-01 
    7.5183086227672602E-01 
    6.9217913998637004E-01 
    6.2758582231478222E-01 
    5.5947461233386397E-01 
    4.8814505919849399E-01 
    4.1299416780015374E-01 
    3.3357752725366296E-01 
    2.5490050957429122E-01 
    2.0379814082533915E-01 
    9.7399464648269030E-01 
    9.6764470176735540E-01 
    9.5189789708049843E-01 
    9.2704058105511711E-01 
    8.9412265969652283E-01 
    8.5426453569569816E-01 
    8.0797019872635478E-01 
    7.5528756193300661E-01 
    6.9650967096332594E-01 
    6.3265160554000099E-01 
    5.6481797111711940E-01 
    4.9311283947849299E-01 
    4.1633230218017159E-01 
    3.3209638782813811E-01 
    2.4089618300006710E-01 
    1.6943057089889083E-01 
    9.7240980922915610E-01 
    9.6637554026567618E-01 
    9.5150113101693490E-01 
    9.2770725270342747E-01 
    8.9579851203437277E-01 
    8.5676235978046300E-01 
    8.1116786745105540E-01 
    7.5920324759424518E-01 
    7.0120200593937354E-01 
    6.3801627485330092E-01 
    5.7053820777166298E-01 
    4.9873535021657917E-01 
    4.2096545098730725E-01 
    3.3301289102983650E-01 
    2.2877538315458243E-01 
    1.2617335443913347E-01 
    9.7155846263341139E-01 
    9.6587990924271827E-01 
    9.5181930286086336E-01 
    9.2898949437435918E-01 
    8.9800597489922240E-01 
    8.5976323269526389E-01 
    8.1486415791071587E-01 
    7.6358396688158992E-01 
    7.0628079820727119E-01 
    6.4371043581008913E-01 
    5.7664714658532534E-01 
    5.0500802596210093E-01 
    4.2695628928076412E-01 
    3.3704741736258947E-01 
    2.2165819026526654E-01 
    7.1111142071825145E-02 
    9.7132274730942125E-01 
    9.6610283402103214E-01 
    9.5283996746206368E-01 
    9.3090200224968134E-01 
    9.0076885176725507E-01 
    8.6328100641539995E-01 
    8.1906393451210502E-01 
    7.6843827517186225E-01 
    7.1176681564774058E-01 
    6.4975502007383079E-01 
    5.8314154326196477E-01 
    5.1188368353905211E-01 
    4.3420949586278873E-01 
    3.4448025786617542E-01 
    2.2494170464459734E-01 
    0.0000000000000000E+00 

SCALARS Saturarion double 1 
LOOKUP_TABLE default 

    1.0000000000001998E+00 
    9.4209619895563645E-01 
    8.5652899926847370E-01 
    7.5143942806524777E-01 
    6.7513710514667513E-01 
    6.1931144788809089E-01 
    5.6991222942082409E-01 
    5.1435360178688416E-01 
    3.8936550707756096E-01 
    4.2863762743895216E-02 
    1.0000001853912931E-06 
    1.0000000000001274E-06 
    9.9999999999999995E-07 
    9.9999999999999995E-07 
    9.9999999999999995E-07 
    9.9999999999999995E-07 
    9.7273396831014214E-01 
    9.1897869291494183E-01 
    8.3135285262738046E-01 
    7.4192568389985092E-01 
    6.6915486740109043E-01 
    6.1328689304239981E-01 
    5.6534855535302819E-01 
    5.1052678419666153E-01 
    3.8077337616317630E-01 
    3.6484870908321324E-02 
    1.4798575852861436E-06 
    1.0000000900198482E-06 
    1.0000000000000258E-06 
    9.9999999999999995E-07 
    9.9999999999999995E-07 
    9.9999999999999995E-07 
    9.2819838084247919E-01 
    8.8260020419772478E-01 
    7.9806677942123361E-01 
    7.2343306753928582E-01 
    6.5689318764971760E-01 
    6.0238726200904680E-01 
    5.5689923131281005E-01 
    5.0342877780557238E-01 
    3.6763302902783845E-01 
    2.7820621805118052E-02 
    1.8142890684279256E-06 
    1.0000001482105007E-06 
    1.0000000000000393E-06 
    9.9999999999999995E-07 
    9.9999999999999995E-07 
    9.9999999999999995E-07 
    8.5933153162435560E-01 
    8.2478448195666398E-01 
    7.5528757931689694E-01 
    6.9405746336318430E-01 
    6.4013502829983404E-01 
    5.9280771147254818E-01 
    5.5020021104586214E-01 
    4.9778290561844873E-01 
    3.5366880292385688E-01 
    2.1196124144839401E-02 
    1.6552995577343323E-06 
    1.0000002748058620E-06 
    9.9999999999999974E-07 
    9.9999999999999995E-07 
    9.9999999999999995E-07 
    9.9999999999999995E-07 
    7.9537279781332615E-01 
    7.6783612797119016E-01 
    7.1398242004908763E-01 
    6.6295957554896179E-01 
    6.1959824100060990E-01 
    5.7991264055361991E-01 
    5.4073151225904104E-01 
    4.8898570697533444E-01 
    3.2755006753301458E-01 
    1.1930719630761439E-02 
    2.0919319385591174E-06 
    1.0000001839342294E-06 
    1.0000000000000133E-06 
    9.9999999999999995E-07 
    9.9999999999999995E-07 
    9.9999999999999995E-07 
    7.3589163935051560E-01 
    7.1620928009480500E-01 
    6.7497386166658913E-01 
    6.3253590908253632E-01 
    5.9649947713635687E-01 
    5.6319203435418996E-01 
    5.2718082464899341E-01 
    4.7371171525578853E-01 
    2.7258115330517413E-01 
    3.4375820814203386E-03 
    1.2598403749119556E-06 
    1.0000000615699715E-06 
    1.0000000000000002E-06 
    9.9999999999999995E-07 
    9.9999999999999995E-07 
    9.9999999999999995E-07 
    6.8033571246615032E-01 
    6.6777813867601088E-01 
    6.3747814900476574E-01 
    6.0257630351480040E-01 
    5.7149918892454787E-01 
    5.4341543947699500E-01 
    5.1082879985343843E-01 
    4.4751170527420775E-01 
    1.8453724345005262E-01 
    3.0587817787788456E-04 
    1.0105939725591545E-06 
    1.0000000011583175E-06 
    9.9999999999999995E-07 
    9.9999999999999995E-07 
    9.9999999999999995E-07 
    9.9999999999999995E-07 
    6.2820095158601674E-01 
    6.2208589495139310E-01 
    6.0197438128759884E-01 
    5.7366444363197000E-01 
    5.4603962801948125E-01 
    5.2153503124117750E-01 
    4.8942439291275147E-01 
    3.9741385764204107E-01 
    8.2189603342311887E-02 
    1.1671173647196295E-04 
    1.0034871484557156E-06 
    1.0000000000000019E-06 
    9.9999999999999995E-07 
    9.9999999999999995E-07 
    9.9999999999999995E-07 
    9.9999999999999995E-07 
    5.8152687203803100E-01 
    5.8026142978776518E-01 
    5.6760823250735470E-01 
    5.4534153747719538E-01 
    5.2183490727795701E-01 
    4.9705568390796717E-01 
    4.5279926754756344E-01 
    2.6851772026545195E-01 
    9.7290423720798585E-03 
    5.2092897397450768E-06 
    1.0000023077073216E-06 
    1.0000000000000033E-06 
    9.9999999999999995E-07 
    9.9999999999999995E-07 
    9.9999999999999995E-07 
    9.9999999999999995E-07 
    5.4058977620559978E-01 
    5.4194037349737068E-01 
    5.3311575123206867E-01 
    5.1673495855061347E-01 
    4.9373515871421597E-01 
    4.5467663137463127E-01 
    3.3597210468271133E-01 
    6.7937597473882505E-02 
    2.3895257959718688E-04 
    1.0096127250089609E-06 
    1.0000000000003369E-06 
    9.9999999999999995E-07 
    9.9999999999999995E-07 
    9.9999999999999995E-07 
    9.9999999999999995E-07 
    9.9999999999999995E-07 
    4.8335881730167968E-01 
    4.8857773700377061E-01 
    4.8553841952626114E-01 
    4.6931956299812022E-01 
    4.1623367646285142E-01 
    2.8095612109050538E-01 
    7.4659429913600125E-02 
    4.2898876373014428E-04 
    1.0343594616277548E-06 
    1.0000000021211447E-06 
    1.0000000000000002E-06 
    9.9999999999999995E-07 
    9.9999999999999995E-07 
    9.9999999999999995E-07 
    9.9999999999999995E-07 
    9.9999999999999995E-07 
    2.6187264069397381E-01 
    3.2606990872900310E-01 
    3.2425233318848551E-01 
    2.4779790907767790E-01 
    1.2215834975846399E-01 
    1.2769897218704524E-02 
    1.5583946003500186E-04 
    1.0196993127066895E-06 
    1.0000000077317152E-06 
    1.0000000000000006E-06 
    9.9999999999999995E-07 
    9.9999999999999995E-07 
    9.9999999999999995E-07 
    9.9999999999999995E-07 
    9.9999999999999995E-07 
    9.9999999999999995E-07 
    9.4980898461256987E-04 
    1.1533553024799867E-02 
    9.5564726544844440E-03 
    1.3680665630831194E-03 
    1.4265692939271327E-04 
    4.8452476225265521E-06 
    1.0017707276567918E-06 
    1.0000000009097896E-06 
    1.0000000000000002E-06 
    9.9999999999999995E-07 
    9.9999999999999995E-07 
    9.9999999999999995E-07 
    9.9999999999999995E-07 
    9.9999999999999995E-07 
    9.9999999999999995E-07 
    9.9999999999999995E-07 
    1.0000003995411245E-06 
    1.7611109619959975E-06 
    1.4335232704016796E-06 
    1.0440076038900959E-06 
    1.0045914749812689E-06 
    1.0000008688911834E-06 
    1.0000000000003223E-06 
    9.9999999999999995E-07 
    9.9999999999999995E-07 
    9.9999999999999995E-07 
    9.9999999999999995E-07 
    9.9999999999999995E-07 
    9.9999999999999995E-07 
    9.9999999999999995E-07 
    9.9999999999999995E-07 
    9.9999999999999995E-07 
    1.0000000000000400E-06 
    1.0000000490686453E-06 
    1.0000000657616674E-06 
    1.0000000052241544E-06 
    1.0000000000000029E-06 
    1.0000000000000002E-06 
    9.9999999999999995E-07 
    9.9999999999999995E-07 
    9.9999999999999995E-07 
    9.9999999999999995E-07 
    9.9999999999999995E-07 
    9.9999999999999995E-07 
    9.9999999999999995E-07 
    9.9999999999999995E-07 
    9.9999999999999995E-07 
    9.9999999999999995E-07 
    9.9999999999999995E-07 
    1.0000000000000014E-06 
    9.9999999999999995E-07 
    9.9999999999999995E-07 
    9.9999999999999995E-07 
    9.9999999999999995E-07 
    9.9999999999999995E-07 
    9.9999999999999995E-07 
    9.9999999999999995E-07 
    9.9999999999999995E-07 
    9.9999999999999995E-07 
    9.9999999999999995E-07 
    9.9999999999999995E-07 
    9.9999999999999995E-07 
    9.9999999999999995E-07 
    1.0000002690708503E-06 
