# vtk DataFile Version 2.0
Pressure Field Data 
ASCII 
DATASET UNSTRUCTURED_GRID 

POINTS 289 double 

    0.0000000000000000E+00     0.0000000000000000E+00     0.0000000000000000E+00 
    1.0000000000000000E+00     0.0000000000000000E+00     0.0000000000000000E+00 
    1.0000000000000000E+00     1.0000000000000000E+00     0.0000000000000000E+00 
    0.0000000000000000E+00     1.0000000000000000E+00     0.0000000000000000E+00 
    6.2499999999872928E-02     0.0000000000000000E+00     0.0000000000000000E+00 
    1.2499999999977310E-01     0.0000000000000000E+00     0.0000000000000000E+00 
    1.8749999999959341E-01     0.0000000000000000E+00     0.0000000000000000E+00 
    2.4999999999941089E-01     0.0000000000000000E+00     0.0000000000000000E+00 
    3.1249999999922851E-01     0.0000000000000000E+00     0.0000000000000000E+00 
    3.7499999999904610E-01     0.0000000000000000E+00     0.0000000000000000E+00 
    4.3749999999886358E-01     0.0000000000000000E+00     0.0000000000000000E+00 
    4.9999999999869210E-01     0.0000000000000000E+00     0.0000000000000000E+00 
    5.6249999999884603E-01     0.0000000000000000E+00     0.0000000000000000E+00 
    6.2499999999901090E-01     0.0000000000000000E+00     0.0000000000000000E+00 
    6.8749999999917577E-01     0.0000000000000000E+00     0.0000000000000000E+00 
    7.4999999999934064E-01     0.0000000000000000E+00     0.0000000000000000E+00 
    8.1249999999950551E-01     0.0000000000000000E+00     0.0000000000000000E+00 
    8.7499999999967026E-01     0.0000000000000000E+00     0.0000000000000000E+00 
    9.3749999999983513E-01     0.0000000000000000E+00     0.0000000000000000E+00 
    1.0000000000000000E+00     6.2499999999872928E-02     0.0000000000000000E+00 
    1.0000000000000000E+00     1.2499999999977310E-01     0.0000000000000000E+00 
    1.0000000000000000E+00     1.8749999999959341E-01     0.0000000000000000E+00 
    1.0000000000000000E+00     2.4999999999941089E-01     0.0000000000000000E+00 
    1.0000000000000000E+00     3.1249999999922851E-01     0.0000000000000000E+00 
    1.0000000000000000E+00     3.7499999999904610E-01     0.0000000000000000E+00 
    1.0000000000000000E+00     4.3749999999886358E-01     0.0000000000000000E+00 
    1.0000000000000000E+00     4.9999999999869210E-01     0.0000000000000000E+00 
    1.0000000000000000E+00     5.6249999999884603E-01     0.0000000000000000E+00 
    1.0000000000000000E+00     6.2499999999901090E-01     0.0000000000000000E+00 
    1.0000000000000000E+00     6.8749999999917577E-01     0.0000000000000000E+00 
    1.0000000000000000E+00     7.4999999999934064E-01     0.0000000000000000E+00 
    1.0000000000000000E+00     8.1249999999950551E-01     0.0000000000000000E+00 
    1.0000000000000000E+00     8.7499999999967026E-01     0.0000000000000000E+00 
    1.0000000000000000E+00     9.3749999999983513E-01     0.0000000000000000E+00 
    9.3749999999973976E-01     1.0000000000000000E+00     0.0000000000000000E+00 
    8.7499999999950118E-01     1.0000000000000000E+00     0.0000000000000000E+00 
    8.1249999999991318E-01     1.0000000000000000E+00     0.0000000000000000E+00 
    7.5000000000034706E-01     1.0000000000000000E+00     0.0000000000000000E+00 
    6.8750000000078049E-01     1.0000000000000000E+00     0.0000000000000000E+00 
    6.2500000000121403E-01     1.0000000000000000E+00     0.0000000000000000E+00 
    5.6250000000164757E-01     1.0000000000000000E+00     0.0000000000000000E+00 
    5.0000000000205946E-01     1.0000000000000000E+00     0.0000000000000000E+00 
    4.3750000000182099E-01     1.0000000000000000E+00     0.0000000000000000E+00 
    3.7500000000156092E-01     1.0000000000000000E+00     0.0000000000000000E+00 
    3.1250000000130068E-01     1.0000000000000000E+00     0.0000000000000000E+00 
    2.5000000000104050E-01     1.0000000000000000E+00     0.0000000000000000E+00 
    1.8750000000078040E-01     1.0000000000000000E+00     0.0000000000000000E+00 
    1.2500000000052031E-01     1.0000000000000000E+00     0.0000000000000000E+00 
    6.2500000000260125E-02     1.0000000000000000E+00     0.0000000000000000E+00 
    0.0000000000000000E+00     9.3749999999973976E-01     0.0000000000000000E+00 
    0.0000000000000000E+00     8.7499999999950118E-01     0.0000000000000000E+00 
    0.0000000000000000E+00     8.1249999999991318E-01     0.0000000000000000E+00 
    0.0000000000000000E+00     7.5000000000034706E-01     0.0000000000000000E+00 
    0.0000000000000000E+00     6.8750000000078049E-01     0.0000000000000000E+00 
    0.0000000000000000E+00     6.2500000000121403E-01     0.0000000000000000E+00 
    0.0000000000000000E+00     5.6250000000164757E-01     0.0000000000000000E+00 
    0.0000000000000000E+00     5.0000000000205946E-01     0.0000000000000000E+00 
    0.0000000000000000E+00     4.3750000000182099E-01     0.0000000000000000E+00 
    0.0000000000000000E+00     3.7500000000156092E-01     0.0000000000000000E+00 
    0.0000000000000000E+00     3.1250000000130068E-01     0.0000000000000000E+00 
    0.0000000000000000E+00     2.5000000000104050E-01     0.0000000000000000E+00 
    0.0000000000000000E+00     1.8750000000078040E-01     0.0000000000000000E+00 
    0.0000000000000000E+00     1.2500000000052031E-01     0.0000000000000000E+00 
    0.0000000000000000E+00     6.2500000000260125E-02     0.0000000000000000E+00 
    6.2499999999897131E-02     6.2500000000235922E-02     0.0000000000000000E+00 
    6.2499999999921327E-02     1.2500000000047351E-01     0.0000000000000000E+00 
    6.2499999999945530E-02     1.8750000000070621E-01     0.0000000000000000E+00 
    6.2499999999969733E-02     2.5000000000093858E-01     0.0000000000000000E+00 
    6.2499999999993928E-02     3.1250000000117117E-01     0.0000000000000000E+00 
    6.2500000000018124E-02     3.7500000000140382E-01     0.0000000000000000E+00 
    6.2500000000042327E-02     4.3750000000163619E-01     0.0000000000000000E+00 
    6.2500000000066530E-02     5.0000000000184897E-01     0.0000000000000000E+00 
    6.2500000000090733E-02     5.6250000000147260E-01     0.0000000000000000E+00 
    6.2500000000114922E-02     6.2500000000107636E-01     0.0000000000000000E+00 
    6.2500000000139125E-02     6.8750000000068034E-01     0.0000000000000000E+00 
    6.2500000000163328E-02     7.5000000000028411E-01     0.0000000000000000E+00 
    6.2500000000187531E-02     8.1249999999988787E-01     0.0000000000000000E+00 
    6.2500000000211720E-02     8.7499999999951172E-01     0.0000000000000000E+00 
    6.2500000000235922E-02     9.3749999999974565E-01     0.0000000000000000E+00 
    1.2499999999981980E-01     6.2500000000211733E-02     0.0000000000000000E+00 
    1.2499999999986650E-01     1.2500000000042691E-01     0.0000000000000000E+00 
    1.2499999999991319E-01     1.8750000000063199E-01     0.0000000000000000E+00 
    1.2499999999995989E-01     2.5000000000083678E-01     0.0000000000000000E+00 
    1.2500000000000661E-01     3.1250000000104172E-01     0.0000000000000000E+00 
    1.2500000000005329E-01     3.7500000000124661E-01     0.0000000000000000E+00 
    1.2500000000010000E-01     4.3750000000145117E-01     0.0000000000000000E+00 
    1.2500000000014669E-01     5.0000000000163858E-01     0.0000000000000000E+00 
    1.2500000000019340E-01     5.6250000000129741E-01     0.0000000000000000E+00 
    1.2500000000024011E-01     6.2500000000093847E-01     0.0000000000000000E+00 
    1.2500000000028680E-01     6.8750000000057998E-01     0.0000000000000000E+00 
    1.2500000000033351E-01     7.5000000000022127E-01     0.0000000000000000E+00 
    1.2500000000038020E-01     8.1249999999986211E-01     0.0000000000000000E+00 
    1.2500000000042691E-01     8.7499999999952238E-01     0.0000000000000000E+00 
    1.2500000000047359E-01     9.3749999999975164E-01     0.0000000000000000E+00 
    1.8749999999966760E-01     6.2500000000187531E-02     0.0000000000000000E+00 
    1.8749999999974179E-01     1.2500000000038020E-01     0.0000000000000000E+00 
    1.8749999999981601E-01     1.8750000000055780E-01     0.0000000000000000E+00 
    1.8749999999989009E-01     2.5000000000073502E-01     0.0000000000000000E+00 
    1.8749999999996431E-01     3.1250000000091221E-01     0.0000000000000000E+00 
    1.8750000000003850E-01     3.7500000000108941E-01     0.0000000000000000E+00 
    1.8750000000011269E-01     4.3750000000126649E-01     0.0000000000000000E+00 
    1.8750000000018691E-01     5.0000000000142808E-01     0.0000000000000000E+00 
    1.8750000000026110E-01     5.6250000000112244E-01     0.0000000000000000E+00 
    1.8750000000033529E-01     6.2500000000080080E-01     0.0000000000000000E+00 
    1.8750000000040951E-01     6.8750000000047962E-01     0.0000000000000000E+00 
    1.8750000000048361E-01     7.5000000000015843E-01     0.0000000000000000E+00 
    1.8750000000055780E-01     8.1249999999983680E-01     0.0000000000000000E+00 
    1.8750000000063199E-01     8.7499999999953304E-01     0.0000000000000000E+00 
    1.8750000000070621E-01     9.3749999999975764E-01     0.0000000000000000E+00 
    2.4999999999951281E-01     6.2500000000163314E-02     0.0000000000000000E+00 
    2.4999999999961461E-01     1.2500000000033351E-01     0.0000000000000000E+00 
    2.4999999999971650E-01     1.8750000000048361E-01     0.0000000000000000E+00 
    2.4999999999981831E-01     2.5000000000063310E-01     0.0000000000000000E+00 
    2.4999999999992020E-01     3.1250000000078260E-01     0.0000000000000000E+00 
    2.5000000000002198E-01     3.7500000000093209E-01     0.0000000000000000E+00 
    2.5000000000012390E-01     4.3750000000108180E-01     0.0000000000000000E+00 
    2.5000000000022571E-01     5.0000000000121769E-01     0.0000000000000000E+00 
    2.5000000000032763E-01     5.6250000000094724E-01     0.0000000000000000E+00 
    2.5000000000042938E-01     6.2500000000066314E-01     0.0000000000000000E+00 
    2.5000000000053119E-01     6.8750000000037925E-01     0.0000000000000000E+00 
[...]
CELL_DATA 256 
SCALARS Pressure double 1 
LOOKUP_TABLE default 

    6.6835959240014353E-01 
    6.1874655145455526E-01 
    5.8732334642841555E-01 
    5.5903817087439200E-01 
    5.3044054265848506E-01 
    5.0066105879393030E-01 
    4.6945532117202610E-01 
    4.3691219653511265E-01 
    4.0333006746002426E-01 
    3.6922770488600071E-01 
    3.3544546205224035E-01 
    3.0332592888316184E-01 
    2.7484331757387193E-01 
    2.5242596477962814E-01 
    2.3811968032227679E-01 
    2.3123102154238007E-01 
    6.5436907472433636E-01 
    6.1999968274239348E-01 
    5.8966810899060984E-01 
    5.6160381515377122E-01 
    5.3318999175704163E-01 
    5.0358302509436859E-01 
    4.7253100945445020E-01 
    4.4010323841468901E-01 
    4.0657207276725116E-01 
    3.7241905091138161E-01 
    3.3843135181010814E-01 
    3.0588628852085215E-01 
    2.7671649348321886E-01 
    2.5340489343191464E-01 
    2.3824494228129975E-01 
    2.3082476260522475E-01 
    6.4363596525628763E-01 
    6.1912504244161426E-01 
    5.9126999052529583E-01 
    5.6384550877790873E-01 
    5.3575229187865203E-01 
    5.0637135110472720E-01 
    4.7549412045547718E-01 
    4.4318416505507247E-01 
    4.0968709397245601E-01 
    3.7543948672922089E-01 
    3.4116299122432248E-01 
    3.0805547618793161E-01 
    2.7800511170000530E-01 
    2.5358476281859943E-01 
    2.3742778180855698E-01 
    2.2952206725732363E-01 
    6.3521555275169150E-01 
    6.1718287395515559E-01 
    5.9217117643096284E-01 
    5.6574062673918202E-01 
    5.3811909779891942E-01 
    5.0902960332928759E-01 
    4.7835412719020731E-01 
    4.4616825065721183E-01 
    4.1269471463900459E-01 
    3.7831995495651038E-01 
    3.4368750697463579E-01 
    3.0989656696255896E-01 
    2.7877360533218531E-01 
    2.5299636542291637E-01 
    2.3562493842551258E-01 
    2.2719109439459129E-01 
    6.2846832856724599E-01 
    6.1476742732610690E-01 
    5.9250606387099003E-01 
    5.6729849227357576E-01 
    5.4028700897463100E-01 
    5.1156011213980446E-01 
    4.8112043025878404E-01 
    4.4907098438474768E-01 
    4.1561785119997491E-01 
    3.8109521758275544E-01 
    3.4605655989820483E-01 
    3.1147935968395918E-01 
    2.7909635192487714E-01 
    2.5167820687113834E-01 
    2.3278838367959520E-01 
    2.2369063398731168E-01 
    6.2299086238332546E-01 
    6.1222293492558566E-01 
    5.9242603685205708E-01 
    5.6855274950677104E-01 
    5.4226082379283669E-01 
    5.1396499156171038E-01 
    4.8380062102111160E-01 
    4.5190764837971592E-01 
    4.1848112553769001E-01 
    3.8380319094048132E-01 
    3.4832659441512176E-01 
    3.1288143036541005E-01 
    2.7906030235324691E-01 
    2.4968317019266958E-01 
    2.2886824248466917E-01 
    2.1885317847140773E-01 
    6.1851578001876972E-01 
    6.0975600779630557E-01 
    5.9207765080406094E-01 
    5.6955652886371744E-01 
    5.4405895817042160E-01 
    5.1625294206706929E-01 
    4.8640296141153228E-01 
    4.5469204996484824E-01 
    4.2130832740831609E-01 
    3.8648240261995881E-01 
    3.5055793344283298E-01 
    3.1418934190305536E-01 
    2.7876885240165822E-01 
    2.4708614672745000E-01 
    2.2382267967485397E-01 
    2.1248864281232693E-01 
    6.1485500379211233E-01 
    6.0748720260633660E-01 
    5.9158886064476013E-01 
    5.7037338094557755E-01 
    5.4571071090133427E-01 
    5.1843970173871889E-01 
    4.8893877805643704E-01 
    4.5743685612648105E-01 
    4.2411971014349498E-01 
    3.8916828462222358E-01 
    3.5281110902029394E-01 
    3.1549832976018699E-01 
    2.7834697073410553E-01 
    2.4399357406086944E-01 
    2.1762635401603969E-01 
    2.0437370097336222E-01 
    6.1187141638290699E-01 
    6.0548243162998849E-01 
    5.9106360196170027E-01 
    5.7106891841089458E-01 
    5.4725056718146237E-01 
    5.2054470701874356E-01 
    4.9142177744926174E-01 
    4.6015489245802638E-01 
    4.2693226358441816E-01 
    3.9189029518452484E-01 
    3.5514142736907678E-01 
    3.1690717244218403E-01 
    2.7794334277751048E-01 
    2.4055572651958418E-01 
    2.1027951244166715E-01 
    1.9422511079272373E-01 
    6.0946495997837824E-01 
    6.0377611257124397E-01 
    5.9058255355717781E-01 
    5.7170482464761463E-01 
    5.4871532424976965E-01 
    5.2258970164058305E-01 
    4.9386747648190671E-01 
    4.6286006339425284E-01 
    4.2976153490091473E-01 
    3.9467236888193685E-01 
    3.5759599163941530E-01 
    3.1851212504113818E-01 
    2.7772838023144930E-01 
    2.3698016351251294E-01 
    2.0182508919176917E-01 
    1.8166483414932835E-01 
    6.0756126407395827E-01 
    6.0238568108246782E-01 
    5.9020873536949681E-01 
    5.7233779314123190E-01 
    5.5014352872434802E-01 
    5.2459997735510944E-01 
    4.9629409870922930E-01 
    4.6556800336907911E-01 
    4.3262342270547355E-01 
    3.9753540697224160E-01 
    3.6021424262313873E-01 
    3.2040274565051791E-01 
    2.7789071942126586E-01 
    2.3354894979319449E-01 
    1.9239299290140360E-01 
    1.6619418243519862E-01 
    6.0610187944564964E-01 
    6.0131871485597699E-01 
    5.8999275421481112E-01 
    5.7302026357813207E-01 
    5.5157514322987578E-01 
    5.2660456351254592E-01 
    4.9872411704383041E-01 
    4.6829728697688638E-01 
    4.3553493652897035E-01 
    4.0049876178251764E-01 
    3.6302872533418817E-01 
    3.2265782385058139E-01 
    2.7863107407937154E-01 
    2.3063914536335928E-01 
    1.8226821616138619E-01 
    1.4711963107137915E-01 
    6.0504349596468154E-01 
    6.0058065019903228E-01 
    5.8997859207827552E-01 
    5.7380327084045457E-01 
    5.5305250310301979E-01 
    5.2863632490338686E-01 
    5.0118482022081645E-01 
    4.7107077588729540E-01 
    4.3851491415190830E-01 
    4.0358032148049955E-01 
    3.6606456824005762E-01 
    3.2533831572740846E-01 
    2.8014468554608707E-01 
    2.2873543096686794E-01 
    1.7200814583159865E-01 
    1.2340573107844495E-01 
    6.0435870962492821E-01 
    6.0018620894011976E-01 
    5.9021390777876914E-01 
    5.7474172669721346E-01 
    5.5462143119256091E-01 
    5.3072911831450109E-01 
    5.0370380983400709E-01 
    4.7391116875240813E-01 
    4.4157736004029224E-01 
    4.0678141420879715E-01 
    3.6932024872793923E-01 
    3.2846199639429641E-01 
    2.8257204616696485E-01 
    2.2841146664522180E-01 
    1.6272783328433840E-01 
    9.3518774186518841E-02 
    6.0393047260682620E-01 
    6.0007279501821020E-01 
    5.9068913552525615E-01 
    5.7584489293558261E-01 
    5.5628404265361497E-01 
    5.3286525326975054E-01 
    5.0623905283630899E-01 
    4.7676917631980537E-01 
    4.4466719816645045E-01 
    4.1003230613405695E-01 
    3.7269184939019784E-01 
    3.3188195930394732E-01 
    2.8581798730103608E-01 
    2.3001337004821629E-01 
    1.5619588733740136E-01 
    5.4885849593994410E-02 
    6.0378122978956039E-01 
    6.0025731612690736E-01 
    5.9142226243479201E-01 
    5.7713899172806404E-01 
    5.5806984497744105E-01 
    5.3506841306650044E-01 
    5.0879418117251063E-01 
    4.7963815675997762E-01 
    4.4780087131105134E-01 
    4.1338838768789865E-01 
    3.7626675383567970E-01 
    3.3571729003304485E-01 
    2.9007328316317321E-01 
    2.3407683836720497E-01 
    1.5564353803519351E-01 
    0.0000000000000000E+00 

SCALARS Saturarion double 1 
LOOKUP_TABLE default 

    1.0000000000000004E+00 
    9.7805110447069366E-01 
    9.3779465742884083E-01 
    8.8291833801602704E-01 
    8.3704256795363696E-01 
    7.9656284497720364E-01 
    7.6111979340609381E-01 
    7.3018255881307159E-01 
    7.0281195315315304E-01 
    6.7798834296499988E-01 
    6.5464439239501426E-01 
    6.3149451210386509E-01 
    6.0652615904756757E-01 
    5.7605118177807257E-01 
    5.2768252817547667E-01 
    2.8601297446639412E-01 
    9.9185093934971602E-01 
    9.7108452265583167E-01 
    9.2887362772003934E-01 
    8.7651660863617331E-01 
    8.3190407067630834E-01 
    7.9282880756200602E-01 
    7.5844455419252932E-01 
    7.2812990388031862E-01 
    7.0118245595886841E-01 
    6.7671614923111800E-01 
    6.5388513538302195E-01 
    6.3154582746312549E-01 
    6.0765273305913470E-01 
    5.7818996228809394E-01 
    5.3206963807962893E-01 
    3.1004753141047298E-01 
    9.7896632909248449E-01 
    9.5811491988434772E-01 
    9.1564987545764998E-01 
    8.6493224054885842E-01 
    8.2178407177491064E-01 
    7.8504260538394832E-01 
    7.5284019329730778E-01 
    7.2390581581683877E-01 
    6.9771153124674024E-01 
    6.7373136018496038E-01 
    6.5145732862935224E-01 
    6.3003429647588627E-01 
    6.0779339676479238E-01 
    5.8064019015830304E-01 
    5.3787906888884662E-01 
    3.3207084514247814E-01 
    9.5650492214786831E-01 
    9.3889077985636404E-01 
    8.9940385987663485E-01 
    8.5269549885374585E-01 
    8.1028561431629242E-01 
    7.7449786860146819E-01 
    7.4377011345560284E-01 
    7.1663314602834827E-01 
    6.9199773116198027E-01 
    6.6941612691725116E-01 
    6.4828629657957293E-01 
    6.2796893242424079E-01 
    6.0721253123509777E-01 
    5.8257389020875150E-01 
    5.4359750625042513E-01 
    3.5346840310213729E-01 
    9.2880031317146405E-01 
    9.1310013875799978E-01 
    8.7769235452162664E-01 
    8.3558055497594796E-01 
    7.9527107648005346E-01 
    7.6030535880849692E-01 
    7.3067932774642397E-01 
    7.0513350661352503E-01 
    6.8256954218185262E-01 
    6.6221064397231733E-01 
    6.4342501556024523E-01 
    6.2529076448014309E-01 
    6.0638712424641739E-01 
    5.8395045348487840E-01 
    5.4851146211648094E-01 
    3.7131163299460024E-01 
    8.9739778349012644E-01 
    8.8423879824300522E-01 
    8.5335705665725414E-01 
    8.1513115226769572E-01 
    7.7781710235297785E-01 
    7.4458748414620501E-01 
    7.1580847184773244E-01 
    6.9125140104080496E-01 
    6.7017186600919942E-01 
    6.5182580994280082E-01 
    6.3558930438147954E-01 
    6.2063215649347192E-01 
    6.0490604031116713E-01 
    5.8499764629899342E-01 
    5.5311792164833917E-01 
    3.8745705052494189E-01 
    8.6319418404302373E-01 
    8.5316701703489373E-01 
    8.2710034382458197E-01 
    7.9292982935963330E-01 
    7.5894054997812110E-01 
    7.2809974754858808E-01 
    7.0097486780395901E-01 
    6.7719780093923299E-01 
    6.5682320738483313E-01 
    6.3967053674989338E-01 
    6.2543404948720016E-01 
    6.1341305231618426E-01 
    6.0173282750251211E-01 
    5.8570162344741428E-01 
    5.5720098537849849E-01 
    4.0335191760007771E-01 
    8.2600747768450034E-01 
    8.1954308933770881E-01 
    7.9903251073942405E-01 
    7.6953333526365220E-01 
    7.3866419549985529E-01 
    7.1007389936531162E-01 
    6.8449466301803352E-01 
    6.6209861459073538E-01 
    6.4274793783223461E-01 
    6.2655864324101396E-01 
    6.1358755307954660E-01 
    6.0389194741550045E-01 
    5.9614621761559650E-01 
    5.8533446586718763E-01 
    5.6126606547253521E-01 
    4.1939258411674096E-01 
    7.8595235984876399E-01 
    7.8301134876762424E-01 
    7.6801420881889126E-01 
    7.4357241588648781E-01 
    7.1633122486304512E-01 
    6.8999048811822028E-01 
    6.6611106390127961E-01 
    6.4498941116318909E-01 
    6.2671117259166498E-01 
    6.1141627243225716E-01 
    5.9959824094964043E-01 
    5.9183147707271755E-01 
    5.8776912460545339E-01 
    5.8290888132738805E-01 
    5.6484785886194055E-01 
    4.3471163574910904E-01 
    7.4307077699914592E-01 
    7.4346777438280909E-01 
    7.3368250279277136E-01 
    7.1407528022516797E-01 
    6.9071455387578073E-01 
    6.6712859453727891E-01 
    6.4502662933525079E-01 
    6.2547775719282972E-01 
    6.0855632553701078E-01 
    5.9425713729570673E-01 
    5.8313055006871983E-01 
    5.7665695113747673E-01 
    5.7588305622620495E-01 
    5.7751461456316400E-01 
    5.6693801466343463E-01 
    4.4982981658769255E-01 
    6.9702259400754141E-01 
    7.0054694821718211E-01 
    6.9564938430864531E-01 
    6.8054946970774965E-01 
    6.6110248545721251E-01 
    6.4080414541122532E-01 
    6.2145245770800761E-01 
    6.0367414021854027E-01 
    5.8813326403073418E-01 
    5.7506517950180724E-01 
    5.6491210467619135E-01 
    5.5894734951697600E-01 
    5.5988496368271212E-01 
    5.6786533900033487E-01 
    5.6673691821948724E-01 
    4.6510826338227518E-01 
    6.4643931847858183E-01 
    6.5301661751027573E-01 
    6.5314338647499937E-01 
    6.4267180286781278E-01 
    6.2694986295204547E-01 
    6.0978301880542718E-01 
    5.9320048320392815E-01 
    5.7811449629677114E-01 
    5.6466679769426364E-01 
    5.5324337422642000E-01 
    5.4451044781336100E-01 
    5.3962766602841772E-01 
    5.4091320862790560E-01 
    5.5264952417571300E-01 
    5.6283985002957770E-01 
    4.7933130529186213E-01 
    5.9197267937558817E-01 
    6.0075080857899521E-01 
    6.0518627697330551E-01 
    5.9953474090029013E-01 
    5.8827767920917184E-01 
    5.7462869386295801E-01 
    5.6110001997766457E-01 
    5.4841002759700141E-01 
    5.3698336161055171E-01 
    5.2716008110159829E-01 
    5.2008521032556976E-01 
    5.1681534047230759E-01 
    5.1936392949782917E-01 
    5.3233033355435466E-01 
    5.5215460535532634E-01 
    4.9101285287720431E-01 
    5.3433661904702667E-01 
    5.4587129554869029E-01 
    5.5324800673294960E-01 
    5.5198614865826856E-01 
    5.4420118871592671E-01 
    5.3291165292646103E-01 
    5.2016154478906795E-01 
    5.0867692830548750E-01 
    4.9779686920644756E-01 
    4.8688322477241336E-01 
    4.7579154630633130E-01 
    4.7394696400522152E-01 
    4.8187176222881878E-01 
    5.0309677977805434E-01 
    5.3682711424528540E-01 
    4.9878110915194868E-01 
    3.5125519915036202E-01 
    4.0524493419303581E-01 
    4.3513751984276788E-01 
    4.4431562611645375E-01 
    4.3673499318566333E-01 
    4.1936762183713072E-01 
    3.8687798918249383E-01 
    3.3299230542097502E-01 
    2.8591488401041515E-01 
    2.4269635130750702E-01 
    2.4242375409464181E-01 
    2.3256118868575695E-01 
    2.8053187240607319E-01 
    3.8470040126679361E-01 
    4.9174334163827232E-01 
    5.0022521756883020E-01 
    4.8305052170503175E-03 
    4.0720489205584749E-02 
    6.5396198466973074E-02 
    7.4966472067162893E-02 
    5.3611457980600817E-02 
    3.4438619249531684E-02 
    1.7541604693778468E-02 
    3.1966496104098778E-03 
    2.0731401992032951E-03 
    9.4450117443860686E-05 
    5.6300133633106981E-04 
    8.0103822423399811E-05 
    2.7088808685055486E-03 
    1.3846327312710185E-01 
    3.1631025723774958E-01 
    4.4932861062164542E-01 
