# vtk DataFile Version 2.0
Pressure Field Data 
ASCII 
DATASET UNSTRUCTURED_GRID 

POINTS 289 double 

    0.0000000000000000E+00     0.0000000000000000E+00     0.0000000000000000E+00 
    1.0000000000000000E+00     0.0000000000000000E+00     0.0000000000000000E+00 
    1.0000000000000000E+00     1.0000000000000000E+00     0.0000000000000000E+00 
    0.0000000000000000E+00     1.0000000000000000E+00     0.0000000000000000E+00 
    6.2499999999872928E-02     0.0000000000000000E+00     0.0000000000000000E+00 
    1.2499999999977310E-01     0.0000000000000000E+00     0.0000000000000000E+00 
    1.8749999999959341E-01     0.0000000000000000E+00     0.0000000000000000E+00 
    2.4999999999941089E-01     0.0000000000000000E+00     0.0000000000000000E+00 
    3.1249999999922851E-01     0.0000000000000000E+00     0.0000000000000000E+00 
    3.7499999999904610E-01     0.0000000000000000E+00     0.0000000000000000E+00 
    4.3749999999886358E-01     0.0000000000000000E+00     0.0000000000000000E+00 
    4.9999999999869210E-01     0.0000000000000000E+00     0.0000000000000000E+00 
    5.6249999999884603E-01     0.0000000000000000E+00     0.0000000000000000E+00 
    6.2499999999901090E-01     0.0000000000000000E+00     0.0000000000000000E+00 
    6.8749999999917577E-01     0.0000000000000000E+00     0.0000000000000000E+00 
    7.4999999999934064E-01     0.0000000000000000E+00     0.0000000000000000E+00 
    8.1249999999950551E-01     0.0000000000000000E+00     0.0000000000000000E+00 
    8.7499999999967026E-01     0.0000000000000000E+00     0.0000000000000000E+00 
    9.3749999999983513E-01     0.0000000000000000E+00     0.0000000000000000E+00 
    1.0000000000000000E+00     6.2499999999872928E-02     0.0000000000000000E+00 
    1.0000000000000000E+00     1.2499999999977310E-01     0.0000000000000000E+00 
    1.0000000000000000E+00     1.8749999999959341E-01     0.0000000000000000E+00 
    1.0000000000000000E+00     2.4999999999941089E-01     0.0000000000000000E+00 
    1.0000000000000000E+00     3.1249999999922851E-01     0.0000000000000000E+00 
    1.0000000000000000E+00     3.7499999999904610E-01     0.0000000000000000E+00 
    1.0000000000000000E+00     4.3749999999886358E-01     0.0000000000000000E+00 
    1.0000000000000000E+00     4.9999999999869210E-01     0.0000000000000000E+00 
    1.0000000000000000E+00     5.6249999999884603E-01     0.0000000000000000E+00 
    1.0000000000000000E+00     6.2499999999901090E-01     0.0000000000000000E+00 
    1.0000000000000000E+00     6.8749999999917577E-01     0.0000000000000000E+00 
    1.0000000000000000E+00     7.4999999999934064E-01     0.0000000000000000E+00 
    1.0000000000000000E+00     8.1249999999950551E-01     0.0000000000000000E+00 
    1.0000000000000000E+00     8.7499999999967026E-01     0.0000000000000000E+00 
    1.0000000000000000E+00     9.3749999999983513E-01     0.0000000000000000E+00 
    9.3749999999973976E-01     1.0000000000000000E+00     0.0000000000000000E+00 
    8.7499999999950118E-01     1.0000000000000000E+00     0.0000000000000000E+00 
    8.1249999999991318E-01     1.0000000000000000E+00     0.0000000000000000E+00 
    7.5000000000034706E-01     1.0000000000000000E+00     0.0000000000000000E+00 
    6.8750000000078049E-01     1.0000000000000000E+00     0.0000000000000000E+00 
    6.2500000000121403E-01     1.0000000000000000E+00     0.0000000000000000E+00 
    5.6250000000164757E-01     1.0000000000000000E+00     0.0000000000000000E+00 
    5.0000000000205946E-01     1.0000000000000000E+00     0.0000000000000000E+00 
    4.3750000000182099E-01     1.0000000000000000E+00     0.0000000000000000E+00 
    3.7500000000156092E-01     1.0000000000000000E+00     0.0000000000000000E+00 
    3.1250000000130068E-01     1.0000000000000000E+00     0.0000000000000000E+00 
    2.5000000000104050E-01     1.0000000000000000E+00     0.0000000000000000E+00 
    1.8750000000078040E-01     1.0000000000000000E+00     0.0000000000000000E+00 
    1.2500000000052031E-01     1.0000000000000000E+00     0.0000000000000000E+00 
    6.2500000000260125E-02     1.0000000000000000E+00     0.0000000000000000E+00 
    0.0000000000000000E+00     9.3749999999973976E-01     0.0000000000000000E+00 
    0.0000000000000000E+00     8.7499999999950118E-01     0.0000000000000000E+00 
    0.0000000000000000E+00     8.1249999999991318E-01     0.0000000000000000E+00 
    0.0000000000000000E+00     7.5000000000034706E-01     0.0000000000000000E+00 
    0.0000000000000000E+00     6.8750000000078049E-01     0.0000000000000000E+00 
    0.0000000000000000E+00     6.2500000000121403E-01     0.0000000000000000E+00 
    0.0000000000000000E+00     5.6250000000164757E-01     0.0000000000000000E+00 
    0.0000000000000000E+00     5.0000000000205946E-01     0.0000000000000000E+00 
    0.0000000000000000E+00     4.3750000000182099E-01     0.0000000000000000E+00 
    0.0000000000000000E+00     3.7500000000156092E-01     0.0000000000000000E+00 
    0.0000000000000000E+00     3.1250000000130068E-01     0.0000000000000000E+00 
    0.0000000000000000E+00     2.5000000000104050E-01     0.0000000000000000E+00 
    0.0000000000000000E+00     1.8750000000078040E-01     0.0000000000000000E+00 
    0.0000000000000000E+00     1.2500000000052031E-01     0.0000000000000000E+00 
    0.0000000000000000E+00     6.2500000000260125E-02     0.0000000000000000E+00 
    6.2499999999897131E-02     6.2500000000235922E-02     0.0000000000000000E+00 
    6.2499999999921327E-02     1.2500000000047351E-01     0.0000000000000000E+00 
    6.2499999999945530E-02     1.8750000000070621E-01     0.0000000000000000E+00 
    6.2499999999969733E-02     2.5000000000093858E-01     0.0000000000000000E+00 
    6.2499999999993928E-02     3.1250000000117117E-01     0.0000000000000000E+00 
    6.2500000000018124E-02     3.7500000000140382E-01     0.0000000000000000E+00 
    6.2500000000042327E-02     4.3750000000163619E-01     0.0000000000000000E+00 
    6.2500000000066530E-02     5.0000000000184897E-01     0.0000000000000000E+00 
    6.2500000000090733E-02     5.6250000000147260E-01     0.0000000000000000E+00 
    6.2500000000114922E-02     6.2500000000107636E-01     0.0000000000000000E+00 
    6.2500000000139125E-02     6.8750000000068034E-01     0.0000000000000000E+00 
    6.2500000000163328E-02     7.5000000000028411E-01     0.0000000000000000E+00 
    6.2500000000187531E-02     8.1249999999988787E-01     0.0000000000000000E+00 
    6.2500000000211720E-02     8.7499999999951172E-01     0.0000000000000000E+00 
    6.2500000000235922E-02     9.3749999999974565E-01     0.0000000000000000E+00 
    1.2499999999981980E-01     6.2500000000211733E-02     0.0000000000000000E+00 
    1.2499999999986650E-01     1.2500000000042691E-01     0.0000000000000000E+00 
    1.2499999999991319E-01     1.8750000000063199E-01     0.0000000000000000E+00 
    1.2499999999995989E-01     2.5000000000083678E-01     0.0000000000000000E+00 
    1.2500000000000661E-01     3.1250000000104172E-01     0.0000000000000000E+00 
    1.2500000000005329E-01     3.7500000000124661E-01     0.0000000000000000E+00 
    1.2500000000010000E-01     4.3750000000145117E-01     0.0000000000000000E+00 
    1.2500000000014669E-01     5.0000000000163858E-01     0.0000000000000000E+00 
    1.2500000000019340E-01     5.6250000000129741E-01     0.0000000000000000E+00 
    1.2500000000024011E-01     6.2500000000093847E-01     0.0000000000000000E+00 
    1.2500000000028680E-01     6.8750000000057998E-01     0.0000000000000000E+00 
    1.2500000000033351E-01     7.5000000000022127E-01     0.0000000000000000E+00 
    1.2500000000038020E-01     8.1249999999986211E-01     0.0000000000000000E+00 
    1.2500000000042691E-01     8.7499999999952238E-01     0.0000000000000000E+00 
    1.2500000000047359E-01     9.3749999999975164E-01     0.0000000000000000E+00 
    1.8749999999966760E-01     6.2500000000187531E-02     0.0000000000000000E+00 
    1.8749999999974179E-01     1.2500000000038020E-01     0.0000000000000000E+00 
    1.8749999999981601E-01     1.8750000000055780E-01     0.0000000000000000E+00 
    1.8749999999989009E-01     2.5000000000073502E-01     0.0000000000000000E+00 
    1.8749999999996431E-01     3.1250000000091221E-01     0.0000000000000000E+00 
    1.8750000000003850E-01     3.7500000000108941E-01     0.0000000000000000E+00 
    1.8750000000011269E-01     4.3750000000126649E-01     0.0000000000000000E+00 
    1.8750000000018691E-01     5.0000000000142808E-01     0.0000000000000000E+00 
    1.8750000000026110E-01     5.6250000000112244E-01     0.0000000000000000E+00 
    1.8750000000033529E-01     6.2500000000080080E-01     0.0000000000000000E+00 
    1.8750000000040951E-01     6.8750000000047962E-01     0.0000000000000000E+00 
    1.8750000000048361E-01     7.5000000000015843E-01     0.0000000000000000E+00 
    1.8750000000055780E-01     8.1249999999983680E-01     0.0000000000000000E+00 
    1.8750000000063199E-01     8.7499999999953304E-01     0.0000000000000000E+00 
    1.8750000000070621E-01     9.3749999999975764E-01     0.0000000000000000E+00 
    2.4999999999951281E-01     6.2500000000163314E-02     0.0000000000000000E+00 
    2.4999999999961461E-01     1.2500000000033351E-01     0.0000000000000000E+00 
    2.4999999999971650E-01     1.8750000000048361E-01     0.0000000000000000E+00 
    2.4999999999981831E-01     2.5000000000063310E-01     0.0000000000000000E+00 
    2.4999999999992020E-01     3.1250000000078260E-01     0.0000000000000000E+00 
    2.5000000000002198E-01     3.7500000000093209E-01     0.0000000000000000E+00 
    2.5000000000012390E-01     4.3750000000108180E-01     0.0000000000000000E+00 
    2.5000000000022571E-01     5.0000000000121769E-01     0.0000000000000000E+00 
    2.5000000000032763E-01     5.6250000000094724E-01     0.0000000000000000E+00 
    2.5000000000042938E-01     6.2500000000066314E-01     0.0000000000000000E+00 
    2.5000000000053119E-01     6.8750000000037925E-01     0.0000000000000000E+00 
[...]
CELL_DATA 256 
SCALARS Pressure double 1 
LOOKUP_TABLE default 

    7.4257144144033804E-01 
    6.9210303414885954E-01 
    6.5932800707270744E-01 
    6.2924151853997845E-01 
    5.9844802903049343E-01 
    5.6613428764559004E-01 
    5.3211043336543373E-01 
    4.9652393291751218E-01 
    4.5973220510145429E-01 
    4.2232382159783816E-01 
    3.8523732857698467E-01 
    3.4996938597152805E-01 
    3.1873599423756949E-01 
    2.9430903800844604E-01 
    2.7837275200802064E-01 
    2.7062581889775056E-01 
    7.2860568020806915E-01 
    6.9345091202685782E-01 
    6.6180996923039159E-01 
    6.3197955350596402E-01 
    6.0140310632376182E-01 
    5.6929458810561084E-01 
    5.3545374970668225E-01 
    5.0000473667691614E-01 
    4.6327576747048954E-01 
    4.2581434582903260E-01 
    3.8850057995711884E-01 
    3.5275872295754029E-01 
    3.2075737289010220E-01 
    2.9534565042590161E-01 
    2.7851832023562451E-01 
    2.7018844297864064E-01 
    7.1788594440182574E-01 
    6.9264531795613360E-01 
    6.6352351667631992E-01 
    6.3436736447700248E-01 
    6.0414266888176926E-01 
    5.7229219893380134E-01 
    5.3865713244902602E-01 
    5.0335044231924575E-01 
    4.6666791299633442E-01 
    4.2910587519963600E-01 
    3.9147155805028833E-01 
    3.5510108142277264E-01 
    3.2211248721266106E-01 
    2.9546302039798161E-01 
    2.7758547811001177E-01 
    2.6871646739898852E-01 
    7.0944258095369406E-01 
    6.9074020768592459E-01 
    6.6450762019267839E-01 
    6.3638426484198574E-01 
    6.0666348450854146E-01 
    5.7513462381429969E-01 
    5.4173092483813345E-01 
    5.0657332116623088E-01 
    4.6992790267770002E-01 
    4.3223204362223344E-01 
    3.9420422426450719E-01 
    3.5706942569896927E-01 
    3.2287481840464805E-01 
    2.9469591996600669E-01 
    2.7551044090824423E-01 
    2.6603064638168394E-01 
    7.0262716556734228E-01 
    6.8832290829523846E-01 
    6.6489415458602330E-01 
    6.3803887755098765E-01 
    6.0896490890459842E-01 
    5.7782920671766747E-01 
    5.4468885894819208E-01 
    5.0969148979709622E-01 
    4.7308073940016249E-01 
    4.3523130185735437E-01 
    3.9675757599115996E-01 
    3.5874502593597674E-01 
    3.2313087189898815E-01 
    2.9309100302120705E-01 
    2.7223521320882749E-01 
    2.6196006600360083E-01 
    6.9705098773271823E-01 
    6.8574211308153643E-01 
    6.6483574421253389E-01 
    6.3936555649059257E-01 
    6.1105384061457424E-01 
    5.8038255676785888E-01 
    5.4754456058406753E-01 
    5.1272638792118441E-01 
    4.7615656660837635E-01 
    4.3814689065927315E-01 
    3.9919512046563171E-01 
    3.6021687225095350E-01 
    3.2298203909970574E-01 
    2.9071089276691264E-01 
    2.6770246714428247E-01 
    2.5631202536239805E-01 
    6.9246089669930022E-01 
    6.8321416937633417E-01 
    6.6448497443523880E-01 
    6.4042199661361210E-01 
    6.1295185747504000E-01 
    5.8280634892535010E-01 
    5.5031069092192331E-01 
    5.1569819300080622E-01 
    4.7918661242917299E-01 
    4.4102454150060483E-01 
    4.0158453543236589E-01 
    3.6158221428450127E-01 
    3.2254773361145544E-01 
    2.8764465322980215E-01 
    2.6186510232627414E-01 
    2.4886343368712982E-01 
    6.8867797849599499E-01 
    6.8086901261171784E-01 
    6.6397735617316078E-01 
    6.4127716034987881E-01 
    6.1469148202605495E-01 
    5.8511834353185677E-01 
    5.5300097295613748E-01 
    5.1862381642246214E-01 
    4.8219784525595816E-01 
    4.4390809242609042E-01 
    4.0399543485140532E-01 
    3.6294789073392508E-01 
    3.2197079551444036E-01 
    2.8401913923095889E-01 
    2.5470153546659885E-01 
    2.3936000683843478E-01 
    6.8557260134241860E-01 
    6.7878082427575492E-01 
    6.6342372578730391E-01 
    6.4200165575336621E-01 
    6.1631069311485875E-01 
    5.8734038193042926E-01 
    5.5563067029712454E-01 
    5.2151784392195233E-01 
    4.8521117736070468E-01 
    4.4683440176091493E-01 
    4.0649367627998328E-01 
    3.6442696385981099E-01 
    3.2142123561291674E-01 
    2.8001125563384260E-01 
    2.4621916868401564E-01 
    2.2747751204931602E-01 
    6.8305055620005684E-01 
    6.7699077958187404E-01 
    6.6291053055709293E-01 
    6.4266205128039688E-01 
    6.1785083214638103E-01 
    5.8949782946247953E-01 
    5.5821695625621637E-01 
    5.2439443298652122E-01 
    4.8824350399680111E-01 
    4.4983268455558761E-01 
    4.0913687832812695E-01 
    3.6613290492747991E-01 
    3.2109569933002169E-01 
    2.7586434083384770E-01 
    2.3647567637307135E-01 
    2.1277814468563763E-01 
    6.8104207728640553E-01 
    6.7552220502712956E-01 
    6.6250645343849468E-01 
    6.4332080898351474E-01 
    6.1935684656780909E-01 
    5.9162157776994717E-01 
    5.6078078945209586E-01 
    5.2726969339764718E-01 
    4.9131195805320416E-01 
    4.5292874688917223E-01 
    4.1197454450510851E-01 
    3.6817499449201335E-01 
    3.2121615666481834E-01 
    2.7191090792431993E-01 
    2.2563453952670523E-01 
    1.9468769876745964E-01 
    6.7949522168878851E-01 
    6.7439042105323932E-01 
    6.6226981476368540E-01 
    6.4403882971144610E-01 
    6.2087835583512518E-01 
    5.9374902132117335E-01 
    5.6334910098957502E-01 
    5.3016436866587968E-01 
    4.9443686369258816E-01 
    4.5614744368861859E-01 
    4.1504564336908034E-01 
    3.7064783729370682E-01 
    3.2202164974917080E-01 
    2.6858557641579722E-01 
    2.1402292573971465E-01 
    1.7241302420623730E-01 
    6.7838098896276877E-01 
    6.7361761934341247E-01 
    6.6225945140164233E-01 
    6.4488033231764730E-01 
    6.2247003229883391E-01 
    5.9592245764017415E-01 
    5.6595308871911809E-01 
    5.3310044082609431E-01 
    4.9763485871460833E-01 
    4.5950566122820946E-01 
    4.1836928215889096E-01 
    3.7360902858171680E-01 
    3.2373484063174024E-01 
    2.6645280535830013E-01 
    2.0230660187466645E-01 
    1.4479874949005406E-01 
    6.7764225992598559E-01 
    6.7320103589892411E-01 
    6.6251544243058691E-01 
    6.4589666076122665E-01 
    6.2417558195193246E-01 
    5.9817078013494507E-01 
    5.6860274935161259E-01 
    5.3605285398023039E-01 
    5.0083462534321965E-01 
    4.6289547014061422E-01 
    4.2182874969635120E-01 
    3.7694612458167953E-01 
    3.2637274670030986E-01 
    2.6600022885548152E-01 
    1.9158926328884682E-01 
    1.1001042051193892E-01 
    6.7711191383095659E-01 
    6.7298792865174761E-01 
    6.6292893929818997E-01 
    6.4701126414504129E-01 
    6.2592850145467105E-01 
    6.0043611621299686E-01 
    5.7124941814420138E-01 
    5.3897912066218778E-01 
    5.0398643330890325E-01 
    4.6626950091821900E-01 
    4.2542201009869324E-01 
    3.8069137539450271E-01 
    3.2996237110128296E-01 
    2.6766574382129776E-01 
    1.8356405158349112E-01 
    6.4520520389788019E-02 
    6.7692647658885696E-01 
    6.7313328095033442E-01 
    6.6365084584455070E-01 
    6.4835497770955897E-01 
    6.2783695236710613E-01 
    6.0282011278762582E-01 
    5.7401525003573295E-01 
    5.4204797941613858E-01 
    5.0731057844822647E-01 
    4.6985813072024601E-01 
    4.2931893764430273E-01 
    3.8494324705231381E-01 
    3.3466914796602643E-01 
    2.7251451241966279E-01 
    1.8321573712909170E-01 
    0.0000000000000000E+00 

SCALARS Saturarion double 1 
LOOKUP_TABLE default 

    1.0000000000000007E+00 
    9.7357671412724123E-01 
    9.2598940678552588E-01 
    8.6472727702422458E-01 
    8.1302159609071689E-01 
    7.6812983149580583E-01 
    7.2984067135164643E-01 
    6.9712901792907200E-01 
    6.6854143942443567E-01 
    6.4263477557274984E-01 
    6.1801534151145343E-01 
    5.9322462228032402E-01 
    5.6637160732384417E-01 
    5.3497622440647097E-01 
    4.5404500474548198E-01 
    9.5738386561215971E-02 
    9.8977782351052668E-01 
    9.6473371171945210E-01 
    9.1490096151592337E-01 
    8.5684801199477834E-01 
    8.0754843460362780E-01 
    7.6458991659953213E-01 
    7.2731729922705035E-01 
    6.9498248653432848E-01 
    6.6661355080714202E-01 
    6.4101986531193489E-01 
    6.1704706163517575E-01 
    5.9326719317848575E-01 
    5.6757874938224040E-01 
    5.3717296539619774E-01 
    4.6041840967049974E-01 
    1.2835371446689584E-01 
    9.7368069158966930E-01 
    9.4882022027131552E-01 
    8.9899997471135029E-01 
    8.4320487327437965E-01 
    7.9679422873586536E-01 
    7.5707117217163911E-01 
    7.2200070147545670E-01 
    6.9058214986111099E-01 
    6.6248045835114766E-01 
    6.3716176583066819E-01 
    6.1395435158023959E-01 
    5.9159064419159868E-01 
    5.6792383007995595E-01 
    5.3967831983406100E-01 
    4.7038857310874110E-01 
    1.6552225592397918E-01 
    9.4552542455214894E-01 
    9.2479431776702170E-01 
    8.7978051940074509E-01 
    8.2822729753486091E-01 
    7.8293361729332644E-01 
    7.4529411382098709E-01 
    7.1269621745340495E-01 
    6.8349968126027627E-01 
    6.5690228320508415E-01 
    6.3275132088146380E-01 
    6.1050491296718967E-01 
    5.8936860331933683E-01 
    5.6758436327457351E-01 
    5.4188039597796123E-01 
    4.8015282308869833E-01 
    2.0405101152626223E-01 
    9.1179534330015155E-01 
    8.9391235991494811E-01 
    8.5425571969511427E-01 
    8.0799456414515214E-01 
    7.6534543761332741E-01 
    7.2928983082429544E-01 
    6.9882167834089215E-01 
    6.7218679870599840E-01 
    6.4829510417732927E-01 
    6.2653655965334298E-01 
    6.0640581401175930E-01 
    5.8706656264778168E-01 
    5.6701417291707179E-01 
    5.4357545574953270E-01 
    4.8931256543877000E-01 
    2.3341542364258266E-01 
    8.7517864741935880E-01 
    8.6045358729605914E-01 
    8.2630833637252576E-01 
    7.8508274016316382E-01 
    7.4606407507947525E-01 
    7.1198838514198071E-01 
    6.8271050720817750E-01 
    6.5780512256337720E-01 
    6.3631099014119252E-01 
    6.1724735105001760E-01 
    5.9985938642377401E-01 
    5.8341565995157130E-01 
    5.6609766423273156E-01 
    5.4490894657321043E-01 
    4.9691653493973398E-01 
    2.5905482281030051E-01 
    8.3619761966480421E-01 
    8.2522804337586630E-01 
    7.9702251494601906E-01 
    7.6084923315186725E-01 
    7.2561800147293842E-01 
    6.9404224856174412E-01 
    6.6655656887463344E-01 
    6.4275096367151030E-01 
    6.2255784336425657E-01 
    6.0545853342056144E-01 
    5.9072325324910091E-01 
    5.7739351261130600E-01 
    5.6381868907717181E-01 
    5.4606159981280200E-01 
    5.0417991436038423E-01 
    2.8402275315624637E-01 
    7.9476595162504782E-01 
    7.8796353792356966E-01 
    7.6635760693929944E-01 
    7.3559883632507284E-01 
    7.0376788250957278E-01 
    6.7459719210463298E-01 
    6.4882679624545403E-01 
    6.2658118499492244E-01 
    6.0760665159435923E-01 
    5.9188816566769031E-01 
    5.7917594609630751E-01 
    5.6890646223614516E-01 
    5.5936029617042293E-01 
    5.4638062333148474E-01 
    5.1109428973460624E-01 
    3.0905021515202841E-01 
    7.5114936352216699E-01 
    7.4825268632006836E-01 
    7.3287097701800574E-01 
    7.0778268392496391E-01 
    6.7995706169041492E-01 
    6.5332639190488995E-01 
    6.2945010003406976E-01 
    6.0847537206966185E-01 
    5.9045243810464643E-01 
    5.7566214621612999E-01 
    5.6461836405596122E-01 
    5.5732525794154464E-01 
    5.5224644841961212E-01 
    5.4490166028471287E-01 
    5.1737578196495959E-01 
    3.3223435459371298E-01 
    7.0530069387799155E-01 
    7.0595833874405245E-01 
    6.9624260114679670E-01 
    6.7648107330058993E-01 
    6.5301403045238304E-01 
    6.2956834500945735E-01 
    6.0774858915667729E-01 
    5.8835364991374084E-01 
    5.7145471585454921E-01 
    5.5744286166350143E-01 
    5.4722188875362232E-01 
    5.4195160825595357E-01 
    5.4140606197629570E-01 
    5.4082244625574016E-01 
    5.2204128873925570E-01 
    3.5448062067964187E-01 
    6.5691309119478070E-01 
    6.6076284178243117E-01 
    6.5622103279818844E-01 
    6.4143583779107105E-01 
    6.2245132049176477E-01 
    6.0284182434228772E-01 
    5.8413451346984002E-01 
    5.6665656319714597E-01 
    5.5122727478484246E-01 
    5.3848109434046598E-01 
    5.2910513888781174E-01 
    5.2430880853564343E-01 
    5.2616371762955161E-01 
    5.3281706740699397E-01 
    5.2476690067596010E-01 
    3.7662638282332195E-01 
    6.0564685030349064E-01 
    6.1221376177593267E-01 
    6.1276703345856398E-01 
    6.0316528326516505E-01 
    5.8863595702850202E-01 
    5.7264093804262983E-01 
    5.5685832128273360E-01 
    5.4230845773849179E-01 
    5.2949426170360969E-01 
    5.1868525187233094E-01 
    5.1023440061786762E-01 
    5.0561619153071280E-01 
    5.0766036720440499E-01 
    5.1929046512657340E-01 
    5.2185884689199746E-01 
    3.9817215140969014E-01 
    5.5545752344220156E-01 
    5.6347960072475034E-01 
    5.6776125057596505E-01 
    5.6282490435932786E-01 
    5.5240587089309534E-01 
    5.3922310387383299E-01 
    5.2606000607711523E-01 
    5.1365143677732505E-01 
    5.0134635921233373E-01 
    4.9035632861905359E-01 
    4.8327850703250802E-01 
    4.8023067157559246E-01 
    4.8381584331544603E-01 
    4.9943713002235396E-01 
    5.1501322144811912E-01 
    4.1698109509219827E-01 
    4.7761376847307707E-01 
    4.9499370531711545E-01 
    5.0679795889809232E-01 
    5.0873019933713726E-01 
    5.0065754227487946E-01 
    4.8822938498375257E-01 
    4.7256272189122561E-01 
    4.5372133094790290E-01 
    4.1978237132503970E-01 
    3.7298216866331646E-01 
    3.2719760572925377E-01 
    3.3847192936938758E-01 
    3.7605222877772143E-01 
    4.4051571719493127E-01 
    4.9424086369899384E-01 
    4.3015319497377863E-01 
    1.5469317048156866E-01 
    2.3437372129651984E-01 
    2.8191684979390474E-01 
    2.9310991413855325E-01 
    2.7761907213687076E-01 
    2.2719570525298630E-01 
    1.9362759366211468E-01 
    1.2607939274617563E-01 
    6.4262333978198138E-02 
    2.7121242178239031E-02 
    6.8366655765963874E-03 
    1.4012273770478482E-02 
    6.5525419155194456E-02 
    1.9935365717939998E-01 
    4.1942911459863674E-01 
    4.3387817144936469E-01 
    1.0042608462606756E-06 
    6.0562779242211877E-04 
    1.4371089343833169E-03 
    7.1547644445043418E-04 
    1.3461096257168371E-03 
    5.9889333736897630E-05 
    1.0685548001116572E-04 
    5.6871236533913473E-06 
    6.1460366223694277E-06 
    5.4816361162875316E-06 
    1.0701010879711800E-06 
    1.7885646562359031E-06 
    1.2825148747052040E-04 
    3.0753633934145423E-02 
    2.4562776290312058E-01 
    3.8530114284398403E-01 
