# vtk DataFile Version 2.0
Pressure Field Data 
ASCII 
DATASET UNSTRUCTURED_GRID 

POINTS 289 double 

    0.0000000000000000E+00     0.0000000000000000E+00     0.0000000000000000E+00 
    1.0000000000000000E+00     0.0000000000000000E+00     0.0000000000000000E+00 
    1.0000000000000000E+00     1.0000000000000000E+00     0.0000000000000000E+00 
    0.0000000000000000E+00     1.0000000000000000E+00     0.0000000000000000E+00 
    6.2499999999872928E-02     0.0000000000000000E+00     0.0000000000000000E+00 
    1.2499999999977310E-01     0.0000000000000000E+00     0.0000000000000000E+00 
    1.8749999999959341E-01     0.0000000000000000E+00     0.0000000000000000E+00 
    2.4999999999941089E-01     0.0000000000000000E+00     0.0000000000000000E+00 
    3.1249999999922851E-01     0.0000000000000000E+00     0.0000000000000000E+00 
    3.7499999999904610E-01     0.0000000000000000E+00     0.0000000000000000E+00 
    4.3749999999886358E-01     0.0000000000000000E+00     0.0000000000000000E+00 
    4.9999999999869210E-01     0.0000000000000000E+00     0.0000000000000000E+00 
    5.6249999999884603E-01     0.0000000000000000E+00     0.0000000000000000E+00 
    6.2499999999901090E-01     0.0000000000000000E+00     0.0000000000000000E+00 
    6.8749999999917577E-01     0.0000000000000000E+00     0.0000000000000000E+00 
    7.4999999999934064E-01     0.0000000000000000E+00     0.0000000000000000E+00 
    8.1249999999950551E-01     0.0000000000000000E+00     0.0000000000000000E+00 
    8.7499999999967026E-01     0.0000000000000000E+00     0.0000000000000000E+00 
    9.3749999999983513E-01     0.0000000000000000E+00     0.0000000000000000E+00 
    1.0000000000000000E+00     6.2499999999872928E-02     0.0000000000000000E+00 
    1.0000000000000000E+00     1.2499999999977310E-01     0.0000000000000000E+00 
    1.0000000000000000E+00     1.8749999999959341E-01     0.0000000000000000E+00 
    1.0000000000000000E+00     2.4999999999941089E-01     0.0000000000000000E+00 
    1.0000000000000000E+00     3.1249999999922851E-01     0.0000000000000000E+00 
    1.0000000000000000E+00     3.7499999999904610E-01     0.0000000000000000E+00 
    1.0000000000000000E+00     4.3749999999886358E-01     0.0000000000000000E+00 
    1.0000000000000000E+00     4.9999999999869210E-01     0.0000000000000000E+00 
    1.0000000000000000E+00     5.6249999999884603E-01     0.0000000000000000E+00 
    1.0000000000000000E+00     6.2499999999901090E-01     0.0000000000000000E+00 
    1.0000000000000000E+00     6.8749999999917577E-01     0.0000000000000000E+00 
    1.0000000000000000E+00     7.4999999999934064E-01     0.0000000000000000E+00 
    1.0000000000000000E+00     8.1249999999950551E-01     0.0000000000000000E+00 
    1.0000000000000000E+00     8.7499999999967026E-01     0.0000000000000000E+00 
    1.0000000000000000E+00     9.3749999999983513E-01     0.0000000000000000E+00 
    9.3749999999973976E-01     1.0000000000000000E+00     0.0000000000000000E+00 
    8.7499999999950118E-01     1.0000000000000000E+00     0.0000000000000000E+00 
    8.1249999999991318E-01     1.0000000000000000E+00     0.0000000000000000E+00 
    7.5000000000034706E-01     1.0000000000000000E+00     0.0000000000000000E+00 
    6.8750000000078049E-01     1.0000000000000000E+00     0.0000000000000000E+00 
    6.2500000000121403E-01     1.0000000000000000E+00     0.0000000000000000E+00 
    5.6250000000164757E-01     1.0000000000000000E+00     0.0000000000000000E+00 
    5.0000000000205946E-01     1.0000000000000000E+00     0.0000000000000000E+00 
    4.3750000000182099E-01     1.0000000000000000E+00     0.0000000000000000E+00 
    3.7500000000156092E-01     1.0000000000000000E+00     0.0000000000000000E+00 
    3.1250000000130068E-01     1.0000000000000000E+00     0.0000000000000000E+00 
    2.5000000000104050E-01     1.0000000000000000E+00     0.0000000000000000E+00 
    1.8750000000078040E-01     1.0000000000000000E+00     0.0000000000000000E+00 
    1.2500000000052031E-01     1.0000000000000000E+00     0.0000000000000000E+00 
    6.2500000000260125E-02     1.0000000000000000E+00     0.0000000000000000E+00 
    0.0000000000000000E+00     9.3749999999973976E-01     0.0000000000000000E+00 
    0.0000000000000000E+00     8.7499999999950118E-01     0.0000000000000000E+00 
    0.0000000000000000E+00     8.1249999999991318E-01     0.0000000000000000E+00 
    0.0000000000000000E+00     7.5000000000034706E-01     0.0000000000000000E+00 
    0.0000000000000000E+00     6.8750000000078049E-01     0.0000000000000000E+00 
    0.0000000000000000E+00     6.2500000000121403E-01     0.0000000000000000E+00 
    0.0000000000000000E+00     5.6250000000164757E-01     0.0000000000000000E+00 
    0.0000000000000000E+00     5.0000000000205946E-01     0.0000000000000000E+00 
    0.0000000000000000E+00     4.3750000000182099E-01     0.0000000000000000E+00 
    0.0000000000000000E+00     3.7500000000156092E-01     0.0000000000000000E+00 
    0.0000000000000000E+00     3.1250000000130068E-01     0.0000000000000000E+00 
    0.0000000000000000E+00     2.5000000000104050E-01     0.0000000000000000E+00 
    0.0000000000000000E+00     1.8750000000078040E-01     0.0000000000000000E+00 
    0.0000000000000000E+00     1.2500000000052031E-01     0.0000000000000000E+00 
    0.0000000000000000E+00     6.2500000000260125E-02     0.0000000000000000E+00 
    6.2499999999897131E-02     6.2500000000235922E-02     0.0000000000000000E+00 
    6.2499999999921327E-02     1.2500000000047351E-01     0.0000000000000000E+00 
    6.2499999999945530E-02     1.8750000000070621E-01     0.0000000000000000E+00 
    6.2499999999969733E-02     2.5000000000093858E-01     0.0000000000000000E+00 
    6.2499999999993928E-02     3.1250000000117117E-01     0.0000000000000000E+00 
    6.2500000000018124E-02     3.7500000000140382E-01     0.0000000000000000E+00 
    6.2500000000042327E-02     4.3750000000163619E-01     0.0000000000000000E+00 
    6.2500000000066530E-02     5.0000000000184897E-01     0.0000000000000000E+00 
    6.2500000000090733E-02     5.6250000000147260E-01     0.0000000000000000E+00 
    6.2500000000114922E-02     6.2500000000107636E-01     0.0000000000000000E+00 
    6.2500000000139125E-02     6.8750000000068034E-01     0.0000000000000000E+00 
    6.2500000000163328E-02     7.5000000000028411E-01     0.0000000000000000E+00 
    6.2500000000187531E-02     8.1249999999988787E-01     0.0000000000000000E+00 
    6.2500000000211720E-02     8.7499999999951172E-01     0.0000000000000000E+00 
    6.2500000000235922E-02     9.3749999999974565E-01     0.0000000000000000E+00 
    1.2499999999981980E-01     6.2500000000211733E-02     0.0000000000000000E+00 
    1.2499999999986650E-01     1.2500000000042691E-01     0.0000000000000000E+00 
    1.2499999999991319E-01     1.8750000000063199E-01     0.0000000000000000E+00 
    1.2499999999995989E-01     2.5000000000083678E-01     0.0000000000000000E+00 
    1.2500000000000661E-01     3.1250000000104172E-01     0.0000000000000000E+00 
    1.2500000000005329E-01     3.7500000000124661E-01     0.0000000000000000E+00 
    1.2500000000010000E-01     4.3750000000145117E-01     0.0000000000000000E+00 
    1.2500000000014669E-01     5.0000000000163858E-01     0.0000000000000000E+00 
    1.2500000000019340E-01     5.6250000000129741E-01     0.0000000000000000E+00 
    1.2500000000024011E-01     6.2500000000093847E-01     0.0000000000000000E+00 
    1.2500000000028680E-01     6.8750000000057998E-01     0.0000000000000000E+00 
    1.2500000000033351E-01     7.5000000000022127E-01     0.0000000000000000E+00 
    1.2500000000038020E-01     8.1249999999986211E-01     0.0000000000000000E+00 
    1.2500000000042691E-01     8.7499999999952238E-01     0.0000000000000000E+00 
    1.2500000000047359E-01     9.3749999999975164E-01     0.0000000000000000E+00 
    1.8749999999966760E-01     6.2500000000187531E-02     0.0000000000000000E+00 
    1.8749999999974179E-01     1.2500000000038020E-01     0.0000000000000000E+00 
    1.8749999999981601E-01     1.8750000000055780E-01     0.0000000000000000E+00 
    1.8749999999989009E-01     2.5000000000073502E-01     0.0000000000000000E+00 
    1.8749999999996431E-01     3.1250000000091221E-01     0.0000000000000000E+00 
    1.8750000000003850E-01     3.7500000000108941E-01     0.0000000000000000E+00 
    1.8750000000011269E-01     4.3750000000126649E-01     0.0000000000000000E+00 
    1.8750000000018691E-01     5.0000000000142808E-01     0.0000000000000000E+00 
    1.8750000000026110E-01     5.6250000000112244E-01     0.0000000000000000E+00 
    1.8750000000033529E-01     6.2500000000080080E-01     0.0000000000000000E+00 
    1.8750000000040951E-01     6.8750000000047962E-01     0.0000000000000000E+00 
    1.8750000000048361E-01     7.5000000000015843E-01     0.0000000000000000E+00 
    1.8750000000055780E-01     8.1249999999983680E-01     0.0000000000000000E+00 
    1.8750000000063199E-01     8.7499999999953304E-01     0.0000000000000000E+00 
    1.8750000000070621E-01     9.3749999999975764E-01     0.0000000000000000E+00 
    2.4999999999951281E-01     6.2500000000163314E-02     0.0000000000000000E+00 
    2.4999999999961461E-01     1.2500000000033351E-01     0.0000000000000000E+00 
    2.4999999999971650E-01     1.8750000000048361E-01     0.0000000000000000E+00 
    2.4999999999981831E-01     2.5000000000063310E-01     0.0000000000000000E+00 
    2.4999999999992020E-01     3.1250000000078260E-01     0.0000000000000000E+00 
    2.5000000000002198E-01     3.7500000000093209E-01     0.0000000000000000E+00 
    2.5000000000012390E-01     4.3750000000108180E-01     0.0000000000000000E+00 
    2.5000000000022571E-01     5.0000000000121769E-01     0.0000000000000000E+00 
    2.5000000000032763E-01     5.6250000000094724E-01     0.0000000000000000E+00 
    2.5000000000042938E-01     6.2500000000066314E-01     0.0000000000000000E+00 
    2.5000000000053119E-01     6.8750000000037925E-01     0.0000000000000000E+00 
[...]
CELL_DATA 256 
SCALARS Pressure double 1 
LOOKUP_TABLE default 

    7.8500017461959493E-01 
    7.3409528504076349E-01 
    7.0063775719543253E-01 
    6.6964487315937782E-01 
    6.3774392517649892E-01 
    6.0414340616354245E-01 
    5.6867814073732847E-01 
    5.3152573320257535E-01 
    4.9307836096275198E-01 
    4.5396646221785031E-01 
    4.1518076045179791E-01 
    3.7829880049567077E-01 
    3.4568153036643429E-01 
    3.2018562014064150E-01 
    3.0271228975336112E-01 
    2.9438891366707648E-01 
    7.7104480148203802E-01 
    7.3548969030520084E-01 
    7.0318680249184862E-01 
    6.7246710492961737E-01 
    6.4080139633984678E-01 
    6.0742551246290033E-01 
    5.7216041962543074E-01 
    5.3515734882906718E-01 
    4.9677758753436652E-01 
    4.5760961891002205E-01 
    4.1858421849945304E-01 
    3.8120237153357323E-01 
    3.4777628110725489E-01 
    3.2127079256119973E-01 
    3.0292306227462812E-01 
    2.9398476635489235E-01 
    7.6032699271328474E-01 
    7.3471554788732663E-01 
    7.0495276293166642E-01 
    6.7492371337239965E-01 
    6.4362699036337101E-01 
    6.1052950377316106E-01 
    5.7548967543351714E-01 
    5.3864255138616834E-01 
    5.0031371455116536E-01 
    4.6103890501354816E-01 
    4.2167424183361807E-01 
    3.8362801213751430E-01 
    3.4915805011529394E-01 
    3.2136601266091697E-01 
    3.0200836436189099E-01 
    2.9254433460653234E-01 
    7.5186305607631543E-01 
    7.3282298672512081E-01 
    7.0597287201287795E-01 
    6.7699551881164655E-01 
    6.4622020107460920E-01 
    6.1346414179736264E-01 
    5.7867582466200884E-01 
    5.4199293409813665E-01 
    5.0370663945853555E-01 
    4.6429074466181103E-01 
    4.2450945095504899E-01 
    3.8565384316160201E-01 
    3.4990489942306124E-01 
    3.2051098687451418E-01 
    2.9988243244317175E-01 
    2.8982953391365562E-01 
    7.4500133596470886E-01 
    7.3039563055185197E-01 
    7.0637736686751595E-01 
    6.7869096564594522E-01 
    6.4858244773985108E-01 
    6.1623957902400961E-01 
    5.8173464056777047E-01 
    5.4522791222749289E-01 
    5.0698281991280714E-01 
    4.6740636839663868E-01 
    4.2715367702660095E-01 
    3.8736731632994403E-01 
    3.5010930509210314E-01 
    3.1875427391808603E-01 
    2.9645942652507218E-01 
    2.8559718113624738E-01 
    7.3936255041178145E-01 
    7.2778557491949647E-01 
    7.0632002359240842E-01 
    6.8004513959394319E-01 
    6.5072232736712610E-01 
    6.1886554016081197E-01 
    5.8468362617847658E-01 
    5.4837253454550627E-01 
    5.1017507305243226E-01 
    4.7043140097176450E-01 
    4.2967426702633038E-01 
    3.8886373975053845E-01 
    3.4988010981018541E-01 
    3.1616111930790136E-01 
    2.9166486692392762E-01 
    2.7961630195869080E-01 
    7.3470114631919448E-01 
    7.2521494255369512E-01 
    7.0595727659877028E-01 
    6.8111820511855614E-01 
    6.5266279412302086E-01 
    6.2135562262603461E-01 
    5.8753892354850490E-01 
    5.5145148946190226E-01 
    5.1331855388539516E-01 
    4.7341425311845886E-01 
    4.3214208483486727E-01 
    3.9024615713624511E-01 
    3.4934576461328770E-01 
    3.1282818218767455E-01 
    2.8544705113670837E-01 
    2.7163743861857392E-01 
    7.3084343209773139E-01 
    7.2281913167633549E-01 
    7.0542887480893857E-01 
    6.8198155715247344E-01 
    6.5443734963723565E-01 
    6.2372853978790110E-01 
    5.9031652030501902E-01 
    5.5448562390146017E-01 
    5.1644475651855093E-01 
    4.7640271599357287E-01 
    4.3463091172967333E-01 
    3.9162769493801908E-01 
    3.4865880691896595E-01 
    3.0889164442390316E-01 
    2.7778248193222727E-01 
    2.6138228422783472E-01 
    7.2766381550635195E-01 
    7.2067686770221751E-01 
    7.0484930579253979E-01 
    6.8270810522628078E-01 
    6.5608519779449015E-01 
    6.2600686855344201E-01 
    5.9303280194005903E-01 
    5.5749212458811037E-01 
    5.1957870591133848E-01 
    4.7943856456555795E-01 
    4.3721263432631885E-01 
    3.9312925714251307E-01 
    3.4800064805992054E-01 
    3.0454242647071272E-01 
    2.6868273259836439E-01 
    2.4850453246690909E-01 
    7.2507099507449135E-01 
    7.1883294864917269E-01 
    7.0430832617528505E-01 
    6.8336706668387437E-01 
    6.5764954824251687E-01 
    6.2821687261509274E-01 
    5.9570549036107534E-01 
    5.6048704390367277E-01 
    5.2274115526289133E-01 
    4.8255650454423227E-01 
    4.3995290476109733E-01 
    3.9487448079193060E-01 
    3.4758150074761640E-01 
    3.0004563895488401E-01 
    2.5821807198979346E-01 
    2.3253515583604892E-01 
    7.2299807603312893E-01 
    7.1731449887591303E-01 
    7.0387867025107731E-01 
    6.8402467290112368E-01 
    6.5917818426788344E-01 
    6.3039088074534821E-01 
    5.9835651941570256E-01 
    5.6348941776491335E-01 
    5.2595391613099607E-01 
    4.8578717657706766E-01 
    4.4290881169792812E-01 
    3.9698411485206631E-01 
    3.4763839529182100E-01 
    2.9576363050169252E-01 
    2.4657827706090216E-01 
    2.1285774796761794E-01 
    7.2139899904407356E-01 
    7.1614368991952915E-01 
    7.0362565858367654E-01 
    6.8474794259987559E-01 
    6.6072459569642528E-01 
    6.3256801555404252E-01 
    6.0101493087906055E-01 
    5.6652494123210251E-01 
    5.2924137416227113E-01 
    4.8915431509323493E-01 
    4.4611902073807513E-01 
    3.9955934243844016E-01 
    3.4842268710986279E-01 
    2.9217713345983554E-01 
    2.3415724514145805E-01 
    1.8863995122563873E-01 
    7.2024905685627882E-01 
    7.1535056064147007E-01 
    7.0361622876145358E-01 
    6.8560689918189310E-01 
    6.6234507319618108E-01 
    6.3478857508770359E-01 
    6.0370982357622360E-01 
    5.6961712994133140E-01 
    5.3261887551138098E-01 
    4.9265351244962019E-01 
    4.4956749544762359E-01 
    4.0262251750764672E-01 
    3.5011858477077473E-01 
    2.8982954309877990E-01 
    2.2162306259503237E-01 
    1.5862832048378503E-01 
    7.1945098427325072E-01 
    7.1490375354610569E-01 
    7.0387332860492646E-01 
    6.8663969359856769E-01 
    6.6406463308109065E-01 
    6.3704547809662604E-01 
    6.0638846933108514E-01 
    5.7267323854820540E-01 
    5.3597046977787222E-01 
    4.9614842724056318E-01 
    4.5306923282986572E-01 
    4.0592941145724609E-01 
    3.5260529593644335E-01 
    2.8908098473991828E-01 
    2.0991168740758029E-01 
    1.2062100921669297E-01 
    7.1888199426767108E-01 
    7.1465728332103717E-01 
    7.0427234266587235E-01 
    6.8775396791201404E-01 
    6.6581629894859062E-01 
    6.3929620306485224E-01 
    6.0902250466102958E-01 
    5.7565321748451714E-01 
    5.3926755255522951E-01 
    4.9968896318136652E-01 
    4.5677119392860321E-01 
    4.0970910157221180E-01 
    3.5623301294910031E-01 
    2.9081618571348089E-01 
    2.0100289352809184E-01 
    7.0427767650001374E-02 
    7.1869657874377857E-01 
    7.1481067474940363E-01 
    7.0501439787203724E-01 
    6.8913415640728359E-01 
    6.6777626165984350E-01 
    6.4173798645204172E-01 
    6.1184937284372787E-01 
    5.7880921008213082E-01 
    5.4274716184553207E-01 
    5.0348885873442617E-01 
    4.6087849671071146E-01 
    4.1414992958582780E-01 
    3.6114336042517037E-01 
    2.9610760635999800E-01 
    2.0108675683854832E-01 
    0.0000000000000000E+00 

SCALARS Saturarion double 1 
LOOKUP_TABLE default 

    1.0000000000000009E+00 
    9.7122468498866743E-01 
    9.2002730347357375E-01 
    8.5549858987394189E-01 
    8.0082340707091670E-01 
    7.5395608808123427E-01 
    7.1455315021892085E-01 
    6.8119702038695296E-01 
    6.5209424421645212E-01 
    6.2557068719576381E-01 
    6.0015528083278735E-01 
    5.7450511295472406E-01 
    5.4722507185669411E-01 
    5.1272033697507557E-01 
    3.8198281673134932E-01 
    1.8125494617753427E-02 
    9.8864596422973239E-01 
    9.6136493387497546E-01 
    9.0775813122258708E-01 
    8.4697825123062720E-01 
    7.9533444062023106E-01 
    7.5053839810019640E-01 
    7.1202006587413558E-01 
    6.7888183256443868E-01 
    6.4993536969536025E-01 
    6.2378890123799180E-01 
    5.9914312409592585E-01 
    5.7456861510938917E-01 
    5.4839851614174451E-01 
    5.1522508952017199E-01 
    3.9720717012738993E-01 
    3.4699933414240020E-02 
    9.7079323872427570E-01 
    9.4389410942481156E-01 
    8.9047157390196252E-01 
    8.3243630022249659E-01 
    7.8446742239664347E-01 
    7.4318394217607286E-01 
    7.0667758137147230E-01 
    6.7414265869503154E-01 
    6.4530487614195353E-01 
    6.1953459464423466E-01 
    5.9594892589129789E-01 
    5.7303051004058991E-01 
    5.4880795991096243E-01 
    5.1808538981611862E-01 
    4.1490798589402422E-01 
    6.1711168231586060E-02 
    9.3951050669310487E-01 
    9.1733049003127765E-01 
    8.6964514440714746E-01 
    8.1592921797653306E-01 
    7.6951800530318515E-01 
    7.3104110155808710E-01 
    6.9742280086516473E-01 
    6.6718010633270619E-01 
    6.3975684936532240E-01 
    6.1507403902400659E-01 
    5.9247375241528355E-01 
    5.7092878370608657E-01 
    5.4862537678005707E-01 
    5.2110157107169608E-01 
    4.3155547403412864E-01 
    1.0106788216297072E-01 
    9.0280746734982176E-01 
    8.8390828539809529E-01 
    8.4218989932667376E-01 
    7.9418266208583821E-01 
    7.5079081724069985E-01 
    7.1440031716642916E-01 
    6.8350277641586832E-01 
    6.5627431518177815E-01 
    6.3174101853628128E-01 
    6.0938351950475556E-01 
    5.8871915802697050E-01 
    5.6884780730205520E-01 
    5.4822557172645359E-01 
    5.2330919155432487E-01 
    4.4483029342155406E-01 
    1.3604704849571647E-01 
    8.6369485365859155E-01 
    8.4822549834867389E-01 
    8.1261064464443644E-01 
    7.7023893134574506E-01 
    7.3069466525707816E-01 
    6.9639971334978346E-01 
    6.6702504900641291E-01 
    6.4203886040265701E-01 
    6.2030673687400306E-01 
    6.0075484876682150E-01 
    5.8270172261944331E-01 
    5.6554094139215705E-01 
    5.4755213353258469E-01 
    5.2528661448343317E-01 
    4.5664247506077271E-01 
    1.6985213845414662E-01 
    8.2248936775689141E-01 
    8.1111822080230900E-01 
    7.8204454690076131E-01 
    7.4514174029072611E-01 
    7.0949721834171375E-01 
    6.7776035470690454E-01 
    6.5035663423117529E-01 
    6.2676222730003539E-01 
    6.0670279260950410E-01 
    5.8943444800276124E-01 
    5.7413370487227511E-01 
    5.5996143273863297E-01 
    5.4553855221187353E-01 
    5.2706433668164565E-01 
    4.6744285572248739E-01 
    2.0327630383357190E-01 
    7.7922327682770220E-01 
    7.7229551959888165E-01 
    7.5028437557301653E-01 
    7.1906613719266732E-01 
    6.8692524128355203E-01 
    6.5770097090288837E-01 
    6.3211262746089425E-01 
    6.1017245788931640E-01 
    5.9151154757516600E-01 
    5.7598303420860397E-01 
    5.6310346278956391E-01 
    5.5211685226569096E-01 
    5.4150668771382382E-01 
    5.2769611580420306E-01 
    4.7766969204039345E-01 
    2.3639235074267692E-01 
    7.3412717697826291E-01 
    7.3126681154046769E-01 
    7.1576593400848598E-01 
    6.9046752200094519E-01 
    6.6252915823825886E-01 
    6.3598706701823493E-01 
    6.1230696798905293E-01 
    5.9154336824078591E-01 
    5.7382220647142279E-01 
    5.5949220852866310E-01 
    5.4882485361251343E-01 
    5.4129280425175075E-01 
    5.3510935538831550E-01 
    5.2659083377848148E-01 
    4.8682091940916228E-01 
    2.6580770374207063E-01 
    6.8712294335658275E-01 
    6.8790013857196719E-01 
    6.7824456505316877E-01 
    6.5850578219264200E-01 
    6.3517884081232745E-01 
    6.1200888148424670E-01 
    5.9042190672928685E-01 
    5.7114999141793077E-01 
    5.5451811354967251E-01 
    5.4118809832659698E-01 
    5.3175680426606708E-01 
    5.2672531527313404E-01 
    5.2531451384201977E-01 
    5.2313357329836352E-01 
    4.9421904594253968E-01 
    2.9351475661632265E-01 
    6.3807721127432904E-01 
    6.4203260055186528E-01 
    6.3766858861268183E-01 
    6.2317389388894362E-01 
    6.0460696459900698E-01 
    5.8542434104352414E-01 
    5.6702420561487454E-01 
    5.4985556006602554E-01 
    5.3487888110503046E-01 
    5.2274592794093444E-01 
    5.1395367724201801E-01 
    5.0950107194999195E-01 
    5.1118795888609803E-01 
    5.1617661075409949E-01 
    4.9962345462424218E-01 
    3.2082053133159211E-01 
    5.8778811752826865E-01 
    5.9415644812955026E-01 
    5.9481482701736343E-01 
    5.8570391983465642E-01 
    5.7158194268686291E-01 
    5.5576603951017545E-01 
    5.4043706524240054E-01 
    5.2676955676559167E-01 
    5.1435776386813381E-01 
    5.0306041044447536E-01 
    4.9402003862883054E-01 
    4.8930512801638210E-01 
    4.9241201225939296E-01 
    5.0403598498443747E-01 
    5.0143139196983999E-01 
    3.4732345496148254E-01 
    5.3894437208996326E-01 
    5.4728268525188239E-01 
    5.5138832466063992E-01 
    5.4648160869686047E-01 
    5.3573968819299100E-01 
    5.2199423913348120E-01 
    5.0853759623309569E-01 
    4.9608166561406020E-01 
    4.8308873851022804E-01 
    4.7020695457672262E-01 
    4.5591032396097181E-01 
    4.4748419584545590E-01 
    4.5369987766344905E-01 
    4.7831113565344852E-01 
    4.9399333067813384E-01 
    3.7119663430474087E-01 
    4.3586355988615000E-01 
    4.6189273006597437E-01 
    4.7970937657643870E-01 
    4.8225414065998679E-01 
    4.7375170142558654E-01 
    4.5524194924232325E-01 
    4.2542483449306118E-01 
    3.7756075477766493E-01 
    3.0852141588502263E-01 
    2.2781892465011791E-01 
    1.9606459634987528E-01 
    1.9108458177573950E-01 
    2.5090057286051465E-01 
    3.8682952967266987E-01 
    4.6393509242767883E-01 
    3.8695001637032272E-01 
    7.4056638612318731E-02 
    1.5182875697109582E-01 
    1.8694572802156434E-01 
    2.0029458580678369E-01 
    1.8415481440887521E-01 
    1.3526422746281835E-01 
    6.5275215098708428E-02 
    1.6833382320768347E-02 
    6.1227828226145063E-03 
    6.5052894816796812E-04 
    9.3664109716847711E-05 
    3.8874036561715746E-05 
    1.2130391976164251E-02 
    1.1981083462368937E-01 
    3.6993820832414254E-01 
    3.9082523439997985E-01 
    1.0007413164896572E-06 
    7.1517649624254834E-05 
    4.4960338604669385E-05 
    4.5783008006835185E-06 
    8.0515615427864673E-05 
    1.6924013308046165E-05 
    9.5924263715369392E-06 
    2.0609606273135841E-06 
    1.0602954286438575E-06 
    1.0034776156943294E-06 
    1.0000965203740917E-06 
    1.0000747238200408E-06 
    1.1200805666380538E-05 
    6.7577153895903106E-03 
    2.1610485286426426E-01 
    3.4827167495262684E-01 
