# vtk DataFile Version 2.0
Pressure Field Data 
ASCII 
DATASET UNSTRUCTURED_GRID 

POINTS 289 double 

    0.0000000000000000E+00     0.0000000000000000E+00     0.0000000000000000E+00 
    1.0000000000000000E+00     0.0000000000000000E+00     0.0000000000000000E+00 
    1.0000000000000000E+00     1.0000000000000000E+00     0.0000000000000000E+00 
    0.0000000000000000E+00     1.0000000000000000E+00     0.0000000000000000E+00 
    6.2499999999872928E-02     0.0000000000000000E+00     0.0000000000000000E+00 
    1.2499999999977310E-01     0.0000000000000000E+00     0.0000000000000000E+00 
    1.8749999999959341E-01     0.0000000000000000E+00     0.0000000000000000E+00 
    2.4999999999941089E-01     0.0000000000000000E+00     0.0000000000000000E+00 
    3.1249999999922851E-01     0.0000000000000000E+00     0.0000000000000000E+00 
    3.7499999999904610E-01     0.0000000000000000E+00     0.0000000000000000E+00 
    4.3749999999886358E-01     0.0000000000000000E+00     0.0000000000000000E+00 
    4.9999999999869210E-01     0.0000000000000000E+00     0.0000000000000000E+00 
    5.6249999999884603E-01     0.0000000000000000E+00     0.0000000000000000E+00 
    6.2499999999901090E-01     0.0000000000000000E+00     0.0000000000000000E+00 
    6.8749999999917577E-01     0.0000000000000000E+00     0.0000000000000000E+00 
    7.4999999999934064E-01     0.0000000000000000E+00     0.0000000000000000E+00 
    8.1249999999950551E-01     0.0000000000000000E+00     0.0000000000000000E+00 
    8.7499999999967026E-01     0.0000000000000000E+00     0.0000000000000000E+00 
    9.3749999999983513E-01     0.0000000000000000E+00     0.0000000000000000E+00 
    1.0000000000000000E+00     6.2499999999872928E-02     0.0000000000000000E+00 
    1.0000000000000000E+00     1.2499999999977310E-01     0.0000000000000000E+00 
    1.0000000000000000E+00     1.8749999999959341E-01     0.0000000000000000E+00 
    1.0000000000000000E+00     2.4999999999941089E-01     0.0000000000000000E+00 
    1.0000000000000000E+00     3.1249999999922851E-01     0.0000000000000000E+00 
    1.0000000000000000E+00     3.7499999999904610E-01     0.0000000000000000E+00 
    1.0000000000000000E+00     4.3749999999886358E-01     0.0000000000000000E+00 
    1.0000000000000000E+00     4.9999999999869210E-01     0.0000000000000000E+00 
    1.0000000000000000E+00     5.6249999999884603E-01     0.0000000000000000E+00 
    1.0000000000000000E+00     6.2499999999901090E-01     0.0000000000000000E+00 
    1.0000000000000000E+00     6.8749999999917577E-01     0.0000000000000000E+00 
    1.0000000000000000E+00     7.4999999999934064E-01     0.0000000000000000E+00 
    1.0000000000000000E+00     8.1249999999950551E-01     0.0000000000000000E+00 
    1.0000000000000000E+00     8.7499999999967026E-01     0.0000000000000000E+00 
    1.0000000000000000E+00     9.3749999999983513E-01     0.0000000000000000E+00 
    9.3749999999973976E-01     1.0000000000000000E+00     0.0000000000000000E+00 
    8.7499999999950118E-01     1.0000000000000000E+00     0.0000000000000000E+00 
    8.1249999999991318E-01     1.0000000000000000E+00     0.0000000000000000E+00 
    7.5000000000034706E-01     1.0000000000000000E+00     0.0000000000000000E+00 
    6.8750000000078049E-01     1.0000000000000000E+00     0.0000000000000000E+00 
    6.2500000000121403E-01     1.0000000000000000E+00     0.0000000000000000E+00 
    5.6250000000164757E-01     1.0000000000000000E+00     0.0000000000000000E+00 
    5.0000000000205946E-01     1.0000000000000000E+00     0.0000000000000000E+00 
    4.3750000000182099E-01     1.0000000000000000E+00     0.0000000000000000E+00 
    3.7500000000156092E-01     1.0000000000000000E+00     0.0000000000000000E+00 
    3.1250000000130068E-01     1.0000000000000000E+00     0.0000000000000000E+00 
    2.5000000000104050E-01     1.0000000000000000E+00     0.0000000000000000E+00 
    1.8750000000078040E-01     1.0000000000000000E+00     0.0000000000000000E+00 
    1.2500000000052031E-01     1.0000000000000000E+00     0.0000000000000000E+00 
    6.2500000000260125E-02     1.0000000000000000E+00     0.0000000000000000E+00 
    0.0000000000000000E+00     9.3749999999973976E-01     0.0000000000000000E+00 
    0.0000000000000000E+00     8.7499999999950118E-01     0.0000000000000000E+00 
    0.0000000000000000E+00     8.1249999999991318E-01     0.0000000000000000E+00 
    0.0000000000000000E+00     7.5000000000034706E-01     0.0000000000000000E+00 
    0.0000000000000000E+00     6.8750000000078049E-01     0.0000000000000000E+00 
    0.0000000000000000E+00     6.2500000000121403E-01     0.0000000000000000E+00 
    0.0000000000000000E+00     5.6250000000164757E-01     0.0000000000000000E+00 
    0.0000000000000000E+00     5.0000000000205946E-01     0.0000000000000000E+00 
    0.0000000000000000E+00     4.3750000000182099E-01     0.0000000000000000E+00 
    0.0000000000000000E+00     3.7500000000156092E-01     0.0000000000000000E+00 
    0.0000000000000000E+00     3.1250000000130068E-01     0.0000000000000000E+00 
    0.0000000000000000E+00     2.5000000000104050E-01     0.0000000000000000E+00 
    0.0000000000000000E+00     1.8750000000078040E-01     0.0000000000000000E+00 
    0.0000000000000000E+00     1.2500000000052031E-01     0.0000000000000000E+00 
    0.0000000000000000E+00     6.2500000000260125E-02     0.0000000000000000E+00 
    6.2499999999897131E-02     6.2500000000235922E-02     0.0000000000000000E+00 
    6.2499999999921327E-02     1.2500000000047351E-01     0.0000000000000000E+00 
    6.2499999999945530E-02     1.8750000000070621E-01     0.0000000000000000E+00 
    6.2499999999969733E-02     2.5000000000093858E-01     0.0000000000000000E+00 
    6.2499999999993928E-02     3.1250000000117117E-01     0.0000000000000000E+00 
    6.2500000000018124E-02     3.7500000000140382E-01     0.0000000000000000E+00 
    6.2500000000042327E-02     4.3750000000163619E-01     0.0000000000000000E+00 
    6.2500000000066530E-02     5.0000000000184897E-01     0.0000000000000000E+00 
    6.2500000000090733E-02     5.6250000000147260E-01     0.0000000000000000E+00 
    6.2500000000114922E-02     6.2500000000107636E-01     0.0000000000000000E+00 
    6.2500000000139125E-02     6.8750000000068034E-01     0.0000000000000000E+00 
    6.2500000000163328E-02     7.5000000000028411E-01     0.0000000000000000E+00 
    6.2500000000187531E-02     8.1249999999988787E-01     0.0000000000000000E+00 
    6.2500000000211720E-02     8.7499999999951172E-01     0.0000000000000000E+00 
    6.2500000000235922E-02     9.3749999999974565E-01     0.0000000000000000E+00 
    1.2499999999981980E-01     6.2500000000211733E-02     0.0000000000000000E+00 
    1.2499999999986650E-01     1.2500000000042691E-01     0.0000000000000000E+00 
    1.2499999999991319E-01     1.8750000000063199E-01     0.0000000000000000E+00 
    1.2499999999995989E-01     2.5000000000083678E-01     0.0000000000000000E+00 
    1.2500000000000661E-01     3.1250000000104172E-01     0.0000000000000000E+00 
    1.2500000000005329E-01     3.7500000000124661E-01     0.0000000000000000E+00 
    1.2500000000010000E-01     4.3750000000145117E-01     0.0000000000000000E+00 
    1.2500000000014669E-01     5.0000000000163858E-01     0.0000000000000000E+00 
    1.2500000000019340E-01     5.6250000000129741E-01     0.0000000000000000E+00 
    1.2500000000024011E-01     6.2500000000093847E-01     0.0000000000000000E+00 
    1.2500000000028680E-01     6.8750000000057998E-01     0.0000000000000000E+00 
    1.2500000000033351E-01     7.5000000000022127E-01     0.0000000000000000E+00 
    1.2500000000038020E-01     8.1249999999986211E-01     0.0000000000000000E+00 
    1.2500000000042691E-01     8.7499999999952238E-01     0.0000000000000000E+00 
    1.2500000000047359E-01     9.3749999999975164E-01     0.0000000000000000E+00 
    1.8749999999966760E-01     6.2500000000187531E-02     0.0000000000000000E+00 
    1.8749999999974179E-01     1.2500000000038020E-01     0.0000000000000000E+00 
    1.8749999999981601E-01     1.8750000000055780E-01     0.0000000000000000E+00 
    1.8749999999989009E-01     2.5000000000073502E-01     0.0000000000000000E+00 
    1.8749999999996431E-01     3.1250000000091221E-01     0.0000000000000000E+00 
    1.8750000000003850E-01     3.7500000000108941E-01     0.0000000000000000E+00 
    1.8750000000011269E-01     4.3750000000126649E-01     0.0000000000000000E+00 
    1.8750000000018691E-01     5.0000000000142808E-01     0.0000000000000000E+00 
    1.8750000000026110E-01     5.6250000000112244E-01     0.0000000000000000E+00 
    1.8750000000033529E-01     6.2500000000080080E-01     0.0000000000000000E+00 
    1.8750000000040951E-01     6.8750000000047962E-01     0.0000000000000000E+00 
    1.8750000000048361E-01     7.5000000000015843E-01     0.0000000000000000E+00 
    1.8750000000055780E-01     8.1249999999983680E-01     0.0000000000000000E+00 
    1.8750000000063199E-01     8.7499999999953304E-01     0.0000000000000000E+00 
    1.8750000000070621E-01     9.3749999999975764E-01     0.0000000000000000E+00 
    2.4999999999951281E-01     6.2500000000163314E-02     0.0000000000000000E+00 
    2.4999999999961461E-01     1.2500000000033351E-01     0.0000000000000000E+00 
    2.4999999999971650E-01     1.8750000000048361E-01     0.0000000000000000E+00 
    2.4999999999981831E-01     2.5000000000063310E-01     0.0000000000000000E+00 
    2.4999999999992020E-01     3.1250000000078260E-01     0.0000000000000000E+00 
    2.5000000000002198E-01     3.7500000000093209E-01     0.0000000000000000E+00 
    2.5000000000012390E-01     4.3750000000108180E-01     0.0000000000000000E+00 
    2.5000000000022571E-01     5.0000000000121769E-01     0.0000000000000000E+00 
    2.5000000000032763E-01     5.6250000000094724E-01     0.0000000000000000E+00 
    2.5000000000042938E-01     6.2500000000066314E-01     0.0000000000000000E+00 
    2.5000000000053119E-01     6.8750000000037925E-01     0.0000000000000000E+00 
[...]
CELL_DATA 256 
SCALARS Pressure double 1 
LOOKUP_TABLE default 

    7.5934169207960678E-01 
    7.0869516002917288E-01 
    6.7564119750167884E-01 
    6.4518463494440215E-01 
    6.1394022215879240E-01 
    5.8110423149455415E-01 
    5.4649642572534585E-01 
    5.1027514852303413E-01 
    4.7281082493901094E-01 
    4.3471000469642868E-01 
    3.9693537290584940E-01 
    3.6101723210417602E-01 
    3.2922590446054911E-01 
    3.0438527598072268E-01 
    2.8793548294599136E-01 
    2.7999494261928043E-01 
    7.4538043606896809E-01 
    7.1006219279489513E-01 
    6.7815071678549532E-01 
    6.4795715076680105E-01 
    6.1693695966679485E-01 
    5.8431383895764444E-01 
    5.4989598544892204E-01 
    5.1381718502182494E-01 
    4.7641769053377736E-01 
    4.3826235693289695E-01 
    4.0025503520919731E-01 
    3.6385247256836878E-01 
    3.3127666349582030E-01 
    3.0543902864982375E-01 
    2.8810304154092475E-01 
    2.7956870267471667E-01 
    7.3466205218861436E-01 
    7.0926980981702226E-01 
    6.7988597490374136E-01 
    6.5037328812697759E-01 
    6.1971159952216837E-01 
    5.8735447426796727E-01 
    5.5315025788713645E-01 
    5.1721955825855737E-01 
    4.7986843199276030E-01 
    4.4160955231100502E-01 
    4.0327360493127290E-01 
    3.6622814506600182E-01 
    3.3264297736666548E-01 
    3.0554660187743721E-01 
    2.8717081075075301E-01 
    2.7809790815676322E-01 
    7.2621129260735207E-01 
    7.0737048077499187E-01 
    6.8088525494652152E-01 
    6.5241292797279715E-01 
    6.2226200066074422E-01 
    5.9023419193031657E-01 
    5.5626945200476596E-01 
    5.2049428056351410E-01 
    4.8318255606838839E-01 
    4.4478627401704141E-01 
    4.0604680883114214E-01 
    3.6821922709710964E-01 
    3.3339997046803321E-01 
    3.0474358196265333E-01 
    2.8506402065310543E-01 
    2.7537652553222541E-01 
    7.1937831108568440E-01 
    7.0495006049755560E-01 
    6.8127980622869444E-01 
    6.5408459162838739E-01 
    6.2458827682804841E-01 
    5.9296142335730673E-01 
    5.5926810958098050E-01 
    5.2366002926329258E-01 
    4.8638572877843156E-01 
    4.4783207535842240E-01 
    4.0863545285101971E-01 
    3.6990937076535774E-01 
    3.3363651585336379E-01 
    3.0307695449854943E-01 
    2.8171504742633124E-01 
    2.7121160458149707E-01 
    7.1377809988366603E-01 
    7.0235855116468793E-01 
    6.8122268963654031E-01 
    6.5542289061569503E-01 
    6.2669792839595184E-01 
    5.9554391720831701E-01 
    5.6216131249556933E-01 
    5.2673973606059898E-01 
    4.8950938931283106E-01 
    4.5079127996917734E-01 
    4.1110445660284067E-01 
    3.7138990415361256E-01 
    3.3345693111006408E-01 
    3.0061102592836542E-01 
    2.7706425611160845E-01 
    2.6540503491060030E-01 
    7.0916058077545474E-01 
    6.9981460877815016E-01 
    6.8086802318004180E-01 
    6.5648652569093913E-01 
    6.2861307684712575E-01 
    5.9799400484737908E-01 
    5.6496293399342323E-01 
    5.2975537187260135E-01 
    4.9258664579889250E-01 
    4.5371094338663004E-01 
    4.1352263971735309E-01 
    3.7276011084803812E-01 
    3.3298411657081395E-01 
    2.9743849241711329E-01 
    2.7106479688246421E-01 
    2.5772749861109606E-01 
    7.0534892380056058E-01 
    6.9745037175746638E-01 
    6.8035306154532416E-01 
    6.5734549286126098E-01 
    6.3036665229548527E-01 
    6.0032973310798976E-01 
    5.6768736866244585E-01 
    5.3272531296251491E-01 
    4.9564659588527160E-01 
    4.5663678360022619E-01 
    4.1596110001484721E-01 
    3.7412893279378207E-01 
    3.3236486146065969E-01 
    2.9369155470378761E-01 
    2.6369673013151640E-01 
    2.4791706882796696E-01 
    7.0221513986924422E-01 
    6.9534189663412738E-01 
    6.7979017614447046E-01 
    6.5807136877965766E-01 
    6.3199713144935021E-01 
    6.0257318342406885E-01 
    5.7035007310193242E-01 
    5.3566497163503368E-01 
    4.9871211934987186E-01 
    4.5960792737167933E-01 
    4.1848781744294639E-01 
    3.7561200653603122E-01 
    3.3177359442327303E-01 
    2.8955293377722752E-01 
    2.5496818832275292E-01 
    2.3563885062189202E-01 
    6.9966619953206011E-01 
    6.9353186599160133E-01 
    6.7926720180143441E-01 
    6.5873180478497140E-01 
    6.3354661071540019E-01 
    6.0475008048923162E-01 
    5.7296811874182074E-01 
    5.3858886483391055E-01 
    5.0180203209559893E-01 
    4.6265615993562142E-01 
    4.2116317255489005E-01 
    3.7732609681453128E-01 
    3.3141205869074358E-01 
    2.8527453587304086E-01 
    2.4494005559274859E-01 
    2.2043946136060052E-01 
    6.9763340542225483E-01 
    6.9204511872417152E-01 
    6.7885446202373978E-01 
    6.5939076239867700E-01 
    6.3506119261222449E-01 
    6.0689195744807733E-01 
    5.7556237141730537E-01 
    5.4151354054378176E-01 
    5.0493599881487017E-01 
    4.6581013575007074E-01 
    4.2403940314433008E-01 
    3.7938414308777374E-01 
    3.3150809984559848E-01 
    2.8120102972368599E-01 
    2.3378554219548300E-01 
    2.0172751836386962E-01 
    6.9606691085362338E-01 
    6.9089955408476456E-01 
    6.7861302055975092E-01 
    6.6011160795175472E-01 
    6.3659216626922388E-01 
    6.0903710063289629E-01 
    5.7815987441202910E-01 
    5.4446060664069384E-01 
    5.0813751121388162E-01 
    4.6909643964799025E-01 
    4.2715551407605523E-01 
    3.8188205995616559E-01 
    3.3230561797111824E-01 
    2.7778346353419192E-01 
    2.2185285743885766E-01 
    1.7869437239229788E-01 
    6.9493999850346488E-01 
    6.9012107291820013E-01 
    6.7860550513211071E-01 
    6.6096135320330363E-01 
    6.3819532240347332E-01 
    6.1122782154370148E-01 
    5.8079042190440144E-01 
    5.4745055296642031E-01 
    5.1142560442372553E-01 
    4.7253031016063496E-01 
    4.3052134586455049E-01 
    3.8486669317349126E-01 
    3.3401885561850286E-01 
    2.7559393838404350E-01 
    2.0983231521292087E-01 
    1.5016663144575548E-01 
    6.9418141184445536E-01 
    6.8969719638269344E-01 
    6.7886677226659442E-01 
    6.6198751412808088E-01 
    6.3990904892524536E-01 
    6.1348455986379213E-01 
    5.8344490730625231E-01 
    5.5042756200373866E-01 
    5.1469459035807563E-01 
    4.7598577956716148E-01 
    4.3399104837705843E-01 
    3.8817381719090005E-01 
    3.3660742531055465E-01 
    2.7505898903929199E-01 
    1.9874369891841015E-01 
    1.1415730176859357E-01 
    6.9363550264297125E-01 
    6.8947112111026709E-01 
    6.7927518993687064E-01 
    6.6310235896467562E-01 
    6.4166297978006459E-01 
    6.1575036472878864E-01 
    5.8608395423885351E-01 
    5.5335351547111011E-01 
    5.1788799200934066E-01 
    4.7943509913990173E-01 
    4.3763764555861528E-01 
    3.9193152271664317E-01 
    3.4021033244568344E-01 
    2.7675871921927314E-01 
    1.9036360966589458E-01 
    6.6840680962831675E-02 
    6.9344919850090880E-01 
    6.8961809764030946E-01 
    6.8000382643319723E-01 
    6.6445986802437829E-01 
    6.4359205632685190E-01 
    6.1815931368622401E-01 
    5.8887632042620275E-01 
    5.5644774836703703E-01 
    5.2125678512790619E-01 
    4.8310604911064103E-01 
    4.4163590269741532E-01 
    3.9626793746356886E-01 
    3.4498811789642997E-01 
    2.8178234306082522E-01 
    1.9018628190268638E-01 
    0.0000000000000000E+00 

SCALARS Saturarion double 1 
LOOKUP_TABLE default 

    1.0000000000000009E+00 
    9.7262628448276045E-01 
    9.2356050783867016E-01 
    8.6097472989395496E-01 
    8.0805881584065675E-01 
    7.6233892313136853E-01 
    7.2357042134242044E-01 
    6.9058007313625747E-01 
    6.6178206043815457E-01 
    6.3563650504712033E-01 
    6.1070439046074143E-01 
    5.8555177601636033E-01 
    5.5846306882729668E-01 
    5.2644826500257225E-01 
    4.3087491328933514E-01 
    5.8619607967960043E-02 
    9.8932382239413019E-01 
    9.6337464468533851E-01 
    9.1199738173009348E-01 
    8.5282395329857164E-01 
    8.0256812437011760E-01 
    7.5884967419186844E-01 
    7.2105193174989568E-01 
    6.8837439618419949E-01 
    6.5976361077015211E-01 
    6.3394918562680769E-01 
    6.0971200001724013E-01 
    5.8560382787855680E-01 
    5.5966478266768160E-01 
    5.2873319119086193E-01 
    4.3879531735443711E-01 
    8.6536588830129754E-02 
    9.7252297711176905E-01 
    9.4683231702349169E-01 
    8.9553437749972087E-01 
    8.3880222494649292E-01 
    7.9175354332659675E-01 
    7.5140033583335997E-01 
    7.1574195604969537E-01 
    6.8385481812765048E-01 
    6.5543350656374566E-01 
    6.2991522579054260E-01 
    6.0655333054050431E-01 
    5.8397173602713037E-01 
    5.6004846023686072E-01 
    5.3129763595566293E-01 
    4.5134952424199432E-01 
    1.2287568111984491E-01 
    9.4311391926426591E-01 
    9.2178102905751613E-01 
    8.7567115011266794E-01 
    8.2321172977478563E-01 
    7.7743644858908001E-01 
    7.3945308069383231E-01 
    7.0644717702721560E-01 
    6.7682075783777340E-01 
    6.4986883856755018E-01 
    6.2547999158193068E-01 
    6.0307987526912299E-01 
    5.8178661395436748E-01 
    5.5978107511951469E-01 
    5.3369329520445075E-01 
    4.6261599702169148E-01 
    1.6462424651324792E-01 
    9.0816400079344839E-01 
    8.8986239640837228E-01 
    8.4935866466526733E-01 
    8.0235419748651227E-01 
    7.5936883410979494E-01 
    7.2316510932033440E-01 
    6.9252500321361610E-01 
    6.6565013807879769E-01 
    6.4149292676176684E-01 
    6.1948165626765073E-01 
    5.9912570033752510E-01 
    5.7957193107774574E-01 
    5.5927926663441607E-01 
    5.3554565881113647E-01 
    4.7301380735006848E-01 
    1.9690813602991453E-01 
    8.7052155882609572E-01 
    8.5548905542485099E-01 
    8.2072857380396202E-01 
    7.7900592886566533E-01 
    7.3974904256755902E-01 
    7.0556835610181057E-01 
    6.7623738020488167E-01 
    6.5129413267582781E-01 
    6.2971278125999564E-01 
    6.1046529346747713E-01 
    5.9281254465793631E-01 
    5.7607559419550014E-01 
    5.5846326163912940E-01 
    5.3699655698055193E-01 
    4.8199765270827694E-01 
    2.2547361014737391E-01 
    8.3061778929919572E-01 
    8.1947837497886455E-01 
    7.9090219522064376E-01 
    7.5441108953463665E-01 
    7.1899506435244642E-01 
    6.8733258890285576E-01 
    6.5985590410082129E-01 
    6.3612296873129304E-01 
    6.1599328794434804E-01 
    5.9885223737299897E-01 
    5.8391200185981651E-01 
    5.7024760508845762E-01 
    5.5630854675978059E-01 
    5.3832041769108563E-01 
    4.9055954942591412E-01 
    2.5342298611311120E-01 
    7.8841511157760213E-01 
    7.8155813404525865E-01 
    7.5977639164686139E-01 
    7.2881789791787255E-01 
    6.9684362219996399E-01 
    6.6762595422296356E-01 
    6.4190489034837572E-01 
    6.1976916205459387E-01 
    6.0092240987275169E-01 
    5.8529740548726694E-01 
    5.7254869002507980E-01 
    5.6201815870038285E-01 
    5.5203767222351374E-01 
    5.3878355375378484E-01 
    4.9880085438289445E-01 
    2.8126537439127863E-01 
    7.4417284906814452E-01 
    7.4128947563596115E-01 
    7.2585429802242185E-01 
    7.0067083504867411E-01 
    6.7277983827786958E-01 
    6.4616172772499691E-01 
    6.2234896920165272E-01 
    6.0144990013444311E-01 
    5.8353612458522641E-01 
    5.6892127847386420E-01 
    5.5804497641881856E-01 
    5.5071072884084760E-01 
    5.4522359151483935E-01 
    5.3743100674429078E-01 
    5.0599427903649075E-01 
    3.0667354315251433E-01 
    6.9782705639806208E-01 
    6.9853374453492800E-01 
    6.8884070812978682E-01 
    6.6907892509589073E-01 
    6.4564889832171068E-01 
    6.2229565304054046E-01 
    6.0056141049209255E-01 
    5.8120409843150800E-01 
    5.6438178931685068E-01 
    5.5060332762770947E-01 
    5.4070539676467588E-01 
    5.3560070927149395E-01 
    5.3479138986947083E-01 
    5.3358234138947858E-01 
    5.1160994507798407E-01 
    3.3092594484598631E-01 
    6.4912308447942391E-01 
    6.5302029367975278E-01 
    6.4855073464965673E-01 
    6.3387274389410697E-01 
    6.1504603856507789E-01 
    5.9560594939370859E-01 
    5.7700977602124426E-01 
    5.5961584881422988E-01 
    5.4434622538077893E-01 
    5.3185354345385205E-01 
    5.2275248598758806E-01 
    5.1815781100128600E-01 
    5.1998442322200544E-01 
    5.2600457589048177E-01 
    5.1515299239470702E-01 
    3.5501227424071480E-01 
    5.9814231987391375E-01 
    6.0463842414988012E-01 
    6.0524395998282166E-01 
    5.9585647002712649E-01 
    5.8154079376944556E-01 
    5.6563982227355536E-01 
    5.4996662763496174E-01 
    5.3570078012119060E-01 
    5.2316251523319568E-01 
    5.1233205367392243E-01 
    5.0371515983861759E-01 
    4.9909452918557001E-01 
    5.0144770396118743E-01 
    5.1301204327477778E-01 
    5.1344605735195925E-01 
    3.7874127838308003E-01 
    5.4873622958622037E-01 
    5.5679299285283335E-01 
    5.6101085006658724E-01 
    5.5609098741220897E-01 
    5.4561663543898398E-01 
    5.3224897366962498E-01 
    5.1897898072025728E-01 
    5.0649795847665713E-01 
    4.9380133064694093E-01 
    4.8285334819201847E-01 
    4.7459768682447179E-01 
    4.6979937319140808E-01 
    4.7399056498706676E-01 
    4.9177217461507572E-01 
    5.0764517232400375E-01 
    3.9964354381690459E-01 
    4.6218781972587575E-01 
    4.8224709940052268E-01 
    4.9624672590696040E-01 
    4.9857541293252261E-01 
    4.9051063688608426E-01 
    4.7670192947723672E-01 
    4.5794807888008732E-01 
    4.3066644364491347E-01 
    3.8263671608675237E-01 
    3.0863343480329525E-01 
    2.7125827965647820E-01 
    2.9104895611332504E-01 
    3.3993888715176773E-01 
    4.1954295590804935E-01 
    4.8174228738635300E-01 
    4.1359057509174291E-01 
    1.2023593404463208E-01 
    1.9850470616406138E-01 
    2.4107037799868761E-01 
    2.5322897805767047E-01 
    2.4027520432792554E-01 
    1.9338671929119963E-01 
    1.4441434270764678E-01 
    6.8722243308389733E-02 
    2.8575283940472696E-02 
    7.5956242524435795E-03 
    1.2265183761155181E-03 
    2.2221653183944982E-03 
    3.6381675296747622E-02 
    1.6906623984233113E-01 
    4.0009090870211378E-01 
    4.1721341979212834E-01 
    1.0013519885970354E-06 
    1.9931768292282405E-04 
    3.7151609838947041E-04 
    1.0626230466200436E-04 
    4.5745048960784079E-04 
    2.8821342615246535E-05 
    2.3436790997367934E-05 
    5.2307916554920582E-06 
    3.1346943398360674E-06 
    1.5513028378291431E-06 
    1.0036075763625661E-06 
    1.0160103780692062E-06 
    7.5386272796825913E-05 
    1.6597445380042139E-02 
    2.3362536457473193E-01 
    3.7085303159417338E-01 
