# vtk DataFile Version 2.0
Pressure Field Data 
ASCII 
DATASET UNSTRUCTURED_GRID 

POINTS 289 double 

    0.0000000000000000E+00     0.0000000000000000E+00     0.0000000000000000E+00 
    1.0000000000000000E+00     0.0000000000000000E+00     0.0000000000000000E+00 
    1.0000000000000000E+00     1.0000000000000000E+00     0.0000000000000000E+00 
    0.0000000000000000E+00     1.0000000000000000E+00     0.0000000000000000E+00 
    6.2499999999872928E-02     0.0000000000000000E+00     0.0000000000000000E+00 
    1.2499999999977310E-01     0.0000000000000000E+00     0.0000000000000000E+00 
    1.8749999999959341E-01     0.0000000000000000E+00     0.0000000000000000E+00 
    2.4999999999941089E-01     0.0000000000000000E+00     0.0000000000000000E+00 
    3.1249999999922851E-01     0.0000000000000000E+00     0.0000000000000000E+00 
    3.7499999999904610E-01     0.0000000000000000E+00     0.0000000000000000E+00 
    4.3749999999886358E-01     0.0000000000000000E+00     0.0000000000000000E+00 
    4.9999999999869210E-01     0.0000000000000000E+00     0.0000000000000000E+00 
    5.6249999999884603E-01     0.0000000000000000E+00     0.0000000000000000E+00 
    6.2499999999901090E-01     0.0000000000000000E+00     0.0000000000000000E+00 
    6.8749999999917577E-01     0.0000000000000000E+00     0.0000000000000000E+00 
    7.4999999999934064E-01     0.0000000000000000E+00     0.0000000000000000E+00 
    8.1249999999950551E-01     0.0000000000000000E+00     0.0000000000000000E+00 
    8.7499999999967026E-01     0.0000000000000000E+00     0.0000000000000000E+00 
    9.3749999999983513E-01     0.0000000000000000E+00     0.0000000000000000E+00 
    1.0000000000000000E+00     6.2499999999872928E-02     0.0000000000000000E+00 
    1.0000000000000000E+00     1.2499999999977310E-01     0.0000000000000000E+00 
    1.0000000000000000E+00     1.8749999999959341E-01     0.0000000000000000E+00 
    1.0000000000000000E+00     2.4999999999941089E-01     0.0000000000000000E+00 
    1.0000000000000000E+00     3.1249999999922851E-01     0.0000000000000000E+00 
    1.0000000000000000E+00     3.7499999999904610E-01     0.0000000000000000E+00 
    1.0000000000000000E+00     4.3749999999886358E-01     0.0000000000000000E+00 
    1.0000000000000000E+00     4.9999999999869210E-01     0.0000000000000000E+00 
    1.0000000000000000E+00     5.6249999999884603E-01     0.0000000000000000E+00 
    1.0000000000000000E+00     6.2499999999901090E-01     0.0000000000000000E+00 
    1.0000000000000000E+00     6.8749999999917577E-01     0.0000000000000000E+00 
    1.0000000000000000E+00     7.4999999999934064E-01     0.0000000000000000E+00 
    1.0000000000000000E+00     8.1249999999950551E-01     0.0000000000000000E+00 
    1.0000000000000000E+00     8.7499999999967026E-01     0.0000000000000000E+00 
    1.0000000000000000E+00     9.3749999999983513E-01     0.0000000000000000E+00 
    9.3749999999973976E-01     1.0000000000000000E+00     0.0000000000000000E+00 
    8.7499999999950118E-01     1.0000000000000000E+00     0.0000000000000000E+00 
    8.1249999999991318E-01     1.0000000000000000E+00     0.0000000000000000E+00 
    7.5000000000034706E-01     1.0000000000000000E+00     0.0000000000000000E+00 
    6.8750000000078049E-01     1.0000000000000000E+00     0.0000000000000000E+00 
    6.2500000000121403E-01     1.0000000000000000E+00     0.0000000000000000E+00 
    5.6250000000164757E-01     1.0000000000000000E+00     0.0000000000000000E+00 
    5.0000000000205946E-01     1.0000000000000000E+00     0.0000000000000000E+00 
    4.3750000000182099E-01     1.0000000000000000E+00     0.0000000000000000E+00 
    3.7500000000156092E-01     1.0000000000000000E+00     0.0000000000000000E+00 
    3.1250000000130068E-01     1.0000000000000000E+00     0.0000000000000000E+00 
    2.5000000000104050E-01     1.0000000000000000E+00     0.0000000000000000E+00 
    1.8750000000078040E-01     1.0000000000000000E+00     0.0000000000000000E+00 
    1.2500000000052031E-01     1.0000000000000000E+00     0.0000000000000000E+00 
    6.2500000000260125E-02     1.0000000000000000E+00     0.0000000000000000E+00 
    0.0000000000000000E+00     9.3749999999973976E-01     0.0000000000000000E+00 
    0.0000000000000000E+00     8.7499999999950118E-01     0.0000000000000000E+00 
    0.0000000000000000E+00     8.1249999999991318E-01     0.0000000000000000E+00 
    0.0000000000000000E+00     7.5000000000034706E-01     0.0000000000000000E+00 
    0.0000000000000000E+00     6.8750000000078049E-01     0.0000000000000000E+00 
    0.0000000000000000E+00     6.2500000000121403E-01     0.0000000000000000E+00 
    0.0000000000000000E+00     5.6250000000164757E-01     0.0000000000000000E+00 
    0.0000000000000000E+00     5.0000000000205946E-01     0.0000000000000000E+00 
    0.0000000000000000E+00     4.3750000000182099E-01     0.0000000000000000E+00 
    0.0000000000000000E+00     3.7500000000156092E-01     0.0000000000000000E+00 
    0.0000000000000000E+00     3.1250000000130068E-01     0.0000000000000000E+00 
    0.0000000000000000E+00     2.5000000000104050E-01     0.0000000000000000E+00 
    0.0000000000000000E+00     1.8750000000078040E-01     0.0000000000000000E+00 
    0.0000000000000000E+00     1.2500000000052031E-01     0.0000000000000000E+00 
    0.0000000000000000E+00     6.2500000000260125E-02     0.0000000000000000E+00 
    6.2499999999897131E-02     6.2500000000235922E-02     0.0000000000000000E+00 
    6.2499999999921327E-02     1.2500000000047351E-01     0.0000000000000000E+00 
    6.2499999999945530E-02     1.8750000000070621E-01     0.0000000000000000E+00 
    6.2499999999969733E-02     2.5000000000093858E-01     0.0000000000000000E+00 
    6.2499999999993928E-02     3.1250000000117117E-01     0.0000000000000000E+00 
    6.2500000000018124E-02     3.7500000000140382E-01     0.0000000000000000E+00 
    6.2500000000042327E-02     4.3750000000163619E-01     0.0000000000000000E+00 
    6.2500000000066530E-02     5.0000000000184897E-01     0.0000000000000000E+00 
    6.2500000000090733E-02     5.6250000000147260E-01     0.0000000000000000E+00 
    6.2500000000114922E-02     6.2500000000107636E-01     0.0000000000000000E+00 
    6.2500000000139125E-02     6.8750000000068034E-01     0.0000000000000000E+00 
    6.2500000000163328E-02     7.5000000000028411E-01     0.0000000000000000E+00 
    6.2500000000187531E-02     8.1249999999988787E-01     0.0000000000000000E+00 
    6.2500000000211720E-02     8.7499999999951172E-01     0.0000000000000000E+00 
    6.2500000000235922E-02     9.3749999999974565E-01     0.0000000000000000E+00 
    1.2499999999981980E-01     6.2500000000211733E-02     0.0000000000000000E+00 
    1.2499999999986650E-01     1.2500000000042691E-01     0.0000000000000000E+00 
    1.2499999999991319E-01     1.8750000000063199E-01     0.0000000000000000E+00 
    1.2499999999995989E-01     2.5000000000083678E-01     0.0000000000000000E+00 
    1.2500000000000661E-01     3.1250000000104172E-01     0.0000000000000000E+00 
    1.2500000000005329E-01     3.7500000000124661E-01     0.0000000000000000E+00 
    1.2500000000010000E-01     4.3750000000145117E-01     0.0000000000000000E+00 
    1.2500000000014669E-01     5.0000000000163858E-01     0.0000000000000000E+00 
    1.2500000000019340E-01     5.6250000000129741E-01     0.0000000000000000E+00 
    1.2500000000024011E-01     6.2500000000093847E-01     0.0000000000000000E+00 
    1.2500000000028680E-01     6.8750000000057998E-01     0.0000000000000000E+00 
    1.2500000000033351E-01     7.5000000000022127E-01     0.0000000000000000E+00 
    1.2500000000038020E-01     8.1249999999986211E-01     0.0000000000000000E+00 
    1.2500000000042691E-01     8.7499999999952238E-01     0.0000000000000000E+00 
    1.2500000000047359E-01     9.3749999999975164E-01     0.0000000000000000E+00 
    1.8749999999966760E-01     6.2500000000187531E-02     0.0000000000000000E+00 
    1.8749999999974179E-01     1.2500000000038020E-01     0.0000000000000000E+00 
    1.8749999999981601E-01     1.8750000000055780E-01     0.0000000000000000E+00 
    1.8749999999989009E-01     2.5000000000073502E-01     0.0000000000000000E+00 
    1.8749999999996431E-01     3.1250000000091221E-01     0.0000000000000000E+00 
    1.8750000000003850E-01     3.7500000000108941E-01     0.0000000000000000E+00 
    1.8750000000011269E-01     4.3750000000126649E-01     0.0000000000000000E+00 
    1.8750000000018691E-01     5.0000000000142808E-01     0.0000000000000000E+00 
    1.8750000000026110E-01     5.6250000000112244E-01     0.0000000000000000E+00 
    1.8750000000033529E-01     6.2500000000080080E-01     0.0000000000000000E+00 
    1.8750000000040951E-01     6.8750000000047962E-01     0.0000000000000000E+00 
    1.8750000000048361E-01     7.5000000000015843E-01     0.0000000000000000E+00 
    1.8750000000055780E-01     8.1249999999983680E-01     0.0000000000000000E+00 
    1.8750000000063199E-01     8.7499999999953304E-01     0.0000000000000000E+00 
    1.8750000000070621E-01     9.3749999999975764E-01     0.0000000000000000E+00 
    2.4999999999951281E-01     6.2500000000163314E-02     0.0000000000000000E+00 
    2.4999999999961461E-01     1.2500000000033351E-01     0.0000000000000000E+00 
    2.4999999999971650E-01     1.8750000000048361E-01     0.0000000000000000E+00 
    2.4999999999981831E-01     2.5000000000063310E-01     0.0000000000000000E+00 
    2.4999999999992020E-01     3.1250000000078260E-01     0.0000000000000000E+00 
    2.5000000000002198E-01     3.7500000000093209E-01     0.0000000000000000E+00 
    2.5000000000012390E-01     4.3750000000108180E-01     0.0000000000000000E+00 
    2.5000000000022571E-01     5.0000000000121769E-01     0.0000000000000000E+00 
    2.5000000000032763E-01     5.6250000000094724E-01     0.0000000000000000E+00 
    2.5000000000042938E-01     6.2500000000066314E-01     0.0000000000000000E+00 
    2.5000000000053119E-01     6.8750000000037925E-01     0.0000000000000000E+00 
[...]
CELL_DATA 256 
SCALARS Pressure double 1 
LOOKUP_TABLE default 

    6.4967423447072603E-01 
    6.0027960120334023E-01 
    5.6920481555921520E-01 
    5.4138750555351567E-01 
    5.1336533886002589E-01 
    4.8425733473786797E-01 
    4.5380870247483612E-01 
    4.2209385206851324E-01 
    3.8939391992221528E-01 
    3.5620681009364069E-01 
    3.2334321597489230E-01 
    2.9209909499214515E-01 
    2.6438169731681832E-01 
    2.4253618969063506E-01 
    2.2858419191479840E-01 
    2.2192492241067657E-01 
    6.3567716524989160E-01 
    6.0150812166020529E-01 
    5.7151335387479130E-01 
    5.4390680056400631E-01 
    5.1605893621985521E-01 
    4.8711429370267167E-01 
    4.5681108394437930E-01 
    4.2520509441753218E-01 
    3.9255222204689699E-01 
    3.5931433731346762E-01 
    3.2625091781264237E-01 
    2.9459475402214885E-01 
    2.6621234219624090E-01 
    2.4350052167265071E-01 
    2.2871505217551591E-01 
    2.2153891116710189E-01 
    6.2493994709549572E-01 
    6.0061508486084081E-01 
    5.7308511991580824E-01 
    5.4610803023579158E-01 
    5.1857133558603674E-01 
    4.8984370881890976E-01 
    4.5970696674397227E-01 
    4.2821225394963719E-01 
    3.9558976587486994E-01 
    3.6225814321985078E-01 
    3.2891412509390860E-01 
    2.9671386150943130E-01 
    2.6748003399944864E-01 
    2.4369570566246582E-01 
    2.2793957033334533E-01 
    2.2029502809892121E-01 
    6.1652386754872324E-01 
    5.9866222954951231E-01 
    5.7396320318272842E-01 
    5.4796839651547080E-01 
    5.2089309216032953E-01 
    4.9244789473253914E-01 
    4.6250506725437185E-01 
    4.3112842205162671E-01 
    3.9852610465070915E-01 
    3.6506867813520955E-01 
    3.3137854404517342E-01 
    2.9851715715993443E-01 
    2.6824680910698412E-01 
    2.4315124407738078E-01 
    2.2621617241092823E-01 
    2.1806604148316139E-01 
    6.0979222081307272E-01 
    5.9624564558546067E-01 
    5.7428262990467394E-01 
    5.4949754434733833E-01 
    5.2302044614967991E-01 
    4.9492802111387513E-01 
    4.6521341557122936E-01 
    4.3396805719709058E-01 
    4.0138343130283166E-01 
    3.6777977790299737E-01 
    3.3369416685479852E-01 
    3.0007176899582494E-01 
    2.6858399260233451E-01 
    2.4190401394244657E-01 
    2.2349838529005794E-01 
    2.1471539609588738E-01 
    6.0433869221956904E-01 
    5.9370894429790055E-01 
    5.7419475605837866E-01 
    5.5072920235510581E-01 
    5.2495800199349707E-01 
    4.9728530879527627E-01 
    4.6783808885733008E-01 
    4.3674477608696394E-01 
    4.0418479570318022E-01 
    3.7042770050251184E-01 
    3.3591537287165796E-01 
    3.0145243124624593E-01 
    2.6857498649188616E-01 
    2.4000386748650360E-01 
    2.1973687506841469E-01 
    2.1008145283727805E-01 
    5.9989241063163423E-01 
    5.9125662360743469E-01 
    5.7384503587412339E-01 
    5.5171566182459708E-01 
    5.2672347728228930E-01 
    4.9952769820644460E-01 
    4.7038624939219997E-01 
    4.3947093417784650E-01 
    4.0695220351677625E-01 
    3.7304877516440393E-01 
    3.3809990658672756E-01 
    3.0274269079406341E-01 
    2.6831941492889089E-01 
    2.3752240039844086E-01 
    2.1489086978447872E-01 
    2.0398090113881642E-01 
    5.9626309244707620E-01 
    5.8900717024978300E-01 
    5.7335985036124748E-01 
    5.5251928889875757E-01 
    5.2834534178909565E-01 
    5.0167022810294637E-01 
    4.7286839792826996E-01 
    4.4215825883462062E-01 
    4.0970460834655015E-01 
    3.7567626372721297E-01 
    3.4030525434518627E-01 
    3.0403428982658115E-01 
    2.6793814760753276E-01 
    2.3456217048444983E-01 
    2.0893613207650977E-01 
    1.9619887297309233E-01 
    5.9331187100037763E-01 
    5.8702466342583237E-01 
    5.7284160960147090E-01 
    5.5320462286657768E-01 
    5.2985734475305435E-01 
    5.0373154127347763E-01 
    4.7529724438165699E-01 
    4.4481886613468558E-01 
    4.1245846031932587E-01 
    3.7833816004463350E-01 
    3.4258369701308494E-01 
    3.0542188076788662E-01 
    2.6757502439436082E-01 
    2.3126763402186762E-01 
    2.0187022176846767E-01 
    1.8646027370253532E-01 
    5.9093714980737799E-01 
    5.8534195336426720E-01 
    5.7236976109227244E-01 
    5.5383247957694626E-01 
    5.3129556376845599E-01 
    5.0573234086110808E-01 
    4.7768684191453931E-01 
    4.4746581938469404E-01 
    4.1522936315904430E-01 
    3.8105786917655149E-01 
    3.4497990500874964E-01 
    3.0699729490563060E-01 
    2.6739455732891093E-01 
    2.2783946136993444E-01 
    1.9373350024822533E-01 
    1.7440037889870474E-01 
    5.8906335995461456E-01 
    5.8397522636286647E-01 
    5.7200627919420044E-01 
    5.5445873991847949E-01 
    5.3269773802881626E-01 
    5.0769651897925905E-01 
    4.8005321029091136E-01 
    4.5011342563428880E-01 
    4.1803351990137189E-01 
    3.8385632165307709E-01 
    3.4753137018001340E-01 
    3.0884568296895659E-01 
    2.6757819278000705E-01 
    2.2455007239473501E-01 
    1.8465026879309593E-01 
    1.5953828208525792E-01 
    5.8763095511611030E-01 
    5.8293097786209447E-01 
    5.7180072631580858E-01 
    5.5513489584568476E-01 
    5.3410280522258458E-01 
    5.0965118734553783E-01 
    4.8241541958941114E-01 
    4.5277800749174413E-01 
    4.2088826500477977E-01 
    3.8675294978573294E-01 
    3.5026842367937838E-01 
    3.1104131490356518E-01 
    2.6831824593239129E-01 
    2.2175919081401024E-01 
    1.7488691451040073E-01 
    1.4119758657366380E-01 
    5.8659363190261193E-01 
    5.8221207154251209E-01 
    5.7179481226277951E-01 
    5.5590992935973693E-01 
    5.3555139748541158E-01 
    5.1162683078264182E-01 
    4.8479592638376423E-01 
    4.5547891035311094E-01 
    4.2381309696354602E-01 
    3.8976634907479618E-01 
    3.5321400027070066E-01 
    3.1364140015952069E-01 
    2.6980218169715459E-01 
    2.1994299867438963E-01 
    1.6500664330908493E-01 
    1.1840002797205559E-01 
    5.8592315806932194E-01 
    5.8183149351511665E-01 
    5.7203413278111315E-01 
    5.5683710657693763E-01 
    5.3708927834132802E-01 
    5.1365760861622944E-01 
    4.8721793567843275E-01 
    4.5823460916682102E-01 
    4.2682678985071554E-01 
    3.9290864266722508E-01 
    3.5637271003562754E-01 
    3.1666967400131008E-01 
    2.7217697723743833E-01 
    2.1967170546223316E-01 
    1.5610594901884497E-01 
    8.9710780610693985E-02 
    5.8552699283149179E-01 
    5.8174631619742878E-01 
    5.7252291574998448E-01 
    5.5793844220272659E-01 
    5.3873453875134902E-01 
    5.1574627258893435E-01 
    4.8966392078982174E-01 
    4.6100305748374087E-01 
    4.2986912479857975E-01 
    3.9611893641199403E-01 
    3.5966487476958220E-01 
    3.2001488002249889E-01 
    2.7538516205071439E-01 
    2.2130470431834171E-01 
    1.4989655537785274E-01 
    5.2655314718357112E-02 
    5.8539222546082736E-01 
    5.8194287354730234E-01 
    5.7325557190899257E-01 
    5.5922186063988866E-01 
    5.4050203855254941E-01 
    5.1791155228231578E-01 
    4.9214780933532110E-01 
    4.6377846271966744E-01 
    4.3291458308721348E-01 
    3.9940716653093966E-01 
    3.6316140558048482E-01 
    3.2376131719265927E-01 
    2.7952608341311586E-01 
    2.2521300238083794E-01 
    1.4936984680430718E-01 
    0.0000000000000000E+00 

SCALARS Saturarion double 1 
LOOKUP_TABLE default 

    1.0000000000000002E+00 
    9.7919624749865430E-01 
    9.4091708836526333E-01 
    8.8774399402629767E-01 
    8.4338362119119925E-01 
    8.0415193439157784E-01 
    7.6959616129796005E-01 
    7.3925670148816969E-01 
    7.1229706597764564E-01 
    6.8778628504213513E-01 
    6.6473885047069614E-01 
    6.4194982637865350E-01 
    6.1749225734469237E-01 
    5.8761185953988426E-01 
    5.4286526935472790E-01 
    3.2727382621656798E-01 
    9.9236351643460097E-01 
    9.7269531923140862E-01 
    9.3252739725965106E-01 
    8.8176426436750321E-01 
    8.3840961069677444E-01 
    8.0040268480615817E-01 
    7.6686353082711567E-01 
    7.3718208857889445E-01 
    7.1069795954337833E-01 
    6.8657986738190535E-01 
    6.6404234907676651E-01 
    6.4202270893906888E-01 
    6.1859240404771543E-01 
    5.8972529689543851E-01 
    5.4668264952464740E-01 
    3.4758288114262897E-01 
    9.8027442991651947E-01 
    9.6047243938684501E-01 
    9.1999444480751902E-01 
    8.7077685500479396E-01 
    8.2856538510321520E-01 
    7.9260170072903879E-01 
    7.6114650634124048E-01 
    7.3290274491121943E-01 
    7.0729180390829005E-01 
    6.8376635868980828E-01 
    6.6181988088022903E-01 
    6.4064940383222324E-01 
    6.1873369279244117E-01 
    5.9211924079628786E-01 
    5.5200167963311175E-01 
    3.6653552629967484E-01 
    9.5920979795482564E-01 
    9.4246145083783228E-01 
    9.0450761830936677E-01 
    8.5919793806772293E-01 
    8.1770479688443787E-01 
    7.8248823249422772E-01 
    7.5224200726407198E-01 
    7.2561827769308340E-01 
    7.0152470199424255E-01 
    6.7944485196479143E-01 
    6.5872543943351636E-01 
    6.3869949590766506E-01 
    6.1818263179111754E-01 
    5.9396833949266015E-01 
    5.5725033245510924E-01 
    3.8510292182910172E-01 
    9.3309898668302171E-01 
    9.1803261372194478E-01 
    8.8379692218872352E-01 
    8.4291170036174856E-01 
    8.0342309485992591E-01 
    7.6888605791743958E-01 
    7.3951373774838014E-01 
    7.1422597168002033E-01 
    6.9199366284355357E-01 
    6.7202828969150319E-01 
    6.5366318039906168E-01 
    6.3592813772999712E-01 
    6.1734516722021648E-01 
    5.9526772278960760E-01 
    5.6179648152954498E-01 
    4.0082795954807321E-01 
    9.0314811358870228E-01 
    8.9042939898898099E-01 
    8.6048076151106012E-01 
    8.2321023142052396E-01 
    7.8652353752605120E-01 
    7.5363374887201795E-01 
    7.2505108503817206E-01 
    7.0062661289960937E-01 
    6.7967169874377520E-01 
    6.6149356092060030E-01 
    6.4552483726423382E-01 
    6.3096636988685240E-01 
    6.1570336182215324E-01 
    5.9623399983876935E-01 
    5.6570206093807729E-01 
    4.1521238395180210E-01 
    8.7028169336108729E-01 
    8.6053753232366503E-01 
    8.3513728760122197E-01 
    8.0164719097278192E-01 
    7.6811019283940951E-01 
    7.3754715960621720E-01 
    7.1060008697244859E-01 
    6.8692700651079497E-01 
    6.6658018972162469E-01 
    6.4941576902600551E-01 
    6.3521723116264162E-01 
    6.2342222516156309E-01 
    6.1222594552976040E-01 
    5.9678870712693588E-01 
    5.6959529130911657E-01 
    4.2943329913880568E-01 
    8.3434948615120352E-01 
    8.2800314483352666E-01 
    8.0787020308288282E-01 
    7.7881739856108623E-01 
    7.4829281084530030E-01 
    7.1993580945779168E-01 
    6.9449778547301932E-01 
    6.7215652459857889E-01 
    6.5279665264547482E-01 
    6.3654145690152497E-01 
    6.2346613515593441E-01 
    6.1374809699993471E-01 
    6.0630767070514635E-01 
    5.9616843115091500E-01 
    5.7339254201157475E-01 
    4.4380351511227956E-01 
    7.9539126537763616E-01 
    7.9245009287399348E-01 
    7.7761555465824683E-01 
    7.5342860870733352E-01 
    7.2642544081381055E-01 
    7.0025049020390195E-01 
    6.7644268427407483E-01 
    6.5532833799780044E-01 
    6.3703773007899400E-01 
    6.2170059776004627E-01 
    6.0975633164304388E-01 
    6.0178822911160279E-01 
    5.9771149007483870E-01 
    5.9341500168898342E-01 
    5.7656206927313369E-01 
    4.5759659294741134E-01 
    7.5344826383708152E-01 
    7.5377267138203086E-01 
    7.4400921161938138E-01 
    7.2451791609615734E-01 
    7.0128331222557749E-01 
    6.7776094666412312E-01 
    6.5562736319058279E-01 
    6.3600517012068758E-01 
    6.1907059187224911E-01 
    6.0481113745634629E-01 
    5.9365332002736404E-01 
    5.8695580624647348E-01 
    5.8585501524213357E-01 
    5.8769152460210261E-01 
    5.7835025316893929E-01 
    4.7132341211094336E-01 
    7.0820156508622800E-01 
    7.1161218516186597E-01 
    7.0665060854950990E-01 
    6.9156358798743955E-01 
    6.7213228415515947E-01 
    6.5177274596415624E-01 
    6.3224442046629159E-01 
    6.1426783636343785E-01 
    5.9866860741830108E-01 
    5.8568031790251096E-01 
    5.7559621263777550E-01 
    5.6955644553002072E-01 
    5.7013617017782781E-01 
    5.7785281485440332E-01 
    5.7766204071115834E-01 
    4.8525548003238228E-01 
    6.5823642561800721E-01 
    6.6470156115803525E-01 
    6.6471271246824626E-01 
    6.5415723075863330E-01 
    6.3831474721132886E-01 
    6.2090986645231416E-01 
    6.0394686207288362E-01 
    5.8849456148418788E-01 
    5.7492922527095214E-01 
    5.6357417330283877E-01 
    5.5487656396719887E-01 
    5.5003124957336003E-01 
    5.5127844807204418E-01 
    5.6267597964600125E-01 
    5.7252293259168374E-01 
    4.9809233519890173E-01 
    6.0325349325174438E-01 
    6.1216700852257588E-01 
    6.1663455448778637E-01 
    6.1079367662904771E-01 
    5.9927467695134495E-01 
    5.8534046924806438E-01 
    5.7144463893943764E-01 
    5.5829463342525742E-01 
    5.4661840085125479E-01 
    5.3691646941244231E-01 
    5.3001349761107552E-01 
    5.2680091871335144E-01 
    5.2938878485605367E-01 
    5.4229668382165852E-01 
    5.6410180076982774E-01 
    5.0872318960426421E-01 
    5.4629307934609439E-01 
    5.5700176739253326E-01 
    5.6453349238464301E-01 
    5.6294746334272427E-01 
    5.5536244011507641E-01 
    5.4437458560007967E-01 
    5.3204893076838711E-01 
    5.2003059768652404E-01 
    5.0862534909937529E-01 
    4.9971515114245102E-01 
    4.9212293678712699E-01 
    4.8940790928181888E-01 
    4.9639040129646900E-01 
    5.1507948746797294E-01 
    5.4983516573659152E-01 
    5.1608101735233591E-01 
    3.9871658508450125E-01 
    4.3397022581401568E-01 
    4.5902444678302368E-01 
    4.6635663207122946E-01 
    4.6203670992146845E-01 
    4.4931870251716055E-01 
    4.2894731238197720E-01 
    4.0246806818743724E-01 
    3.5288997405295797E-01 
    2.9395939769913776E-01 
    2.9073014101320288E-01 
    3.0744113177699894E-01 
    3.3992131735086761E-01 
    4.1369485951511720E-01 
    5.0474739600870888E-01 
    5.1717772292816810E-01 
    1.8656646721377394E-02 
    7.1817381917067810E-02 
    9.6920503421199247E-02 
    1.1689548210538467E-01 
    8.3532466729608318E-02 
    7.2177251159777064E-02 
    3.9972531683682574E-02 
    1.9647302566623649E-02 
    8.6235713950350394E-03 
    1.0277166134292771E-03 
    2.7048180180663664E-03 
    1.9768795349809818E-03 
    1.5459169801558004E-02 
    1.7255581710968612E-01 
    3.3345710886202123E-01 
    4.6575767396739548E-01 
