# vtk DataFile Version 2.0
Pressure Field Data 
ASCII 
DATASET UNSTRUCTURED_GRID 

POINTS 289 double 

    0.0000000000000000E+00     0.0000000000000000E+00     0.0000000000000000E+00 
    1.0000000000000000E+00     0.0000000000000000E+00     0.0000000000000000E+00 
    1.0000000000000000E+00     1.0000000000000000E+00     0.0000000000000000E+00 
    0.0000000000000000E+00     1.0000000000000000E+00     0.0000000000000000E+00 
    6.2499999999872928E-02     0.0000000000000000E+00     0.0000000000000000E+00 
    1.2499999999977310E-01     0.0000000000000000E+00     0.0000000000000000E+00 
    1.8749999999959341E-01     0.0000000000000000E+00     0.0000000000000000E+00 
    2.4999999999941089E-01     0.0000000000000000E+00     0.0000000000000000E+00 
    3.1249999999922851E-01     0.0000000000000000E+00     0.0000000000000000E+00 
    3.7499999999904610E-01     0.0000000000000000E+00     0.0000000000000000E+00 
    4.3749999999886358E-01     0.0000000000000000E+00     0.0000000000000000E+00 
    4.9999999999869210E-01     0.0000000000000000E+00     0.0000000000000000E+00 
    5.6249999999884603E-01     0.0000000000000000E+00     0.0000000000000000E+00 
    6.2499999999901090E-01     0.0000000000000000E+00     0.0000000000000000E+00 
    6.8749999999917577E-01     0.0000000000000000E+00     0.0000000000000000E+00 
    7.4999999999934064E-01     0.0000000000000000E+00     0.0000000000000000E+00 
    8.1249999999950551E-01     0.0000000000000000E+00     0.0000000000000000E+00 
    8.7499999999967026E-01     0.0000000000000000E+00     0.0000000000000000E+00 
    9.3749999999983513E-01     0.0000000000000000E+00     0.0000000000000000E+00 
    1.0000000000000000E+00     6.2499999999872928E-02     0.0000000000000000E+00 
    1.0000000000000000E+00     1.2499999999977310E-01     0.0000000000000000E+00 
    1.0000000000000000E+00     1.8749999999959341E-01     0.0000000000000000E+00 
    1.0000000000000000E+00     2.4999999999941089E-01     0.0000000000000000E+00 
    1.0000000000000000E+00     3.1249999999922851E-01     0.0000000000000000E+00 
    1.0000000000000000E+00     3.7499999999904610E-01     0.0000000000000000E+00 
    1.0000000000000000E+00     4.3749999999886358E-01     0.0000000000000000E+00 
    1.0000000000000000E+00     4.9999999999869210E-01     0.0000000000000000E+00 
    1.0000000000000000E+00     5.6249999999884603E-01     0.0000000000000000E+00 
    1.0000000000000000E+00     6.2499999999901090E-01     0.0000000000000000E+00 
    1.0000000000000000E+00     6.8749999999917577E-01     0.0000000000000000E+00 
    1.0000000000000000E+00     7.4999999999934064E-01     0.0000000000000000E+00 
    1.0000000000000000E+00     8.1249999999950551E-01     0.0000000000000000E+00 
    1.0000000000000000E+00     8.7499999999967026E-01     0.0000000000000000E+00 
    1.0000000000000000E+00     9.3749999999983513E-01     0.0000000000000000E+00 
    9.3749999999973976E-01     1.0000000000000000E+00     0.0000000000000000E+00 
    8.7499999999950118E-01     1.0000000000000000E+00     0.0000000000000000E+00 
    8.1249999999991318E-01     1.0000000000000000E+00     0.0000000000000000E+00 
    7.5000000000034706E-01     1.0000000000000000E+00     0.0000000000000000E+00 
    6.8750000000078049E-01     1.0000000000000000E+00     0.0000000000000000E+00 
    6.2500000000121403E-01     1.0000000000000000E+00     0.0000000000000000E+00 
    5.6250000000164757E-01     1.0000000000000000E+00     0.0000000000000000E+00 
    5.0000000000205946E-01     1.0000000000000000E+00     0.0000000000000000E+00 
    4.3750000000182099E-01     1.0000000000000000E+00     0.0000000000000000E+00 
    3.7500000000156092E-01     1.0000000000000000E+00     0.0000000000000000E+00 
    3.1250000000130068E-01     1.0000000000000000E+00     0.0000000000000000E+00 
    2.5000000000104050E-01     1.0000000000000000E+00     0.0000000000000000E+00 
    1.8750000000078040E-01     1.0000000000000000E+00     0.0000000000000000E+00 
    1.2500000000052031E-01     1.0000000000000000E+00     0.0000000000000000E+00 
    6.2500000000260125E-02     1.0000000000000000E+00     0.0000000000000000E+00 
    0.0000000000000000E+00     9.3749999999973976E-01     0.0000000000000000E+00 
    0.0000000000000000E+00     8.7499999999950118E-01     0.0000000000000000E+00 
    0.0000000000000000E+00     8.1249999999991318E-01     0.0000000000000000E+00 
    0.0000000000000000E+00     7.5000000000034706E-01     0.0000000000000000E+00 
    0.0000000000000000E+00     6.8750000000078049E-01     0.0000000000000000E+00 
    0.0000000000000000E+00     6.2500000000121403E-01     0.0000000000000000E+00 
    0.0000000000000000E+00     5.6250000000164757E-01     0.0000000000000000E+00 
    0.0000000000000000E+00     5.0000000000205946E-01     0.0000000000000000E+00 
    0.0000000000000000E+00     4.3750000000182099E-01     0.0000000000000000E+00 
    0.0000000000000000E+00     3.7500000000156092E-01     0.0000000000000000E+00 
    0.0000000000000000E+00     3.1250000000130068E-01     0.0000000000000000E+00 
    0.0000000000000000E+00     2.5000000000104050E-01     0.0000000000000000E+00 
    0.0000000000000000E+00     1.8750000000078040E-01     0.0000000000000000E+00 
    0.0000000000000000E+00     1.2500000000052031E-01     0.0000000000000000E+00 
    0.0000000000000000E+00     6.2500000000260125E-02     0.0000000000000000E+00 
    6.2499999999897131E-02     6.2500000000235922E-02     0.0000000000000000E+00 
    6.2499999999921327E-02     1.2500000000047351E-01     0.0000000000000000E+00 
    6.2499999999945530E-02     1.8750000000070621E-01     0.0000000000000000E+00 
    6.2499999999969733E-02     2.5000000000093858E-01     0.0000000000000000E+00 
    6.2499999999993928E-02     3.1250000000117117E-01     0.0000000000000000E+00 
    6.2500000000018124E-02     3.7500000000140382E-01     0.0000000000000000E+00 
    6.2500000000042327E-02     4.3750000000163619E-01     0.0000000000000000E+00 
    6.2500000000066530E-02     5.0000000000184897E-01     0.0000000000000000E+00 
    6.2500000000090733E-02     5.6250000000147260E-01     0.0000000000000000E+00 
    6.2500000000114922E-02     6.2500000000107636E-01     0.0000000000000000E+00 
    6.2500000000139125E-02     6.8750000000068034E-01     0.0000000000000000E+00 
    6.2500000000163328E-02     7.5000000000028411E-01     0.0000000000000000E+00 
    6.2500000000187531E-02     8.1249999999988787E-01     0.0000000000000000E+00 
    6.2500000000211720E-02     8.7499999999951172E-01     0.0000000000000000E+00 
    6.2500000000235922E-02     9.3749999999974565E-01     0.0000000000000000E+00 
    1.2499999999981980E-01     6.2500000000211733E-02     0.0000000000000000E+00 
    1.2499999999986650E-01     1.2500000000042691E-01     0.0000000000000000E+00 
    1.2499999999991319E-01     1.8750000000063199E-01     0.0000000000000000E+00 
    1.2499999999995989E-01     2.5000000000083678E-01     0.0000000000000000E+00 
    1.2500000000000661E-01     3.1250000000104172E-01     0.0000000000000000E+00 
    1.2500000000005329E-01     3.7500000000124661E-01     0.0000000000000000E+00 
    1.2500000000010000E-01     4.3750000000145117E-01     0.0000000000000000E+00 
    1.2500000000014669E-01     5.0000000000163858E-01     0.0000000000000000E+00 
    1.2500000000019340E-01     5.6250000000129741E-01     0.0000000000000000E+00 
    1.2500000000024011E-01     6.2500000000093847E-01     0.0000000000000000E+00 
    1.2500000000028680E-01     6.8750000000057998E-01     0.0000000000000000E+00 
    1.2500000000033351E-01     7.5000000000022127E-01     0.0000000000000000E+00 
    1.2500000000038020E-01     8.1249999999986211E-01     0.0000000000000000E+00 
    1.2500000000042691E-01     8.7499999999952238E-01     0.0000000000000000E+00 
    1.2500000000047359E-01     9.3749999999975164E-01     0.0000000000000000E+00 
    1.8749999999966760E-01     6.2500000000187531E-02     0.0000000000000000E+00 
    1.8749999999974179E-01     1.2500000000038020E-01     0.0000000000000000E+00 
    1.8749999999981601E-01     1.8750000000055780E-01     0.0000000000000000E+00 
    1.8749999999989009E-01     2.5000000000073502E-01     0.0000000000000000E+00 
    1.8749999999996431E-01     3.1250000000091221E-01     0.0000000000000000E+00 
    1.8750000000003850E-01     3.7500000000108941E-01     0.0000000000000000E+00 
    1.8750000000011269E-01     4.3750000000126649E-01     0.0000000000000000E+00 
    1.8750000000018691E-01     5.0000000000142808E-01     0.0000000000000000E+00 
    1.8750000000026110E-01     5.6250000000112244E-01     0.0000000000000000E+00 
    1.8750000000033529E-01     6.2500000000080080E-01     0.0000000000000000E+00 
    1.8750000000040951E-01     6.8750000000047962E-01     0.0000000000000000E+00 
    1.8750000000048361E-01     7.5000000000015843E-01     0.0000000000000000E+00 
    1.8750000000055780E-01     8.1249999999983680E-01     0.0000000000000000E+00 
    1.8750000000063199E-01     8.7499999999953304E-01     0.0000000000000000E+00 
    1.8750000000070621E-01     9.3749999999975764E-01     0.0000000000000000E+00 
    2.4999999999951281E-01     6.2500000000163314E-02     0.0000000000000000E+00 
    2.4999999999961461E-01     1.2500000000033351E-01     0.0000000000000000E+00 
    2.4999999999971650E-01     1.8750000000048361E-01     0.0000000000000000E+00 
    2.4999999999981831E-01     2.5000000000063310E-01     0.0000000000000000E+00 
    2.4999999999992020E-01     3.1250000000078260E-01     0.0000000000000000E+00 
    2.5000000000002198E-01     3.7500000000093209E-01     0.0000000000000000E+00 
    2.5000000000012390E-01     4.3750000000108180E-01     0.0000000000000000E+00 
    2.5000000000022571E-01     5.0000000000121769E-01     0.0000000000000000E+00 
    2.5000000000032763E-01     5.6250000000094724E-01     0.0000000000000000E+00 
    2.5000000000042938E-01     6.2500000000066314E-01     0.0000000000000000E+00 
    2.5000000000053119E-01     6.8750000000037925E-01     0.0000000000000000E+00 
[...]
CELL_DATA 256 
SCALARS Pressure double 1 
LOOKUP_TABLE default 

    6.2343281052012067E-01 
    5.7435567683070132E-01 
    5.4378768968484648E-01 
    5.1664911564804827E-01 
    4.8945866700995933E-01 
    4.6131862432585186E-01 
    4.3196372331165217E-01 
    4.0145303831398127E-01 
    3.7004380597697467E-01 
    3.3819761963640815E-01 
    3.0667448538492187E-01 
    2.7670188690210945E-01 
    2.5009627297757048E-01 
    2.2909334405192713E-01 
    2.1563957116423108E-01 
    2.0930437533667173E-01 
    6.0942589342710862E-01 
    5.7554827626755067E-01 
    5.4604348895228361E-01 
    5.1910103250886108E-01 
    4.9207126266242152E-01 
    4.6408133597595319E-01 
    4.3485932678168043E-01 
    4.0444745437941798E-01 
    3.7307962948337475E-01 
    3.4118311378459903E-01 
    3.0946860580060409E-01 
    2.7910294056192175E-01 
    2.5186346311474872E-01 
    2.3003458045768788E-01 
    2.1577912490831239E-01 
    2.0894817739251798E-01 
    5.9868187019746721E-01 
    5.7462804344710361E-01 
    5.4757129997069331E-01 
    5.2124336884478584E-01 
    4.9451104697591247E-01 
    4.6672486680822722E-01 
    4.3765653487049394E-01 
    4.0734583713479389E-01 
    3.7600360755448431E-01 
    3.4401594669571128E-01 
    3.1203302100031660E-01 
    2.8114839603754987E-01 
    2.5309793353437160E-01 
    2.3024804261748910E-01 
    2.1506261502357862E-01 
    2.0778771066428650E-01 
    5.9027039610191501E-01 
    5.7265873211308527E-01 
    5.4841550596243360E-01 
    5.2305328896297909E-01 
    4.9676729757972260E-01 
    4.6924984661106811E-01 
    4.4036276389542861E-01 
    4.1016052450901191E-01 
    3.7883480922352364E-01 
    3.4672586177687481E-01 
    3.1441185860257692E-01 
    2.8289614086430059E-01 
    2.5385839600514831E-01 
    2.2976126403876312E-01 
    2.1345024235670207E-01 
    2.0570132177839537E-01 
    5.8355903142197041E-01 
    5.7023905529713770E-01 
    5.4871195307850951E-01 
    5.2454093952018899E-01 
    4.9883608050010891E-01 
    4.7165619164007822E-01 
    4.4298416027224330E-01 
    4.1290407603033441E-01 
    3.8159385682769165E-01 
    3.4934529526658825E-01 
    3.1665320147016274E-01 
    2.8441007480796432E-01 
    2.5421203655846641E-01 
    2.2860876691279897E-01 
    2.1089768631972050E-01 
    2.0255884708881899E-01 
    5.7813794874741675E-01 
    5.6771199252055515E-01 
    5.4861202469280479E-01 
    5.2574028856243060E-01 
    5.0072208671432983E-01 
    4.7394438697962726E-01 
    4.4552498003349678E-01 
    4.1558747561423853E-01 
    3.8430100557285890E-01 
    3.5190798633325454E-01 
    3.1880886771519618E-01 
    2.8576137046752775E-01 
    2.5423737325940410E-01 
    2.2683717206334603E-01 
    2.0735815707362315E-01 
    1.9820761205719942E-01 
    5.7373135063814107E-01 
    5.6527913963848964E-01 
    5.4825973630043767E-01 
    5.2670261411165376E-01 
    5.0244228887684173E-01 
    4.7612170860368763E-01 
    4.4799119698959811E-01 
    4.1822083407678451E-01 
    3.8697518448442181E-01 
    3.5444702458207267E-01 
    3.2093334507195087E-01 
    2.8702963445455310E-01 
    2.5402858342443119E-01 
    2.2451291322118766E-01 
    2.0279139835549465E-01 
    1.9247313614936129E-01 
    5.7014573455814288E-01 
    5.6305604325901648E-01 
    5.4777928528555364E-01 
    5.2748865160651981E-01 
    5.0402411355267018E-01 
    4.7820260759322958E-01 
    4.5039258141016270E-01 
    4.2081424571504128E-01 
    3.8963273136902371E-01 
    3.5699253990017615E-01 
    3.2308052551632993E-01 
    2.8830206843491590E-01 
    2.5370040859857385E-01 
    2.2173185356996597E-01 
    1.9717201002865162E-01 
    1.8514962823531811E-01 
    5.6723981822803593E-01 
    5.6110417544138547E-01 
    5.4727082580046660E-01 
    5.2816133915829044E-01 
    5.0550042153594543E-01 
    4.8020521831770946E-01 
    4.5274112885539219E-01 
    4.2337825016979069E-01 
    3.9228787803877407E-01 
    3.5957021401843658E-01 
    3.2529971445052186E-01 
    2.8966840319029324E-01 
    2.5338933076508979E-01 
    2.1863076254841676E-01 
    1.9049673629044242E-01 
    1.7597580985728598E-01 
    5.6490979816921305E-01 
    5.5945402336366556E-01 
    5.4681183771307229E-01 
    5.2878014094499981E-01 
    5.0690651429714795E-01 
    4.8214969496015070E-01 
    4.5505001813612150E-01 
    4.2592392081198110E-01 
    3.9495378538895570E-01 
    3.6220188519702617E-01 
    3.2763408164567109E-01 
    2.9121612079885956E-01 
    2.5325076223071247E-01 
    2.1540029144322087E-01 
    1.8280341845894951E-01 
    1.6460637043445012E-01 
    5.6307835709910870E-01 
    5.5811977601141327E-01 
    5.4646251109433330E-01 
    5.2939964169569287E-01 
    5.0827928179145498E-01 
    4.8405921680806824E-01 
    4.5733423244081478E-01 
    4.2846289286827227E-01 
    3.9764321547654302E-01 
    3.6490683780745248E-01 
    3.3012102724852971E-01 
    2.9302759677999879E-01 
    2.5345562682487638E-01 
    2.1229208239540573E-01 
    1.7419794076793627E-01 
    1.5057936262906080E-01 
    5.6168465739839946E-01 
    5.5710632090643952E-01 
    5.4627065738527825E-01 
    5.3006988892566420E-01 
    5.0965660334879304E-01 
    4.8595989399713413E-01 
    4.5961158565174803E-01 
    4.3100776091384246E-01 
    4.0036818810395131E-01 
    3.6770178164678108E-01 
    3.3279149051363194E-01 
    2.9517621445509090E-01 
    2.5418487847964311E-01 
    2.0965071997710924E-01 
    1.6494658967558953E-01 
    1.3325705660947090E-01 
    5.6067944825653415E-01 
    5.5641369219696368E-01 
    5.4627508637861277E-01 
    5.3083719043632838E-01 
    5.1107698025034587E-01 
    4.8788048098918663E-01 
    4.6190335609190764E-01 
    4.3357311145095895E-01 
    4.0314016191124380E-01 
    3.7060063291693524E-01 
    3.3566936556631144E-01 
    2.9772076575314688E-01 
    2.5561410557136865E-01 
    2.0791995635457564E-01 
    1.5558491927628745E-01 
    1.1171543274762749E-01 
    5.6003066320154016E-01 
    5.5604982643518497E-01 
    5.4651617064755686E-01 
    5.3175054829787127E-01 
    5.1258393420429793E-01 
    4.8985495999982842E-01 
    4.6423564322084326E-01 
    4.3617504354580289E-01 
    4.0596775579921157E-01 
    3.7361159344365596E-01 
    3.3876885081515135E-01 
    3.0069911401638261E-01 
    2.5788798784017702E-01 
    2.0763455936650757E-01 
    1.4714059583444183E-01 
    8.4574239029919243E-02 
    5.5967297574779740E-01 
    5.5599204572659067E-01 
    5.4701045887554911E-01 
    5.3284301550757995E-01 
    5.1420874894168456E-01 
    4.9190228223786298E-01 
    4.6661650190035170E-01 
    4.3880749740602076E-01 
    4.0882311437230628E-01 
    3.7668919350668884E-01 
    3.4202313747478064E-01 
    3.0403959349922433E-01 
    2.6099575151710080E-01 
    2.0920211084452561E-01 
    1.4135142903515863E-01 
    4.9596372165609470E-02 
    5.5955441961035357E-01 
    5.5619581837232845E-01 
    5.4773118713711322E-01 
    5.3410551705197229E-01 
    5.1595129190944644E-01 
    4.9402702321232395E-01 
    4.6905016344261585E-01 
    4.4148172496913235E-01 
    4.1170785576569957E-01 
    3.7981634172452711E-01 
    3.4540026510603705E-01 
    3.0771798616408791E-01 
    2.6495403026017783E-01 
    2.1282399558995871E-01 
    1.4088882902739455E-01 
    0.0000000000000000E+00 

SCALARS Saturarion double 1 
LOOKUP_TABLE default 

    1.0000000000000004E+00 
    9.8085543029623723E-01 
    9.4551640470017695E-01 
    8.9489020698184407E-01 
    8.5274168455230070E-01 
    8.1538837904130634E-01 
    7.8222884550090954E-01 
    7.5286801116164492E-01 
    7.2660008386903041E-01 
    7.0260943286156807E-01 
    6.8001434779908065E-01 
    6.5772137886388182E-01 
    6.3394883827936843E-01 
    6.0509172087056995E-01 
    5.6344311708654138E-01 
    3.8053673955849282E-01 
    9.9309226639883164E-01 
    9.7501674949941630E-01 
    9.3787500953454717E-01 
    8.8954347158391966E-01 
    8.4806917454873532E-01 
    8.1166306905870189E-01 
    7.7941897654626435E-01 
    7.5073785958893158E-01 
    7.2500874819239325E-01 
    7.0146719862384854E-01 
    6.7939633823756240E-01 
    6.5783166042864138E-01 
    6.3501769151042253E-01 
    6.0714135070527031E-01 
    5.6665199383486620E-01 
    3.9675352612203507E-01 
    9.8213601465736255E-01 
    9.6386881382084588E-01 
    9.2634350115123887E-01 
    8.7946542401545447E-01 
    8.3871970257712469E-01 
    8.0391430059997215E-01 
    7.7354624342584122E-01 
    7.4632404427696730E-01 
    7.2160970134129010E-01 
    6.9882064971338076E-01 
    6.7743500836437842E-01 
    6.5668602314520685E-01 
    6.3521465309529268E-01 
    6.0943363045650656E-01 
    5.7142289468714791E-01 
    4.1222167561290862E-01 
    9.6304949853617372E-01 
    9.4759518744353699E-01 
    9.1196519434247947E-01 
    8.6880899625686558E-01 
    8.2878723501160623E-01 
    7.9450212725756797E-01 
    7.6498366885260671E-01 
    7.3908578560062888E-01 
    7.1576851423323029E-01 
    6.9445425362051816E-01 
    6.7441633440605886E-01 
    6.5491459150365749E-01 
    6.3478002112473020E-01 
    6.1117960438207886E-01 
    5.7616973133559579E-01 
    4.2754240369990598E-01 
    9.3926185235149506E-01 
    9.2517952237375567E-01 
    8.9272405219885975E-01 
    8.5373039471473744E-01 
    8.1560646361545797E-01 
    7.8184257580533212E-01 
    7.5291010885253074E-01 
    7.2799056770654214E-01 
    7.0620085118398812E-01 
    6.8678978517158762E-01 
    6.6906818496939846E-01 
    6.5199590076360714E-01 
    6.3395906860082107E-01 
    6.1240848377328461E-01 
    5.8039780255896589E-01 
    4.4074929305719829E-01 
    9.1150605533234974E-01 
    8.9946502203264822E-01 
    8.7094139966101691E-01 
    8.3519530515878060E-01 
    7.9958880139792687E-01 
    7.6732557664608081E-01 
    7.3910455603826997E-01 
    7.1490476383435531E-01 
    6.9413087340981561E-01 
    6.7617646340794968E-01 
    6.6057161407587361E-01 
    6.4659723336599673E-01 
    6.3207254693480086E-01 
    6.1328389666321870E-01 
    5.8402266252623802E-01 
    4.5296432747372289E-01 
    8.8066666791016757E-01 
    8.7136398174679730E-01 
    8.4701982211015003E-01 
    8.1465947419926876E-01 
    7.8191715727256583E-01 
    7.5185692415657246E-01 
    7.2523762862452978E-01 
    7.0177378140150937E-01 
    6.8151180895242947E-01 
    6.6434852910920683E-01 
    6.5017715770236539E-01 
    6.3863816002300633E-01 
    6.2812433926615796E-01 
    6.1361177094806629E-01 
    5.8748968035594151E-01 
    4.6506985109719240E-01 
    8.4667241298413753E-01 
    8.4052615872652892E-01 
    8.2102529584412320E-01 
    7.9273750685632693E-01 
    7.6282035736470677E-01 
    7.3488881888123725E-01 
    7.0973656132682961E-01 
    6.8754060919510762E-01 
    6.6820511961749374E-01 
    6.5188367676641845E-01 
    6.3867474571902372E-01 
    6.2886233594200125E-01 
    6.2174057492079549E-01 
    6.1258098492143886E-01 
    5.9092242668629213E-01 
    4.7735173718233503E-01 
    8.0945653348299595E-01 
    8.0652918008885899E-01 
    7.9198919405411894E-01 
    7.6825829763246045E-01 
    7.4169013029357722E-01 
    7.1585422898480056E-01 
    6.9224883602011411E-01 
    6.7120246998705124E-01 
    6.5288501667299270E-01 
    6.3747352541281954E-01 
    6.2538777107648835E-01 
    6.1715656736008095E-01 
    6.1293516788621061E-01 
    6.0932109081716090E-01 
    5.9380834058144283E-01 
    4.8927438978988691E-01 
    7.6902196820221203E-01 
    7.6924217754352919E-01 
    7.5954521235049366E-01 
    7.4028391635720781E-01 
    7.1731942566925899E-01 
    6.9401305438172900E-01 
    6.7196416219769983E-01 
    6.5228553388841948E-01 
    6.3524058760951185E-01 
    6.2092783562814113E-01 
    6.0974761286622414E-01 
    6.0284236130641500E-01 
    6.0127236090296321E-01 
    6.0317457121314655E-01 
    5.9522399632159717E-01 
    5.0124572119173405E-01 
    7.2508081146981374E-01 
    7.2831588049984475E-01 
    7.2327764667918493E-01 
    7.0825833602263666E-01 
    6.8894738030439107E-01 
    6.6866474371643769E-01 
    6.4906965656228433E-01 
    6.3087254585455654E-01 
    6.1500204100770084E-01 
    6.0189074939460041E-01 
    5.9188756479588001E-01 
    5.8590283776793051E-01 
    5.8610454367344489E-01 
    5.9323868171288907E-01 
    5.9238898728493694E-01 
    5.1367355955096772E-01 
    6.7623472054483291E-01 
    6.8248911301273940E-01 
    6.8232202466649827E-01 
    6.7169500901834289E-01 
    6.5581966571817174E-01 
    6.3832099749240401E-01 
    6.2107824545544610E-01 
    6.0517141970167421E-01 
    5.9109600303520171E-01 
    5.7944982285176228E-01 
    5.7081381509817097E-01 
    5.6622311438714179E-01 
    5.6759117799746039E-01 
    5.7841672079827244E-01 
    5.8874682109766530E-01 
    5.2468655360360805E-01 
    6.2117942159542339E-01 
    6.3014682382868481E-01 
    6.3458158057328051E-01 
    6.2849713583765043E-01 
    6.1666464398991960E-01 
    6.0240786018135606E-01 
    5.8820919446896314E-01 
    5.7463302270563277E-01 
    5.6225502386130322E-01 
    5.5189269092968707E-01 
    5.4487214804466189E-01 
    5.4198901204297500E-01 
    5.4504940183918005E-01 
    5.5821631907227076E-01 
    5.7910818120260310E-01 
    5.3342390644825943E-01 
    5.6322529326739923E-01 
    5.7336168162452217E-01 
    5.8120445294918555E-01 
    5.7945486464397533E-01 
    5.7191127671230324E-01 
    5.6125104536969272E-01 
    5.4976038846794528E-01 
    5.3841456258057552E-01 
    5.2668810297124424E-01 
    5.1626154069570207E-01 
    5.0964513418978963E-01 
    5.0852118381434386E-01 
    5.1422646172101072E-01 
    5.3106205535075779E-01 
    5.6518915273506420E-01 
    5.3899592099982374E-01 
    4.4940685593965313E-01 
    4.7086880864353220E-01 
    4.8798273796573749E-01 
    4.9486247669637407E-01 
    4.9185030396434953E-01 
    4.8239611885918071E-01 
    4.6802377325888289E-01 
    4.5277100858789859E-01 
    4.3696798000719300E-01 
    4.1180586519899026E-01 
    3.8768278144850432E-01 
    3.6717578825954567E-01 
    3.9058197810139633E-01 
    4.5238025119970304E-01 
    5.2851511913218696E-01 
    5.3930690909930423E-01 
    5.9536497560498017E-02 
    1.2909066886314025E-01 
    1.4679305477620741E-01 
    1.7579223229695462E-01 
    1.3901922678954651E-01 
    1.4036047660869247E-01 
    9.1124355975119350E-02 
    8.2626098316833041E-02 
    3.8329797113111262E-02 
    2.4139689176953708E-02 
    1.6644089334414365E-02 
    2.1829785138389627E-02 
    6.0218382712526816E-02 
    2.0724444528912292E-01 
    3.5923476251897946E-01 
    4.8839830877575346E-01 
