# vtk DataFile Version 2.0
Pressure Field Data 
ASCII 
DATASET UNSTRUCTURED_GRID 

POINTS 289 double 

    0.0000000000000000E+00     0.0000000000000000E+00     0.0000000000000000E+00 
    1.0000000000000000E+00     0.0000000000000000E+00     0.0000000000000000E+00 
    1.0000000000000000E+00     1.0000000000000000E+00     0.0000000000000000E+00 
    0.0000000000000000E+00     1.0000000000000000E+00     0.0000000000000000E+00 
    6.2499999999872928E-02     0.0000000000000000E+00     0.0000000000000000E+00 
    1.2499999999977310E-01     0.0000000000000000E+00     0.0000000000000000E+00 
    1.8749999999959341E-01     0.0000000000000000E+00     0.0000000000000000E+00 
    2.4999999999941089E-01     0.0000000000000000E+00     0.0000000000000000E+00 
    3.1249999999922851E-01     0.0000000000000000E+00     0.0000000000000000E+00 
    3.7499999999904610E-01     0.0000000000000000E+00     0.0000000000000000E+00 
    4.3749999999886358E-01     0.0000000000000000E+00     0.0000000000000000E+00 
    4.9999999999869210E-01     0.0000000000000000E+00     0.0000000000000000E+00 
    5.6249999999884603E-01     0.0000000000000000E+00     0.0000000000000000E+00 
    6.2499999999901090E-01     0.0000000000000000E+00     0.0000000000000000E+00 
    6.8749999999917577E-01     0.0000000000000000E+00     0.0000000000000000E+00 
    7.4999999999934064E-01     0.0000000000000000E+00     0.0000000000000000E+00 
    8.1249999999950551E-01     0.0000000000000000E+00     0.0000000000000000E+00 
    8.7499999999967026E-01     0.0000000000000000E+00     0.0000000000000000E+00 
    9.3749999999983513E-01     0.0000000000000000E+00     0.0000000000000000E+00 
    1.0000000000000000E+00     6.2499999999872928E-02     0.0000000000000000E+00 
    1.0000000000000000E+00     1.2499999999977310E-01     0.0000000000000000E+00 
    1.0000000000000000E+00     1.8749999999959341E-01     0.0000000000000000E+00 
    1.0000000000000000E+00     2.4999999999941089E-01     0.0000000000000000E+00 
    1.0000000000000000E+00     3.1249999999922851E-01     0.0000000000000000E+00 
    1.0000000000000000E+00     3.7499999999904610E-01     0.0000000000000000E+00 
    1.0000000000000000E+00     4.3749999999886358E-01     0.0000000000000000E+00 
    1.0000000000000000E+00     4.9999999999869210E-01     0.0000000000000000E+00 
    1.0000000000000000E+00     5.6249999999884603E-01     0.0000000000000000E+00 
    1.0000000000000000E+00     6.2499999999901090E-01     0.0000000000000000E+00 
    1.0000000000000000E+00     6.8749999999917577E-01     0.0000000000000000E+00 
    1.0000000000000000E+00     7.4999999999934064E-01     0.0000000000000000E+00 
    1.0000000000000000E+00     8.1249999999950551E-01     0.0000000000000000E+00 
    1.0000000000000000E+00     8.7499999999967026E-01     0.0000000000000000E+00 
    1.0000000000000000E+00     9.3749999999983513E-01     0.0000000000000000E+00 
    9.3749999999973976E-01     1.0000000000000000E+00     0.0000000000000000E+00 
    8.7499999999950118E-01     1.0000000000000000E+00     0.0000000000000000E+00 
    8.1249999999991318E-01     1.0000000000000000E+00     0.0000000000000000E+00 
    7.5000000000034706E-01     1.0000000000000000E+00     0.0000000000000000E+00 
    6.8750000000078049E-01     1.0000000000000000E+00     0.0000000000000000E+00 
    6.2500000000121403E-01     1.0000000000000000E+00     0.0000000000000000E+00 
    5.6250000000164757E-01     1.0000000000000000E+00     0.0000000000000000E+00 
    5.0000000000205946E-01     1.0000000000000000E+00     0.0000000000000000E+00 
    4.3750000000182099E-01     1.0000000000000000E+00     0.0000000000000000E+00 
    3.7500000000156092E-01     1.0000000000000000E+00     0.0000000000000000E+00 
    3.1250000000130068E-01     1.0000000000000000E+00     0.0000000000000000E+00 
    2.5000000000104050E-01     1.0000000000000000E+00     0.0000000000000000E+00 
    1.8750000000078040E-01     1.0000000000000000E+00     0.0000000000000000E+00 
    1.2500000000052031E-01     1.0000000000000000E+00     0.0000000000000000E+00 
    6.2500000000260125E-02     1.0000000000000000E+00     0.0000000000000000E+00 
    0.0000000000000000E+00     9.3749999999973976E-01     0.0000000000000000E+00 
    0.0000000000000000E+00     8.7499999999950118E-01     0.0000000000000000E+00 
    0.0000000000000000E+00     8.1249999999991318E-01     0.0000000000000000E+00 
    0.0000000000000000E+00     7.5000000000034706E-01     0.0000000000000000E+00 
    0.0000000000000000E+00     6.8750000000078049E-01     0.0000000000000000E+00 
    0.0000000000000000E+00     6.2500000000121403E-01     0.0000000000000000E+00 
    0.0000000000000000E+00     5.6250000000164757E-01     0.0000000000000000E+00 
    0.0000000000000000E+00     5.0000000000205946E-01     0.0000000000000000E+00 
    0.0000000000000000E+00     4.3750000000182099E-01     0.0000000000000000E+00 
    0.0000000000000000E+00     3.7500000000156092E-01     0.0000000000000000E+00 
    0.0000000000000000E+00     3.1250000000130068E-01     0.0000000000000000E+00 
    0.0000000000000000E+00     2.5000000000104050E-01     0.0000000000000000E+00 
    0.0000000000000000E+00     1.8750000000078040E-01     0.0000000000000000E+00 
    0.0000000000000000E+00     1.2500000000052031E-01     0.0000000000000000E+00 
    0.0000000000000000E+00     6.2500000000260125E-02     0.0000000000000000E+00 
    6.2499999999897131E-02     6.2500000000235922E-02     0.0000000000000000E+00 
    6.2499999999921327E-02     1.2500000000047351E-01     0.0000000000000000E+00 
    6.2499999999945530E-02     1.8750000000070621E-01     0.0000000000000000E+00 
    6.2499999999969733E-02     2.5000000000093858E-01     0.0000000000000000E+00 
    6.2499999999993928E-02     3.1250000000117117E-01     0.0000000000000000E+00 
    6.2500000000018124E-02     3.7500000000140382E-01     0.0000000000000000E+00 
    6.2500000000042327E-02     4.3750000000163619E-01     0.0000000000000000E+00 
    6.2500000000066530E-02     5.0000000000184897E-01     0.0000000000000000E+00 
    6.2500000000090733E-02     5.6250000000147260E-01     0.0000000000000000E+00 
    6.2500000000114922E-02     6.2500000000107636E-01     0.0000000000000000E+00 
    6.2500000000139125E-02     6.8750000000068034E-01     0.0000000000000000E+00 
    6.2500000000163328E-02     7.5000000000028411E-01     0.0000000000000000E+00 
    6.2500000000187531E-02     8.1249999999988787E-01     0.0000000000000000E+00 
    6.2500000000211720E-02     8.7499999999951172E-01     0.0000000000000000E+00 
    6.2500000000235922E-02     9.3749999999974565E-01     0.0000000000000000E+00 
    1.2499999999981980E-01     6.2500000000211733E-02     0.0000000000000000E+00 
    1.2499999999986650E-01     1.2500000000042691E-01     0.0000000000000000E+00 
    1.2499999999991319E-01     1.8750000000063199E-01     0.0000000000000000E+00 
    1.2499999999995989E-01     2.5000000000083678E-01     0.0000000000000000E+00 
    1.2500000000000661E-01     3.1250000000104172E-01     0.0000000000000000E+00 
    1.2500000000005329E-01     3.7500000000124661E-01     0.0000000000000000E+00 
    1.2500000000010000E-01     4.3750000000145117E-01     0.0000000000000000E+00 
    1.2500000000014669E-01     5.0000000000163858E-01     0.0000000000000000E+00 
    1.2500000000019340E-01     5.6250000000129741E-01     0.0000000000000000E+00 
    1.2500000000024011E-01     6.2500000000093847E-01     0.0000000000000000E+00 
    1.2500000000028680E-01     6.8750000000057998E-01     0.0000000000000000E+00 
    1.2500000000033351E-01     7.5000000000022127E-01     0.0000000000000000E+00 
    1.2500000000038020E-01     8.1249999999986211E-01     0.0000000000000000E+00 
    1.2500000000042691E-01     8.7499999999952238E-01     0.0000000000000000E+00 
    1.2500000000047359E-01     9.3749999999975164E-01     0.0000000000000000E+00 
    1.8749999999966760E-01     6.2500000000187531E-02     0.0000000000000000E+00 
    1.8749999999974179E-01     1.2500000000038020E-01     0.0000000000000000E+00 
    1.8749999999981601E-01     1.8750000000055780E-01     0.0000000000000000E+00 
    1.8749999999989009E-01     2.5000000000073502E-01     0.0000000000000000E+00 
    1.8749999999996431E-01     3.1250000000091221E-01     0.0000000000000000E+00 
    1.8750000000003850E-01     3.7500000000108941E-01     0.0000000000000000E+00 
    1.8750000000011269E-01     4.3750000000126649E-01     0.0000000000000000E+00 
    1.8750000000018691E-01     5.0000000000142808E-01     0.0000000000000000E+00 
    1.8750000000026110E-01     5.6250000000112244E-01     0.0000000000000000E+00 
    1.8750000000033529E-01     6.2500000000080080E-01     0.0000000000000000E+00 
    1.8750000000040951E-01     6.8750000000047962E-01     0.0000000000000000E+00 
    1.8750000000048361E-01     7.5000000000015843E-01     0.0000000000000000E+00 
    1.8750000000055780E-01     8.1249999999983680E-01     0.0000000000000000E+00 
    1.8750000000063199E-01     8.7499999999953304E-01     0.0000000000000000E+00 
    1.8750000000070621E-01     9.3749999999975764E-01     0.0000000000000000E+00 
    2.4999999999951281E-01     6.2500000000163314E-02     0.0000000000000000E+00 
    2.4999999999961461E-01     1.2500000000033351E-01     0.0000000000000000E+00 
    2.4999999999971650E-01     1.8750000000048361E-01     0.0000000000000000E+00 
    2.4999999999981831E-01     2.5000000000063310E-01     0.0000000000000000E+00 
    2.4999999999992020E-01     3.1250000000078260E-01     0.0000000000000000E+00 
    2.5000000000002198E-01     3.7500000000093209E-01     0.0000000000000000E+00 
    2.5000000000012390E-01     4.3750000000108180E-01     0.0000000000000000E+00 
    2.5000000000022571E-01     5.0000000000121769E-01     0.0000000000000000E+00 
    2.5000000000032763E-01     5.6250000000094724E-01     0.0000000000000000E+00 
    2.5000000000042938E-01     6.2500000000066314E-01     0.0000000000000000E+00 
    2.5000000000053119E-01     6.8750000000037925E-01     0.0000000000000000E+00 
[...]
CELL_DATA 256 
SCALARS Pressure double 1 
LOOKUP_TABLE default 

    9.7121079475158345E-01 
    9.1729794861317671E-01 
    8.7928452437965554E-01 
    8.4231367681512082E-01 
    8.0313199499519972E-01 
    7.6121571254850251E-01 
    7.1670009952497371E-01 
    6.6993683845849317E-01 
    6.2132661688500079E-01 
    5.7119853286629618E-01 
    5.1873658377362808E-01 
    4.5800536957270105E-01 
    3.9972293493669248E-01 
    3.5898626681215029E-01 
    3.3340272204939453E-01 
    3.2315481573978178E-01 
    9.5729947013047623E-01 
    9.1898691267358235E-01 
    8.8224711269644529E-01 
    8.4565450899996897E-01 
    8.0684000418982127E-01 
    7.6526393515189406E-01 
    7.2102302231119697E-01 
    6.7446245044377895E-01 
    6.2598579709136015E-01 
    5.7594820844720396E-01 
    5.2367110397127681E-01 
    4.6293703357236821E-01 
    4.0347624225320317E-01 
    3.6102409305572275E-01 
    3.3386897635444407E-01 
    3.2270431130709670E-01 
    9.4652422398166014E-01 
    9.1837949436156519E-01 
    8.8430443525424951E-01 
    8.4849560878958175E-01 
    8.1018192919527809E-01 
    7.6901782456798651E-01 
    7.2509331874288840E-01 
    6.7874711501052265E-01 
    6.3037799707679032E-01 
    5.8033345496113853E-01 
    5.2798926434164362E-01 
    4.6694104565239142E-01 
    4.0619625411479299E-01 
    3.6187317630464810E-01 
    3.3299186941950759E-01 
    3.2106770811728053E-01 
    9.3779754060700526E-01 
    9.1648832470097030E-01 
    8.8548263814873751E-01 
    8.5083661758775075E-01 
    8.1316923302771416E-01 
    7.7248295783927079E-01 
    7.2891906878721202E-01 
    6.8280971153764058E-01 
    6.3453469872161683E-01 
    5.8440182148891662E-01 
    5.3176795950847733E-01 
    4.7014417170555245E-01 
    4.0799176871506698E-01 
    3.6155956372208892E-01 
    3.3068671297387708E-01 
    3.1801948590217693E-01 
    9.3046948542232222E-01 
    9.1387197045308755E-01 
    8.8590177484508459E-01 
    8.5269863733695739E-01 
    8.1582915412799506E-01 
    7.7568807167657561E-01 
    7.3252545598346519E-01 
    6.8667735635787763E-01 
    6.3849344225082949E-01 
    5.8821218722644042E-01 
    5.3507889745636128E-01 
    4.7265290674231863E-01 
    4.0898843565945631E-01 
    3.6013251743953062E-01 
    3.2686719502142980E-01 
    3.1332680185867634E-01 
    9.2424920555445067E-01 
    9.1092825772748298E-01 
    8.8573900660252980E-01 
    8.5413682561822835E-01 
    8.1820167248646669E-01 
    7.7867508645172523E-01 
    7.3594821194276350E-01 
    6.9038099458499724E-01 
    6.4229074826006261E-01 
    5.9182009700180949E-01 
    5.3796405404393588E-01 
    4.7454846837839881E-01 
    4.0933799380000441E-01 
    3.5767253289752793E-01 
    3.2145072972082406E-01 
    3.0673282180755140E-01 
    9.1895055763950051E-01 
    9.0793035004815681E-01 
    8.8518471462318926E-01 
    8.5523168560929119E-01 
    8.2033258813807630E-01 
    7.8148742671491067E-01 
    7.3922717635603374E-01 
    6.9395601799681050E-01 
    6.4596536977577246E-01 
    5.9528066047022588E-01 
    5.4044508696732974E-01 
    4.7591920398929421E-01 
    4.0924590219420398E-01 
    3.5430343622365523E-01 
    3.1436711822934038E-01 
    2.9794141490835901E-01 
    9.1444156750360306E-01 
    9.0505546076102550E-01 
    8.8440854635069921E-01 
    8.5607350585181496E-01 
    8.2227203572806140E-01 
    7.8416649857781429E-01 
    7.4240531083912953E-01 
    6.9744435356588064E-01 
    6.4955802793112671E-01 
    5.9863528849878933E-01 
    5.4255289475795565E-01 
    4.7691611525355826E-01 
    4.0898283186492745E-01 
    3.5020687466380013E-01 
    3.0557099933939968E-01 
    2.8659452780528460E-01 
    9.1062807444546301E-01 
    9.0241766475841456E-01 
    8.8355598757243647E-01 
    8.5675893228810507E-01 
    8.2407587433342921E-01 
    7.8675366541604796E-01 
    7.4552637396009991E-01 
    7.0089046446645242E-01 
    6.5310177653101686E-01 
    6.0182264987761325E-01 
    5.4434303112089089E-01 
    4.7783450228086299E-01 
    4.0884158673457127E-01 
    3.4563789974261544E-01 
    2.9506497579685198E-01 
    2.7224317407838555E-01 
    9.0745707338751536E-01 
    9.0010367468831831E-01 
    8.8275460266400696E-01 
    8.5738743203029610E-01 
    8.2580903939452355E-01 
    7.8929456724246450E-01 
    7.4862847944631106E-01 
    7.0432063499718178E-01 
    6.5656655166222577E-01 
    6.0463178387071093E-01 
    5.4589283753923501E-01 
    4.7908043419565327E-01 
    4.0902441954978769E-01 
    3.4093648235273716E-01 
    2.8293858118970261E-01 
    2.5430611914726575E-01 
    9.0491126318750670E-01 
    8.9819365768570036E-01 
    8.8212011658546174E-01 
    8.5805971928289615E-01 
    8.2754245657551628E-01 
    7.9182764257499283E-01 
    7.5171510478496750E-01 
    7.0763969667658011E-01 
    6.5970144323698754E-01 
    6.0700072089411261E-01 
    5.4767403258703040E-01 
    4.8110410890452077E-01 
    4.0971053139316149E-01 
    3.3654802290741476E-01 
    2.6943622879461154E-01 
    2.3201318596723877E-01 
    9.0291568208705963E-01 
    8.9670128408175276E-01 
    8.8171513625106579E-01 
    8.5883564538219470E-01 
    8.2928292831271688E-01 
    7.9422785018019282E-01 
    7.5455653452545268E-01 
    7.1062855490131649E-01 
    6.6247183340690041E-01 
    6.0949708677409853E-01 
    5.5031195523418341E-01 
    4.8401715933120265E-01 
    4.1121046272928480E-01 
    3.3305424937823230E-01 
    2.5507327098484789E-01 
    2.0432061128609369E-01 
    9.0108201783577713E-01 
    8.9535154405924589E-01 
    8.8133122464022173E-01 
    8.5949415418944752E-01 
    8.3081280324093965E-01 
    7.9634485382924525E-01 
    7.5710225181921575E-01 
    7.1352202425022637E-01 
    6.6552740487184914E-01 
    6.1272818689499375E-01 
    5.5385543877937604E-01 
    4.8770215421401508E-01 
    4.1383814194489238E-01 
    3.3117686953869685E-01 
    2.4083301077198874E-01 
    1.6978584858120935E-01 
    8.9961559352069653E-01 
    8.9422064074006558E-01 
    8.8103688206927844E-01 
    8.6013228576250156E-01 
    8.3230995092647964E-01 
    7.9855782787545038E-01 
    7.5989015755801459E-01 
    7.1680834278957795E-01 
    6.6918569685329099E-01 
    6.1664131893299223E-01 
    5.5807661463065306E-01 
    4.9221193952212394E-01 
    4.1781666185261296E-01 
    3.3172445202295392E-01 
    2.2849609476011173E-01 
    1.2637881530610126E-01 
    8.9885652524016890E-01 
    8.9378387092517486E-01 
    8.8132001005382765E-01 
    8.6126355525196840E-01 
    8.3426638377526785E-01 
    8.0123717928774241E-01 
    7.6313430311465191E-01 
    7.2049221940447883E-01 
    6.7327067878654201E-01 
    6.2109075195526331E-01 
    5.6295245052303777E-01 
    4.9755583206685000E-01 
    4.2323996000950531E-01 
    3.3543539885229978E-01 
    2.2119276660842455E-01 
    7.1193758414894087E-02 
    8.9864643159729707E-01 
    8.9398662595910028E-01 
    8.8223134938260583E-01 
    8.6295256492319183E-01 
    8.3668649008652396E-01 
    8.0430136881948389E-01 
    7.6673292076730282E-01 
    7.2454876050643335E-01 
    6.7777084050873249E-01 
    6.2604841900055619E-01 
    5.6844971746681727E-01 
    5.0369593376201649E-01 
    4.3003784577256138E-01 
    3.4260721695808288E-01 
    2.2432986070696917E-01 
    0.0000000000000000E+00 

SCALARS Saturarion double 1 
LOOKUP_TABLE default 

    1.0000000000000657E+00 
    9.5507354547248724E-01 
    8.8291166846737812E-01 
    7.9565857756016445E-01 
    7.2483642667485226E-01 
    6.7088503260207510E-01 
    6.2785693793743680E-01 
    5.9045896478752569E-01 
    5.5591442428072990E-01 
    5.2081215567493333E-01 
    4.6636197806036345E-01 
    2.5822712831163541E-01 
    1.2737830112815750E-03 
    1.0000000001262553E-06 
    1.0000000000000002E-06 
    9.9999999999999995E-07 
    9.8020359299182969E-01 
    9.3791578993422453E-01 
    8.6269126729683754E-01 
    7.8551377678309997E-01 
    7.1998877285252993E-01 
    6.6679747205690032E-01 
    6.2363761347498248E-01 
    5.8679160105217443E-01 
    5.5323082430864101E-01 
    5.1886365715760696E-01 
    4.6506529839703775E-01 
    2.5924127967533728E-01 
    1.4865015592852261E-03 
    1.0000263627040594E-06 
    1.0000000000012129E-06 
    9.9999999999999995E-07 
    9.4875236814164021E-01 
    9.0986669441132817E-01 
    8.3633041479369807E-01 
    7.6772857372880676E-01 
    7.0929420296101497E-01 
    6.5819457555284089E-01 
    6.1553363166410036E-01 
    5.7982149665839722E-01 
    5.4794265927870200E-01 
    5.1497924824961105E-01 
    4.6299589562025628E-01 
    2.6101642039699025E-01 
    1.6893536764938616E-03 
    1.0000375885767487E-06 
    1.0000000000022603E-06 
    9.9999999999999995E-07 
    8.9549769785060573E-01 
    8.6594544388394412E-01 
    8.0310248932295392E-01 
    7.4178688246899271E-01 
    6.9114358488029193E-01 
    6.4660680134701887E-01 
    6.0755305203073917E-01 
    5.7394291534207720E-01 
    5.4339061923338550E-01 
    5.1200661066329789E-01 
    4.6213741009188769E-01 
    2.6882706823484748E-01 
    2.3005027209877260E-03 
    1.0023266563785168E-06 
    1.0000000002587315E-06 
    9.9999999999999995E-07 
    8.4197825848858798E-01 
    8.1725362523473255E-01 
    7.6552847358493459E-01 
    7.1304215445719332E-01 
    6.6876580630701665E-01 
    6.3078372959984597E-01 
    5.9706741544791730E-01 
    5.6646887962971593E-01 
    5.3779483582085585E-01 
    5.0756014906948244E-01 
    4.5914256902700318E-01 
    2.6830304439399244E-01 
    2.4043041292717772E-03 
    1.0054575391383156E-06 
    1.0000000002962637E-06 
    9.9999999999999995E-07 
    7.8917871494761771E-01 
    7.7030372015308224E-01 
    7.2927127448744455E-01 
    6.8441344243615754E-01 
    6.4513656127821262E-01 
    6.1205704085962620E-01 
    5.8262592994309459E-01 
    5.5529835650440584E-01 
    5.2915880922467029E-01 
    5.0055497630884938E-01 
    4.5142054818564009E-01 
    2.4992304214787020E-01 
    1.5511981652836699E-03 
    1.0234980022070972E-06 
    1.0000000013832117E-06 
    9.9999999999999995E-07 
    7.3755693717749238E-01 
    7.2480227235116879E-01 
    6.9322407935774844E-01 
    6.5519535462750234E-01 
    6.2074885037802430E-01 
    5.9156037754583357E-01 
    5.6613395132843736E-01 
    5.4213908216689133E-01 
    5.1811259891489403E-01 
    4.9081237993211380E-01 
    4.3964632067308995E-01 
    2.1190121484646637E-01 
    4.6009529119968968E-04 
    1.0055817929028590E-06 
    1.0000000005665987E-06 
    9.9999999999999995E-07 
    6.8657990556084558E-01 
    6.7953342156828511E-01 
    6.5703508963041879E-01 
    6.2616602291077395E-01 
    5.9585098618222621E-01 
    5.6928106810379742E-01 
    5.4675147716611905E-01 
    5.2683974139767320E-01 
    5.0587832306253699E-01 
    4.7889853305337365E-01 
    4.1826470780245728E-01 
    1.5080761637634196E-01 
    1.1695529483622764E-04 
    1.0029233762490233E-06 
    1.0000000003304029E-06 
    9.9999999999999995E-07 
    6.3651064677919800E-01 
    6.3419729273772740E-01 
    6.1973827019463745E-01 
    5.9623403767168404E-01 
    5.7047931445310107E-01 
    5.4646841128242107E-01 
    5.2654354982067841E-01 
    5.0909732257491247E-01 
    4.9003097152378156E-01 
    4.6006462612827481E-01 
    3.6156861181323513E-01 
    5.6308288659179383E-02 
    9.2549795170647370E-05 
    1.0013254459798540E-06 
    1.0000000000000019E-06 
    9.9999999999999995E-07 
    5.8916225502818331E-01 
    5.9053049695642812E-01 
    5.8275579111388742E-01 
    5.6528223839397129E-01 
    5.4450353537858098E-01 
    5.2430827732288110E-01 
    5.0567336989335154E-01 
    4.8762554785360895E-01 
    4.6444529142117014E-01 
    4.1235850944088054E-01 
    2.0844890116561512E-01 
    3.2690750068394177E-03 
    1.4059635176172139E-06 
    1.0000001128251824E-06 
    1.0000000000000036E-06 
    9.9999999999999995E-07 
    5.4687343791533138E-01 
    5.5060510095517046E-01 
    5.4670233741566376E-01 
    5.3324616081746479E-01 
    5.1776807377292033E-01 
    4.9960855333536702E-01 
    4.7826350323040862E-01 
    4.5067538255409190E-01 
    3.8500293491369036E-01 
    2.1803260297389795E-01 
    2.3081117573192877E-02 
    2.3973601027196744E-05 
    1.0000538000775468E-06 
    1.0000000000000705E-06 
    9.9999999999999995E-07 
    9.9999999999999995E-07 
    4.9100338306289237E-01 
    4.9994341937847858E-01 
    5.0116040692979680E-01 
    4.9162686027858615E-01 
    4.7446444865508164E-01 
    4.3965036074784430E-01 
    3.5702284248364968E-01 
    2.4490418973194733E-01 
    1.0200707229591777E-01 
    4.3938742648850599E-03 
    1.5277193628618896E-05 
    1.0000525698587514E-06 
    1.0000000000108064E-06 
    9.9999999999999995E-07 
    9.9999999999999995E-07 
    9.9999999999999995E-07 
    2.7829575583229005E-01 
    3.5445820744286383E-01 
    3.7845805974859131E-01 
    3.4050297747672209E-01 
    2.6871671978989581E-01 
    1.4662932800846140E-01 
    2.8015145881501450E-02 
    1.4936877573410645E-03 
    8.9918015938661065E-05 
    1.3129427187534203E-06 
    1.0000086407207983E-06 
    1.0000000000019267E-06 
    9.9999999999999995E-07 
    9.9999999999999995E-07 
    9.9999999999999995E-07 
    9.9999999999999995E-07 
    1.4227247196026299E-03 
    2.5694793257202093E-02 
    3.3839146921948574E-02 
    1.1721667690994027E-02 
    2.5309324013161336E-03 
    1.1072195929500006E-04 
    9.3338433764269403E-06 
    1.0440539008609672E-06 
    1.0009122962821985E-06 
    1.0000000254233650E-06 
    1.0000000000000531E-06 
    9.9999999999999995E-07 
    9.9999999999999995E-07 
    9.9999999999999995E-07 
    9.9999999999999995E-07 
    9.9999999999999995E-07 
    1.0000031138096004E-06 
    6.7079536316680041E-06 
    1.1786334794860796E-06 
    2.4786900060990669E-06 
    1.1183793364041802E-06 
    1.0021487012982137E-06 
    1.0000028208537588E-06 
    1.0000000041136546E-06 
    1.0000000000000040E-06 
    1.0000000000000002E-06 
    9.9999999999999995E-07 
    9.9999999999999995E-07 
    9.9999999999999995E-07 
    9.9999999999999995E-07 
    9.9999999999999995E-07 
    9.9999999999999995E-07 
    1.0000000000001759E-06 
    1.0000006292240468E-06 
    1.0000000309937641E-06 
    1.0000000608878567E-06 
    1.0000000087322960E-06 
    1.0000000000008324E-06 
    9.9999999999999995E-07 
    9.9999999999999995E-07 
    9.9999999999999995E-07 
    9.9999999999999995E-07 
    9.9999999999999995E-07 
    9.9999999999999995E-07 
    9.9999999999999995E-07 
    9.9999999999999995E-07 
    9.9999999999999995E-07 
    1.0000003904990965E-06 
