# vtk DataFile Version 2.0
Pressure Field Data 
ASCII 
DATASET UNSTRUCTURED_GRID 

POINTS 289 double 

    0.0000000000000000E+00     0.0000000000000000E+00     0.0000000000000000E+00 
    1.0000000000000000E+00     0.0000000000000000E+00     0.0000000000000000E+00 
    1.0000000000000000E+00     1.0000000000000000E+00     0.0000000000000000E+00 
    0.0000000000000000E+00     1.0000000000000000E+00     0.0000000000000000E+00 
    6.2499999999872928E-02     0.0000000000000000E+00     0.0000000000000000E+00 
    1.2499999999977310E-01     0.0000000000000000E+00     0.0000000000000000E+00 
    1.8749999999959341E-01     0.0000000000000000E+00     0.0000000000000000E+00 
    2.4999999999941089E-01     0.0000000000000000E+00     0.0000000000000000E+00 
    3.1249999999922851E-01     0.0000000000000000E+00     0.0000000000000000E+00 
    3.7499999999904610E-01     0.0000000000000000E+00     0.0000000000000000E+00 
    4.3749999999886358E-01     0.0000000000000000E+00     0.0000000000000000E+00 
    4.9999999999869210E-01     0.0000000000000000E+00     0.0000000000000000E+00 
    5.6249999999884603E-01     0.0000000000000000E+00     0.0000000000000000E+00 
    6.2499999999901090E-01     0.0000000000000000E+00     0.0000000000000000E+00 
    6.8749999999917577E-01     0.0000000000000000E+00     0.0000000000000000E+00 
    7.4999999999934064E-01     0.0000000000000000E+00     0.0000000000000000E+00 
    8.1249999999950551E-01     0.0000000000000000E+00     0.0000000000000000E+00 
    8.7499999999967026E-01     0.0000000000000000E+00     0.0000000000000000E+00 
    9.3749999999983513E-01     0.0000000000000000E+00     0.0000000000000000E+00 
    1.0000000000000000E+00     6.2499999999872928E-02     0.0000000000000000E+00 
    1.0000000000000000E+00     1.2499999999977310E-01     0.0000000000000000E+00 
    1.0000000000000000E+00     1.8749999999959341E-01     0.0000000000000000E+00 
    1.0000000000000000E+00     2.4999999999941089E-01     0.0000000000000000E+00 
    1.0000000000000000E+00     3.1249999999922851E-01     0.0000000000000000E+00 
    1.0000000000000000E+00     3.7499999999904610E-01     0.0000000000000000E+00 
    1.0000000000000000E+00     4.3749999999886358E-01     0.0000000000000000E+00 
    1.0000000000000000E+00     4.9999999999869210E-01     0.0000000000000000E+00 
    1.0000000000000000E+00     5.6249999999884603E-01     0.0000000000000000E+00 
    1.0000000000000000E+00     6.2499999999901090E-01     0.0000000000000000E+00 
    1.0000000000000000E+00     6.8749999999917577E-01     0.0000000000000000E+00 
    1.0000000000000000E+00     7.4999999999934064E-01     0.0000000000000000E+00 
    1.0000000000000000E+00     8.1249999999950551E-01     0.0000000000000000E+00 
    1.0000000000000000E+00     8.7499999999967026E-01     0.0000000000000000E+00 
    1.0000000000000000E+00     9.3749999999983513E-01     0.0000000000000000E+00 
    9.3749999999973976E-01     1.0000000000000000E+00     0.0000000000000000E+00 
    8.7499999999950118E-01     1.0000000000000000E+00     0.0000000000000000E+00 
    8.1249999999991318E-01     1.0000000000000000E+00     0.0000000000000000E+00 
    7.5000000000034706E-01     1.0000000000000000E+00     0.0000000000000000E+00 
    6.8750000000078049E-01     1.0000000000000000E+00     0.0000000000000000E+00 
    6.2500000000121403E-01     1.0000000000000000E+00     0.0000000000000000E+00 
    5.6250000000164757E-01     1.0000000000000000E+00     0.0000000000000000E+00 
    5.0000000000205946E-01     1.0000000000000000E+00     0.0000000000000000E+00 
    4.3750000000182099E-01     1.0000000000000000E+00     0.0000000000000000E+00 
    3.7500000000156092E-01     1.0000000000000000E+00     0.0000000000000000E+00 
    3.1250000000130068E-01     1.0000000000000000E+00     0.0000000000000000E+00 
    2.5000000000104050E-01     1.0000000000000000E+00     0.0000000000000000E+00 
    1.8750000000078040E-01     1.0000000000000000E+00     0.0000000000000000E+00 
    1.2500000000052031E-01     1.0000000000000000E+00     0.0000000000000000E+00 
    6.2500000000260125E-02     1.0000000000000000E+00     0.0000000000000000E+00 
    0.0000000000000000E+00     9.3749999999973976E-01     0.0000000000000000E+00 
    0.0000000000000000E+00     8.7499999999950118E-01     0.0000000000000000E+00 
    0.0000000000000000E+00     8.1249999999991318E-01     0.0000000000000000E+00 
    0.0000000000000000E+00     7.5000000000034706E-01     0.0000000000000000E+00 
    0.0000000000000000E+00     6.8750000000078049E-01     0.0000000000000000E+00 
    0.0000000000000000E+00     6.2500000000121403E-01     0.0000000000000000E+00 
    0.0000000000000000E+00     5.6250000000164757E-01     0.0000000000000000E+00 
    0.0000000000000000E+00     5.0000000000205946E-01     0.0000000000000000E+00 
    0.0000000000000000E+00     4.3750000000182099E-01     0.0000000000000000E+00 
    0.0000000000000000E+00     3.7500000000156092E-01     0.0000000000000000E+00 
    0.0000000000000000E+00     3.1250000000130068E-01     0.0000000000000000E+00 
    0.0000000000000000E+00     2.5000000000104050E-01     0.0000000000000000E+00 
    0.0000000000000000E+00     1.8750000000078040E-01     0.0000000000000000E+00 
    0.0000000000000000E+00     1.2500000000052031E-01     0.0000000000000000E+00 
    0.0000000000000000E+00     6.2500000000260125E-02     0.0000000000000000E+00 
    6.2499999999897131E-02     6.2500000000235922E-02     0.0000000000000000E+00 
    6.2499999999921327E-02     1.2500000000047351E-01     0.0000000000000000E+00 
    6.2499999999945530E-02     1.8750000000070621E-01     0.0000000000000000E+00 
    6.2499999999969733E-02     2.5000000000093858E-01     0.0000000000000000E+00 
    6.2499999999993928E-02     3.1250000000117117E-01     0.0000000000000000E+00 
    6.2500000000018124E-02     3.7500000000140382E-01     0.0000000000000000E+00 
    6.2500000000042327E-02     4.3750000000163619E-01     0.0000000000000000E+00 
    6.2500000000066530E-02     5.0000000000184897E-01     0.0000000000000000E+00 
    6.2500000000090733E-02     5.6250000000147260E-01     0.0000000000000000E+00 
    6.2500000000114922E-02     6.2500000000107636E-01     0.0000000000000000E+00 
    6.2500000000139125E-02     6.8750000000068034E-01     0.0000000000000000E+00 
    6.2500000000163328E-02     7.5000000000028411E-01     0.0000000000000000E+00 
    6.2500000000187531E-02     8.1249999999988787E-01     0.0000000000000000E+00 
    6.2500000000211720E-02     8.7499999999951172E-01     0.0000000000000000E+00 
    6.2500000000235922E-02     9.3749999999974565E-01     0.0000000000000000E+00 
    1.2499999999981980E-01     6.2500000000211733E-02     0.0000000000000000E+00 
    1.2499999999986650E-01     1.2500000000042691E-01     0.0000000000000000E+00 
    1.2499999999991319E-01     1.8750000000063199E-01     0.0000000000000000E+00 
    1.2499999999995989E-01     2.5000000000083678E-01     0.0000000000000000E+00 
    1.2500000000000661E-01     3.1250000000104172E-01     0.0000000000000000E+00 
    1.2500000000005329E-01     3.7500000000124661E-01     0.0000000000000000E+00 
    1.2500000000010000E-01     4.3750000000145117E-01     0.0000000000000000E+00 
    1.2500000000014669E-01     5.0000000000163858E-01     0.0000000000000000E+00 
    1.2500000000019340E-01     5.6250000000129741E-01     0.0000000000000000E+00 
    1.2500000000024011E-01     6.2500000000093847E-01     0.0000000000000000E+00 
    1.2500000000028680E-01     6.8750000000057998E-01     0.0000000000000000E+00 
    1.2500000000033351E-01     7.5000000000022127E-01     0.0000000000000000E+00 
    1.2500000000038020E-01     8.1249999999986211E-01     0.0000000000000000E+00 
    1.2500000000042691E-01     8.7499999999952238E-01     0.0000000000000000E+00 
    1.2500000000047359E-01     9.3749999999975164E-01     0.0000000000000000E+00 
    1.8749999999966760E-01     6.2500000000187531E-02     0.0000000000000000E+00 
    1.8749999999974179E-01     1.2500000000038020E-01     0.0000000000000000E+00 
    1.8749999999981601E-01     1.8750000000055780E-01     0.0000000000000000E+00 
    1.8749999999989009E-01     2.5000000000073502E-01     0.0000000000000000E+00 
    1.8749999999996431E-01     3.1250000000091221E-01     0.0000000000000000E+00 
    1.8750000000003850E-01     3.7500000000108941E-01     0.0000000000000000E+00 
    1.8750000000011269E-01     4.3750000000126649E-01     0.0000000000000000E+00 
    1.8750000000018691E-01     5.0000000000142808E-01     0.0000000000000000E+00 
    1.8750000000026110E-01     5.6250000000112244E-01     0.0000000000000000E+00 
    1.8750000000033529E-01     6.2500000000080080E-01     0.0000000000000000E+00 
    1.8750000000040951E-01     6.8750000000047962E-01     0.0000000000000000E+00 
    1.8750000000048361E-01     7.5000000000015843E-01     0.0000000000000000E+00 
    1.8750000000055780E-01     8.1249999999983680E-01     0.0000000000000000E+00 
    1.8750000000063199E-01     8.7499999999953304E-01     0.0000000000000000E+00 
    1.8750000000070621E-01     9.3749999999975764E-01     0.0000000000000000E+00 
    2.4999999999951281E-01     6.2500000000163314E-02     0.0000000000000000E+00 
    2.4999999999961461E-01     1.2500000000033351E-01     0.0000000000000000E+00 
    2.4999999999971650E-01     1.8750000000048361E-01     0.0000000000000000E+00 
    2.4999999999981831E-01     2.5000000000063310E-01     0.0000000000000000E+00 
    2.4999999999992020E-01     3.1250000000078260E-01     0.0000000000000000E+00 
    2.5000000000002198E-01     3.7500000000093209E-01     0.0000000000000000E+00 
    2.5000000000012390E-01     4.3750000000108180E-01     0.0000000000000000E+00 
    2.5000000000022571E-01     5.0000000000121769E-01     0.0000000000000000E+00 
    2.5000000000032763E-01     5.6250000000094724E-01     0.0000000000000000E+00 
    2.5000000000042938E-01     6.2500000000066314E-01     0.0000000000000000E+00 
    2.5000000000053119E-01     6.8750000000037925E-01     0.0000000000000000E+00 
[...]
CELL_DATA 256 
SCALARS Pressure double 1 
LOOKUP_TABLE default 

    8.8835421194475761E-01 
    8.3648511784364565E-01 
    8.0153543523872850E-01 
    7.6856157417363014E-01 
    7.3422811793074116E-01 
    6.9779807740095678E-01 
    6.5919054061287230E-01 
    6.1868080668294889E-01 
    5.7674674984536356E-01 
    5.3409343044622859E-01 
    4.9180004030287772E-01 
    4.5159466692202010E-01 
    4.1586722084773220E-01 
    3.8582275138880817E-01 
    3.6214978019835758E-01 
    3.5151581002705157E-01 
    8.7441728583770495E-01 
    8.3797888840913537E-01 
    8.0422730973129275E-01 
    7.7156368786526075E-01 
    7.3750803056546999E-01 
    7.0134557266882847E-01 
    6.6297037537931247E-01 
    6.2262728787634636E-01 
    5.8076460041728517E-01 
    5.3804674186422086E-01 
    4.9549014296884741E-01 
    4.5474631174747693E-01 
    4.1821879941841988E-01 
    3.8734331000081873E-01 
    3.6259305210238163E-01 
    3.5107694765342384E-01 
    8.6369312932540265E-01 
    8.3726710174455410E-01 
    8.0610104445207964E-01 
    7.7416282187078955E-01 
    7.4051664280346863E-01 
    7.0467846777167265E-01 
    6.6656578989490856E-01 
    6.2639906020253711E-01 
    5.8458966653133337E-01 
    5.4174975003665071E-01 
    4.9881765014004392E-01 
    4.5734606985186821E-01 
    4.1973299617735760E-01 
    3.8774534695723567E-01 
    3.6172198036263181E-01 
    3.4945127580121282E-01 
    8.5516456940091801E-01 
    8.3538972107806586E-01 
    8.0718996484157568E-01 
    7.7634475941170744E-01 
    7.4325961442950417E-01 
    7.0780657847131978E-01 
    6.6998454127286011E-01 
    6.3000717045644938E-01 
    5.8824579106943709E-01 
    5.4524651684321757E-01 
    5.0184967048538653E-01 
    4.5947988829325231E-01 
    4.2049444455516427E-01 
    3.8703714854697091E-01 
    3.5945346453686028E-01 
    3.4642751585238046E-01 
    8.4817630787123688E-01 
    8.3292171853209240E-01 
    8.0762023766901847E-01 
    7.7811930385214589E-01 
    7.4574541650889437E-01 
    7.1074689593657381E-01 
    6.7324615375095442E-01 
    6.3347334889403539E-01 
    5.9176321886713645E-01 
    5.4858532494812218E-01 
    5.0466011891672080E-01 
    4.6124769155955048E-01 
    4.2060766034805280E-01 
    3.8524166645878088E-01 
    3.5570087794649041E-01 
    3.4179258538954627E-01 
    8.4237329597375277E-01 
    8.3022535091766714E-01 
    8.0754988075838174E-01 
    7.7952519608886151E-01 
    7.4798966926660615E-01 
    7.1351895551632272E-01 
    6.7637720398016477E-01 
    6.3682830578411753E-01 
    5.9517770852648488E-01 
    5.5181568748239473E-01 
    5.0732435421065813E-01 
    4.6275799693813630E-01 
    4.2019473919936551E-01 
    3.8240328567835741E-01 
    3.5038767399271542E-01 
    3.3531967063541673E-01 
    8.3752740135833192E-01 
    8.2753686026055562E-01 
    8.0714500096905906E-01 
    7.8062863457341924E-01 
    7.5002031605246433E-01 
    7.1614424157557777E-01 
    6.7940346702701693E-01 
    6.4010467744486277E-01 
    5.9852900196054015E-01 
    5.5498922375153392E-01 
    5.0991972730461343E-01 
    4.6412664556174776E-01 
    4.1940128650526454E-01 
    3.7861553109246360E-01 
    3.4347639395389440E-01 
    3.2675785054119139E-01 
    8.3347758449179321E-01 
    8.2500418459596325E-01 
    8.0655426616511650E-01 
    7.8150629553883444E-01 
    7.5187494088105422E-01 
    7.1864688251002506E-01 
    6.8234825450139414E-01 
    6.4333186555755573E-01 
    6.0185679515941970E-01 
    5.5816065328288333E-01 
    5.1252826069513613E-01 
    4.6548173034552726E-01 
    4.1840718216402428E-01 
    3.7406079767990219E-01 
    3.3499646570434521E-01 
    3.1577904151614872E-01 
    8.3010713587016571E-01 
    8.2271540917137798E-01 
    8.0589945753178349E-01 
    7.8223698400703545E-01 
    7.5359806361287895E-01 
    7.2105349798262952E-01 
    6.8523182186958842E-01 
    6.4653429000767837E-01 
    6.0519768356188142E-01 
    5.6138408125926154E-01 
    5.1523324400843773E-01 
    4.6696022338321402E-01 
    4.1742684583357070E-01 
    3.6898224085747894E-01 
    3.2492423419217958E-01 
    3.0178592637601226E-01 
    8.2733218078619231E-01 
    8.2072329101221486E-01 
    8.0527757720461823E-01 
    7.8289755986599696E-01 
    7.5524048104094288E-01 
    7.2339492058921939E-01 
    6.8807441352741305E-01 
    6.4973451076982136E-01 
    6.0858594682251310E-01 
    5.6471026325273666E-01 
    5.1811495619459869E-01 
    4.6870315211026103E-01 
    4.1670625685448609E-01 
    3.6369256334109062E-01 
    3.1319092705323692E-01 
    2.8378393450180933E-01 
    8.2509705525203381E-01 
    8.1906626642289859E-01 
    8.0477187827831387E-01 
    7.8356493246208114E-01 
    7.5686069736054684E-01 
    7.2571166100864293E-01 
    6.9090228997294012E-01 
    6.5295582014680675E-01 
    6.1205106478695925E-01 
    5.6817841670725999E-01 
    5.2123932514169480E-01 
    4.7084283282314898E-01 
    4.1651382956254901E-01 
    3.5861291954791602E-01 
    2.9991194825399670E-01 
    2.6065618108887267E-01 
    8.2337520648824514E-01 
    8.1778637779163199E-01 
    8.0446317263030442E-01 
    7.8431777467020236E-01 
    7.5852441480174759E-01 
    7.2805464226661787E-01 
    6.9374711732923500E-01 
    6.5621280589311659E-01 
    6.1559664804831271E-01 
    5.7178320170316510E-01 
    5.2460996835197415E-01 
    4.7344214319515054E-01 
    4.1707660381102829E-01 
    3.5426758409620313E-01 
    2.8554052791079493E-01 
    2.3135597364032590E-01 
    8.2211932228323648E-01 
    8.1690022486423419E-01 
    8.0441032987180106E-01 
    7.8521872905650558E-01 
    7.6028306858296657E-01 
    7.3045781983903546E-01 
    6.9660072798731842E-01 
    6.5939754715417509E-01 
    6.1904109134596186E-01 
    5.7532242246089127E-01 
    5.2798405448098273E-01 
    4.7626056026011665E-01 
    4.1834306416231931E-01 
    3.5098993355494285E-01 
    2.7059895699150593E-01 
    1.9438467378139551E-01 
    8.2107668320065752E-01 
    8.1624008821289329E-01 
    8.0452483207704906E-01 
    7.8618365241452226E-01 
    7.6201918633963694E-01 
    7.3280196700824274E-01 
    6.9936331659411299E-01 
    6.6242410158319109E-01 
    6.2230532763413571E-01 
    5.7882297795531756E-01 
    5.3154190322432926E-01 
    4.7960211119549601E-01 
    4.2065851468989512E-01 
    3.4932944238187746E-01 
    2.5581191972080247E-01 
    1.4673477936494100E-01 
    8.2037635229130379E-01 
    8.1586216385470467E-01 
    8.0484127513482273E-01 
    7.8725145668254504E-01 
    7.6377141538441984E-01 
    7.3515027173851977E-01 
    7.0218532146276214E-01 
    6.6559335781257667E-01 
    6.2577262657972155E-01 
    5.8261951053651173E-01 
    5.3560477843436272E-01 
    4.8379388574822818E-01 
    4.2461645742548809E-01 
    3.5123580425118667E-01 
    2.4509185811961334E-01 
    8.3716178843986550E-02 
    8.2018959038400219E-01 
    8.1604587715460097E-01 
    8.0564781136039210E-01 
    7.8872525856730480E-01 
    7.6586354825548242E-01 
    7.3779915335253188E-01 
    7.0530882907189318E-01 
    6.6910093062716014E-01 
    6.2960351490617583E-01 
    5.8676396894022087E-01 
    5.4009326272329905E-01 
    4.8865222071766634E-01 
    4.2992975161191882E-01 
    3.5713562068027721E-01 
    2.4679403506984043E-01 
    0.0000000000000000E+00 

SCALARS Saturarion double 1 
LOOKUP_TABLE default 

    1.0000000000000016E+00 
    9.6592856738550414E-01 
    9.0717327432834938E-01 
    8.3530411910293090E-01 
    7.7436038068186686E-01 
    7.2397243274509293E-01 
    6.8285629184176322E-01 
    6.4840746702090435E-01 
    6.1801139816527018E-01 
    5.8979510795469936E-01 
    5.6263384559165197E-01 
    5.3570575998702774E-01 
    5.0352175199283189E-01 
    4.1295912952563490E-01 
    7.0361513696338820E-02 
    1.0000007037551547E-06 
    9.8599902240097481E-01 
    9.5372204762361890E-01 
    8.9220987295346277E-01 
    8.2573863949308490E-01 
    7.6908036719328732E-01 
    7.2069835840908225E-01 
    6.8000955577317790E-01 
    6.4551178803289933E-01 
    6.1538492000953915E-01 
    5.8784975308178367E-01 
    5.6162286115818127E-01 
    5.3564079175970403E-01 
    5.0460425873135029E-01 
    4.2074824856276100E-01 
    9.1695108913091877E-02 
    3.8110462150595960E-06 
    9.6400940294507764E-01 
    9.3274319645250159E-01 
    8.7187150878889852E-01 
    8.0962576843053846E-01 
    7.5827419184414813E-01 
    7.1347804153744543E-01 
    6.7407733744993059E-01 
    6.3966795319685077E-01 
    6.0983751045190182E-01 
    5.8335681462166133E-01 
    5.5874359826129572E-01 
    5.3437808936181852E-01 
    5.0555886460374355E-01 
    4.3116818808291679E-01 
    1.1751200292938944E-01 
    5.5794962531445279E-06 
    9.2545167116353200E-01 
    9.0047973127408998E-01 
    8.4722032305846784E-01 
    7.8964065154690855E-01 
    7.4145588932902307E-01 
    7.0107979000608400E-01 
    6.6511778248140307E-01 
    6.3296329780923799E-01 
    6.0439829799167788E-01 
    5.7900909172949799E-01 
    5.5555495908451080E-01 
    5.3269038225701359E-01 
    5.0669058163703651E-01 
    4.4155410601024170E-01 
    1.4866004208915484E-01 
    2.6174976135360493E-05 
    8.8262771978064647E-01 
    8.6161499679465170E-01 
    8.1573664202917162E-01 
    7.6495058980439401E-01 
    7.2075357745008595E-01 
    6.8378008674837198E-01 
    6.5186000895797291E-01 
    6.2340119297553320E-01 
    5.9768631099877578E-01 
    5.7423695938128416E-01 
    5.5240855947530987E-01 
    5.3123785151701053E-01 
    5.0746749045855144E-01 
    4.5111976213279209E-01 
    1.8220674285401989E-01 
    9.8328386979425607E-05 
    8.3834747345464478E-01 
    8.2143480419878634E-01 
    7.8319077041402230E-01 
    7.3916744028560821E-01 
    6.9905902923060437E-01 
    6.6469920246198300E-01 
    6.3540874142378978E-01 
    6.1019222874905565E-01 
    5.8759265158649943E-01 
    5.6666643225745617E-01 
    5.4702868205698429E-01 
    5.2822518427475151E-01 
    5.0761320182286318E-01 
    4.5866458615514716E-01 
    2.1820871361697730E-01 
    4.2436325645043020E-04 
    7.9285131869152337E-01 
    7.8079412906214907E-01 
    7.5033655262665022E-01 
    7.1239907019617943E-01 
    6.7636084488393922E-01 
    6.4489725511745388E-01 
    6.1816551241512452E-01 
    5.9508978581488747E-01 
    5.7488354506260331E-01 
    5.5656333336999009E-01 
    5.3956384038656480E-01 
    5.2331907004537215E-01 
    5.0608904011593814E-01 
    4.6551135800088489E-01 
    2.6327215378343516E-01 
    2.0467270449139549E-03 
    7.4622459903252647E-01 
    7.3913528830292297E-01 
    7.1656328033319105E-01 
    6.8476904405348649E-01 
    6.5256326527614772E-01 
    6.2385928399722113E-01 
    5.9905149745945319E-01 
    5.7792768256673521E-01 
    5.5993365269234940E-01 
    5.4433032997759601E-01 
    5.3006471506177122E-01 
    5.1667137205344160E-01 
    5.0290308564278596E-01 
    4.7110866837066762E-01 
    3.1394041682003598E-01 
    1.1093452553317007E-02 
    6.9852720903467425E-01 
    6.9579285594189932E-01 
    6.8023854295249819E-01 
    6.5493383185704768E-01 
    6.2741903070565030E-01 
    6.0149066021596997E-01 
    5.7829085116053280E-01 
    5.5828115168219794E-01 
    5.4205884768309898E-01 
    5.2898316710832305E-01 
    5.1793517727102534E-01 
    5.0782990931501204E-01 
    4.9776247401466006E-01 
    4.7466046335621309E-01 
    3.5006039982187814E-01 
    3.6721402410581208E-02 
    6.4981154276571673E-01 
    6.5081984260581738E-01 
    6.4148564303208644E-01 
    6.2231272449128672E-01 
    5.9993839684655292E-01 
    5.7758133210123819E-01 
    5.5635117082475249E-01 
    5.3781986436536033E-01 
    5.2322193961826813E-01 
    5.1184934250481007E-01 
    5.0271613499269074E-01 
    4.9592622991857382E-01 
    4.9036537245463002E-01 
    4.7535246971330741E-01 
    3.7864359848372448E-01 
    8.1468972844093296E-02 
    6.0102024685098465E-01 
    6.0499260917374686E-01 
    6.0116760493395238E-01 
    5.8772530569822912E-01 
    5.7025990336039056E-01 
    5.5208515874241948E-01 
    5.3454087625308966E-01 
    5.1804968126875928E-01 
    5.0383030436885157E-01 
    4.9211839927587281E-01 
    4.8320030268972519E-01 
    4.7848488784856091E-01 
    4.7824483381166416E-01 
    4.7247301460228813E-01 
    3.9941166270390804E-01 
    1.3215079782889366E-01 
    5.5509417900758584E-01 
    5.6095176851611361E-01 
    5.6152425961836061E-01 
    5.5255783904042355E-01 
    5.3855436869438278E-01 
    5.2420672207633046E-01 
    5.1020097647423879E-01 
    4.9458011152010761E-01 
    4.7727779685767868E-01 
    4.5970183781121021E-01 
    4.4504234164709389E-01 
    4.3927563616181925E-01 
    4.4783044389771343E-01 
    4.6015357287634107E-01 
    4.1602144782953121E-01 
    1.7975585785841677E-01 
    4.9644374076674141E-01 
    5.0816415751760813E-01 
    5.1371925828836906E-01 
    5.0994543552072480E-01 
    4.9721067671482361E-01 
    4.8213438791184143E-01 
    4.6475286866599691E-01 
    4.3279208127288266E-01 
    3.5023309071567749E-01 
    2.6464817389529638E-01 
    2.1829961595122110E-01 
    2.1314725404063617E-01 
    3.1093789903684776E-01 
    4.0562176522600074E-01 
    4.0671839786829156E-01 
    2.2277032747553771E-01 
    2.6178106732117828E-01 
    3.4918110062798347E-01 
    3.8872423637345216E-01 
    3.8726405304980599E-01 
    3.4179747657094262E-01 
    2.6172979181713302E-01 
    2.0619676673543980E-01 
    1.0495269138365076E-01 
    1.7547358332198091E-02 
    1.8988079078102896E-03 
    3.0219311207539126E-04 
    2.8072583256057648E-04 
    3.9393742546728561E-02 
    2.0752289639122523E-01 
    3.5674513418382764E-01 
    2.4553005669698189E-01 
    4.8682825463301435E-04 
    1.9810064640503344E-02 
    3.6274375582111093E-02 
    2.9433914810572767E-02 
    1.2259053624682156E-02 
    1.0486036581292535E-03 
    1.9539771318846110E-04 
    3.7811515874777840E-05 
    3.8676679192656452E-06 
    1.0504138651195169E-06 
    1.0028662003330167E-06 
    1.0053039628988759E-06 
    1.1168466589619423E-04 
    2.1660690160831057E-02 
    2.5464518635124034E-01 
    2.5293501635133908E-01 
    1.0000007508256108E-06 
    4.6312384729755029E-06 
    1.8177904496369622E-06 
    2.2274207777930570E-06 
    2.1941634311852339E-06 
    1.0121605256207289E-06 
    1.0006498457894155E-06 
    1.0000660442156116E-06 
    1.0000002935744356E-06 
    1.0000000029403853E-06 
    1.0000000000238355E-06 
    1.0000000000050438E-06 
    1.0009131272108808E-06 
    0.0000000000000000E+00 
    7.8280614876396593E-02 
    2.1794360395906523E-01 
