# vtk DataFile Version 2.0
Pressure Field Data 
ASCII 
DATASET UNSTRUCTURED_GRID 

POINTS 289 double 

    0.0000000000000000E+00     0.0000000000000000E+00     0.0000000000000000E+00 
    1.0000000000000000E+00     0.0000000000000000E+00     0.0000000000000000E+00 
    1.0000000000000000E+00     1.0000000000000000E+00     0.0000000000000000E+00 
    0.0000000000000000E+00     1.0000000000000000E+00     0.0000000000000000E+00 
    6.2499999999872928E-02     0.0000000000000000E+00     0.0000000000000000E+00 
    1.2499999999977310E-01     0.0000000000000000E+00     0.0000000000000000E+00 
    1.8749999999959341E-01     0.0000000000000000E+00     0.0000000000000000E+00 
    2.4999999999941089E-01     0.0000000000000000E+00     0.0000000000000000E+00 
    3.1249999999922851E-01     0.0000000000000000E+00     0.0000000000000000E+00 
    3.7499999999904610E-01     0.0000000000000000E+00     0.0000000000000000E+00 
    4.3749999999886358E-01     0.0000000000000000E+00     0.0000000000000000E+00 
    4.9999999999869210E-01     0.0000000000000000E+00     0.0000000000000000E+00 
    5.6249999999884603E-01     0.0000000000000000E+00     0.0000000000000000E+00 
    6.2499999999901090E-01     0.0000000000000000E+00     0.0000000000000000E+00 
    6.8749999999917577E-01     0.0000000000000000E+00     0.0000000000000000E+00 
    7.4999999999934064E-01     0.0000000000000000E+00     0.0000000000000000E+00 
    8.1249999999950551E-01     0.0000000000000000E+00     0.0000000000000000E+00 
    8.7499999999967026E-01     0.0000000000000000E+00     0.0000000000000000E+00 
    9.3749999999983513E-01     0.0000000000000000E+00     0.0000000000000000E+00 
    1.0000000000000000E+00     6.2499999999872928E-02     0.0000000000000000E+00 
    1.0000000000000000E+00     1.2499999999977310E-01     0.0000000000000000E+00 
    1.0000000000000000E+00     1.8749999999959341E-01     0.0000000000000000E+00 
    1.0000000000000000E+00     2.4999999999941089E-01     0.0000000000000000E+00 
    1.0000000000000000E+00     3.1249999999922851E-01     0.0000000000000000E+00 
    1.0000000000000000E+00     3.7499999999904610E-01     0.0000000000000000E+00 
    1.0000000000000000E+00     4.3749999999886358E-01     0.0000000000000000E+00 
    1.0000000000000000E+00     4.9999999999869210E-01     0.0000000000000000E+00 
    1.0000000000000000E+00     5.6249999999884603E-01     0.0000000000000000E+00 
    1.0000000000000000E+00     6.2499999999901090E-01     0.0000000000000000E+00 
    1.0000000000000000E+00     6.8749999999917577E-01     0.0000000000000000E+00 
    1.0000000000000000E+00     7.4999999999934064E-01     0.0000000000000000E+00 
    1.0000000000000000E+00     8.1249999999950551E-01     0.0000000000000000E+00 
    1.0000000000000000E+00     8.7499999999967026E-01     0.0000000000000000E+00 
    1.0000000000000000E+00     9.3749999999983513E-01     0.0000000000000000E+00 
    9.3749999999973976E-01     1.0000000000000000E+00     0.0000000000000000E+00 
    8.7499999999950118E-01     1.0000000000000000E+00     0.0000000000000000E+00 
    8.1249999999991318E-01     1.0000000000000000E+00     0.0000000000000000E+00 
    7.5000000000034706E-01     1.0000000000000000E+00     0.0000000000000000E+00 
    6.8750000000078049E-01     1.0000000000000000E+00     0.0000000000000000E+00 
    6.2500000000121403E-01     1.0000000000000000E+00     0.0000000000000000E+00 
    5.6250000000164757E-01     1.0000000000000000E+00     0.0000000000000000E+00 
    5.0000000000205946E-01     1.0000000000000000E+00     0.0000000000000000E+00 
    4.3750000000182099E-01     1.0000000000000000E+00     0.0000000000000000E+00 
    3.7500000000156092E-01     1.0000000000000000E+00     0.0000000000000000E+00 
    3.1250000000130068E-01     1.0000000000000000E+00     0.0000000000000000E+00 
    2.5000000000104050E-01     1.0000000000000000E+00     0.0000000000000000E+00 
    1.8750000000078040E-01     1.0000000000000000E+00     0.0000000000000000E+00 
    1.2500000000052031E-01     1.0000000000000000E+00     0.0000000000000000E+00 
    6.2500000000260125E-02     1.0000000000000000E+00     0.0000000000000000E+00 
    0.0000000000000000E+00     9.3749999999973976E-01     0.0000000000000000E+00 
    0.0000000000000000E+00     8.7499999999950118E-01     0.0000000000000000E+00 
    0.0000000000000000E+00     8.1249999999991318E-01     0.0000000000000000E+00 
    0.0000000000000000E+00     7.5000000000034706E-01     0.0000000000000000E+00 
    0.0000000000000000E+00     6.8750000000078049E-01     0.0000000000000000E+00 
    0.0000000000000000E+00     6.2500000000121403E-01     0.0000000000000000E+00 
    0.0000000000000000E+00     5.6250000000164757E-01     0.0000000000000000E+00 
    0.0000000000000000E+00     5.0000000000205946E-01     0.0000000000000000E+00 
    0.0000000000000000E+00     4.3750000000182099E-01     0.0000000000000000E+00 
    0.0000000000000000E+00     3.7500000000156092E-01     0.0000000000000000E+00 
    0.0000000000000000E+00     3.1250000000130068E-01     0.0000000000000000E+00 
    0.0000000000000000E+00     2.5000000000104050E-01     0.0000000000000000E+00 
    0.0000000000000000E+00     1.8750000000078040E-01     0.0000000000000000E+00 
    0.0000000000000000E+00     1.2500000000052031E-01     0.0000000000000000E+00 
    0.0000000000000000E+00     6.2500000000260125E-02     0.0000000000000000E+00 
    6.2499999999897131E-02     6.2500000000235922E-02     0.0000000000000000E+00 
    6.2499999999921327E-02     1.2500000000047351E-01     0.0000000000000000E+00 
    6.2499999999945530E-02     1.8750000000070621E-01     0.0000000000000000E+00 
    6.2499999999969733E-02     2.5000000000093858E-01     0.0000000000000000E+00 
    6.2499999999993928E-02     3.1250000000117117E-01     0.0000000000000000E+00 
    6.2500000000018124E-02     3.7500000000140382E-01     0.0000000000000000E+00 
    6.2500000000042327E-02     4.3750000000163619E-01     0.0000000000000000E+00 
    6.2500000000066530E-02     5.0000000000184897E-01     0.0000000000000000E+00 
    6.2500000000090733E-02     5.6250000000147260E-01     0.0000000000000000E+00 
    6.2500000000114922E-02     6.2500000000107636E-01     0.0000000000000000E+00 
    6.2500000000139125E-02     6.8750000000068034E-01     0.0000000000000000E+00 
    6.2500000000163328E-02     7.5000000000028411E-01     0.0000000000000000E+00 
    6.2500000000187531E-02     8.1249999999988787E-01     0.0000000000000000E+00 
    6.2500000000211720E-02     8.7499999999951172E-01     0.0000000000000000E+00 
    6.2500000000235922E-02     9.3749999999974565E-01     0.0000000000000000E+00 
    1.2499999999981980E-01     6.2500000000211733E-02     0.0000000000000000E+00 
    1.2499999999986650E-01     1.2500000000042691E-01     0.0000000000000000E+00 
    1.2499999999991319E-01     1.8750000000063199E-01     0.0000000000000000E+00 
    1.2499999999995989E-01     2.5000000000083678E-01     0.0000000000000000E+00 
    1.2500000000000661E-01     3.1250000000104172E-01     0.0000000000000000E+00 
    1.2500000000005329E-01     3.7500000000124661E-01     0.0000000000000000E+00 
    1.2500000000010000E-01     4.3750000000145117E-01     0.0000000000000000E+00 
    1.2500000000014669E-01     5.0000000000163858E-01     0.0000000000000000E+00 
    1.2500000000019340E-01     5.6250000000129741E-01     0.0000000000000000E+00 
    1.2500000000024011E-01     6.2500000000093847E-01     0.0000000000000000E+00 
    1.2500000000028680E-01     6.8750000000057998E-01     0.0000000000000000E+00 
    1.2500000000033351E-01     7.5000000000022127E-01     0.0000000000000000E+00 
    1.2500000000038020E-01     8.1249999999986211E-01     0.0000000000000000E+00 
    1.2500000000042691E-01     8.7499999999952238E-01     0.0000000000000000E+00 
    1.2500000000047359E-01     9.3749999999975164E-01     0.0000000000000000E+00 
    1.8749999999966760E-01     6.2500000000187531E-02     0.0000000000000000E+00 
    1.8749999999974179E-01     1.2500000000038020E-01     0.0000000000000000E+00 
    1.8749999999981601E-01     1.8750000000055780E-01     0.0000000000000000E+00 
    1.8749999999989009E-01     2.5000000000073502E-01     0.0000000000000000E+00 
    1.8749999999996431E-01     3.1250000000091221E-01     0.0000000000000000E+00 
    1.8750000000003850E-01     3.7500000000108941E-01     0.0000000000000000E+00 
    1.8750000000011269E-01     4.3750000000126649E-01     0.0000000000000000E+00 
    1.8750000000018691E-01     5.0000000000142808E-01     0.0000000000000000E+00 
    1.8750000000026110E-01     5.6250000000112244E-01     0.0000000000000000E+00 
    1.8750000000033529E-01     6.2500000000080080E-01     0.0000000000000000E+00 
    1.8750000000040951E-01     6.8750000000047962E-01     0.0000000000000000E+00 
    1.8750000000048361E-01     7.5000000000015843E-01     0.0000000000000000E+00 
    1.8750000000055780E-01     8.1249999999983680E-01     0.0000000000000000E+00 
    1.8750000000063199E-01     8.7499999999953304E-01     0.0000000000000000E+00 
    1.8750000000070621E-01     9.3749999999975764E-01     0.0000000000000000E+00 
    2.4999999999951281E-01     6.2500000000163314E-02     0.0000000000000000E+00 
    2.4999999999961461E-01     1.2500000000033351E-01     0.0000000000000000E+00 
    2.4999999999971650E-01     1.8750000000048361E-01     0.0000000000000000E+00 
    2.4999999999981831E-01     2.5000000000063310E-01     0.0000000000000000E+00 
    2.4999999999992020E-01     3.1250000000078260E-01     0.0000000000000000E+00 
    2.5000000000002198E-01     3.7500000000093209E-01     0.0000000000000000E+00 
    2.5000000000012390E-01     4.3750000000108180E-01     0.0000000000000000E+00 
    2.5000000000022571E-01     5.0000000000121769E-01     0.0000000000000000E+00 
    2.5000000000032763E-01     5.6250000000094724E-01     0.0000000000000000E+00 
    2.5000000000042938E-01     6.2500000000066314E-01     0.0000000000000000E+00 
    2.5000000000053119E-01     6.8750000000037925E-01     0.0000000000000000E+00 
[...]
CELL_DATA 256 
SCALARS Pressure double 1 
LOOKUP_TABLE default 

    8.9720570150493439E-01 
    8.4479269103439658E-01 
    8.0901489100986912E-01 
    7.7495447384855698E-01 
    7.3929900407194260E-01 
    7.0135096878243663E-01 
    6.6108274543293466E-01 
    6.1882270935336969E-01 
    5.7509298713646784E-01 
    5.3062756978445036E-01 
    4.8651907884804452E-01 
    4.4438803061266030E-01 
    4.0561783568963949E-01 
    3.6819592955334329E-01 
    3.4053900682073895E-01 
    3.3006014887524349E-01 
    8.8327861353840553E-01 
    8.4634105520318947E-01 
    8.1178303093113968E-01 
    7.7805140871497913E-01 
    7.4269728721025019E-01 
    7.0503913355257641E-01 
    6.6501672648390886E-01 
    6.2292768460102266E-01 
    5.7926939317236936E-01 
    5.3473940599685177E-01 
    4.9037260460913762E-01 
    4.4774880065945066E-01 
    4.0836920623556205E-01 
    3.7016166769916592E-01 
    3.4107416843609983E-01 
    3.2960524165517546E-01 
    8.7254848862362333E-01 
    8.4566217946670375E-01 
    8.1371194575266670E-01 
    7.8072184023733115E-01 
    7.4580017946160293E-01 
    7.0849183807582816E-01 
    6.6874845760674506E-01 
    6.2684005792293851E-01 
    5.8323292123402282E-01 
    5.3857826871111159E-01 
    4.9383533800714702E-01 
    4.5050937754944059E-01 
    4.1018519895405364E-01 
    3.7091153210027894E-01 
    3.4025266927248649E-01 
    3.2794195223956535E-01 
    8.6397918051459077E-01 
    8.4378977707319269E-01 
    8.1483302996905826E-01 
    7.8295489798330375E-01 
    7.4861586785453882E-01 
    7.1171832342099550E-01 
    6.7228499047917745E-01 
    6.3057231746973563E-01 
    5.8701033940184988E-01 
    5.4219057717323949E-01 
    4.9697549879765407E-01 
    4.5275823640536228E-01 
    4.1115995717344545E-01 
    3.7052056580949244E-01 
    3.3801910000104962E-01 
    3.2483539418107082E-01 
    8.5691552333040610E-01 
    8.4129436405842961E-01 
    8.1527048325553853E-01 
    7.8476214243003262E-01 
    7.5115723242693000E-01 
    7.1473916237016577E-01 
    6.7564809047683849E-01 
    6.3414795164569304E-01 
    5.9063387562533487E-01 
    5.4562702316566680E-01 
    4.9986998449558412E-01 
    4.5460000605707918E-01 
    4.1141462042220461E-01 
    3.6907226688046918E-01 
    3.3430239762672603E-01 
    3.2003668054649609E-01 
    8.5101781700501278E-01 
    8.3854598125783042E-01 
    8.1518619997215702E-01 
    7.8618533596420814E-01 
    7.5344479249627327E-01 
    7.1758015999140579E-01 
    6.7886937502521205E-01 
    6.3759951450471186E-01 
    5.9413911014199405E-01 
    5.4893754684694862E-01 
    5.0259593356458998E-01 
    4.5614727950811051E-01 
    4.1108661910228733E-01 
    3.6664026111837106E-01 
    3.2899334919063089E-01 
    3.1325541813460372E-01 
    8.4606821585402525E-01 
    8.3579001935260921E-01 
    8.1475260469855104E-01 
    7.8729401056450610E-01 
    7.5550958980987537E-01 
    7.2026836070319455E-01 
    6.8198094785240715E-01 
    6.4096291929406168E-01 
    5.9756572379891026E-01 
    5.5217365248228367E-01 
    5.0523189248543066E-01 
    4.5751942534773038E-01 
    4.1032498106866849E-01 
    3.6329036845810386E-01 
    3.2195475161034798E-01 
    3.0414360332428658E-01 
    8.4191320214696896E-01 
    8.3318218568379299E-01 
    8.1412384827463813E-01 
    7.8816781069488162E-01 
    7.5739116462174938E-01 
    7.2283145113306646E-01 
    6.8501254852700433E-01 
    6.4427355837079181E-01 
    6.0095586954558433E-01 
    5.5539088935894443E-01 
    5.0786140923510659E-01 
    4.5884819185135445E-01 
    4.0930376434496912E-01 
    3.5911195897503062E-01 
    3.1305776492357018E-01 
    2.9228888786034340E-01 
    8.3844102885063321E-01 
    8.3081664279248002E-01 
    8.1342716257366199E-01 
    7.8888962186212519E-01 
    7.5913575485647311E-01 
    7.2529754920366607E-01 
    6.8799067495996835E-01 
    6.4756463418041355E-01 
    6.0435179705304276E-01 
    5.5864595800090711E-01 
    5.1057007587097569E-01 
    4.6027533097485634E-01 
    4.0823304235583541E-01 
    3.5426055312106514E-01 
    3.0223137331863825E-01 
    2.7720457151407063E-01 
    8.3557309173971384E-01 
    8.2875288862868590E-01 
    8.1276650929938432E-01 
    7.8954211740973990E-01 
    7.6079611311283124E-01 
    7.2769812904038944E-01 
    6.9094283418443714E-01 
    6.5086920114296309E-01 
    6.0779335518765798E-01 
    5.6199109406037784E-01 
    5.1343714816160912E-01 
    4.6194008462910002E-01 
    4.0734383873998997E-01 
    3.4895175632332437E-01 
    2.8948019730341834E-01 
    2.5829674835020727E-01 
    8.3326284498717829E-01 
    8.2704023826050466E-01 
    8.1223547529124962E-01 
    7.9021010104129208E-01 
    7.6243365374417171E-01 
    7.3007429276474511E-01 
    6.9390178849108763E-01 
    6.5421640909993339E-01 
    6.1130611414931724E-01 
    5.6545790562753073E-01 
    5.1651395422238511E-01 
    4.6394518605318807E-01 
    4.0685752840063383E-01 
    3.4345384331834666E-01 
    2.7491585996097939E-01 
    2.3479860560067858E-01 
    8.3148972850944292E-01 
    8.2573061993886843E-01 
    8.1192322034564823E-01 
    7.9097847436126112E-01 
    7.6411504859542234E-01 
    7.3247020958156872E-01 
    6.9689149128373729E-01 
    6.5759978871269587E-01 
    6.1483606080527309E-01 
    5.6893963563756611E-01 
    5.1967121781216452E-01 
    4.6617138758107624E-01 
    4.0671971576364951E-01 
    3.3782378778498134E-01 
    2.5876037623752768E-01 
    2.0570698548238217E-01 
    8.3016111180171992E-01 
    8.2480795072142821E-01 
    8.1186833392739466E-01 
    7.9189444690538657E-01 
    7.6586558646916558E-01 
    7.3484525508027876E-01 
    6.9975471355667251E-01 
    6.6082751473192369E-01 
    6.1821283589207776E-01 
    5.7230081660515986E-01 
    5.2282715845284189E-01 
    4.6859287818890277E-01 
    4.0694397264875848E-01 
    3.3269171369871642E-01 
    2.4242982063409962E-01 
    1.7011015755389158E-01 
    8.2899560191637900E-01 
    8.2401235729460565E-01 
    8.1186851178939456E-01 
    7.9278815518002754E-01 
    7.6754057383913910E-01 
    7.3709529328832257E-01 
    7.0240875078870446E-01 
    6.6387846604967804E-01 
    6.2161090485276871E-01 
    5.7588147070598739E-01 
    5.2641777385247268E-01 
    4.7183306683443266E-01 
    4.0882958747762477E-01 
    3.3068249456214216E-01 
    2.2883365680201678E-01 
    1.2647375695531624E-01 
    8.2824195889000496E-01 
    8.2355677628346569E-01 
    8.1211135060827178E-01 
    7.9382441548784155E-01 
    7.6931237986741641E-01 
    7.3947647652900594E-01 
    7.0525482697649100E-01 
    6.6716342704130704E-01 
    6.2533629525320278E-01 
    5.7991669988806338E-01 
    5.3063213406492260E-01 
    4.7606728133937309E-01 
    4.1273766796918826E-01 
    3.3291965582746724E-01 
    2.2106050423760554E-01 
    7.1252970020528467E-02 
    8.2804812799322536E-01 
    8.2374665070716613E-01 
    8.1295262493368270E-01 
    7.9536771046730625E-01 
    7.7151514829135048E-01 
    7.4225218598283882E-01 
    7.0849609819197279E-01 
    6.7080228332773695E-01 
    6.2935416426621194E-01 
    5.8428298333095796E-01 
    5.3532814110523141E-01 
    4.8114322648085234E-01 
    4.1833355209491618E-01 
    3.3908305969174374E-01 
    2.2382918419670189E-01 
    0.0000000000000000E+00 

SCALARS Saturarion double 1 
LOOKUP_TABLE default 

    1.0000000000000113E+00 
    9.6307881902156967E-01 
    9.0055487425361547E-01 
    8.2469073102152135E-01 
    7.6070966762227898E-01 
    7.0895350588309802E-01 
    6.6724980856626270E-01 
    6.3222170132822042E-01 
    6.0095395387574813E-01 
    5.7178206751790850E-01 
    5.4379281624553588E-01 
    5.1446243721730345E-01 
    4.6178141788808230E-01 
    2.2362275671006901E-01 
    1.0375851644129567E-04 
    1.0000000010933602E-06 
    9.8452287054921073E-01 
    9.4958546199273763E-01 
    8.8415465733984633E-01 
    8.1478992342668799E-01 
    7.5559701799030909E-01 
    7.0562198432126910E-01 
    6.6408387890834020E-01 
    6.2899843656091858E-01 
    5.9819766681329134E-01 
    5.6984186404939285E-01 
    5.4272740076001647E-01 
    5.1428941856688892E-01 
    4.6380568426137808E-01 
    2.4449845028017453E-01 
    4.6889601461834674E-04 
    1.0004230644964435E-06 
    9.6019146757272311E-01 
    9.2672957004280510E-01 
    8.6221053524930447E-01 
    7.9806530989476210E-01 
    7.4488862952033297E-01 
    6.9825443761220451E-01 
    6.5759450740331571E-01 
    6.2258776501489377E-01 
    5.9247641015066133E-01 
    5.6553063144960547E-01 
    5.4002788443479433E-01 
    5.1320902222599651E-01 
    4.6711993153723547E-01 
    2.6989079295915364E-01 
    1.5436716369833189E-03 
    1.0072828705748956E-06 
    9.1767101481346292E-01 
    8.9141142643856985E-01 
    8.3537701373938988E-01 
    7.7629798487380308E-01 
    7.2742074269564927E-01 
    6.8594254481754968E-01 
    6.4884633650971490E-01 
    6.1604512811634327E-01 
    5.8717371670234320E-01 
    5.6138365148599789E-01 
    5.3714824559692476E-01 
    5.1216712893755234E-01 
    4.7010718845230876E-01 
    3.0219935551636740E-01 
    5.6097565216479293E-03 
    1.1442366168187838E-06 
    8.7185353891153339E-01 
    8.4977285594066065E-01 
    8.0198308435026089E-01 
    7.5030982234113197E-01 
    7.0597487523487923E-01 
    6.6870243017658026E-01 
    6.3626635911194940E-01 
    6.0724308973509344E-01 
    5.8097455383200758E-01 
    5.5690007206021985E-01 
    5.3421509873743378E-01 
    5.1116596016467730E-01 
    4.7334453311776892E-01 
    3.3177985314107411E-01 
    1.4668962528343432E-02 
    1.8002885517575181E-06 
    8.2504636410958299E-01 
    8.0749692104969983E-01 
    7.6821472916868949E-01 
    7.2370734100974943E-01 
    6.8355424258943154E-01 
    6.4939653467619152E-01 
    6.2022870838926680E-01 
    5.9471108186950206E-01 
    5.7140820021047389E-01 
    5.4963216679594173E-01 
    5.2894050839898477E-01 
    5.0811418099843619E-01 
    4.7559510109009689E-01 
    3.5647019247512313E-01 
    3.2036408470920388E-02 
    4.5809206662659529E-06 
    7.7763476763991135E-01 
    7.6531178406152223E-01 
    7.3437632327576230E-01 
    6.9614927715912700E-01 
    6.6021446754225754E-01 
    6.2922125983040222E-01 
    6.0297218791343787E-01 
    5.8000560585938477E-01 
    5.5933006538115626E-01 
    5.4011605887710956E-01 
    5.2195144276181593E-01 
    5.0344312549283332E-01 
    4.7594866596267166E-01 
    3.7640230583144613E-01 
    5.5692058013358713E-02 
    7.9497676928510087E-06 
    7.2956593380359047E-01 
    7.2244522390400445E-01 
    6.9973671966483808E-01 
    6.6790440648037197E-01 
    6.3599856207775118E-01 
    6.0779083634675302E-01 
    5.8351673883644040E-01 
    5.6290350978230497E-01 
    5.4505632899795842E-01 
    5.2874223063446713E-01 
    5.1295574303286751E-01 
    4.9715055549455478E-01 
    4.7431150650615195E-01 
    3.9243540815919076E-01 
    8.3183713747638804E-02 
    9.8452814531994440E-06 
    6.8085258101419921E-01 
    6.7820005079155399E-01 
    6.6276693383031804E-01 
    6.3776230877605034E-01 
    6.1070687472872065E-01 
    5.8509799252370209E-01 
    5.6236444976711319E-01 
    5.4334510895789889E-01 
    5.2799535499377070E-01 
    5.1470535699449660E-01 
    5.0211784874285459E-01 
    4.8915894341442223E-01 
    4.7080306095338575E-01 
    4.0458754044789108E-01 
    1.1089709900890689E-01 
    6.1819498133197586E-06 
    6.3180274743168818E-01 
    6.3289999956940912E-01 
    6.2391543648843317E-01 
    6.0531834934039030E-01 
    5.8348581848444814E-01 
    5.6137405222333403E-01 
    5.4070804895452584E-01 
    5.2339669989681825E-01 
    5.0963320083576902E-01 
    4.9787905698069723E-01 
    4.8718263815061358E-01 
    4.7732891276324718E-01 
    4.6320976624759097E-01 
    4.0997435786996794E-01 
    1.3831150715731677E-01 
    1.8641370370331677E-05 
    5.8426614577560088E-01 
    5.8812355924543813E-01 
    5.8466105845918803E-01 
    5.7166993879176353E-01 
    5.5450978764208880E-01 
    5.3686994724589010E-01 
    5.1981424640753038E-01 
    5.0324843228475213E-01 
    4.8817245953670091E-01 
    4.7510172385447780E-01 
    4.6443500241771613E-01 
    4.5536221095394974E-01 
    4.4537317735918203E-01 
    4.0741392866365950E-01 
    1.6252496295289998E-01 
    6.7469784604249437E-05 
    5.4008016735633990E-01 
    5.4594775367796400E-01 
    5.4616198346432931E-01 
    5.3686844097518305E-01 
    5.2320801205949630E-01 
    5.0925213047241480E-01 
    4.9312066240666247E-01 
    4.7189695476012056E-01 
    4.4548738740806265E-01 
    4.1211957635161239E-01 
    3.7540855981946264E-01 
    3.6698672522921061E-01 
    3.7564683878998384E-01 
    3.6420138310840255E-01 
    1.6109362756356610E-01 
    1.2602739520609378E-04 
    4.6541868873789261E-01 
    4.8100034504769235E-01 
    4.9042780996892210E-01 
    4.8689427608034763E-01 
    4.7232482153964517E-01 
    4.5102785026342901E-01 
    4.0160100483971350E-01 
    2.7285228412355095E-01 
    1.9170408677600834E-01 
    1.0672242033369472E-01 
    4.5721056217090730E-02 
    5.0942741711074463E-02 
    8.5991369882419150E-02 
    1.2215970610755666E-01 
    4.0746713686524182E-02 
    9.4290653241214017E-05 
    1.5686231716441970E-01 
    2.4665182788133233E-01 
    2.9293124329535553E-01 
    2.7874797418231795E-01 
    2.2463232888029899E-01 
    1.5614346537179674E-01 
    6.3622896906473728E-02 
    2.7733399700811609E-03 
    2.2700436479251406E-04 
    6.6876276689938879E-05 
    6.3684071465989567E-06 
    4.1481574540585363E-06 
    1.2188293624681029E-05 
    1.2022136613210842E-04 
    1.4291676287703911E-04 
    1.0045961810007313E-06 
    1.0060915833067323E-06 
    1.1354547343071391E-03 
    2.8419120939876157E-03 
    1.2783767625694155E-03 
    4.3139687532704784E-04 
    6.9581605903170827E-05 
    3.5749753653462228E-05 
    1.0490149614681608E-06 
    1.0009656566366443E-06 
    1.0005568402717491E-06 
    1.0000027368333277E-06 
    1.0000029079765363E-06 
    1.0000157397452490E-06 
    1.0013302780543829E-06 
    1.0022800293358028E-06 
    1.0000000017423033E-06 
    1.0000000011479183E-06 
    1.0173384445383202E-06 
    1.0160501791735318E-06 
    1.0125155628275031E-06 
    1.0024072632963204E-06 
    1.0006098885603268E-06 
    1.0000386780014457E-06 
    1.0000000012516792E-06 
    1.0000000000512152E-06 
    9.9999999999999995E-07 
    9.9999999999999995E-07 
    1.0000000000000711E-06 
    1.0000000000029360E-06 
    1.0000000001290431E-06 
    9.9999999999999974E-07 
    1.0000005159114407E-06 
