# vtk DataFile Version 2.0
Pressure Field Data 
ASCII 
DATASET UNSTRUCTURED_GRID 

POINTS 289 double 

    0.0000000000000000E+00     0.0000000000000000E+00     0.0000000000000000E+00 
    1.0000000000000000E+00     0.0000000000000000E+00     0.0000000000000000E+00 
    1.0000000000000000E+00     1.0000000000000000E+00     0.0000000000000000E+00 
    0.0000000000000000E+00     1.0000000000000000E+00     0.0000000000000000E+00 
    6.2499999999872928E-02     0.0000000000000000E+00     0.0000000000000000E+00 
    1.2499999999977310E-01     0.0000000000000000E+00     0.0000000000000000E+00 
    1.8749999999959341E-01     0.0000000000000000E+00     0.0000000000000000E+00 
    2.4999999999941089E-01     0.0000000000000000E+00     0.0000000000000000E+00 
    3.1249999999922851E-01     0.0000000000000000E+00     0.0000000000000000E+00 
    3.7499999999904610E-01     0.0000000000000000E+00     0.0000000000000000E+00 
    4.3749999999886358E-01     0.0000000000000000E+00     0.0000000000000000E+00 
    4.9999999999869210E-01     0.0000000000000000E+00     0.0000000000000000E+00 
    5.6249999999884603E-01     0.0000000000000000E+00     0.0000000000000000E+00 
    6.2499999999901090E-01     0.0000000000000000E+00     0.0000000000000000E+00 
    6.8749999999917577E-01     0.0000000000000000E+00     0.0000000000000000E+00 
    7.4999999999934064E-01     0.0000000000000000E+00     0.0000000000000000E+00 
    8.1249999999950551E-01     0.0000000000000000E+00     0.0000000000000000E+00 
    8.7499999999967026E-01     0.0000000000000000E+00     0.0000000000000000E+00 
    9.3749999999983513E-01     0.0000000000000000E+00     0.0000000000000000E+00 
    1.0000000000000000E+00     6.2499999999872928E-02     0.0000000000000000E+00 
    1.0000000000000000E+00     1.2499999999977310E-01     0.0000000000000000E+00 
    1.0000000000000000E+00     1.8749999999959341E-01     0.0000000000000000E+00 
    1.0000000000000000E+00     2.4999999999941089E-01     0.0000000000000000E+00 
    1.0000000000000000E+00     3.1249999999922851E-01     0.0000000000000000E+00 
    1.0000000000000000E+00     3.7499999999904610E-01     0.0000000000000000E+00 
    1.0000000000000000E+00     4.3749999999886358E-01     0.0000000000000000E+00 
    1.0000000000000000E+00     4.9999999999869210E-01     0.0000000000000000E+00 
    1.0000000000000000E+00     5.6249999999884603E-01     0.0000000000000000E+00 
    1.0000000000000000E+00     6.2499999999901090E-01     0.0000000000000000E+00 
    1.0000000000000000E+00     6.8749999999917577E-01     0.0000000000000000E+00 
    1.0000000000000000E+00     7.4999999999934064E-01     0.0000000000000000E+00 
    1.0000000000000000E+00     8.1249999999950551E-01     0.0000000000000000E+00 
    1.0000000000000000E+00     8.7499999999967026E-01     0.0000000000000000E+00 
    1.0000000000000000E+00     9.3749999999983513E-01     0.0000000000000000E+00 
    9.3749999999973976E-01     1.0000000000000000E+00     0.0000000000000000E+00 
    8.7499999999950118E-01     1.0000000000000000E+00     0.0000000000000000E+00 
    8.1249999999991318E-01     1.0000000000000000E+00     0.0000000000000000E+00 
    7.5000000000034706E-01     1.0000000000000000E+00     0.0000000000000000E+00 
    6.8750000000078049E-01     1.0000000000000000E+00     0.0000000000000000E+00 
    6.2500000000121403E-01     1.0000000000000000E+00     0.0000000000000000E+00 
    5.6250000000164757E-01     1.0000000000000000E+00     0.0000000000000000E+00 
    5.0000000000205946E-01     1.0000000000000000E+00     0.0000000000000000E+00 
    4.3750000000182099E-01     1.0000000000000000E+00     0.0000000000000000E+00 
    3.7500000000156092E-01     1.0000000000000000E+00     0.0000000000000000E+00 
    3.1250000000130068E-01     1.0000000000000000E+00     0.0000000000000000E+00 
    2.5000000000104050E-01     1.0000000000000000E+00     0.0000000000000000E+00 
    1.8750000000078040E-01     1.0000000000000000E+00     0.0000000000000000E+00 
    1.2500000000052031E-01     1.0000000000000000E+00     0.0000000000000000E+00 
    6.2500000000260125E-02     1.0000000000000000E+00     0.0000000000000000E+00 
    0.0000000000000000E+00     9.3749999999973976E-01     0.0000000000000000E+00 
    0.0000000000000000E+00     8.7499999999950118E-01     0.0000000000000000E+00 
    0.0000000000000000E+00     8.1249999999991318E-01     0.0000000000000000E+00 
    0.0000000000000000E+00     7.5000000000034706E-01     0.0000000000000000E+00 
    0.0000000000000000E+00     6.8750000000078049E-01     0.0000000000000000E+00 
    0.0000000000000000E+00     6.2500000000121403E-01     0.0000000000000000E+00 
    0.0000000000000000E+00     5.6250000000164757E-01     0.0000000000000000E+00 
    0.0000000000000000E+00     5.0000000000205946E-01     0.0000000000000000E+00 
    0.0000000000000000E+00     4.3750000000182099E-01     0.0000000000000000E+00 
    0.0000000000000000E+00     3.7500000000156092E-01     0.0000000000000000E+00 
    0.0000000000000000E+00     3.1250000000130068E-01     0.0000000000000000E+00 
    0.0000000000000000E+00     2.5000000000104050E-01     0.0000000000000000E+00 
    0.0000000000000000E+00     1.8750000000078040E-01     0.0000000000000000E+00 
    0.0000000000000000E+00     1.2500000000052031E-01     0.0000000000000000E+00 
    0.0000000000000000E+00     6.2500000000260125E-02     0.0000000000000000E+00 
    6.2499999999897131E-02     6.2500000000235922E-02     0.0000000000000000E+00 
    6.2499999999921327E-02     1.2500000000047351E-01     0.0000000000000000E+00 
    6.2499999999945530E-02     1.8750000000070621E-01     0.0000000000000000E+00 
    6.2499999999969733E-02     2.5000000000093858E-01     0.0000000000000000E+00 
    6.2499999999993928E-02     3.1250000000117117E-01     0.0000000000000000E+00 
    6.2500000000018124E-02     3.7500000000140382E-01     0.0000000000000000E+00 
    6.2500000000042327E-02     4.3750000000163619E-01     0.0000000000000000E+00 
    6.2500000000066530E-02     5.0000000000184897E-01     0.0000000000000000E+00 
    6.2500000000090733E-02     5.6250000000147260E-01     0.0000000000000000E+00 
    6.2500000000114922E-02     6.2500000000107636E-01     0.0000000000000000E+00 
    6.2500000000139125E-02     6.8750000000068034E-01     0.0000000000000000E+00 
    6.2500000000163328E-02     7.5000000000028411E-01     0.0000000000000000E+00 
    6.2500000000187531E-02     8.1249999999988787E-01     0.0000000000000000E+00 
    6.2500000000211720E-02     8.7499999999951172E-01     0.0000000000000000E+00 
    6.2500000000235922E-02     9.3749999999974565E-01     0.0000000000000000E+00 
    1.2499999999981980E-01     6.2500000000211733E-02     0.0000000000000000E+00 
    1.2499999999986650E-01     1.2500000000042691E-01     0.0000000000000000E+00 
    1.2499999999991319E-01     1.8750000000063199E-01     0.0000000000000000E+00 
    1.2499999999995989E-01     2.5000000000083678E-01     0.0000000000000000E+00 
    1.2500000000000661E-01     3.1250000000104172E-01     0.0000000000000000E+00 
    1.2500000000005329E-01     3.7500000000124661E-01     0.0000000000000000E+00 
    1.2500000000010000E-01     4.3750000000145117E-01     0.0000000000000000E+00 
    1.2500000000014669E-01     5.0000000000163858E-01     0.0000000000000000E+00 
    1.2500000000019340E-01     5.6250000000129741E-01     0.0000000000000000E+00 
    1.2500000000024011E-01     6.2500000000093847E-01     0.0000000000000000E+00 
    1.2500000000028680E-01     6.8750000000057998E-01     0.0000000000000000E+00 
    1.2500000000033351E-01     7.5000000000022127E-01     0.0000000000000000E+00 
    1.2500000000038020E-01     8.1249999999986211E-01     0.0000000000000000E+00 
    1.2500000000042691E-01     8.7499999999952238E-01     0.0000000000000000E+00 
    1.2500000000047359E-01     9.3749999999975164E-01     0.0000000000000000E+00 
    1.8749999999966760E-01     6.2500000000187531E-02     0.0000000000000000E+00 
    1.8749999999974179E-01     1.2500000000038020E-01     0.0000000000000000E+00 
    1.8749999999981601E-01     1.8750000000055780E-01     0.0000000000000000E+00 
    1.8749999999989009E-01     2.5000000000073502E-01     0.0000000000000000E+00 
    1.8749999999996431E-01     3.1250000000091221E-01     0.0000000000000000E+00 
    1.8750000000003850E-01     3.7500000000108941E-01     0.0000000000000000E+00 
    1.8750000000011269E-01     4.3750000000126649E-01     0.0000000000000000E+00 
    1.8750000000018691E-01     5.0000000000142808E-01     0.0000000000000000E+00 
    1.8750000000026110E-01     5.6250000000112244E-01     0.0000000000000000E+00 
    1.8750000000033529E-01     6.2500000000080080E-01     0.0000000000000000E+00 
    1.8750000000040951E-01     6.8750000000047962E-01     0.0000000000000000E+00 
    1.8750000000048361E-01     7.5000000000015843E-01     0.0000000000000000E+00 
    1.8750000000055780E-01     8.1249999999983680E-01     0.0000000000000000E+00 
    1.8750000000063199E-01     8.7499999999953304E-01     0.0000000000000000E+00 
    1.8750000000070621E-01     9.3749999999975764E-01     0.0000000000000000E+00 
    2.4999999999951281E-01     6.2500000000163314E-02     0.0000000000000000E+00 
    2.4999999999961461E-01     1.2500000000033351E-01     0.0000000000000000E+00 
    2.4999999999971650E-01     1.8750000000048361E-01     0.0000000000000000E+00 
    2.4999999999981831E-01     2.5000000000063310E-01     0.0000000000000000E+00 
    2.4999999999992020E-01     3.1250000000078260E-01     0.0000000000000000E+00 
    2.5000000000002198E-01     3.7500000000093209E-01     0.0000000000000000E+00 
    2.5000000000012390E-01     4.3750000000108180E-01     0.0000000000000000E+00 
    2.5000000000022571E-01     5.0000000000121769E-01     0.0000000000000000E+00 
    2.5000000000032763E-01     5.6250000000094724E-01     0.0000000000000000E+00 
    2.5000000000042938E-01     6.2500000000066314E-01     0.0000000000000000E+00 
    2.5000000000053119E-01     6.8750000000037925E-01     0.0000000000000000E+00 
[...]
CELL_DATA 256 
SCALARS Pressure double 1 
LOOKUP_TABLE default 

    9.5224826917540373E-01 
    8.9872921673676420E-01 
    8.6129678822871503E-01 
    8.2508025498411242E-01 
    7.8681068154639244E-01 
    7.4590850193461367E-01 
    7.0246435001896701E-01 
    6.5683059491929885E-01 
    6.0945973144949561E-01 
    5.6090595154347767E-01 
    5.1154318396355047E-01 
    4.5941185481330382E-01 
    4.0452168224029544E-01 
    3.6060793782175121E-01 
    3.3468567274750288E-01 
    3.2433138471297684E-01 
    9.3833351985928759E-01 
    9.0038221135556451E-01 
    8.6421026618779739E-01 
    8.2835937360453005E-01 
    7.9043984360951403E-01 
    7.4986646183962424E-01 
    7.0669133168754306E-01 
    6.6125189473374024E-01 
    6.1399282402887811E-01 
    5.6545667518704001E-01 
    5.1605729863084004E-01 
    4.6386231349027424E-01 
    4.0824907981941483E-01 
    3.6269573156171747E-01 
    3.3515440923083190E-01 
    3.2387504120149302E-01 
    9.2757266001076000E-01 
    8.9975773677552862E-01 
    8.6623673488815578E-01 
    8.3115934166163385E-01 
    7.9372242529540227E-01 
    7.5354594565473620E-01 
    7.1067953146052187E-01 
    6.6544674288603167E-01 
    6.1827906946744049E-01 
    5.6968972642863525E-01 
    5.2007682943184086E-01 
    4.6752268429812532E-01 
    4.1088479540456563E-01 
    3.6349166141954420E-01 
    3.3425328802183890E-01 
    3.2221844856463117E-01 
    9.1889101983369337E-01 
    8.9787432275743939E-01 
    8.6740355020309257E-01 
    8.3347692347738822E-01 
    7.9666960321104596E-01 
    7.5695335062910529E-01 
    7.1443575198687770E-01 
    6.6943190033737521E-01 
    6.2234890649122632E-01 
    5.7365302806045149E-01 
    5.2367843478362630E-01 
    4.7047948065586975E-01 
    4.1252778957524316E-01 
    3.6304359760374516E-01 
    3.3189247815252482E-01 
    3.1913344111889141E-01 
    9.1163661732255519E-01 
    8.9529334104995639E-01 
    8.6783138320677722E-01 
    8.3533000400112822E-01 
    7.9930478953019046E-01 
    7.6011548498176851E-01 
    7.1798407668558473E-01 
    6.7323304146152596E-01 
    6.2623726174729699E-01 
    5.7740145905901374E-01 
    5.2695324270779953E-01 
    4.7281257391407200E-01 
    4.1326723192367998E-01 
    3.6142175616759942E-01 
    3.2798634939670879E-01 
    3.1438585843927602E-01 
    9.0550505266787229E-01 
    8.9240440779296559E-01 
    8.6769252275215236E-01 
    8.3676940517071141E-01 
    8.0166245954320114E-01 
    7.6307066259746859E-01 
    7.2135984794190622E-01 
    6.7688121228593001E-01 
    6.2997866801488445E-01 
    5.8098487093980311E-01 
    5.2998722482222149E-01 
    4.7459786417853533E-01 
    4.1320219898799415E-01 
    3.5873531499828298E-01 
    3.2245718230757064E-01 
    3.0771928628043865E-01 
    9.0030128100626472E-01 
    8.8947296744815674E-01 
    8.6717231138043815E-01 
    8.3787228009564496E-01 
    8.0378431258256455E-01 
    7.6585844344232257E-01 
    7.2460147186127000E-01 
    6.8041220505622357E-01 
    6.3361135462583307E-01 
    5.8445146287412986E-01 
    5.3285422179372666E-01 
    4.7592747226286403E-01 
    4.1247821424220821E-01 
    3.5513837216009142E-01 
    3.1524216788992682E-01 
    2.9883956368059822E-01 
    8.9588751339353767E-01 
    8.8667034215441376E-01 
    8.6643567464954985E-01 
    8.3872544696910789E-01 
    8.0571785009109564E-01 
    7.6851661359821177E-01 
    7.2774796785220974E-01 
    6.8386732537274031E-01 
    6.3717879589388005E-01 
    5.8785196069318624E-01 
    5.3559578612864556E-01 
    4.7690916275990897E-01 
    4.1131630663538055E-01 
    3.5083407544566986E-01 
    3.0630372334408790E-01 
    2.8739171970808075E-01 
    8.9216403501618502E-01 
    8.8410445791175929E-01 
    8.6562210521798000E-01 
    8.3942111512346473E-01 
    8.0751677833394908E-01 
    7.7108272395103050E-01 
    7.3083757647510605E-01 
    6.8729075291047781E-01 
    6.4072574571633378E-01 
    5.9122849127203214E-01 
    5.3814500651537400E-01 
    4.7760493160391798E-01 
    4.1002229829288467E-01 
    3.4607276674966475E-01 
    2.9564982331369771E-01 
    2.7293035742301502E-01 
    8.8906938699857851E-01 
    8.8185355085392181E-01 
    8.6485179864561623E-01 
    8.4005317981259853E-01 
    8.0924330487559648E-01 
    7.7359997221552024E-01 
    7.3390680004755060E-01 
    6.9071955016143582E-01 
    6.4427783500727565E-01 
    5.9454599294478661E-01 
    5.4033696507922246E-01 
    4.7813238133587194E-01 
    4.0903961493274693E-01 
    3.4115109454133008E-01 
    2.8337078937366933E-01 
    2.5487774824338094E-01 
    8.8658033970031713E-01 
    8.7999201095317825E-01 
    8.6423600286038826E-01 
    8.4071715980141526E-01 
    8.1096960455748257E-01 
    7.7611577202446680E-01 
    7.3697520809333361E-01 
    6.9414400489771477E-01 
    6.4773170994496998E-01 
    5.9754290577679092E-01 
    5.4217898900739436E-01 
    4.7905738140235049E-01 
    4.0894542249708488E-01 
    3.3649448870212961E-01 
    2.6971060302849620E-01 
    2.3246713007707084E-01 
    8.8465086743595178E-01 
    8.7855723937822394E-01 
    8.6385294017983094E-01 
    8.4148608481832299E-01 
    8.1274230018654980E-01 
    7.7860361130948685E-01 
    7.3989699583585511E-01 
    6.9733304613897262E-01 
    6.5088263826137860E-01 
    6.0024035489836436E-01 
    5.4433556456314702E-01 
    4.8104673819606908E-01 
    4.0998007305297735E-01 
    3.3272609048375151E-01 
    2.5518893346120564E-01 
    2.0465867305561447E-01 
    8.8299014703850809E-01 
    8.7737658912198502E-01 
    8.6360467440629607E-01 
    8.4223685265537718E-01 
    8.1437269412410473E-01 
    7.8087259624293703E-01 
    7.4254726288472483E-01 
    7.0026700414672560E-01 
    6.5401109544022484E-01 
    6.0335072082326313E-01 
    5.4742416944889016E-01 
    4.8418362135916060E-01 
    4.1219642060765493E-01 
    3.3059179852892812E-01 
    2.4079654669081363E-01 
    1.7001466043097485E-01 
    8.8162470651224090E-01 
    8.7635380710343813E-01 
    8.6340286469255800E-01 
    8.4294149795139695E-01 
    8.1588915866653511E-01 
    7.8307808383559308E-01 
    7.4531464027306493E-01 
    7.0346003590652839E-01 
    6.5757109742705555E-01 
    6.0715970428801525E-01 
    5.5135030118398898E-01 
    4.8825301566174723E-01 
    4.1582093754022914E-01 
    3.3090967685876915E-01 
    2.2832159876233521E-01 
    1.2651062753886802E-01 
    8.8087281311596233E-01 
    8.7590306064554990E-01 
    8.6365681154403495E-01 
    8.4402874814187656E-01 
    8.1776170969313833E-01 
    7.8565595902078389E-01 
    7.4850155983335009E-01 
    7.0708038135429430E-01 
    6.6154087006853979E-01 
    6.1146091412569914E-01 
    5.5595736094243264E-01 
    4.9324151346189282E-01 
    4.2095031307397596E-01 
    3.3442552864318476E-01 
    2.2090097398779909E-01 
    7.1246985540009106E-02 
    8.8066690369700040E-01 
    8.7610078111943290E-01 
    8.6455495554318174E-01 
    8.4568701965645299E-01 
    8.2011822846479232E-01 
    7.8863165351177289E-01 
    7.5201544448206781E-01 
    7.1103314070019785E-01 
    6.6589215219382980E-01 
    6.1622985917582485E-01 
    5.6119676931457940E-01 
    4.9909225068035257E-01 
    4.2751442113431071E-01 
    3.4144263882489656E-01 
    2.2394701834563355E-01 
    0.0000000000000000E+00 

SCALARS Saturarion double 1 
LOOKUP_TABLE default 

    1.0000000000000544E+00 
    9.5724036687936942E-01 
    8.8756196995006276E-01 
    8.0340316086563790E-01 
    7.3416604565850518E-01 
    6.8061199894186653E-01 
    6.3797535701072638E-01 
    6.0136682230466254E-01 
    5.6794466533379262E-01 
    5.3595293321876591E-01 
    4.9827181891304201E-01 
    4.1035419652772154E-01 
    8.6321706389893810E-02 
    1.0000000072557073E-06 
    1.0000000000000042E-06 
    9.9999999999999995E-07 
    9.8139658302018673E-01 
    9.4107906600006241E-01 
    8.6833243550993500E-01 
    7.9323994607374571E-01 
    7.2930119412452876E-01 
    6.7680758312862899E-01 
    6.3401926263990460E-01 
    5.9773091283043356E-01 
    5.6520649763720698E-01 
    5.3402560346971228E-01 
    4.9709236796461831E-01 
    4.1134056842867189E-01 
    9.2110630717041189E-02 
    1.0011391437279543E-06 
    1.0000000003922264E-06 
    9.9999999999999995E-07 
    9.5196366394477583E-01 
    9.1442287678942857E-01 
    8.4315601217675773E-01 
    7.7566406924157372E-01 
    7.1866800699872047E-01 
    6.6863202846602499E-01 
    6.2628471644662009E-01 
    5.9074395629664622E-01 
    5.5975889743571139E-01 
    5.3009185972664363E-01 
    4.9481647069920626E-01 
    4.1272664010890486E-01 
    9.8869358662988044E-02 
    1.0511243216827077E-06 
    1.0000000276985679E-06 
    9.9999999999999995E-07 
    9.0151304700818313E-01 
    8.7283968101250919E-01 
    8.1167110941576881E-01 
    7.5070384568206849E-01 
    7.0055803296825003E-01 
    6.5679020707161018E-01 
    6.1807012445470211E-01 
    5.8465130878815474E-01 
    5.5495595481303828E-01 
    5.2673811984782171E-01 
    4.9347970614776593E-01 
    4.1602128609273226E-01 
    1.1064254314007879E-01 
    2.4372197676682378E-06 
    1.0000006691240683E-06 
    1.0000000000000584E-06 
    8.5000585665395256E-01 
    8.2593218412523550E-01 
    7.7505238947487221E-01 
    7.2259498230642294E-01 
    6.7825960170406752E-01 
    6.4044512740483805E-01 
    6.0707063383535409E-01 
    5.7695729771933801E-01 
    5.4928803566029150E-01 
    5.2239360469006890E-01 
    4.9061214602518083E-01 
    4.1766234826655718E-01 
    1.2017187258342811E-01 
    1.7074625075690588E-06 
    1.0000005659777782E-06 
    1.0000000000000021E-06 
    7.9866638583432303E-01 
    7.8008273660518579E-01 
    7.3937139974377319E-01 
    6.9447381028096999E-01 
    6.5481446087740025E-01 
    6.2143095075226717E-01 
    5.9220146078242697E-01 
    5.6550238093594551E-01 
    5.4043022514243688E-01 
    5.1561345712468964E-01 
    4.8488364480350371E-01 
    4.1409846728741084E-01 
    1.1890740094079451E-01 
    8.9403122092591670E-06 
    1.0000114182752572E-06 
    1.0000000000031878E-06 
    7.4803761446438255E-01 
    7.3535452886148323E-01 
    7.0384718072478158E-01 
    6.6559847972661734E-01 
    6.3061410188514688E-01 
    6.0094101973285807E-01 
    5.7540202714992350E-01 
    5.5193044622073129E-01 
    5.2938449293619105E-01 
    5.0652991337801589E-01 
    4.7725671190013358E-01 
    4.0364373818817190E-01 
    1.0196892704248003E-01 
    2.0355396475840024E-05 
    1.0000482273996504E-06 
    1.0000000000116587E-06 
    6.9769519757455734E-01 
    6.9060068756844972E-01 
    6.6792956730161246E-01 
    6.3664971502146273E-01 
    6.0586931417226542E-01 
    5.7884213469503432E-01 
    5.5579219319570250E-01 
    5.3597123268929181E-01 
    5.1685465859828394E-01 
    4.9596569705136589E-01 
    4.6707415629457910E-01 
    3.8228345912358630E-01 
    6.9498160605218059E-02 
    3.2922387973710587E-05 
    1.0001086478308297E-06 
    1.0000000000087117E-06 
    6.4776184269598847E-01 
    6.4533288890304408E-01 
    6.3049299012032733E-01 
    6.0653457104354613E-01 
    5.8047891998246692E-01 
    5.5587222349334986E-01 
    5.3512563980482564E-01 
    5.1787560496696128E-01 
    5.0149642775827474E-01 
    4.8230478295852369E-01 
    4.4987804772855139E-01 
    3.2542741633680583E-01 
    2.3787024022393410E-02 
    1.9475337960170190E-05 
    1.0000332038557724E-06 
    1.0000000000000006E-06 
    5.9957108633096878E-01 
    6.0086460746219239E-01 
    5.9277213453468569E-01 
    5.7510848740157416E-01 
    5.5403498248837457E-01 
    5.3317189189543357E-01 
    5.1450934183094510E-01 
    4.9787256359465787E-01 
    4.8119956713814327E-01 
    4.5771336270710838E-01 
    4.0179758291932960E-01 
    1.8166499875445169E-01 
    1.1139392098245804E-03 
    1.0649332787619826E-06 
    1.0000000054103626E-06 
    1.0000000000000004E-06 
    5.5601779063014811E-01 
    5.5975753547743790E-01 
    5.5624900882315442E-01 
    5.4282296708068301E-01 
    5.2677247456111775E-01 
    5.0984605133241068E-01 
    4.9114213024905351E-01 
    4.6977538790865941E-01 
    4.4120886975407048E-01 
    3.7976225196816116E-01 
    2.1602177791848468E-01 
    1.8098307974879078E-02 
    1.3313335405682462E-05 
    1.0000149623730746E-06 
    1.0000000000000156E-06 
    9.9999999999999995E-07 
    5.0674667098801118E-01 
    5.1430955932910971E-01 
    5.1433980998264506E-01 
    5.0500667362205387E-01 
    4.9078637039078299E-01 
    4.6813227394838847E-01 
    4.2337885342538867E-01 
    3.4828995913679012E-01 
    2.2919413893958235E-01 
    8.8520577292089772E-02 
    4.1432557980974876E-03 
    1.0758905990925456E-05 
    1.0000264154193520E-06 
    1.0000000000035503E-06 
    9.9999999999999995E-07 
    9.9999999999999995E-07 
    3.5308986922830227E-01 
    4.0157440334924360E-01 
    4.2183559103069163E-01 
    4.0578640272554978E-01 
    3.5469724858144586E-01 
    2.4264592192054840E-01 
    1.1033516211042396E-01 
    1.9174159089642991E-02 
    1.0936872022771879E-03 
    1.3671121110726698E-04 
    1.2658214361075065E-06 
    1.0000034419880602E-06 
    1.0000000000003896E-06 
    9.9999999999999995E-07 
    9.9999999999999995E-07 
    9.9999999999999995E-07 
    1.3055772476804362E-02 
    6.9037284490277170E-02 
    8.8137482181323987E-02 
    5.4665425000490507E-02 
    2.2237118654068338E-02 
    1.6604075910712447E-03 
    3.6220795265076776E-05 
    6.6914640598540231E-06 
    1.0175642044182098E-06 
    1.0017037391832291E-06 
    1.0000000184076234E-06 
    1.0000000000000516E-06 
    9.9999999999999995E-07 
    9.9999999999999995E-07 
    9.9999999999999995E-07 
    9.9999999999999995E-07 
    1.0001513645309350E-06 
    3.7762995398218246E-05 
    1.3468732141527603E-06 
    1.7753596945928673E-05 
    6.3563361902741293E-06 
    1.0386469368314061E-06 
    1.0001599218854577E-06 
    1.0000013830926900E-06 
    1.0000000013468349E-06 
    1.0000000000000012E-06 
    1.0000000000000006E-06 
    9.9999999999999995E-07 
    9.9999999999999995E-07 
    9.9999999999999995E-07 
    9.9999999999999995E-07 
    9.9999999999999995E-07 
    1.0000000000121991E-06 
    1.0000300619508485E-06 
    1.0000001504869684E-06 
    1.0000054094392135E-06 
    1.0000014173867435E-06 
    1.0000000019759770E-06 
    1.0000000000000014E-06 
    9.9999999999999995E-07 
    9.9999999999999995E-07 
    9.9999999999999995E-07 
    9.9999999999999995E-07 
    9.9999999999999995E-07 
    9.9999999999999995E-07 
    9.9999999999999995E-07 
    9.9999999999999995E-07 
    1.0000004192057131E-06 
