# vtk DataFile Version 2.0
Pressure Field Data 
ASCII 
DATASET UNSTRUCTURED_GRID 

POINTS 289 double 

    0.0000000000000000E+00     0.0000000000000000E+00     0.0000000000000000E+00 
    1.0000000000000000E+00     0.0000000000000000E+00     0.0000000000000000E+00 
    1.0000000000000000E+00     1.0000000000000000E+00     0.0000000000000000E+00 
    0.0000000000000000E+00     1.0000000000000000E+00     0.0000000000000000E+00 
    6.2499999999872928E-02     0.0000000000000000E+00     0.0000000000000000E+00 
    1.2499999999977310E-01     0.0000000000000000E+00     0.0000000000000000E+00 
    1.8749999999959341E-01     0.0000000000000000E+00     0.0000000000000000E+00 
    2.4999999999941089E-01     0.0000000000000000E+00     0.0000000000000000E+00 
    3.1249999999922851E-01     0.0000000000000000E+00     0.0000000000000000E+00 
    3.7499999999904610E-01     0.0000000000000000E+00     0.0000000000000000E+00 
    4.3749999999886358E-01     0.0000000000000000E+00     0.0000000000000000E+00 
    4.9999999999869210E-01     0.0000000000000000E+00     0.0000000000000000E+00 
    5.6249999999884603E-01     0.0000000000000000E+00     0.0000000000000000E+00 
    6.2499999999901090E-01     0.0000000000000000E+00     0.0000000000000000E+00 
    6.8749999999917577E-01     0.0000000000000000E+00     0.0000000000000000E+00 
    7.4999999999934064E-01     0.0000000000000000E+00     0.0000000000000000E+00 
    8.1249999999950551E-01     0.0000000000000000E+00     0.0000000000000000E+00 
    8.7499999999967026E-01     0.0000000000000000E+00     0.0000000000000000E+00 
    9.3749999999983513E-01     0.0000000000000000E+00     0.0000000000000000E+00 
    1.0000000000000000E+00     6.2499999999872928E-02     0.0000000000000000E+00 
    1.0000000000000000E+00     1.2499999999977310E-01     0.0000000000000000E+00 
    1.0000000000000000E+00     1.8749999999959341E-01     0.0000000000000000E+00 
    1.0000000000000000E+00     2.4999999999941089E-01     0.0000000000000000E+00 
    1.0000000000000000E+00     3.1249999999922851E-01     0.0000000000000000E+00 
    1.0000000000000000E+00     3.7499999999904610E-01     0.0000000000000000E+00 
    1.0000000000000000E+00     4.3749999999886358E-01     0.0000000000000000E+00 
    1.0000000000000000E+00     4.9999999999869210E-01     0.0000000000000000E+00 
    1.0000000000000000E+00     5.6249999999884603E-01     0.0000000000000000E+00 
    1.0000000000000000E+00     6.2499999999901090E-01     0.0000000000000000E+00 
    1.0000000000000000E+00     6.8749999999917577E-01     0.0000000000000000E+00 
    1.0000000000000000E+00     7.4999999999934064E-01     0.0000000000000000E+00 
    1.0000000000000000E+00     8.1249999999950551E-01     0.0000000000000000E+00 
    1.0000000000000000E+00     8.7499999999967026E-01     0.0000000000000000E+00 
    1.0000000000000000E+00     9.3749999999983513E-01     0.0000000000000000E+00 
    9.3749999999973976E-01     1.0000000000000000E+00     0.0000000000000000E+00 
    8.7499999999950118E-01     1.0000000000000000E+00     0.0000000000000000E+00 
    8.1249999999991318E-01     1.0000000000000000E+00     0.0000000000000000E+00 
    7.5000000000034706E-01     1.0000000000000000E+00     0.0000000000000000E+00 
    6.8750000000078049E-01     1.0000000000000000E+00     0.0000000000000000E+00 
    6.2500000000121403E-01     1.0000000000000000E+00     0.0000000000000000E+00 
    5.6250000000164757E-01     1.0000000000000000E+00     0.0000000000000000E+00 
    5.0000000000205946E-01     1.0000000000000000E+00     0.0000000000000000E+00 
    4.3750000000182099E-01     1.0000000000000000E+00     0.0000000000000000E+00 
    3.7500000000156092E-01     1.0000000000000000E+00     0.0000000000000000E+00 
    3.1250000000130068E-01     1.0000000000000000E+00     0.0000000000000000E+00 
    2.5000000000104050E-01     1.0000000000000000E+00     0.0000000000000000E+00 
    1.8750000000078040E-01     1.0000000000000000E+00     0.0000000000000000E+00 
    1.2500000000052031E-01     1.0000000000000000E+00     0.0000000000000000E+00 
    6.2500000000260125E-02     1.0000000000000000E+00     0.0000000000000000E+00 
    0.0000000000000000E+00     9.3749999999973976E-01     0.0000000000000000E+00 
    0.0000000000000000E+00     8.7499999999950118E-01     0.0000000000000000E+00 
    0.0000000000000000E+00     8.1249999999991318E-01     0.0000000000000000E+00 
    0.0000000000000000E+00     7.5000000000034706E-01     0.0000000000000000E+00 
    0.0000000000000000E+00     6.8750000000078049E-01     0.0000000000000000E+00 
    0.0000000000000000E+00     6.2500000000121403E-01     0.0000000000000000E+00 
    0.0000000000000000E+00     5.6250000000164757E-01     0.0000000000000000E+00 
    0.0000000000000000E+00     5.0000000000205946E-01     0.0000000000000000E+00 
    0.0000000000000000E+00     4.3750000000182099E-01     0.0000000000000000E+00 
    0.0000000000000000E+00     3.7500000000156092E-01     0.0000000000000000E+00 
    0.0000000000000000E+00     3.1250000000130068E-01     0.0000000000000000E+00 
    0.0000000000000000E+00     2.5000000000104050E-01     0.0000000000000000E+00 
    0.0000000000000000E+00     1.8750000000078040E-01     0.0000000000000000E+00 
    0.0000000000000000E+00     1.2500000000052031E-01     0.0000000000000000E+00 
    0.0000000000000000E+00     6.2500000000260125E-02     0.0000000000000000E+00 
    6.2499999999897131E-02     6.2500000000235922E-02     0.0000000000000000E+00 
    6.2499999999921327E-02     1.2500000000047351E-01     0.0000000000000000E+00 
    6.2499999999945530E-02     1.8750000000070621E-01     0.0000000000000000E+00 
    6.2499999999969733E-02     2.5000000000093858E-01     0.0000000000000000E+00 
    6.2499999999993928E-02     3.1250000000117117E-01     0.0000000000000000E+00 
    6.2500000000018124E-02     3.7500000000140382E-01     0.0000000000000000E+00 
    6.2500000000042327E-02     4.3750000000163619E-01     0.0000000000000000E+00 
    6.2500000000066530E-02     5.0000000000184897E-01     0.0000000000000000E+00 
    6.2500000000090733E-02     5.6250000000147260E-01     0.0000000000000000E+00 
    6.2500000000114922E-02     6.2500000000107636E-01     0.0000000000000000E+00 
    6.2500000000139125E-02     6.8750000000068034E-01     0.0000000000000000E+00 
    6.2500000000163328E-02     7.5000000000028411E-01     0.0000000000000000E+00 
    6.2500000000187531E-02     8.1249999999988787E-01     0.0000000000000000E+00 
    6.2500000000211720E-02     8.7499999999951172E-01     0.0000000000000000E+00 
    6.2500000000235922E-02     9.3749999999974565E-01     0.0000000000000000E+00 
    1.2499999999981980E-01     6.2500000000211733E-02     0.0000000000000000E+00 
    1.2499999999986650E-01     1.2500000000042691E-01     0.0000000000000000E+00 
    1.2499999999991319E-01     1.8750000000063199E-01     0.0000000000000000E+00 
    1.2499999999995989E-01     2.5000000000083678E-01     0.0000000000000000E+00 
    1.2500000000000661E-01     3.1250000000104172E-01     0.0000000000000000E+00 
    1.2500000000005329E-01     3.7500000000124661E-01     0.0000000000000000E+00 
    1.2500000000010000E-01     4.3750000000145117E-01     0.0000000000000000E+00 
    1.2500000000014669E-01     5.0000000000163858E-01     0.0000000000000000E+00 
    1.2500000000019340E-01     5.6250000000129741E-01     0.0000000000000000E+00 
    1.2500000000024011E-01     6.2500000000093847E-01     0.0000000000000000E+00 
    1.2500000000028680E-01     6.8750000000057998E-01     0.0000000000000000E+00 
    1.2500000000033351E-01     7.5000000000022127E-01     0.0000000000000000E+00 
    1.2500000000038020E-01     8.1249999999986211E-01     0.0000000000000000E+00 
    1.2500000000042691E-01     8.7499999999952238E-01     0.0000000000000000E+00 
    1.2500000000047359E-01     9.3749999999975164E-01     0.0000000000000000E+00 
    1.8749999999966760E-01     6.2500000000187531E-02     0.0000000000000000E+00 
    1.8749999999974179E-01     1.2500000000038020E-01     0.0000000000000000E+00 
    1.8749999999981601E-01     1.8750000000055780E-01     0.0000000000000000E+00 
    1.8749999999989009E-01     2.5000000000073502E-01     0.0000000000000000E+00 
    1.8749999999996431E-01     3.1250000000091221E-01     0.0000000000000000E+00 
    1.8750000000003850E-01     3.7500000000108941E-01     0.0000000000000000E+00 
    1.8750000000011269E-01     4.3750000000126649E-01     0.0000000000000000E+00 
    1.8750000000018691E-01     5.0000000000142808E-01     0.0000000000000000E+00 
    1.8750000000026110E-01     5.6250000000112244E-01     0.0000000000000000E+00 
    1.8750000000033529E-01     6.2500000000080080E-01     0.0000000000000000E+00 
    1.8750000000040951E-01     6.8750000000047962E-01     0.0000000000000000E+00 
    1.8750000000048361E-01     7.5000000000015843E-01     0.0000000000000000E+00 
    1.8750000000055780E-01     8.1249999999983680E-01     0.0000000000000000E+00 
    1.8750000000063199E-01     8.7499999999953304E-01     0.0000000000000000E+00 
    1.8750000000070621E-01     9.3749999999975764E-01     0.0000000000000000E+00 
    2.4999999999951281E-01     6.2500000000163314E-02     0.0000000000000000E+00 
    2.4999999999961461E-01     1.2500000000033351E-01     0.0000000000000000E+00 
    2.4999999999971650E-01     1.8750000000048361E-01     0.0000000000000000E+00 
    2.4999999999981831E-01     2.5000000000063310E-01     0.0000000000000000E+00 
    2.4999999999992020E-01     3.1250000000078260E-01     0.0000000000000000E+00 
    2.5000000000002198E-01     3.7500000000093209E-01     0.0000000000000000E+00 
    2.5000000000012390E-01     4.3750000000108180E-01     0.0000000000000000E+00 
    2.5000000000022571E-01     5.0000000000121769E-01     0.0000000000000000E+00 
    2.5000000000032763E-01     5.6250000000094724E-01     0.0000000000000000E+00 
    2.5000000000042938E-01     6.2500000000066314E-01     0.0000000000000000E+00 
    2.5000000000053119E-01     6.8750000000037925E-01     0.0000000000000000E+00 
[...]
CELL_DATA 256 
SCALARS Pressure double 1 
LOOKUP_TABLE default 

    8.9198547481230939E-01 
    8.3968857667234231E-01 
    8.0408665992693951E-01 
    7.7025625428602007E-01 
    7.3487986636032299E-01 
    6.9725043794477104E-01 
    6.5732749909029142E-01 
    6.1542764504485348E-01 
    5.7206510428735091E-01 
    5.2797065125228004E-01 
    4.8423886054688203E-01 
    4.4254084069855359E-01 
    4.0460343338405669E-01 
    3.6898784875604851E-01 
    3.4220889733492227E-01 
    3.3166620722968276E-01 
    8.7805645067857485E-01 
    8.4122545754641664E-01 
    8.0683885687975676E-01 
    7.7333341341868456E-01 
    7.3825341460231997E-01 
    7.0090943005926332E-01 
    6.6122998735548499E-01 
    6.1950057758748323E-01 
    5.7620935199425538E-01 
    5.3204979219114457E-01 
    4.8805684896659424E-01 
    4.4584813657021943E-01 
    4.0723767587653509E-01 
    3.7086853440748507E-01 
    3.4274299037933120E-01 
    3.3120903200038238E-01 
    8.6732799436663188E-01 
    8.4053987284821430E-01 
    8.0875649245187164E-01 
    7.7598930333237093E-01 
    7.4133687811385551E-01 
    7.0433754922461445E-01 
    6.6493424995616102E-01 
    6.2338499481331222E-01 
    5.8014516005168892E-01 
    5.3586085541985984E-01 
    4.9149064907018775E-01 
    4.4856812784799927E-01 
    4.0895901603257617E-01 
    3.7158626267971062E-01 
    3.4195393829433363E-01 
    3.2953844314214265E-01 
    8.5876802283515119E-01 
    8.3866692105634588E-01 
    8.0987137031459577E-01 
    7.7821231429356441E-01 
    7.4413795520241610E-01 
    7.0754420112020289E-01 
    6.6844745454882537E-01 
    6.2709301923458605E-01 
    5.8389867936970130E-01 
    5.3944982473039904E-01 
    4.9460828355321124E-01 
    4.5078954554098011E-01 
    4.0987095509711446E-01 
    3.7120416227060626E-01 
    3.3976797049269736E-01 
    3.2641485764262246E-01 
    8.5172123189157523E-01 
    8.3617805677262658E-01 
    8.1030809890872679E-01 
    7.8001357436049801E-01 
    7.4666854082757672E-01 
    7.1054918773707743E-01 
    6.7179092090771364E-01 
    6.3064781695652661E-01 
    5.8750174575185854E-01 
    5.4286686154658759E-01 
    4.9748586429244707E-01 
    4.5261544265793235E-01 
    4.1009337402523971E-01 
    3.6977510838870475E-01 
    3.3608150382114271E-01 
    3.2157802148535691E-01 
    8.4584451190902399E-01 
    8.3344152669791494E-01 
    8.1022766645349720E-01 
    7.8143415163496188E-01 
    7.4894801124356469E-01 
    7.1337690306901969E-01 
    6.7499529831998450E-01 
    6.3408177113100250E-01 
    5.9099007629692035E-01 
    5.4616175449164028E-01 
    5.0019996106314346E-01 
    4.5415601302636116E-01 
    4.0975210576922338E-01 
    3.6733923950285580E-01 
    3.3076375821030013E-01 
    3.1473311978610458E-01 
    8.4091776067343171E-01 
    8.3070068709960920E-01 
    8.0980112087578016E-01 
    7.8254289077167805E-01 
    7.5100666637177560E-01 
    7.1605306441537486E-01 
    6.7809140877295593E-01 
    6.3743038708825528E-01 
    5.9440353370351806E-01 
    5.4938595804331736E-01 
    5.0282872365594677E-01 
    4.5552866038491141E-01 
    4.0898702555142874E-01 
    3.6395512332675106E-01 
    3.2369011500103556E-01 
    3.0554451973871077E-01 
    8.3678582178059990E-01 
    8.2810953593885028E-01 
    8.0918142718175790E-01 
    7.8341883723705019E-01 
    7.5288358551778700E-01 
    7.1860441533388197E-01 
    6.8110756909739290E-01 
    6.4072803494050168E-01 
    5.9778401407019732E-01 
    5.5259482981509600E-01 
    5.0545537506173832E-01 
    4.5686368458186832E-01 
    4.0797076154747652E-01 
    3.5973229473960211E-01 
    3.1477429852073280E-01 
    2.9362732171420025E-01 
    8.3333585736365490E-01 
    8.2576084791571835E-01 
    8.0849457078393816E-01 
    7.8414404881674504E-01 
    7.5462467023275892E-01 
    7.2105849342832828E-01 
    6.8406869862761588E-01 
    6.4400626266138672E-01 
    6.0117297251201895E-01 
    5.5584457402090526E-01 
    5.0816525484060926E-01 
    4.5830233458164676E-01 
    4.0691275764256279E-01 
    3.5484263771103303E-01 
    3.0397471569284079E-01 
    2.7851963440011690E-01 
    8.3048801450811394E-01 
    8.2371246620951666E-01 
    8.0784284491121949E-01 
    7.8480005285593457E-01 
    7.5628237999147085E-01 
    7.2344623064545066E-01 
    6.8700033280839301E-01 
    6.4729630527219906E-01 
    6.0460984474325308E-01 
    5.5918738436739224E-01 
    5.1103886889912165E-01 
    4.5998736686768210E-01 
    4.0605223449249056E-01 
    3.4953998440647005E-01 
    2.9133872759361085E-01 
    2.5965208110998211E-01 
    8.2819363107547728E-01 
    8.2201105483132830E-01 
    8.0731739731260843E-01 
    7.8547019212578850E-01 
    7.5791775778921777E-01 
    7.2580815806432752E-01 
    6.8993355724506589E-01 
    6.5062702314646825E-01 
    6.0812250893807407E-01 
    5.6265724177586340E-01 
    5.1413370767870448E-01 
    4.6203798345777963E-01 
    4.0563604283578641E-01 
    3.4418928141381855E-01 
    2.7709176127603657E-01 
    2.3630288077659004E-01 
    8.2643159311656667E-01 
    8.2070682107591397E-01 
    8.0700578691173286E-01 
    7.8623858714549799E-01 
    7.5959809593069383E-01 
    7.2819005395033232E-01 
    6.9289469203490550E-01 
    6.5400050638259744E-01 
    6.1167698990913255E-01 
    5.6618183792887444E-01 
    5.1736291752890606E-01 
    4.6440985367424509E-01 
    4.0575336798199579E-01 
    3.3912169917757568E-01 
    2.6161131952573924E-01 
    2.0745259050084164E-01 
    8.2512121470293431E-01 
    8.1979217778943181E-01 
    8.0695192556188600E-01 
    7.8715774451156251E-01 
    7.6135800225793215E-01 
    7.3057660077038933E-01 
    6.9575186790129784E-01 
    6.5722840671701688E-01 
    6.1509115794944957E-01 
    5.6959326351405248E-01 
    5.2056482619999456E-01 
    4.6690572433758132E-01 
    4.0611039508308489E-01 
    3.3402950467531672E-01 
    2.4487234657206253E-01 
    1.7132362025662240E-01 
    8.2397816771451060E-01 
    8.1902207388077430E-01 
    8.0697489064069550E-01 
    7.8807089916489292E-01 
    7.6305382643033137E-01 
    7.3285470395591301E-01 
    6.9841663502841045E-01 
    6.6025558802922568E-01 
    6.1846823966198861E-01 
    5.7316155011136571E-01 
    5.2413362788172113E-01 
    4.7011204172505572E-01 
    4.0793745600014220E-01 
    3.3147963734106484E-01 
    2.3010888326961515E-01 
    1.2646260490993577E-01 
    8.2323151004657991E-01 
    8.1857945280636024E-01 
    8.0723221376863585E-01 
    7.8911414891772380E-01 
    7.6482435518079517E-01 
    7.3523102080082203E-01 
    7.0125255329775482E-01 
    6.6349949294049027E-01 
    6.2213793835719133E-01 
    5.7715597304069566E-01 
    5.2832052804889706E-01 
    4.7432516624469007E-01 
    4.1182547444276135E-01 
    3.3343955792557328E-01 
    2.2199657898447561E-01 
    7.1119777693388037E-02 
    8.2303911268246865E-01 
    8.1876865307947611E-01 
    8.0806635542920169E-01 
    7.9064176195649427E-01 
    7.6700513210339849E-01 
    7.3798259706942881E-01 
    7.0447272985638443E-01 
    6.6710936455589154E-01 
    6.2610986221777676E-01 
    5.8147902831202469E-01 
    5.3297619489146664E-01 
    4.7935474771993170E-01 
    4.1735700733184949E-01 
    3.3943155267896208E-01 
    2.2467106473489695E-01 
    0.0000000000000000E+00 

SCALARS Saturarion double 1 
LOOKUP_TABLE default 

    1.0000000000000069E+00 
    9.6366884064954927E-01 
    9.0190932550731062E-01 
    8.2687577089818187E-01 
    7.6350049279224852E-01 
    7.1199867115527715E-01 
    6.7040340203340776E-01 
    6.3550152655888548E-01 
    6.0442335969663985E-01 
    5.7544677898939800E-01 
    5.4765277943249258E-01 
    5.1920666716077013E-01 
    4.7305364676745371E-01 
    2.7456606394714911E-01 
    1.1595551589396612E-03 
    1.0000000095434922E-06 
    9.8483127645454371E-01 
    9.5044295998394579E-01 
    8.8580456861192625E-01 
    8.1703209869641236E-01 
    7.5835337561466676E-01 
    7.0868829485860818E-01 
    6.6731028706338946E-01 
    6.3234253903946080E-01 
    6.0168552925799967E-01 
    5.7350334922931967E-01 
    5.4660378002735310E-01 
    5.1904213125569798E-01 
    4.7464362520887959E-01 
    2.9652890405180088E-01 
    3.2141638766327290E-03 
    1.0138293927207266E-06 
    9.6099189271088559E-01 
    9.2797467317977789E-01 
    8.6419112574235446E-01 
    8.0042219918639734E-01 
    7.4762529537766875E-01 
    7.0136541814924069E-01 
    6.6094505473302001E-01 
    6.2603871258235688E-01 
    5.9597938653335836E-01 
    5.6914630678653588E-01 
    5.4387476120399325E-01 
    5.1789104149765830E-01 
    4.7741498230108087E-01 
    3.2131173484466802E-01 
    8.2429130981705179E-03 
    1.1238339455172688E-06 
    9.1929042228178892E-01 
    8.9328851538047582E-01 
    8.3781582310261293E-01 
    7.7901464826404332E-01 
    7.3027221419407062E-01 
    6.8902627632300473E-01 
    6.5215075034297243E-01 
    6.1946029928337087E-01 
    5.9064304772369369E-01 
    5.6494995484120691E-01 
    5.4091525563295506E-01 
    5.1665970626326019E-01 
    4.7990370369593632E-01 
    3.4810661435321011E-01 
    2.1211787913443025E-02 
    2.4712143225262161E-06 
    8.7407799596429403E-01 
    8.5221451916372803E-01 
    8.0480020105143513E-01 
    7.5327965948154429E-01 
    7.0896282070799976E-01 
    6.7175117037861076E-01 
    6.3941848778234678E-01 
    6.1050857464757136E-01 
    5.8435342341970498E-01 
    5.6041835809876117E-01 
    5.3794648832545522E-01 
    5.1556284383007689E-01 
    4.8244220883311512E-01 
    3.7080647103412179E-01 
    4.0489846597216703E-02 
    5.1125110290123462E-06 
    8.2777782927312182E-01 
    8.1035291793021325E-01 
    7.7126618029553107E-01 
    7.2684128545001525E-01 
    6.8668298831125785E-01 
    6.5246976676691182E-01 
    6.2327937784047771E-01 
    5.9784121373106625E-01 
    5.7469418686467255E-01 
    5.5309603502339566E-01 
    5.3265762390374116E-01 
    5.1249304048033295E-01 
    4.8404569882604265E-01 
    3.8845837401367134E-01 
    6.6355845852300296E-02 
    1.0921489223157344E-05 
    7.8074169571828722E-01 
    7.6846895440104546E-01 
    7.3762099667350078E-01 
    6.9944078528387776E-01 
    6.6346462693954722E-01 
    6.3235774248861254E-01 
    6.0601035674775294E-01 
    5.8304144598382246E-01 
    5.6248630964094570E-01 
    5.4346786906009104E-01 
    5.2558368295384417E-01 
    5.0776736012571677E-01 
    4.8386982738103484E-01 
    4.0393130033581759E-01 
    9.4939963240684017E-02 
    1.0873374533108065E-05 
    7.3295182196101638E-01 
    7.2583546288934808E-01 
    7.0314852222276891E-01 
    6.7130919355709984E-01 
    6.3932409696866166E-01 
    6.1100414670368908E-01 
    5.8661443958181925E-01 
    5.6590070461024133E-01 
    5.4805078114702144E-01 
    5.3192999599114776E-01 
    5.1650930092659708E-01 
    5.0139309043824187E-01 
    4.8171159663989216E-01 
    4.1713070808723007E-01 
    1.2764896168855708E-01 
    2.3796941190368766E-05 
    6.8442616589601857E-01 
    6.8175608213937411E-01 
    6.6629088832032812E-01 
    6.4121117989613807E-01 
    6.1405541426138754E-01 
    5.8837672694170262E-01 
    5.6551432880474595E-01 
    5.4627029636473912E-01 
    5.3079101288852770E-01 
    5.1762359836692418E-01 
    5.0543740672779014E-01 
    4.9326669411331892E-01 
    4.7790091405445045E-01 
    4.2630810986840267E-01 
    1.6272179011482119E-01 
    1.0212713716964327E-04 
    6.3540642504759215E-01 
    6.3648591014245293E-01 
    6.2742220100936752E-01 
    6.0870520714263598E-01 
    5.8677385978321750E-01 
    5.6460664694217799E-01 
    5.4376805007976048E-01 
    5.2619671595234430E-01 
    5.1236967414193235E-01 
    5.0079497175785592E-01 
    4.9057730553911177E-01 
    4.8166182295713023E-01 
    4.7072333447395259E-01 
    4.3108856976614168E-01 
    2.0083811797457868E-01 
    3.8749608281772997E-04 
    5.8755022115826894E-01 
    5.9143143339768378E-01 
    5.8790297306300798E-01 
    5.7485890183574928E-01 
    5.5765188010016742E-01 
    5.3987997789569275E-01 
    5.2273247672434953E-01 
    5.0625799436300367E-01 
    4.9149254375450468E-01 
    4.7885410297167597E-01 
    4.6887700324566656E-01 
    4.6149416855455450E-01 
    4.5577072125237694E-01 
    4.2963253516219807E-01 
    2.4611253255806959E-01 
    1.6878692860981693E-03 
    5.4314137858689038E-01 
    5.4897014175075753E-01 
    5.4927959819118910E-01 
    5.4005506349187149E-01 
    5.2631064463668387E-01 
    5.1240160344440688E-01 
    4.9692036778229554E-01 
    4.7728036408456515E-01 
    4.5392581765048762E-01 
    4.2556538199697808E-01 
    3.9739697414119357E-01 
    3.8774370891568954E-01 
    4.0184798024857199E-01 
    4.0509686439893222E-01 
    2.8175060664800922E-01 
    6.7623217704518672E-03 
    4.7255718406994318E-01 
    4.8701415572809886E-01 
    4.9552898157359276E-01 
    4.9207430164358773E-01 
    4.7814911360605994E-01 
    4.5912615877695950E-01 
    4.2138182433967336E-01 
    3.0994816244804957E-01 
    2.2067765059690986E-01 
    1.4234804629879810E-01 
    7.6241759232541617E-02 
    8.2183329073061889E-02 
    1.4772047548326325E-01 
    2.5791650345599232E-01 
    2.4168537238044985E-01 
    1.0322273103924541E-02 
    1.7696339042438031E-01 
    2.6910329880721390E-01 
    3.1638111097208088E-01 
    3.0374692257782104E-01 
    2.4771159899074191E-01 
    1.7947085176796984E-01 
    9.4141809613471655E-02 
    8.0644179772046357E-03 
    5.5563943598810708E-04 
    7.1126092418584487E-05 
    9.9351786696116194E-06 
    4.2036718330024537E-06 
    1.0313252729318781E-04 
    6.1366007494499473E-03 
    3.0525454113810184E-02 
    2.6797351908832920E-04 
    1.2330072027266140E-06 
    2.2641999102581125E-03 
    5.4755689169372432E-03 
    2.8333189598078656E-03 
    9.0336284965125528E-04 
    9.4586739859995581E-05 
    4.6701958802902517E-05 
    1.5364686742135992E-06 
    1.0050922220139602E-06 
    1.0009308803856310E-06 
    1.0000105504457838E-06 
    1.0000058871828073E-06 
    1.0002170162690872E-06 
    1.5251088596162703E-06 
    1.6073993944534246E-05 
    1.0245842605782952E-06 
    1.0000000018832970E-06 
    1.0689206994704921E-06 
    1.0463193898624853E-06 
    1.0457336156109054E-06 
    1.0091197086419111E-06 
    1.0007269267591815E-06 
    1.0001138985045712E-06 
    1.0000000182640971E-06 
    1.0000000002914610E-06 
    1.0000000000004336E-06 
    9.9999999999999995E-07 
    1.0000000000000739E-06 
    1.0000000000218941E-06 
    1.0000000599675078E-06 
    1.0000086847901770E-06 
    1.0000005276624368E-06 
