# vtk DataFile Version 2.0
Pressure Field Data 
ASCII 
DATASET UNSTRUCTURED_GRID 

POINTS 289 double 

    0.0000000000000000E+00     0.0000000000000000E+00     0.0000000000000000E+00 
    1.0000000000000000E+00     0.0000000000000000E+00     0.0000000000000000E+00 
    1.0000000000000000E+00     1.0000000000000000E+00     0.0000000000000000E+00 
    0.0000000000000000E+00     1.0000000000000000E+00     0.0000000000000000E+00 
    6.2499999999872928E-02     0.0000000000000000E+00     0.0000000000000000E+00 
    1.2499999999977310E-01     0.0000000000000000E+00     0.0000000000000000E+00 
    1.8749999999959341E-01     0.0000000000000000E+00     0.0000000000000000E+00 
    2.4999999999941089E-01     0.0000000000000000E+00     0.0000000000000000E+00 
    3.1249999999922851E-01     0.0000000000000000E+00     0.0000000000000000E+00 
    3.7499999999904610E-01     0.0000000000000000E+00     0.0000000000000000E+00 
    4.3749999999886358E-01     0.0000000000000000E+00     0.0000000000000000E+00 
    4.9999999999869210E-01     0.0000000000000000E+00     0.0000000000000000E+00 
    5.6249999999884603E-01     0.0000000000000000E+00     0.0000000000000000E+00 
    6.2499999999901090E-01     0.0000000000000000E+00     0.0000000000000000E+00 
    6.8749999999917577E-01     0.0000000000000000E+00     0.0000000000000000E+00 
    7.4999999999934064E-01     0.0000000000000000E+00     0.0000000000000000E+00 
    8.1249999999950551E-01     0.0000000000000000E+00     0.0000000000000000E+00 
    8.7499999999967026E-01     0.0000000000000000E+00     0.0000000000000000E+00 
    9.3749999999983513E-01     0.0000000000000000E+00     0.0000000000000000E+00 
    1.0000000000000000E+00     6.2499999999872928E-02     0.0000000000000000E+00 
    1.0000000000000000E+00     1.2499999999977310E-01     0.0000000000000000E+00 
    1.0000000000000000E+00     1.8749999999959341E-01     0.0000000000000000E+00 
    1.0000000000000000E+00     2.4999999999941089E-01     0.0000000000000000E+00 
    1.0000000000000000E+00     3.1249999999922851E-01     0.0000000000000000E+00 
    1.0000000000000000E+00     3.7499999999904610E-01     0.0000000000000000E+00 
    1.0000000000000000E+00     4.3749999999886358E-01     0.0000000000000000E+00 
    1.0000000000000000E+00     4.9999999999869210E-01     0.0000000000000000E+00 
    1.0000000000000000E+00     5.6249999999884603E-01     0.0000000000000000E+00 
    1.0000000000000000E+00     6.2499999999901090E-01     0.0000000000000000E+00 
    1.0000000000000000E+00     6.8749999999917577E-01     0.0000000000000000E+00 
    1.0000000000000000E+00     7.4999999999934064E-01     0.0000000000000000E+00 
    1.0000000000000000E+00     8.1249999999950551E-01     0.0000000000000000E+00 
    1.0000000000000000E+00     8.7499999999967026E-01     0.0000000000000000E+00 
    1.0000000000000000E+00     9.3749999999983513E-01     0.0000000000000000E+00 
    9.3749999999973976E-01     1.0000000000000000E+00     0.0000000000000000E+00 
    8.7499999999950118E-01     1.0000000000000000E+00     0.0000000000000000E+00 
    8.1249999999991318E-01     1.0000000000000000E+00     0.0000000000000000E+00 
    7.5000000000034706E-01     1.0000000000000000E+00     0.0000000000000000E+00 
    6.8750000000078049E-01     1.0000000000000000E+00     0.0000000000000000E+00 
    6.2500000000121403E-01     1.0000000000000000E+00     0.0000000000000000E+00 
    5.6250000000164757E-01     1.0000000000000000E+00     0.0000000000000000E+00 
    5.0000000000205946E-01     1.0000000000000000E+00     0.0000000000000000E+00 
    4.3750000000182099E-01     1.0000000000000000E+00     0.0000000000000000E+00 
    3.7500000000156092E-01     1.0000000000000000E+00     0.0000000000000000E+00 
    3.1250000000130068E-01     1.0000000000000000E+00     0.0000000000000000E+00 
    2.5000000000104050E-01     1.0000000000000000E+00     0.0000000000000000E+00 
    1.8750000000078040E-01     1.0000000000000000E+00     0.0000000000000000E+00 
    1.2500000000052031E-01     1.0000000000000000E+00     0.0000000000000000E+00 
    6.2500000000260125E-02     1.0000000000000000E+00     0.0000000000000000E+00 
    0.0000000000000000E+00     9.3749999999973976E-01     0.0000000000000000E+00 
    0.0000000000000000E+00     8.7499999999950118E-01     0.0000000000000000E+00 
    0.0000000000000000E+00     8.1249999999991318E-01     0.0000000000000000E+00 
    0.0000000000000000E+00     7.5000000000034706E-01     0.0000000000000000E+00 
    0.0000000000000000E+00     6.8750000000078049E-01     0.0000000000000000E+00 
    0.0000000000000000E+00     6.2500000000121403E-01     0.0000000000000000E+00 
    0.0000000000000000E+00     5.6250000000164757E-01     0.0000000000000000E+00 
    0.0000000000000000E+00     5.0000000000205946E-01     0.0000000000000000E+00 
    0.0000000000000000E+00     4.3750000000182099E-01     0.0000000000000000E+00 
    0.0000000000000000E+00     3.7500000000156092E-01     0.0000000000000000E+00 
    0.0000000000000000E+00     3.1250000000130068E-01     0.0000000000000000E+00 
    0.0000000000000000E+00     2.5000000000104050E-01     0.0000000000000000E+00 
    0.0000000000000000E+00     1.8750000000078040E-01     0.0000000000000000E+00 
    0.0000000000000000E+00     1.2500000000052031E-01     0.0000000000000000E+00 
    0.0000000000000000E+00     6.2500000000260125E-02     0.0000000000000000E+00 
    6.2499999999897131E-02     6.2500000000235922E-02     0.0000000000000000E+00 
    6.2499999999921327E-02     1.2500000000047351E-01     0.0000000000000000E+00 
    6.2499999999945530E-02     1.8750000000070621E-01     0.0000000000000000E+00 
    6.2499999999969733E-02     2.5000000000093858E-01     0.0000000000000000E+00 
    6.2499999999993928E-02     3.1250000000117117E-01     0.0000000000000000E+00 
    6.2500000000018124E-02     3.7500000000140382E-01     0.0000000000000000E+00 
    6.2500000000042327E-02     4.3750000000163619E-01     0.0000000000000000E+00 
    6.2500000000066530E-02     5.0000000000184897E-01     0.0000000000000000E+00 
    6.2500000000090733E-02     5.6250000000147260E-01     0.0000000000000000E+00 
    6.2500000000114922E-02     6.2500000000107636E-01     0.0000000000000000E+00 
    6.2500000000139125E-02     6.8750000000068034E-01     0.0000000000000000E+00 
    6.2500000000163328E-02     7.5000000000028411E-01     0.0000000000000000E+00 
    6.2500000000187531E-02     8.1249999999988787E-01     0.0000000000000000E+00 
    6.2500000000211720E-02     8.7499999999951172E-01     0.0000000000000000E+00 
    6.2500000000235922E-02     9.3749999999974565E-01     0.0000000000000000E+00 
    1.2499999999981980E-01     6.2500000000211733E-02     0.0000000000000000E+00 
    1.2499999999986650E-01     1.2500000000042691E-01     0.0000000000000000E+00 
    1.2499999999991319E-01     1.8750000000063199E-01     0.0000000000000000E+00 
    1.2499999999995989E-01     2.5000000000083678E-01     0.0000000000000000E+00 
    1.2500000000000661E-01     3.1250000000104172E-01     0.0000000000000000E+00 
    1.2500000000005329E-01     3.7500000000124661E-01     0.0000000000000000E+00 
    1.2500000000010000E-01     4.3750000000145117E-01     0.0000000000000000E+00 
    1.2500000000014669E-01     5.0000000000163858E-01     0.0000000000000000E+00 
    1.2500000000019340E-01     5.6250000000129741E-01     0.0000000000000000E+00 
    1.2500000000024011E-01     6.2500000000093847E-01     0.0000000000000000E+00 
    1.2500000000028680E-01     6.8750000000057998E-01     0.0000000000000000E+00 
    1.2500000000033351E-01     7.5000000000022127E-01     0.0000000000000000E+00 
    1.2500000000038020E-01     8.1249999999986211E-01     0.0000000000000000E+00 
    1.2500000000042691E-01     8.7499999999952238E-01     0.0000000000000000E+00 
    1.2500000000047359E-01     9.3749999999975164E-01     0.0000000000000000E+00 
    1.8749999999966760E-01     6.2500000000187531E-02     0.0000000000000000E+00 
    1.8749999999974179E-01     1.2500000000038020E-01     0.0000000000000000E+00 
    1.8749999999981601E-01     1.8750000000055780E-01     0.0000000000000000E+00 
    1.8749999999989009E-01     2.5000000000073502E-01     0.0000000000000000E+00 
    1.8749999999996431E-01     3.1250000000091221E-01     0.0000000000000000E+00 
    1.8750000000003850E-01     3.7500000000108941E-01     0.0000000000000000E+00 
    1.8750000000011269E-01     4.3750000000126649E-01     0.0000000000000000E+00 
    1.8750000000018691E-01     5.0000000000142808E-01     0.0000000000000000E+00 
    1.8750000000026110E-01     5.6250000000112244E-01     0.0000000000000000E+00 
    1.8750000000033529E-01     6.2500000000080080E-01     0.0000000000000000E+00 
    1.8750000000040951E-01     6.8750000000047962E-01     0.0000000000000000E+00 
    1.8750000000048361E-01     7.5000000000015843E-01     0.0000000000000000E+00 
    1.8750000000055780E-01     8.1249999999983680E-01     0.0000000000000000E+00 
    1.8750000000063199E-01     8.7499999999953304E-01     0.0000000000000000E+00 
    1.8750000000070621E-01     9.3749999999975764E-01     0.0000000000000000E+00 
    2.4999999999951281E-01     6.2500000000163314E-02     0.0000000000000000E+00 
    2.4999999999961461E-01     1.2500000000033351E-01     0.0000000000000000E+00 
    2.4999999999971650E-01     1.8750000000048361E-01     0.0000000000000000E+00 
    2.4999999999981831E-01     2.5000000000063310E-01     0.0000000000000000E+00 
    2.4999999999992020E-01     3.1250000000078260E-01     0.0000000000000000E+00 
    2.5000000000002198E-01     3.7500000000093209E-01     0.0000000000000000E+00 
    2.5000000000012390E-01     4.3750000000108180E-01     0.0000000000000000E+00 
    2.5000000000022571E-01     5.0000000000121769E-01     0.0000000000000000E+00 
    2.5000000000032763E-01     5.6250000000094724E-01     0.0000000000000000E+00 
    2.5000000000042938E-01     6.2500000000066314E-01     0.0000000000000000E+00 
    2.5000000000053119E-01     6.8750000000037925E-01     0.0000000000000000E+00 
[...]
CELL_DATA 256 
SCALARS Pressure double 1 
LOOKUP_TABLE default 

    6.4125423508686774E-01 
    5.9196004391916579E-01 
    5.6104560267094372E-01 
    5.3344342283306789E-01 
    5.0568558504021088E-01 
    4.7688608769765883E-01 
    4.4678648026858636E-01 
    4.1545554115408545E-01 
    3.8316620427462333E-01 
    3.5040506858676684E-01 
    3.1796786737878052E-01 
    2.8712952444817791E-01 
    2.5976763733661973E-01 
    2.3819076392832256E-01 
    2.2439985731186277E-01 
    2.1784543362530778E-01 
    6.2725411268960773E-01 
    5.9317722628337655E-01 
    5.6333745608852770E-01 
    5.3594135356018546E-01 
    5.0835341543983437E-01 
    4.7971298251759065E-01 
    4.4975480209251251E-01 
    4.1852959772453030E-01 
    3.8628557239522482E-01 
    3.5347373599550769E-01 
    3.2083928879328738E-01 
    2.8959496326814926E-01 
    2.6157812422871674E-01 
    2.3914791693630857E-01 
    2.2453349289246644E-01 
    2.1746899579635187E-01 
    6.1651488572291546E-01 
    5.9227566652082120E-01 
    5.6489533860936725E-01 
    5.3812391138731108E-01 
    5.1084271429747452E-01 
    4.8241499643214358E-01 
    4.5261922250052133E-01 
    4.2150217975796767E-01 
    3.8928705280865816E-01 
    3.5638214537000762E-01 
    3.2347080054256899E-01 
    2.9169049421945636E-01 
    2.6283541115789089E-01 
    2.3934937374630294E-01 
    2.2377711472242812E-01 
    2.1625212598544741E-01 
    6.0810054041374884E-01 
    5.9031776494854904E-01 
    5.6576275683040211E-01 
    5.3996826586501134E-01 
    5.1314359574839752E-01 
    4.8499388873722959E-01 
    4.5538805352066003E-01 
    4.2438618089056473E-01 
    3.9219010596287984E-01 
    3.5916054807595982E-01 
    3.2590755264100002E-01 
    2.9347586566338574E-01 
    2.6360043560858837E-01 
    2.3882397997499485E-01 
    2.2208976352422485E-01 
    2.1406949709992903E-01 
    6.0137570411403785E-01 
    5.8790045242854760E-01 
    5.6607501316872566E-01 
    5.4148422588311440E-01 
    5.1525221054811254E-01 
    4.8745037505437905E-01 
    4.5806869010746248E-01 
    4.2719547514945727E-01 
    3.9501649714399201E-01 
    3.6184237976495448E-01 
    3.2819887134413456E-01 
    2.9501707473127736E-01 
    2.6394314626181375E-01 
    2.3760787639138969E-01 
    2.1942571162662841E-01 
    2.1078666610255800E-01 
    5.9593285935518781E-01 
    5.8536710729846109E-01 
    5.6598346910069230E-01 
    5.4270559211148095E-01 
    5.1717315656455631E-01 
    4.8978537377405473E-01 
    4.6066655609436380E-01 
    4.2994282179401838E-01 
    3.9778845585628159E-01 
    3.6446316540873291E-01 
    3.3039826959240998E-01 
    2.9638761931201663E-01 
    2.6394532536734377E-01 
    2.3574982668572333E-01 
    2.1573638114314558E-01 
    2.0624489183226280E-01 
    5.9149954849478503E-01 
    5.8292128624909822E-01 
    5.6563310716428317E-01 
    5.4368431889974567E-01 
    5.1892389634409930E-01 
    4.9200656724158198E-01 
    4.6318835919456530E-01 
    4.3263981272052532E-01 
    4.0052706853471504E-01 
    3.6705829155044867E-01 
    3.3256239672278998E-01 
    2.9766968971901347E-01 
    2.6370482059065947E-01 
    2.3331957047040294E-01 
    2.1098081495602883E-01 
    2.0026349405275612E-01 
    5.8788447091246532E-01 
    5.8068053654230956E-01 
    5.6514960532225544E-01 
    5.4448225422012508E-01 
    5.2053256950609628E-01 
    4.9412877199198807E-01 
    4.6564428404084363E-01 
    4.3529758978535144E-01 
    4.0325053536914318E-01 
    3.6966015167219080E-01 
    3.3474749940347492E-01 
    2.9895344713030414E-01 
    2.6334055838407550E-01 
    2.3041757532163257E-01 
    2.0513467961408782E-01 
    1.9263085172082764E-01 
    5.8494797791141118E-01 
    5.7870810293320007E-01 
    5.6463466339862611E-01 
    5.4516344774584025E-01 
    5.2203265119189757E-01 
    4.9617042041068643E-01 
    4.6804669815254984E-01 
    4.3792767844137026E-01 
    4.0597474155556856E-01 
    3.7229624198017908E-01 
    3.3700475915345307E-01 
    3.0033173816672853E-01 
    2.6299406916289902E-01 
    2.2718604124442113E-01 
    1.9819581054330726E-01 
    1.8307696785357475E-01 
    5.8258776735488227E-01 
    5.7703609529534450E-01 
    5.6416712608749819E-01 
    5.4578831410195949E-01 
    5.2345997987489845E-01 
    4.9815197157085112E-01 
    4.7040921103238903E-01 
    4.4054235836453581E-01 
    4.0871473080138604E-01 
    3.7498992114133489E-01 
    3.3937817388567099E-01 
    3.0189458742656938E-01 
    2.6282700456313257E-01 
    2.2382237336793423E-01 
    1.9020340254224730E-01 
    1.7124320712400332E-01 
    5.8072771850511251E-01 
    5.7568009063384007E-01 
    5.6380843155818938E-01 
    5.4641235520430764E-01 
    5.2485203885323828E-01 
    5.0009700501758447E-01 
    4.7274727822685225E-01 
    4.4315480136420926E-01 
    4.1148587516057744E-01 
    3.7776237982940924E-01 
    3.4190498308850426E-01 
    3.0372555303945042E-01 
    2.6301754271389449E-01 
    2.2059121271101811E-01 
    1.8127423080192173E-01 
    1.5665582599489741E-01 
    5.7930784661138246E-01 
    5.7464608717016152E-01 
    5.6360760926087627E-01 
    5.4708663252450418E-01 
    5.2624744693988934E-01 
    5.0203220462470621E-01 
    4.7507923937289076E-01 
    4.4577961957064877E-01 
    4.1430407985006967E-01 
    3.8063348958150128E-01 
    3.4461545052847720E-01 
    3.0589745722511935E-01 
    2.6375432187340786E-01 
    2.1785335306065079E-01 
    1.7168671249493631E-01 
    1.3865953647907933E-01 
    5.7828074194811385E-01 
    5.7393595205121117E-01 
    5.6360538245817193E-01 
    5.4785924762914218E-01 
    5.2768618850339821E-01 
    5.0398742795741913E-01 
    4.7742679205140764E-01 
    4.4843371807828508E-01 
    4.1718642959024771E-01 
    3.8362262374319356E-01 
    3.4753266136876959E-01 
    3.0846625183719972E-01 
    2.6522076942518563E-01 
    2.1606571562550916E-01 
    1.6197133076382866E-01 
    1.1627230470526305E-01 
    5.7761719544312440E-01 
    5.7356131040003411E-01 
    5.6384586203985299E-01 
    5.4878229046711424E-01 
    5.2921365161021872E-01 
    5.0599704133659540E-01 
    4.7981380973616600E-01 
    4.5113297644518346E-01 
    4.2014812112122130E-01 
    3.8674562963535541E-01 
    3.5066549542587350E-01 
    3.1145753314424712E-01 
    2.6756492509029045E-01 
    2.1578171387769501E-01 
    1.5318127790444508E-01 
    8.8026929055495209E-02 
    5.7723452081789073E-01 
    5.7348667068366266E-01 
    5.6433802425740176E-01 
    5.4988206876570533E-01 
    5.3085326076765083E-01 
    5.0807027048802367E-01 
    4.8223256528167019E-01 
    4.5384909913745075E-01 
    4.2313230898370519E-01 
    3.8993916372923537E-01 
    3.5394552511970873E-01 
    3.1477831727080535E-01 
    2.7074708516520762E-01 
    2.1739370174858078E-01 
    1.4710137080168192E-01 
    5.1606362980828879E-02 
    5.7710561132270777E-01 
    5.7368683870378712E-01 
    5.6506806113836761E-01 
    5.5115983164031768E-01 
    5.3261392963606080E-01 
    5.1022149685215734E-01 
    4.8469555097499473E-01 
    4.5658709468338482E-01 
    4.2611892664402223E-01 
    3.9318353966999825E-01 
    3.5741652728958839E-01 
    3.1849570050331683E-01 
    2.7483001048333383E-01 
    2.2120972000324399E-01 
    1.4660084366003887E-01 
    0.0000000000000000E+00 

SCALARS Saturarion double 1 
LOOKUP_TABLE default 

    1.0000000000000002E+00 
    9.7972315827075451E-01 
    9.4236800449765401E-01 
    8.8999255722563342E-01 
    8.4633222682465448E-01 
    8.0768839203532095E-01 
    7.7356189852320767E-01 
    7.4351857561311485E-01 
    7.1676568910083815E-01 
    6.9241033756856285E-01 
    6.6950194034480981E-01 
    6.4687242884952056E-01 
    6.2263978476016502E-01 
    5.9307294336991201E-01 
    5.4954918171625244E-01 
    3.4497130300264289E-01 
    9.9259675767650379E-01 
    9.7343419554241262E-01 
    9.3421885999016863E-01 
    8.8421147143141499E-01 
    8.4144584166063985E-01 
    8.0394026108053240E-01 
    7.7080330380380546E-01 
    7.4142892668827265E-01 
    7.1517362391719141E-01 
    6.9122862170456234E-01 
    6.6883254565958206E-01 
    6.4695682082426653E-01 
    6.2372901517958856E-01 
    5.9516890141531309E-01 
    5.5312675413585932E-01 
    3.6382652778111524E-01 
    9.8086998304927231E-01 
    9.6155364615104255E-01 
    9.2200400415704564E-01 
    8.7350744899422206E-01 
    8.3174630751260137E-01 
    7.9614541806058137E-01 
    7.6503461931744510E-01 
    7.3711294770325175E-01 
    7.1178073560650668E-01 
    6.8847947497704365E-01 
    6.6669948211050467E-01 
    6.4565415655608360E-01 
    6.2388141686958654E-01 
    5.9753155393316282E-01 
    5.5825857496714892E-01 
    3.8156227032886519E-01 
    9.6043939230827324E-01 
    9.4409728509360202E-01 
    9.0686787228958632E-01 
    8.6222529515179136E-01 
    8.2118063082234949E-01 
    7.8624544007169550E-01 
    7.5622511880498811E-01 
    7.2983372585622242E-01 
    7.0598873670674167E-01 
    6.8414842388607244E-01 
    6.6363477453168807E-01 
    6.4376125642951887E-01 
    6.2335894254901802E-01 
    5.9934344457013788E-01 
    5.6330807649040937E-01 
    3.9900386776129965E-01 
    9.3506529507464953E-01 
    9.2030281986046680E-01 
    8.8662122753335004E-01 
    8.4632218701693596E-01 
    8.0724426049547671E-01 
    7.7293192636295738E-01 
    7.4368807224896860E-01 
    7.1851669156051789E-01 
    6.9643035090680061E-01 
    6.7664484265820679E-01 
    6.5848088087380185E-01 
    6.4094524476126402E-01 
    6.2252331884915169E-01 
    6.0061358483972038E-01 
    5.6775925797154736E-01 
    4.1386541099257845E-01 
    9.0579967780067117E-01 
    8.9329067427509767E-01 
    8.6378509691162653E-01 
    8.2698086987403718E-01 
    7.9061453338084531E-01 
    7.5790495982266837E-01 
    7.2942556023497152E-01 
    7.0506725284811245E-01 
    6.8417001922323950E-01 
    6.6606664929684223E-01 
    6.5021718130135397E-01 
    6.3584327241452310E-01 
    6.2080547391031693E-01 
    6.0154642176419337E-01 
    5.7151692490540651E-01 
    4.2750330479262133E-01 
    8.7356503633262583E-01 
    8.6395705973692838E-01 
    8.3888071149461785E-01 
    8.0573064048740917E-01 
    7.7242712505803746E-01 
    7.4200950561528178E-01 
    7.1515624363294061E-01 
    6.9154136048412995E-01 
    6.7121608722140969E-01 
    6.5405079157611357E-01 
    6.3986406655082662E-01 
    6.2815790539496730E-01 
    6.1718108646926817E-01 
    6.0202956665824303E-01 
    5.7519673994540299E-01 
    4.4100676566664188E-01 
    8.3823282438058144E-01 
    8.3194624876031176E-01 
    8.1200298028508466E-01 
    7.8317749127504199E-01 
    7.5283115987151761E-01 
    7.2459721461831095E-01 
    6.9923821002432096E-01 
    6.7693288917544425E-01 
    6.5757589507218950E-01 
    6.4129857432108117E-01 
    6.2817920356646639E-01 
    6.1843532889390251E-01 
    6.1111077366163857E-01 
    6.0128369946861182E-01 
    5.7889438686567996E-01 
    4.5468844624079929E-01 
    7.9980761471018846E-01 
    7.9686892058116154E-01 
    7.8212028266683398E-01 
    7.5806685081715042E-01 
    7.3119022796149713E-01 
    7.0511002938149803E-01 
    6.8135173361800272E-01 
    6.6024763756242966E-01 
    6.4194827042178437E-01 
    6.2659453229009199E-01 
    6.1460441371539742E-01 
    6.0654450353862821E-01 
    6.0243304267780051E-01 
    5.9837186693730027E-01 
    5.8200936701191019E-01 
    4.6785881064924906E-01 
    7.5832358685793366E-01 
    7.5861466971958658E-01 
    7.4886806158451680E-01 
    7.2944225349790126E-01 
    7.0628333200691984E-01 
    6.8281423399279484E-01 
    6.6068763220059323E-01 
    6.4103321702922855E-01 
    6.2407038178770691E-01 
    6.0981786981480313E-01 
    5.9866180070823483E-01 
    5.9187930534630273E-01 
    5.9062081672358790E-01 
    5.9250581987217099E-01 
    5.8365910729492121E-01 
    4.8098888354063696E-01 
    7.1347231382640497E-01 
    7.1682814715282439E-01 
    7.1184071915796399E-01 
    6.9677020072962970E-01 
    6.7736744326940390E-01 
    6.5701357322896525E-01 
    6.3743579848959797E-01 
    6.1936577927764314E-01 
    6.0369195536206155E-01 
    5.9071162149795731E-01 
    5.8068122412758472E-01 
    5.7463416663470657E-01 
    5.7506487597502665E-01 
    5.8261510760501301E-01 
    5.8200752742421857E-01 
    4.9461412638411550E-01 
    6.6383585760728714E-01 
    6.7023849369258937E-01 
    6.7019513346892334E-01 
    6.5961288141917718E-01 
    6.4374745667591282E-01 
    6.2628564225165184E-01 
    6.0919284519256844E-01 
    5.9355935037104335E-01 
    5.7984681586091025E-01 
    5.6848095396167120E-01 
    5.5985616068417254E-01 
    5.5505349425146255E-01 
    5.5629730753290352E-01 
    5.6752113654024994E-01 
    5.7882186570032190E-01 
    5.0681099087107373E-01 
    6.0874315247744559E-01 
    6.1769097307392140E-01 
    6.2216113912042337E-01 
    6.1623950956378393E-01 
    6.0461532350787495E-01 
    5.9057144914674586E-01 
    5.7655286990384813E-01 
    5.6320717729791314E-01 
    5.5127997458815847E-01 
    5.4149623166775329E-01 
    5.3470598594621843E-01 
    5.3155140361275910E-01 
    5.3419381191437243E-01 
    5.4716189555685013E-01 
    5.6762568752196352E-01 
    5.1643862492542836E-01 
    5.5166613463468561E-01 
    5.6211082986395988E-01 
    5.6974316047717166E-01 
    5.6808132494414876E-01 
    5.6054651369475161E-01 
    5.4970538099636213E-01 
    5.3766817305920722E-01 
    5.2569761691805383E-01 
    5.1387045118735630E-01 
    5.0479238063299270E-01 
    4.9841286972271170E-01 
    4.9610151261586216E-01 
    5.0211512696043381E-01 
    5.2014073924052462E-01 
    5.5253300257511950E-01 
    5.2244212433631287E-01 
    4.1695230652590110E-01 
    4.4612042877835772E-01 
    4.6876836652882015E-01 
    4.7577972154111015E-01 
    4.7211612490885779E-01 
    4.6068504492506823E-01 
    4.4307002684848729E-01 
    4.2187434823776077E-01 
    3.8968563188889438E-01 
    3.3303214864895692E-01 
    3.0776191054226670E-01 
    3.3331543421144466E-01 
    3.6176390768742933E-01 
    4.2594771948521193E-01 
    5.1461806740946470E-01 
    5.2356752796211958E-01 
    2.9052025353192765E-02 
    8.8825633269756690E-02 
    1.1229120898462334E-01 
    1.3629788692559985E-01 
    9.9708182922670460E-02 
    9.3074929048101926E-02 
    5.3470041605373012E-02 
    3.5283609053993061E-02 
    1.5650377785745708E-02 
    3.1802918972480610E-03 
    4.9609132144893299E-03 
    6.0211873405624861E-03 
    2.7242965581611989E-02 
    1.8319642982990184E-01 
    3.4347847007481991E-01 
    4.7308375958473453E-01 
