# vtk DataFile Version 2.0
Pressure Field Data 
ASCII 
DATASET UNSTRUCTURED_GRID 

POINTS 289 double 

    0.0000000000000000E+00     0.0000000000000000E+00     0.0000000000000000E+00 
    1.0000000000000000E+00     0.0000000000000000E+00     0.0000000000000000E+00 
    1.0000000000000000E+00     1.0000000000000000E+00     0.0000000000000000E+00 
    0.0000000000000000E+00     1.0000000000000000E+00     0.0000000000000000E+00 
    6.2499999999872928E-02     0.0000000000000000E+00     0.0000000000000000E+00 
    1.2499999999977310E-01     0.0000000000000000E+00     0.0000000000000000E+00 
    1.8749999999959341E-01     0.0000000000000000E+00     0.0000000000000000E+00 
    2.4999999999941089E-01     0.0000000000000000E+00     0.0000000000000000E+00 
    3.1249999999922851E-01     0.0000000000000000E+00     0.0000000000000000E+00 
    3.7499999999904610E-01     0.0000000000000000E+00     0.0000000000000000E+00 
    4.3749999999886358E-01     0.0000000000000000E+00     0.0000000000000000E+00 
    4.9999999999869210E-01     0.0000000000000000E+00     0.0000000000000000E+00 
    5.6249999999884603E-01     0.0000000000000000E+00     0.0000000000000000E+00 
    6.2499999999901090E-01     0.0000000000000000E+00     0.0000000000000000E+00 
    6.8749999999917577E-01     0.0000000000000000E+00     0.0000000000000000E+00 
    7.4999999999934064E-01     0.0000000000000000E+00     0.0000000000000000E+00 
    8.1249999999950551E-01     0.0000000000000000E+00     0.0000000000000000E+00 
    8.7499999999967026E-01     0.0000000000000000E+00     0.0000000000000000E+00 
    9.3749999999983513E-01     0.0000000000000000E+00     0.0000000000000000E+00 
    1.0000000000000000E+00     6.2499999999872928E-02     0.0000000000000000E+00 
    1.0000000000000000E+00     1.2499999999977310E-01     0.0000000000000000E+00 
    1.0000000000000000E+00     1.8749999999959341E-01     0.0000000000000000E+00 
    1.0000000000000000E+00     2.4999999999941089E-01     0.0000000000000000E+00 
    1.0000000000000000E+00     3.1249999999922851E-01     0.0000000000000000E+00 
    1.0000000000000000E+00     3.7499999999904610E-01     0.0000000000000000E+00 
    1.0000000000000000E+00     4.3749999999886358E-01     0.0000000000000000E+00 
    1.0000000000000000E+00     4.9999999999869210E-01     0.0000000000000000E+00 
    1.0000000000000000E+00     5.6249999999884603E-01     0.0000000000000000E+00 
    1.0000000000000000E+00     6.2499999999901090E-01     0.0000000000000000E+00 
    1.0000000000000000E+00     6.8749999999917577E-01     0.0000000000000000E+00 
    1.0000000000000000E+00     7.4999999999934064E-01     0.0000000000000000E+00 
    1.0000000000000000E+00     8.1249999999950551E-01     0.0000000000000000E+00 
    1.0000000000000000E+00     8.7499999999967026E-01     0.0000000000000000E+00 
    1.0000000000000000E+00     9.3749999999983513E-01     0.0000000000000000E+00 
    9.3749999999973976E-01     1.0000000000000000E+00     0.0000000000000000E+00 
    8.7499999999950118E-01     1.0000000000000000E+00     0.0000000000000000E+00 
    8.1249999999991318E-01     1.0000000000000000E+00     0.0000000000000000E+00 
    7.5000000000034706E-01     1.0000000000000000E+00     0.0000000000000000E+00 
    6.8750000000078049E-01     1.0000000000000000E+00     0.0000000000000000E+00 
    6.2500000000121403E-01     1.0000000000000000E+00     0.0000000000000000E+00 
    5.6250000000164757E-01     1.0000000000000000E+00     0.0000000000000000E+00 
    5.0000000000205946E-01     1.0000000000000000E+00     0.0000000000000000E+00 
    4.3750000000182099E-01     1.0000000000000000E+00     0.0000000000000000E+00 
    3.7500000000156092E-01     1.0000000000000000E+00     0.0000000000000000E+00 
    3.1250000000130068E-01     1.0000000000000000E+00     0.0000000000000000E+00 
    2.5000000000104050E-01     1.0000000000000000E+00     0.0000000000000000E+00 
    1.8750000000078040E-01     1.0000000000000000E+00     0.0000000000000000E+00 
    1.2500000000052031E-01     1.0000000000000000E+00     0.0000000000000000E+00 
    6.2500000000260125E-02     1.0000000000000000E+00     0.0000000000000000E+00 
    0.0000000000000000E+00     9.3749999999973976E-01     0.0000000000000000E+00 
    0.0000000000000000E+00     8.7499999999950118E-01     0.0000000000000000E+00 
    0.0000000000000000E+00     8.1249999999991318E-01     0.0000000000000000E+00 
    0.0000000000000000E+00     7.5000000000034706E-01     0.0000000000000000E+00 
    0.0000000000000000E+00     6.8750000000078049E-01     0.0000000000000000E+00 
    0.0000000000000000E+00     6.2500000000121403E-01     0.0000000000000000E+00 
    0.0000000000000000E+00     5.6250000000164757E-01     0.0000000000000000E+00 
    0.0000000000000000E+00     5.0000000000205946E-01     0.0000000000000000E+00 
    0.0000000000000000E+00     4.3750000000182099E-01     0.0000000000000000E+00 
    0.0000000000000000E+00     3.7500000000156092E-01     0.0000000000000000E+00 
    0.0000000000000000E+00     3.1250000000130068E-01     0.0000000000000000E+00 
    0.0000000000000000E+00     2.5000000000104050E-01     0.0000000000000000E+00 
    0.0000000000000000E+00     1.8750000000078040E-01     0.0000000000000000E+00 
    0.0000000000000000E+00     1.2500000000052031E-01     0.0000000000000000E+00 
    0.0000000000000000E+00     6.2500000000260125E-02     0.0000000000000000E+00 
    6.2499999999897131E-02     6.2500000000235922E-02     0.0000000000000000E+00 
    6.2499999999921327E-02     1.2500000000047351E-01     0.0000000000000000E+00 
    6.2499999999945530E-02     1.8750000000070621E-01     0.0000000000000000E+00 
    6.2499999999969733E-02     2.5000000000093858E-01     0.0000000000000000E+00 
    6.2499999999993928E-02     3.1250000000117117E-01     0.0000000000000000E+00 
    6.2500000000018124E-02     3.7500000000140382E-01     0.0000000000000000E+00 
    6.2500000000042327E-02     4.3750000000163619E-01     0.0000000000000000E+00 
    6.2500000000066530E-02     5.0000000000184897E-01     0.0000000000000000E+00 
    6.2500000000090733E-02     5.6250000000147260E-01     0.0000000000000000E+00 
    6.2500000000114922E-02     6.2500000000107636E-01     0.0000000000000000E+00 
    6.2500000000139125E-02     6.8750000000068034E-01     0.0000000000000000E+00 
    6.2500000000163328E-02     7.5000000000028411E-01     0.0000000000000000E+00 
    6.2500000000187531E-02     8.1249999999988787E-01     0.0000000000000000E+00 
    6.2500000000211720E-02     8.7499999999951172E-01     0.0000000000000000E+00 
    6.2500000000235922E-02     9.3749999999974565E-01     0.0000000000000000E+00 
    1.2499999999981980E-01     6.2500000000211733E-02     0.0000000000000000E+00 
    1.2499999999986650E-01     1.2500000000042691E-01     0.0000000000000000E+00 
    1.2499999999991319E-01     1.8750000000063199E-01     0.0000000000000000E+00 
    1.2499999999995989E-01     2.5000000000083678E-01     0.0000000000000000E+00 
    1.2500000000000661E-01     3.1250000000104172E-01     0.0000000000000000E+00 
    1.2500000000005329E-01     3.7500000000124661E-01     0.0000000000000000E+00 
    1.2500000000010000E-01     4.3750000000145117E-01     0.0000000000000000E+00 
    1.2500000000014669E-01     5.0000000000163858E-01     0.0000000000000000E+00 
    1.2500000000019340E-01     5.6250000000129741E-01     0.0000000000000000E+00 
    1.2500000000024011E-01     6.2500000000093847E-01     0.0000000000000000E+00 
    1.2500000000028680E-01     6.8750000000057998E-01     0.0000000000000000E+00 
    1.2500000000033351E-01     7.5000000000022127E-01     0.0000000000000000E+00 
    1.2500000000038020E-01     8.1249999999986211E-01     0.0000000000000000E+00 
    1.2500000000042691E-01     8.7499999999952238E-01     0.0000000000000000E+00 
    1.2500000000047359E-01     9.3749999999975164E-01     0.0000000000000000E+00 
    1.8749999999966760E-01     6.2500000000187531E-02     0.0000000000000000E+00 
    1.8749999999974179E-01     1.2500000000038020E-01     0.0000000000000000E+00 
    1.8749999999981601E-01     1.8750000000055780E-01     0.0000000000000000E+00 
    1.8749999999989009E-01     2.5000000000073502E-01     0.0000000000000000E+00 
    1.8749999999996431E-01     3.1250000000091221E-01     0.0000000000000000E+00 
    1.8750000000003850E-01     3.7500000000108941E-01     0.0000000000000000E+00 
    1.8750000000011269E-01     4.3750000000126649E-01     0.0000000000000000E+00 
    1.8750000000018691E-01     5.0000000000142808E-01     0.0000000000000000E+00 
    1.8750000000026110E-01     5.6250000000112244E-01     0.0000000000000000E+00 
    1.8750000000033529E-01     6.2500000000080080E-01     0.0000000000000000E+00 
    1.8750000000040951E-01     6.8750000000047962E-01     0.0000000000000000E+00 
    1.8750000000048361E-01     7.5000000000015843E-01     0.0000000000000000E+00 
    1.8750000000055780E-01     8.1249999999983680E-01     0.0000000000000000E+00 
    1.8750000000063199E-01     8.7499999999953304E-01     0.0000000000000000E+00 
    1.8750000000070621E-01     9.3749999999975764E-01     0.0000000000000000E+00 
    2.4999999999951281E-01     6.2500000000163314E-02     0.0000000000000000E+00 
    2.4999999999961461E-01     1.2500000000033351E-01     0.0000000000000000E+00 
    2.4999999999971650E-01     1.8750000000048361E-01     0.0000000000000000E+00 
    2.4999999999981831E-01     2.5000000000063310E-01     0.0000000000000000E+00 
    2.4999999999992020E-01     3.1250000000078260E-01     0.0000000000000000E+00 
    2.5000000000002198E-01     3.7500000000093209E-01     0.0000000000000000E+00 
    2.5000000000012390E-01     4.3750000000108180E-01     0.0000000000000000E+00 
    2.5000000000022571E-01     5.0000000000121769E-01     0.0000000000000000E+00 
    2.5000000000032763E-01     5.6250000000094724E-01     0.0000000000000000E+00 
    2.5000000000042938E-01     6.2500000000066314E-01     0.0000000000000000E+00 
    2.5000000000053119E-01     6.8750000000037925E-01     0.0000000000000000E+00 
[...]
CELL_DATA 256 
SCALARS Pressure double 1 
LOOKUP_TABLE default 

    8.1315479096319243E-01 
    7.6196713020157891E-01 
    7.2806965576109961E-01 
    6.9649196727770024E-01 
    6.6387301984452218E-01 
    6.2943515801100258E-01 
    5.9303541583526242E-01 
    5.5488153689330544E-01 
    5.1539521590095783E-01 
    4.7523051430658808E-01 
    4.3540060999062746E-01 
    3.9752761110567048E-01 
    3.6406396463185148E-01 
    3.3776999604591518E-01 
    3.1871218374818400E-01 
    3.0972168316790538E-01 
    7.9920521069244443E-01 
    7.6339104544001901E-01 
    7.3066136352644928E-01 
    6.9936802359972716E-01 
    6.6699670847997250E-01 
    6.3279617020730083E-01 
    5.9660635315170629E-01 
    5.5860709475928949E-01 
    5.1918957549518441E-01 
    4.7896640116310724E-01 
    4.3888962268469445E-01 
    4.0050089315302057E-01 
    3.6620631270388337E-01 
    3.3890520327314982E-01 
    3.1897702891056656E-01 
    3.0933333069047092E-01 
    7.8848657304269909E-01 
    7.6263590445370888E-01 
    7.3246000482886953E-01 
    7.0186802050227504E-01 
    6.6987753862606214E-01 
    6.3596874069204878E-01 
    6.0001506298912932E-01 
    5.6217761736403837E-01 
    5.2281191013851203E-01 
    4.8247799437619487E-01 
    4.4205153956505483E-01 
    4.0297647702818129E-01 
    3.6760256336694330E-01 
    3.3899525598658320E-01 
    3.1807723831350493E-01 
    3.0791824552915897E-01 
    7.8000560423899634E-01 
    7.6074905408959614E-01 
    7.3350162777587358E-01 
    7.0397399920173631E-01 
    6.7251690476745629E-01 
    6.3896235046885141E-01 
    6.0327105454683772E-01 
    5.6560422673185073E-01 
    5.2628266517857680E-01 
    4.8580369402832480E-01 
    4.4494794081469241E-01 
    4.0503571693928003E-01 
    3.6833483874587442E-01 
    3.3808836557840777E-01 
    3.1594561728503751E-01 
    3.0525606724660237E-01 
    7.7310905608425851E-01 
    7.5831158706244117E-01 
    7.3391526321002887E-01 
    7.0569449499999670E-01 
    6.7491803182898602E-01 
    6.4178931024673014E-01 
    6.0639147437103136E-01 
    5.6890695255184032E-01 
    5.2962900409617053E-01 
    4.8898649054575083E-01 
    4.4764578701084068E-01 
    4.0677022380286570E-01 
    3.6850060950313612E-01 
    3.3624052107067681E-01 
    3.1249194667731761E-01 
    3.0107773233685814E-01 
    7.6742431399726851E-01 
    7.5567816229999152E-01 
    7.3385561349329842E-01 
    7.0706531161530162E-01 
    6.7709116867372365E-01 
    6.4446210827394124E-01 
    6.0939675733426113E-01 
    5.7211277620679857E-01 
    5.3288460109297253E-01 
    4.9207296442938697E-01 
    4.5021479094989342E-01 
    4.0827975487680868E-01 
    3.6821468917927774E-01 
    3.3351870177555859E-01 
    3.0761305246043069E-01 
    2.9507731412213922E-01 
    7.6271084233062159E-01 
    7.5307483602571190E-01 
    7.3348174862108995E-01 
    7.0814823070817701E-01 
    6.7906044459271098E-01 
    6.4699647291286355E-01 
    6.1230609790538670E-01 
    5.7524899730323853E-01 
    5.3608598264470386E-01 
    4.9511226895919280E-01 
    4.5272760022198899E-01 
    4.0967147462231662E-01 
    3.6761069820545922E-01 
    3.3001673763210232E-01 
    3.0121963193535178E-01 
    2.8691615694479128E-01 
    7.5879852037910467E-01 
    7.5064062220174232E-01 
    7.3293604451559624E-01 
    7.0901604751919745E-01 
    6.8086020706832751E-01 
    6.4941266698953082E-01 
    6.1513798152492838E-01 
    5.7833892404632903E-01 
    5.3926655371974630E-01 
    4.9815384332395712E-01 
    4.5526031992624194E-01 
    4.1106318044379081E-01 
    3.6684841516503086E-01 
    3.2587512447431699E-01 
    2.9327442109748558E-01 
    2.7626282307115574E-01 
    7.5556437459847303E-01 
    7.4845706730998884E-01 
    7.3233512321589600E-01 
    7.0974302635252240E-01 
    6.8253070199621779E-01 
    6.5173469104200854E-01 
    6.1791066992208432E-01 
    5.8140141196241268E-01 
    5.4245325426544255E-01 
    5.0124221483574971E-01 
    4.5788826464724069E-01 
    4.1258123871999969E-01 
    3.6611913649798733E-01 
    3.2129542224521229E-01 
    2.8379188805798300E-01 
    2.6275762251073481E-01 
    7.5291906324253877E-01 
    7.4657122255666009E-01 
    7.3177071811873751E-01 
    7.1040002312682893E-01 
    6.8411656401117193E-01 
    6.5399047635450891E-01 
    6.2064385601590732E-01 
    5.8445382815531655E-01 
    5.4566863346414018E-01 
    5.0441565480282835E-01 
    4.6068170463632363E-01 
    4.1435579752469537E-01 
    3.6564394274152162E-01 
    3.1655710085112332E-01 
    2.7285331268293606E-01 
    2.4592892992863880E-01 
    7.5079814825834545E-01 
    7.4501296555172314E-01 
    7.3131828079181915E-01 
    7.1105567794755131E-01 
    6.8566743710553324E-01 
    6.5621476249734334E-01 
    6.2336289484329255E-01 
    5.8751713781496739E-01 
    5.4893546305243857E-01 
    5.0770678033313010E-01 
    4.6370070579953204E-01 
    4.1651384044167866E-01 
    3.6567272984798427E-01 
    3.1204472962779611E-01 
    2.6066790752964630E-01 
    2.2513867081111788E-01 
    7.4916070551781488E-01 
    7.4380989453281754E-01 
    7.3104802817965953E-01 
    7.1178048794053506E-01 
    6.8723853083741382E-01 
    6.5844980393620478E-01 
    6.2610273761502377E-01 
    5.9061866467518698E-01 
    5.5227423733517822E-01 
    5.1113425015259550E-01 
    4.6697916540837925E-01 
    4.1915841549805249E-01 
    3.6646903767975791E-01 
    3.0826749301385575E-01 
    2.4766443048996503E-01 
    1.9951945926358369E-01 
    7.4798131687299596E-01 
    7.4299379685522504E-01 
    7.3102925134950847E-01 
    7.1264523296960347E-01 
    6.8888368468068906E-01 
    6.6073526212595501E-01 
    6.2889695435446780E-01 
    5.9377912028633573E-01 
    5.5567573643876611E-01 
    5.1464944399359502E-01 
    4.7044306155733961E-01 
    4.2224922116873959E-01 
    3.6815889338261659E-01 
    3.0571786398980327E-01 
    2.3449126174673848E-01 
    1.6775464976741228E-01 
    7.4712526722654227E-01 
    7.4250473291143582E-01 
    7.3126507367406857E-01 
    7.1366953164084301E-01 
    6.9059739038966195E-01 
    6.6301320319045010E-01 
    6.3165074894684170E-01 
    5.9689821695256962E-01 
    5.5902714339810344E-01 
    5.1812204562651343E-01 
    4.7393705349644466E-01 
    4.2557972691936180E-01 
    3.7062595859123310E-01 
    3.0470472428365492E-01 
    2.2193912850017578E-01 
    1.2739412368028583E-01 
    7.4652735348175114E-01 
    7.4223070670474156E-01 
    7.3164862925507235E-01 
    7.1477625502591535E-01 
    6.9233591230032343E-01 
    6.6525826542115574E-01 
    6.3433609062763174E-01 
    5.9997576897455296E-01 
    5.6240162103558244E-01 
    5.2171900342603206E-01 
    4.7770233934701234E-01 
    4.2943252274907340E-01 
    3.7433363843782957E-01 
    3.0651382895529966E-01 
    2.1246670140356191E-01 
    7.3994412762869721E-02 
    7.4634400525052069E-01 
    7.4239410801089867E-01 
    7.3240855186843368E-01 
    7.1618356594405308E-01 
    6.9432832019262103E-01 
    6.6773533853312672E-01 
    6.3722662961716625E-01 
    6.0324911476137255E-01 
    5.6601402255854172E-01 
    5.2563590002672256E-01 
    4.8191552111723351E-01 
    4.3396977656331931E-01 
    3.7935114827650002E-01 
    3.1205804085563604E-01 
    2.1294122510254068E-01 
    0.0000000000000000E+00 

SCALARS Saturarion double 1 
LOOKUP_TABLE default 

    1.0000000000000009E+00 
    9.6967487598587288E-01 
    9.1618642022811647E-01 
    8.4951456630634703E-01 
    7.9293602950800846E-01 
    7.4490405768446644E-01 
    7.0489432049578526E-01 
    6.7118422310602865E-01 
    6.4173717638952510E-01 
    6.1475567713420642E-01 
    5.8879316081891919E-01 
    5.6268256725563937E-01 
    5.3525025196814802E-01 
    4.9427767413558810E-01 
    2.9740515219044611E-01 
    9.6722789650462127E-04 
    9.8788511049248662E-01 
    9.5913576730021044E-01 
    9.0313073118867115E-01 
    8.4063026208350922E-01 
    7.8748126431030696E-01 
    7.4155451185729426E-01 
    7.0231228290158032E-01 
    6.6872054656791802E-01 
    6.3942276041138857E-01 
    6.1289327817370787E-01 
    5.8777744718109803E-01 
    5.6274358938779800E-01 
    5.3637355947871312E-01 
    4.9713004743478223E-01 
    3.2598155804335166E-01 
    4.5784898766414520E-03 
    9.6884904785523729E-01 
    9.4063750224345544E-01 
    8.8494124988564016E-01 
    8.2556538168491489E-01 
    7.7659823476675172E-01 
    7.3428416943741259E-01 
    6.9687228178489136E-01 
    6.6368849766103311E-01 
    6.3446891951748796E-01 
    6.0846766462834279E-01 
    5.8462252836842421E-01 
    5.6131936816425498E-01 
    5.3677334224463946E-01 
    5.0092804653004719E-01 
    3.5599925916269387E-01 
    1.4009914093859734E-02 
    9.3546422309827604E-01 
    9.1240283606520678E-01 
    8.6302738223838060E-01 
    8.0803498581469402E-01 
    7.6101338154140530E-01 
    7.2199554141367039E-01 
    6.8768706522419465E-01 
    6.5680225175726858E-01 
    6.2893998518708982E-01 
    6.0400303113980991E-01 
    5.8119097213406812E-01 
    5.5932721436938704E-01 
    5.3668889505568262E-01 
    5.0497523760081253E-01 
    3.8189365631794808E-01 
    3.5787577726601995E-02 
    8.9688820657376012E-01 
    8.7735030196742714E-01 
    8.3434018969091928E-01 
    7.8535592819586775E-01 
    7.4162437888248611E-01 
    7.0505436741721483E-01 
    6.7386243312101068E-01 
    6.4624882893067592E-01 
    6.2132959630221696E-01 
    5.9862753511855848E-01 
    5.7763843455897201E-01 
    5.5740246398400595E-01 
    5.3645799565244323E-01 
    5.0820963645551120E-01 
    4.0400119620278552E-01 
    6.3955097749736872E-02 
    8.5620262628719357E-01 
    8.4027545143482074E-01 
    8.0379225847520985E-01 
    7.6081399662423432E-01 
    7.2102930331306614E-01 
    6.8665887065794151E-01 
    6.5727497380005184E-01 
    6.3224149370300420E-01 
    6.1030607072080612E-01 
    5.9038438846412222E-01 
    5.7188166221775250E-01 
    5.5425657607890955E-01 
    5.3594471500396923E-01 
    5.1135215831807501E-01 
    4.2018004470001696E-01 
    9.8676612674043471E-02 
    8.1363944585399484E-01 
    8.0203767996229125E-01 
    7.7248048126521229E-01 
    7.3519554988005353E-01 
    6.9935944814874151E-01 
    6.6761630580098841E-01 
    6.4035928171692369E-01 
    6.1693059131367034E-01 
    5.9690116263316439E-01 
    5.7941456348936471E-01 
    5.6365947696885366E-01 
    5.4891430569025801E-01 
    5.3402020664830885E-01 
    5.1350741351024976E-01 
    4.3496031328146945E-01 
    1.3831372657005483E-01 
    7.6928962688299873E-01 
    7.6229761486147574E-01 
    7.4007339674582884E-01 
    7.0861787535788401E-01 
    6.7636407182976999E-01 
    6.4721780057750489E-01 
    6.2183278034532508E-01 
    6.0011942733039869E-01 
    5.8165336780483479E-01 
    5.6619188009327881E-01 
    5.5306948075521700E-01 
    5.4149073372542889E-01 
    5.3020255402913041E-01 
    5.1487305916842385E-01 
    4.4878590390796497E-01 
    1.7906094118267110E-01 
    7.2333502142600170E-01 
    7.2050590204869358E-01 
    7.0495362841742704E-01 
    6.7957423428397923E-01 
    6.5166403061812750E-01 
    6.2527752782604440E-01 
    6.0176250948127852E-01 
    5.8114750772042778E-01 
    5.6370579363129669E-01 
    5.4976346843860979E-01 
    5.3924684003064038E-01 
    5.3126591585290461E-01 
    5.2419705010986484E-01 
    5.1434145173814982E-01 
    4.6084474766666245E-01 
    2.1434266228622278E-01 
    6.7570096688479520E-01 
    6.7655392348667365E-01 
    6.6695384162593729E-01 
    6.4729014730415613E-01 
    6.2415829340649365E-01 
    6.0124759850566944E-01 
    5.7981846199842024E-01 
    5.6064166253597392E-01 
    5.4436105088005959E-01 
    5.3169367800410394E-01 
    5.2267185005188643E-01 
    5.1745042399862218E-01 
    5.1511222019392078E-01 
    5.1133797092027433E-01 
    4.7128862925023257E-01 
    2.4686214691159902E-01 
    6.2646209174106071E-01 
    6.3046171459447209E-01 
    6.2622378167091841E-01 
    6.1198021410790426E-01 
    5.9373476052650864E-01 
    5.7485915032119272E-01 
    5.5673300167919204E-01 
    5.3983218412637024E-01 
    5.2515139397488386E-01 
    5.1339733891908357E-01 
    5.0474856025888493E-01 
    5.0032053448073532E-01 
    5.0176882372331988E-01 
    5.0535451886896021E-01 
    4.7931984863391114E-01 
    2.7840888083783144E-01 
    5.7726096629302270E-01 
    5.8346952465691548E-01 
    5.8415614716798880E-01 
    5.7525467204951508E-01 
    5.6118384327540949E-01 
    5.4556180515910013E-01 
    5.3091401526489135E-01 
    5.1765490173821149E-01 
    5.0460222229010876E-01 
    4.9247760217715397E-01 
    4.8262627306722233E-01 
    4.7786058945136600E-01 
    4.8245349664177117E-01 
    4.9427369103178664E-01 
    4.8418181691682438E-01 
    3.0885074571483950E-01 
    5.2780785550522369E-01 
    5.3679128332448411E-01 
    5.4082320054313282E-01 
    5.3606153539284318E-01 
    5.2477094206689279E-01 
    5.1062593774823817E-01 
    4.9716147080955142E-01 
    4.8437237313849513E-01 
    4.6946320887714704E-01 
    4.4655812123127192E-01 
    4.2041799973131527E-01 
    4.0662333183757210E-01 
    4.1952115131341894E-01 
    4.6018149510667250E-01 
    4.7746079642734679E-01 
    3.3679530860930795E-01 
    3.9920828689135601E-01 
    4.3639659070022141E-01 
    4.5867089890318524E-01 
    4.6170802969564262E-01 
    4.5015371228272644E-01 
    4.2056104999903027E-01 
    3.6362716169750786E-01 
    2.9443007637105001E-01 
    2.3627149036475753E-01 
    1.4987399494326106E-01 
    9.3402356071498355E-02 
    8.5266506990677143E-02 
    1.5471121272317637E-01 
    3.3301521740173368E-01 
    4.4100930088189333E-01 
    3.5467778825123880E-01 
    3.3124954745030848E-02 
    1.0580882633651986E-01 
    1.3512424233984840E-01 
    1.4703745096075260E-01 
    1.1938727213436946E-01 
    6.3309564138050473E-02 
    1.5200539566408707E-02 
    1.7110692945815987E-03 
    5.2018300597005628E-04 
    2.9303647520879743E-05 
    1.0109508450965168E-05 
    2.9192812844577531E-06 
    2.6803547317449149E-03 
    8.1534792986252727E-02 
    3.4464986743727211E-01 
    3.6051948690452951E-01 
    1.0004521981973367E-06 
    6.4522690121369519E-05 
    6.0625761416361894E-06 
    3.6241123949942820E-06 
    1.9255445036116816E-05 
    1.4136991607709166E-05 
    2.0930308678862387E-06 
    1.0239894619860589E-06 
    1.0020375374135484E-06 
    1.0000756716854444E-06 
    1.0000081019313617E-06 
    1.0000015433150623E-06 
    1.4455820305170888E-06 
    2.6086273425182682E-03 
    2.0337044452377162E-01 
    3.2361877491285168E-01 
