# vtk DataFile Version 2.0
Pressure Field Data 
ASCII 
DATASET UNSTRUCTURED_GRID 

POINTS 289 double 

    0.0000000000000000E+00     0.0000000000000000E+00     0.0000000000000000E+00 
    1.0000000000000000E+00     0.0000000000000000E+00     0.0000000000000000E+00 
    1.0000000000000000E+00     1.0000000000000000E+00     0.0000000000000000E+00 
    0.0000000000000000E+00     1.0000000000000000E+00     0.0000000000000000E+00 
    6.2499999999872928E-02     0.0000000000000000E+00     0.0000000000000000E+00 
    1.2499999999977310E-01     0.0000000000000000E+00     0.0000000000000000E+00 
    1.8749999999959341E-01     0.0000000000000000E+00     0.0000000000000000E+00 
    2.4999999999941089E-01     0.0000000000000000E+00     0.0000000000000000E+00 
    3.1249999999922851E-01     0.0000000000000000E+00     0.0000000000000000E+00 
    3.7499999999904610E-01     0.0000000000000000E+00     0.0000000000000000E+00 
    4.3749999999886358E-01     0.0000000000000000E+00     0.0000000000000000E+00 
    4.9999999999869210E-01     0.0000000000000000E+00     0.0000000000000000E+00 
    5.6249999999884603E-01     0.0000000000000000E+00     0.0000000000000000E+00 
    6.2499999999901090E-01     0.0000000000000000E+00     0.0000000000000000E+00 
    6.8749999999917577E-01     0.0000000000000000E+00     0.0000000000000000E+00 
    7.4999999999934064E-01     0.0000000000000000E+00     0.0000000000000000E+00 
    8.1249999999950551E-01     0.0000000000000000E+00     0.0000000000000000E+00 
    8.7499999999967026E-01     0.0000000000000000E+00     0.0000000000000000E+00 
    9.3749999999983513E-01     0.0000000000000000E+00     0.0000000000000000E+00 
    1.0000000000000000E+00     6.2499999999872928E-02     0.0000000000000000E+00 
    1.0000000000000000E+00     1.2499999999977310E-01     0.0000000000000000E+00 
    1.0000000000000000E+00     1.8749999999959341E-01     0.0000000000000000E+00 
    1.0000000000000000E+00     2.4999999999941089E-01     0.0000000000000000E+00 
    1.0000000000000000E+00     3.1249999999922851E-01     0.0000000000000000E+00 
    1.0000000000000000E+00     3.7499999999904610E-01     0.0000000000000000E+00 
    1.0000000000000000E+00     4.3749999999886358E-01     0.0000000000000000E+00 
    1.0000000000000000E+00     4.9999999999869210E-01     0.0000000000000000E+00 
    1.0000000000000000E+00     5.6249999999884603E-01     0.0000000000000000E+00 
    1.0000000000000000E+00     6.2499999999901090E-01     0.0000000000000000E+00 
    1.0000000000000000E+00     6.8749999999917577E-01     0.0000000000000000E+00 
    1.0000000000000000E+00     7.4999999999934064E-01     0.0000000000000000E+00 
    1.0000000000000000E+00     8.1249999999950551E-01     0.0000000000000000E+00 
    1.0000000000000000E+00     8.7499999999967026E-01     0.0000000000000000E+00 
    1.0000000000000000E+00     9.3749999999983513E-01     0.0000000000000000E+00 
    9.3749999999973976E-01     1.0000000000000000E+00     0.0000000000000000E+00 
    8.7499999999950118E-01     1.0000000000000000E+00     0.0000000000000000E+00 
    8.1249999999991318E-01     1.0000000000000000E+00     0.0000000000000000E+00 
    7.5000000000034706E-01     1.0000000000000000E+00     0.0000000000000000E+00 
    6.8750000000078049E-01     1.0000000000000000E+00     0.0000000000000000E+00 
    6.2500000000121403E-01     1.0000000000000000E+00     0.0000000000000000E+00 
    5.6250000000164757E-01     1.0000000000000000E+00     0.0000000000000000E+00 
    5.0000000000205946E-01     1.0000000000000000E+00     0.0000000000000000E+00 
    4.3750000000182099E-01     1.0000000000000000E+00     0.0000000000000000E+00 
    3.7500000000156092E-01     1.0000000000000000E+00     0.0000000000000000E+00 
    3.1250000000130068E-01     1.0000000000000000E+00     0.0000000000000000E+00 
    2.5000000000104050E-01     1.0000000000000000E+00     0.0000000000000000E+00 
    1.8750000000078040E-01     1.0000000000000000E+00     0.0000000000000000E+00 
    1.2500000000052031E-01     1.0000000000000000E+00     0.0000000000000000E+00 
    6.2500000000260125E-02     1.0000000000000000E+00     0.0000000000000000E+00 
    0.0000000000000000E+00     9.3749999999973976E-01     0.0000000000000000E+00 
    0.0000000000000000E+00     8.7499999999950118E-01     0.0000000000000000E+00 
    0.0000000000000000E+00     8.1249999999991318E-01     0.0000000000000000E+00 
    0.0000000000000000E+00     7.5000000000034706E-01     0.0000000000000000E+00 
    0.0000000000000000E+00     6.8750000000078049E-01     0.0000000000000000E+00 
    0.0000000000000000E+00     6.2500000000121403E-01     0.0000000000000000E+00 
    0.0000000000000000E+00     5.6250000000164757E-01     0.0000000000000000E+00 
    0.0000000000000000E+00     5.0000000000205946E-01     0.0000000000000000E+00 
    0.0000000000000000E+00     4.3750000000182099E-01     0.0000000000000000E+00 
    0.0000000000000000E+00     3.7500000000156092E-01     0.0000000000000000E+00 
    0.0000000000000000E+00     3.1250000000130068E-01     0.0000000000000000E+00 
    0.0000000000000000E+00     2.5000000000104050E-01     0.0000000000000000E+00 
    0.0000000000000000E+00     1.8750000000078040E-01     0.0000000000000000E+00 
    0.0000000000000000E+00     1.2500000000052031E-01     0.0000000000000000E+00 
    0.0000000000000000E+00     6.2500000000260125E-02     0.0000000000000000E+00 
    6.2499999999897131E-02     6.2500000000235922E-02     0.0000000000000000E+00 
    6.2499999999921327E-02     1.2500000000047351E-01     0.0000000000000000E+00 
    6.2499999999945530E-02     1.8750000000070621E-01     0.0000000000000000E+00 
    6.2499999999969733E-02     2.5000000000093858E-01     0.0000000000000000E+00 
    6.2499999999993928E-02     3.1250000000117117E-01     0.0000000000000000E+00 
    6.2500000000018124E-02     3.7500000000140382E-01     0.0000000000000000E+00 
    6.2500000000042327E-02     4.3750000000163619E-01     0.0000000000000000E+00 
    6.2500000000066530E-02     5.0000000000184897E-01     0.0000000000000000E+00 
    6.2500000000090733E-02     5.6250000000147260E-01     0.0000000000000000E+00 
    6.2500000000114922E-02     6.2500000000107636E-01     0.0000000000000000E+00 
    6.2500000000139125E-02     6.8750000000068034E-01     0.0000000000000000E+00 
    6.2500000000163328E-02     7.5000000000028411E-01     0.0000000000000000E+00 
    6.2500000000187531E-02     8.1249999999988787E-01     0.0000000000000000E+00 
    6.2500000000211720E-02     8.7499999999951172E-01     0.0000000000000000E+00 
    6.2500000000235922E-02     9.3749999999974565E-01     0.0000000000000000E+00 
    1.2499999999981980E-01     6.2500000000211733E-02     0.0000000000000000E+00 
    1.2499999999986650E-01     1.2500000000042691E-01     0.0000000000000000E+00 
    1.2499999999991319E-01     1.8750000000063199E-01     0.0000000000000000E+00 
    1.2499999999995989E-01     2.5000000000083678E-01     0.0000000000000000E+00 
    1.2500000000000661E-01     3.1250000000104172E-01     0.0000000000000000E+00 
    1.2500000000005329E-01     3.7500000000124661E-01     0.0000000000000000E+00 
    1.2500000000010000E-01     4.3750000000145117E-01     0.0000000000000000E+00 
    1.2500000000014669E-01     5.0000000000163858E-01     0.0000000000000000E+00 
    1.2500000000019340E-01     5.6250000000129741E-01     0.0000000000000000E+00 
    1.2500000000024011E-01     6.2500000000093847E-01     0.0000000000000000E+00 
    1.2500000000028680E-01     6.8750000000057998E-01     0.0000000000000000E+00 
    1.2500000000033351E-01     7.5000000000022127E-01     0.0000000000000000E+00 
    1.2500000000038020E-01     8.1249999999986211E-01     0.0000000000000000E+00 
    1.2500000000042691E-01     8.7499999999952238E-01     0.0000000000000000E+00 
    1.2500000000047359E-01     9.3749999999975164E-01     0.0000000000000000E+00 
    1.8749999999966760E-01     6.2500000000187531E-02     0.0000000000000000E+00 
    1.8749999999974179E-01     1.2500000000038020E-01     0.0000000000000000E+00 
    1.8749999999981601E-01     1.8750000000055780E-01     0.0000000000000000E+00 
    1.8749999999989009E-01     2.5000000000073502E-01     0.0000000000000000E+00 
    1.8749999999996431E-01     3.1250000000091221E-01     0.0000000000000000E+00 
    1.8750000000003850E-01     3.7500000000108941E-01     0.0000000000000000E+00 
    1.8750000000011269E-01     4.3750000000126649E-01     0.0000000000000000E+00 
    1.8750000000018691E-01     5.0000000000142808E-01     0.0000000000000000E+00 
    1.8750000000026110E-01     5.6250000000112244E-01     0.0000000000000000E+00 
    1.8750000000033529E-01     6.2500000000080080E-01     0.0000000000000000E+00 
    1.8750000000040951E-01     6.8750000000047962E-01     0.0000000000000000E+00 
    1.8750000000048361E-01     7.5000000000015843E-01     0.0000000000000000E+00 
    1.8750000000055780E-01     8.1249999999983680E-01     0.0000000000000000E+00 
    1.8750000000063199E-01     8.7499999999953304E-01     0.0000000000000000E+00 
    1.8750000000070621E-01     9.3749999999975764E-01     0.0000000000000000E+00 
    2.4999999999951281E-01     6.2500000000163314E-02     0.0000000000000000E+00 
    2.4999999999961461E-01     1.2500000000033351E-01     0.0000000000000000E+00 
    2.4999999999971650E-01     1.8750000000048361E-01     0.0000000000000000E+00 
    2.4999999999981831E-01     2.5000000000063310E-01     0.0000000000000000E+00 
    2.4999999999992020E-01     3.1250000000078260E-01     0.0000000000000000E+00 
    2.5000000000002198E-01     3.7500000000093209E-01     0.0000000000000000E+00 
    2.5000000000012390E-01     4.3750000000108180E-01     0.0000000000000000E+00 
    2.5000000000022571E-01     5.0000000000121769E-01     0.0000000000000000E+00 
    2.5000000000032763E-01     5.6250000000094724E-01     0.0000000000000000E+00 
    2.5000000000042938E-01     6.2500000000066314E-01     0.0000000000000000E+00 
    2.5000000000053119E-01     6.8750000000037925E-01     0.0000000000000000E+00 
[...]
CELL_DATA 256 
SCALARS Pressure double 1 
LOOKUP_TABLE default 

    6.4396783756596288E-01 
    5.9464035411840699E-01 
    5.6367276371011421E-01 
    5.3599930367960891E-01 
    5.0815393587174518E-01 
    4.7925233170375231E-01 
    4.4903720711892420E-01 
    4.1757915629794262E-01 
    3.8515386232967413E-01 
    3.5225184537400939E-01 
    3.1967402344926449E-01 
    2.8870238519370733E-01 
    2.6122429171294725E-01 
    2.3956015059280711E-01 
    2.2571775452123671E-01 
    2.1912967993915322E-01 
    6.2996873189083036E-01 
    5.9586129640589269E-01 
    5.6597014745864005E-01 
    5.3850431297234524E-01 
    5.1083029899910948E-01 
    4.8208917916297428E-01 
    4.5201680651898618E-01 
    4.2066552389629153E-01 
    3.8828609822742899E-01 
    3.5533331070472124E-01 
    3.2255734032419797E-01 
    2.9117767601290989E-01 
    2.6304128623794909E-01 
    2.4051955727504282E-01 
    2.2585042888165380E-01 
    2.1875012555833590E-01 
    6.1923018261226481E-01 
    5.9496256773342637E-01 
    5.6753263276611920E-01 
    5.4069305680921698E-01 
    5.1332724825416720E-01 
    4.8480026702709211E-01 
    4.5489165053295472E-01 
    4.2364955822631500E-01 
    3.9129948760750749E-01 
    3.5825334196271641E-01 
    3.2519919140627251E-01 
    2.9328082789002374E-01 
    2.6430183334705282E-01 
    2.4071884577854308E-01 
    2.2508779273052601E-01 
    2.1752451600748837E-01 
    6.1081528610133817E-01 
    5.9300635134438662E-01 
    5.6840358849156469E-01 
    5.4254271295615841E-01 
    5.1563503988291060E-01 
    4.8738753682761177E-01 
    4.5767018813323801E-01 
    4.2654422664180902E-01 
    3.9421353061542569E-01 
    3.6104225819357438E-01 
    3.2764490490035308E-01 
    2.9507190778805931E-01 
    2.6506721819390022E-01 
    2.4018705577220587E-01 
    2.2338868430566011E-01 
    2.1532692724815972E-01 
    6.0408822537248219E-01 
    5.9058930014284639E-01 
    5.6871822700698682E-01 
    5.4406303587393234E-01 
    5.1774984990129880E-01 
    4.8985184876872678E-01 
    4.6036002332768394E-01 
    4.2936360393849954E-01 
    3.9705014484981599E-01 
    3.6373362985985813E-01 
    3.2994402091560437E-01 
    2.9661727762648565E-01 
    2.6540782547515396E-01 
    2.3896054687929041E-01 
    2.2070713130280464E-01 
    2.1202225006534081E-01 
    5.9864187262034974E-01 
    5.8805486623664360E-01 
    5.6862790737534041E-01 
    5.4528780122624299E-01 
    5.1967627370487490E-01 
    4.9219421374657202E-01 
    4.6296679108851008E-01 
    4.3212073815978269E-01 
    3.9983184331116356E-01 
    3.6636322727852072E-01 
    3.3215033264294463E-01 
    2.9799083854991559E-01 
    2.6540595290165497E-01 
    2.3708838474608473E-01 
    2.1699426972629227E-01 
    2.0745081187869613E-01 
    5.9420429393843077E-01 
    5.8560691615223304E-01 
    5.6827776666542762E-01 
    5.4626907277407522E-01 
    5.2143185499075451E-01 
    4.9442239345478872E-01 
    4.6549734341475868E-01 
    4.3482747776871461E-01 
    4.0258003072537973E-01 
    3.6896675101163035E-01 
    3.3432084322364614E-01 
    2.9927522981286075E-01 
    2.6516002047493609E-01 
    2.3464084619798942E-01 
    2.1220915789370523E-01 
    2.0143109815479010E-01 
    5.9058452602325473E-01 
    5.8336330776393042E-01 
    5.6779371482586405E-01 
    5.4706886963561130E-01 
    5.2304484106901117E-01 
    4.9655127195608917E-01 
    4.6796196159728942E-01 
    4.3749516315618792E-01 
    4.0531317740166800E-01 
    3.7157688380411863E-01 
    3.3651219379409103E-01 
    3.0056114172724918E-01 
    2.6478959219965659E-01 
    2.3171904646360389E-01 
    2.0632756536972588E-01 
    1.9375057576751528E-01 
    5.8764317765563723E-01 
    5.8138756170149608E-01 
    5.6727768795770550E-01 
    5.4775140517143739E-01 
    5.2454879622371164E-01 
    4.9859934237232401E-01 
    4.7037311343643867E-01 
    4.4013552147608848E-01 
    4.0804739105295751E-01 
    3.7422129218974276E-01 
    3.3877589967657734E-01 
    3.0194202732874942E-01 
    2.6443697087011808E-01 
    2.2846582954565106E-01 
    1.9934721320886462E-01 
    1.8413769913952480E-01 
    5.8527818008036459E-01 
    5.7971203435059548E-01 
    5.6680873329219861E-01 
    5.4837722940989075E-01 
    5.2597963569692052E-01 
    5.0058713174607217E-01 
    4.7274453338286021E-01 
    4.4276109631645710E-01 
    4.1079795966924793E-01 
    3.7692336663098847E-01 
    3.4115612979635240E-01 
    3.0350851717026150E-01 
    2.6426479343197279E-01 
    2.2507946553173785E-01 
    1.9130745899744656E-01 
    1.7223183379251761E-01 
    5.8341359551380367E-01 
    5.7835250705808605E-01 
    5.6644847056783287E-01 
    5.4900197307907206E-01 
    5.2737492487796611E-01 
    5.0253830651960296E-01 
    4.7509182748156970E-01 
    4.4538542994970320E-01 
    4.1358062186903288E-01 
    3.7970424758016652E-01 
    3.4369012149587008E-01 
    3.0534470218901250E-01 
    2.6445233051531031E-01 
    2.2182870206998290E-01 
    1.8233002630693637E-01 
    1.5755689509070067E-01 
    5.8198958064554784E-01 
    5.7731514337472489E-01 
    5.6624610925308250E-01 
    5.4967684370619097E-01 
    5.2877338488759495E-01 
    5.0447967145778305E-01 
    4.7743351881961338E-01 
    4.4802367250514125E-01 
    4.1641189646768562E-01 
    3.8258372999003643E-01 
    3.4640801325516857E-01 
    3.0752389806038577E-01 
    2.6518935394482873E-01 
    2.1907192850870255E-01 
    1.7268480863692331E-01 
    1.3944776226291497E-01 
    5.8095907362650678E-01 
    5.7660212858284299E-01 
    5.6624269397068328E-01 
    5.5045023368272061E-01 
    5.3021521261017990E-01 
    5.0644127555374330E-01 
    4.7979147080926876E-01 
    4.5069345949147704E-01 
    4.1930988696619620E-01 
    3.8558107534239355E-01 
    3.4933259620274854E-01 
    3.1010252025284624E-01 
    2.6666093192101048E-01 
    2.1726866232772149E-01 
    1.6290413132250586E-01 
    1.1691514777301919E-01 
    5.8029322133279582E-01 
    5.7622556947776438E-01 
    5.6648285402686127E-01 
    5.5137465117394580E-01 
    5.3174595163678740E-01 
    5.0845744099789258E-01 
    4.8218921685464017E-01 
    4.5341131439322291E-01 
    4.2229134691718812E-01 
    3.8871134275261210E-01 
    3.5247097487550044E-01 
    3.1310557660902522E-01 
    2.6901572021231396E-01 
    2.1698231499735371E-01 
    1.5407186171057186E-01 
    8.8518010859817836E-02 
    5.7990619494445461E-01 
    5.7614762624642035E-01 
    5.6697408912825054E-01 
    5.5247506367490873E-01 
    5.3338740252442107E-01 
    5.1053542307831468E-01 
    4.8461598542586276E-01 
    4.5614425587736124E-01 
    4.2529708354416151E-01 
    3.9191230562220974E-01 
    3.5575186625451888E-01 
    3.1643354570990523E-01 
    2.7220807342125952E-01 
    2.1859891116972008E-01 
    1.4796003731042423E-01 
    5.1917340190595795E-02 
    5.7977541479847639E-01 
    5.7634674078626091E-01 
    5.6770514103455405E-01 
    5.5375478913013076E-01 
    5.3515035769725350E-01 
    5.1269112313907061E-01 
    4.8708511659312181E-01 
    4.5889400555197707E-01 
    4.2830347146989478E-01 
    3.9517286774675603E-01 
    3.5923086215151179E-01 
    3.2015914642194571E-01 
    2.7631143653897489E-01 
    2.2244549167077296E-01 
    1.4745355642286426E-01 
    0.0000000000000000E+00 

SCALARS Saturarion double 1 
LOOKUP_TABLE default 

    1.0000000000000002E+00 
    9.7954858486693186E-01 
    9.4188629740036756E-01 
    8.8924551109190053E-01 
    8.4535303144264196E-01 
    8.0651351717039055E-01 
    7.7224334075518930E-01 
    7.4210041539159066E-01 
    7.1527774299118896E-01 
    6.9086997997739052E-01 
    6.6791518228302693E-01 
    6.4523316376844198E-01 
    6.2092677339837155E-01 
    5.9125415345673027E-01 
    5.4735367234692045E-01 
    3.3919280120845058E-01 
    9.9251966597634800E-01 
    9.7318956044672478E-01 
    9.3365774445171967E-01 
    8.8339833370329146E-01 
    8.4043677499436098E-01 
    8.0276439171643943E-01 
    7.6949325499782739E-01 
    7.4001605462433073E-01 
    7.1368382705262379E-01 
    6.8968050237344258E-01 
    6.6723698431179290E-01 
    6.4531366713840510E-01 
    6.2201952101339719E-01 
    5.9335625498421118E-01 
    5.5100650136031926E-01 
    3.5851253012908180E-01 
    9.8067311405175595E-01 
    9.6119568556792423E-01 
    9.2133749382053798E-01 
    8.7259983791624141E-01 
    8.3068803486987741E-01 
    7.9496651529881568E-01 
    7.6374155913792219E-01 
    7.3571291841332875E-01 
    7.1028769808074044E-01 
    6.8691113605494358E-01 
    6.6507482469687385E-01 
    6.4398727014748414E-01 
    6.2216750831546141E-01 
    5.9572950766476518E-01 
    5.5619898396435008E-01 
    3.7663890317340953E-01 
    9.6003306070673078E-01 
    9.4355584366590528E-01 
    9.0608505242865711E-01 
    8.6121976668814271E-01 
    8.2002461224238299E-01 
    7.8499479789721249E-01 
    7.5489921143619099E-01 
    7.2843109084543400E-01 
    7.0450389819529391E-01 
    6.8258373480448253E-01 
    6.6200075788674617E-01 
    6.4207536751118455E-01 
    6.2163459471787352E-01 
    5.9755341211808555E-01 
    5.6131060035823710E-01 
    3.9444287961598185E-01 
    9.3441471158383527E-01 
    9.1955067374562705E-01 
    8.8568440205310306E-01 
    8.4518964293683818E-01 
    8.0597332168180114E-01 
    7.7158449202817481E-01 
    7.4229708067779321E-01 
    7.1708721687111032E-01 
    6.9495306934553325E-01 
    6.7510821356843720E-01 
    6.5687714486705762E-01 
    6.3927431844029148E-01 
    6.2079792054637783E-01 
    5.9883263660697661E-01 
    5.6579440938960568E-01 
    4.0958304416040225E-01 
    9.0492084031840081E-01 
    8.9234182274046292E-01 
    8.6268848841747825E-01 
    8.2572791340036900E-01 
    7.8925314703051819E-01 
    7.5648204648658324E-01 
    7.2796737949552104E-01 
    7.0358672948832024E-01 
    6.8267043928759774E-01 
    6.6454258011964518E-01 
    6.4865387048620560E-01 
    6.3421872672129354E-01 
    6.1910542833543791E-01 
    5.9977613400592322E-01 
    5.6958835388949713E-01 
    4.2346225101338963E-01 
    8.7247569156403360E-01 
    8.6282218024707236E-01 
    8.3763732470259811E-01 
    8.0437268328808154E-01 
    7.7098993515145142E-01 
    7.4052276654609650E-01 
    7.1363746428515384E-01 
    6.9000254129221350E-01 
    6.6966962296861154E-01 
    6.5250440542005705E-01 
    6.3831402170954699E-01 
    6.2657932890063672E-01 
    6.1553011493323717E-01 
    6.0028309447458550E-01 
    5.7333329659676213E-01 
    4.3720049929078475E-01 
    8.3694310452695420E-01 
    8.3063633962452821E-01 
    8.1062910191021798E-01 
    7.8172672335909155E-01 
    7.5131987345407014E-01 
    7.2304395871115101E-01 
    6.9765764049036105E-01 
    6.7533952600198899E-01 
    6.5598122188724040E-01 
    6.3971094717557220E-01 
    6.2660577163066822E-01 
    6.1687114528823961E-01 
    6.0950993900257122E-01 
    5.9957941596405906E-01 
    5.7707392217029541E-01 
    4.5110869281378368E-01 
    7.9833926352134288E-01 
    7.9539955781431260E-01 
    7.8062168056128045E-01 
    7.5652286409072800E-01 
    7.2960310963582342E-01 
    7.0349015900258804E-01 
    6.7971403132012154E-01 
    6.5860569060631602E-01 
    6.4030957496715801E-01 
    6.2496178712971151E-01 
    6.1298608943530619E-01 
    6.0495596212486358E-01 
    6.0085776029968152E-01 
    5.9672050067949234E-01 
    5.8020688585859947E-01 
    4.6448116288391589E-01 
    7.5670119503935018E-01 
    7.5700329944734657E-01 
    7.4725065476605779E-01 
    7.2780234996016924E-01 
    7.0461721011030254E-01 
    6.8112876050606364E-01 
    6.5899789153722710E-01 
    6.3935322423602436E-01 
    6.2240132666078152E-01 
    6.0814862650019752E-01 
    5.9699137262288415E-01 
    5.9023500828335274E-01 
    5.8902886552318601E-01 
    5.9090086706236677E-01 
    5.8189300864882998E-01 
    4.7780370133241268E-01 
    7.1171700684003703E-01 
    7.1509111628737732E-01 
    7.1011205925954590E-01 
    6.9503548247433966E-01 
    6.7562203625543837E-01 
    6.5526404266342575E-01 
    6.3569976185259847E-01 
    6.1765916294072243E-01 
    6.0201307721973418E-01 
    5.8903469202096770E-01 
    5.7898629241162525E-01 
    5.7293845320973813E-01 
    5.7341717932014769E-01 
    5.8102466418679011E-01 
    5.8095190022265575E-01 
    4.9138803144387477E-01 
    6.6196877933994491E-01 
    6.6839270492257064E-01 
    6.6836756981032408E-01 
    6.5779363803616442E-01 
    6.4193408236510552E-01 
    6.2448773966809223E-01 
    6.0743368506248729E-01 
    5.9185767836802716E-01 
    5.7819927350322253E-01 
    5.6684553743332844E-01 
    5.5819553997258275E-01 
    5.5337326192627789E-01 
    5.5461738591376741E-01 
    5.6590032918397992E-01 
    5.7664998512619414E-01 
    5.0378330299139695E-01 
    6.0690339782130898E-01 
    6.1584173993961033E-01 
    6.2031217788521564E-01 
    6.1441695096585558E-01 
    6.0282685721402096E-01 
    5.8881815447520502E-01 
    5.7483672290887033E-01 
    5.6154970972518659E-01 
    5.4971008800828736E-01 
    5.3997114046989680E-01 
    5.3314743980865364E-01 
    5.2996369873026206E-01 
    5.3258587769218391E-01 
    5.4553316747491132E-01 
    5.6572462954613034E-01 
    5.1365445019009648E-01 
    5.4989004241352157E-01 
    5.6041363072200823E-01 
    5.6801212806584767E-01 
    5.6637168246865810E-01 
    5.5882403008334014E-01 
    5.4793688356241943E-01 
    5.3580313588073214E-01 
    5.2378967032040513E-01 
    5.1208315347744582E-01 
    5.0313561245275085E-01 
    4.9642889614115071E-01 
    4.9391944960555700E-01 
    5.0023089845644186E-01 
    5.1848535797333328E-01 
    5.5192957792887198E-01 
    5.2019566940606943E-01 
    4.1115788166061057E-01 
    4.4214471677211875E-01 
    4.6562687149649584E-01 
    4.7268983574165219E-01 
    4.6884130216004982E-01 
    4.5706084751491610E-01 
    4.3861838735259123E-01 
    4.1606397322815120E-01 
    3.7851726789116524E-01 
    3.1852729505149147E-01 
    3.0181563731626876E-01 
    3.2630670801399930E-01 
    3.5422865025309253E-01 
    4.2186073234629684E-01 
    5.1272382059931565E-01 
    5.2148134803279422E-01 
    2.5325273386783712E-02 
    8.3036708443712470E-02 
    1.0714551574683932E-01 
    1.2991655294415888E-01 
    9.4181190511448215E-02 
    8.5994766645774642E-02 
    4.8764488146477193E-02 
    2.9530807987651217E-02 
    1.3038445627228454E-02 
    2.1716903730818991E-03 
    4.1147085830189004E-03 
    4.3875950954408455E-03 
    2.2931742774034408E-02 
    1.7971022849344281E-01 
    3.4032206225371070E-01 
    4.7065664965616016E-01 
