# vtk DataFile Version 2.0
Pressure Field Data 
ASCII 
DATASET UNSTRUCTURED_GRID 

POINTS 289 double 

    0.0000000000000000E+00     0.0000000000000000E+00     0.0000000000000000E+00 
    1.0000000000000000E+00     0.0000000000000000E+00     0.0000000000000000E+00 
    1.0000000000000000E+00     1.0000000000000000E+00     0.0000000000000000E+00 
    0.0000000000000000E+00     1.0000000000000000E+00     0.0000000000000000E+00 
    6.2499999999872928E-02     0.0000000000000000E+00     0.0000000000000000E+00 
    1.2499999999977310E-01     0.0000000000000000E+00     0.0000000000000000E+00 
    1.8749999999959341E-01     0.0000000000000000E+00     0.0000000000000000E+00 
    2.4999999999941089E-01     0.0000000000000000E+00     0.0000000000000000E+00 
    3.1249999999922851E-01     0.0000000000000000E+00     0.0000000000000000E+00 
    3.7499999999904610E-01     0.0000000000000000E+00     0.0000000000000000E+00 
    4.3749999999886358E-01     0.0000000000000000E+00     0.0000000000000000E+00 
    4.9999999999869210E-01     0.0000000000000000E+00     0.0000000000000000E+00 
    5.6249999999884603E-01     0.0000000000000000E+00     0.0000000000000000E+00 
    6.2499999999901090E-01     0.0000000000000000E+00     0.0000000000000000E+00 
    6.8749999999917577E-01     0.0000000000000000E+00     0.0000000000000000E+00 
    7.4999999999934064E-01     0.0000000000000000E+00     0.0000000000000000E+00 
    8.1249999999950551E-01     0.0000000000000000E+00     0.0000000000000000E+00 
    8.7499999999967026E-01     0.0000000000000000E+00     0.0000000000000000E+00 
    9.3749999999983513E-01     0.0000000000000000E+00     0.0000000000000000E+00 
    1.0000000000000000E+00     6.2499999999872928E-02     0.0000000000000000E+00 
    1.0000000000000000E+00     1.2499999999977310E-01     0.0000000000000000E+00 
    1.0000000000000000E+00     1.8749999999959341E-01     0.0000000000000000E+00 
    1.0000000000000000E+00     2.4999999999941089E-01     0.0000000000000000E+00 
    1.0000000000000000E+00     3.1249999999922851E-01     0.0000000000000000E+00 
    1.0000000000000000E+00     3.7499999999904610E-01     0.0000000000000000E+00 
    1.0000000000000000E+00     4.3749999999886358E-01     0.0000000000000000E+00 
    1.0000000000000000E+00     4.9999999999869210E-01     0.0000000000000000E+00 
    1.0000000000000000E+00     5.6249999999884603E-01     0.0000000000000000E+00 
    1.0000000000000000E+00     6.2499999999901090E-01     0.0000000000000000E+00 
    1.0000000000000000E+00     6.8749999999917577E-01     0.0000000000000000E+00 
    1.0000000000000000E+00     7.4999999999934064E-01     0.0000000000000000E+00 
    1.0000000000000000E+00     8.1249999999950551E-01     0.0000000000000000E+00 
    1.0000000000000000E+00     8.7499999999967026E-01     0.0000000000000000E+00 
    1.0000000000000000E+00     9.3749999999983513E-01     0.0000000000000000E+00 
    9.3749999999973976E-01     1.0000000000000000E+00     0.0000000000000000E+00 
    8.7499999999950118E-01     1.0000000000000000E+00     0.0000000000000000E+00 
    8.1249999999991318E-01     1.0000000000000000E+00     0.0000000000000000E+00 
    7.5000000000034706E-01     1.0000000000000000E+00     0.0000000000000000E+00 
    6.8750000000078049E-01     1.0000000000000000E+00     0.0000000000000000E+00 
    6.2500000000121403E-01     1.0000000000000000E+00     0.0000000000000000E+00 
    5.6250000000164757E-01     1.0000000000000000E+00     0.0000000000000000E+00 
    5.0000000000205946E-01     1.0000000000000000E+00     0.0000000000000000E+00 
    4.3750000000182099E-01     1.0000000000000000E+00     0.0000000000000000E+00 
    3.7500000000156092E-01     1.0000000000000000E+00     0.0000000000000000E+00 
    3.1250000000130068E-01     1.0000000000000000E+00     0.0000000000000000E+00 
    2.5000000000104050E-01     1.0000000000000000E+00     0.0000000000000000E+00 
    1.8750000000078040E-01     1.0000000000000000E+00     0.0000000000000000E+00 
    1.2500000000052031E-01     1.0000000000000000E+00     0.0000000000000000E+00 
    6.2500000000260125E-02     1.0000000000000000E+00     0.0000000000000000E+00 
    0.0000000000000000E+00     9.3749999999973976E-01     0.0000000000000000E+00 
    0.0000000000000000E+00     8.7499999999950118E-01     0.0000000000000000E+00 
    0.0000000000000000E+00     8.1249999999991318E-01     0.0000000000000000E+00 
    0.0000000000000000E+00     7.5000000000034706E-01     0.0000000000000000E+00 
    0.0000000000000000E+00     6.8750000000078049E-01     0.0000000000000000E+00 
    0.0000000000000000E+00     6.2500000000121403E-01     0.0000000000000000E+00 
    0.0000000000000000E+00     5.6250000000164757E-01     0.0000000000000000E+00 
    0.0000000000000000E+00     5.0000000000205946E-01     0.0000000000000000E+00 
    0.0000000000000000E+00     4.3750000000182099E-01     0.0000000000000000E+00 
    0.0000000000000000E+00     3.7500000000156092E-01     0.0000000000000000E+00 
    0.0000000000000000E+00     3.1250000000130068E-01     0.0000000000000000E+00 
    0.0000000000000000E+00     2.5000000000104050E-01     0.0000000000000000E+00 
    0.0000000000000000E+00     1.8750000000078040E-01     0.0000000000000000E+00 
    0.0000000000000000E+00     1.2500000000052031E-01     0.0000000000000000E+00 
    0.0000000000000000E+00     6.2500000000260125E-02     0.0000000000000000E+00 
    6.2499999999897131E-02     6.2500000000235922E-02     0.0000000000000000E+00 
    6.2499999999921327E-02     1.2500000000047351E-01     0.0000000000000000E+00 
    6.2499999999945530E-02     1.8750000000070621E-01     0.0000000000000000E+00 
    6.2499999999969733E-02     2.5000000000093858E-01     0.0000000000000000E+00 
    6.2499999999993928E-02     3.1250000000117117E-01     0.0000000000000000E+00 
    6.2500000000018124E-02     3.7500000000140382E-01     0.0000000000000000E+00 
    6.2500000000042327E-02     4.3750000000163619E-01     0.0000000000000000E+00 
    6.2500000000066530E-02     5.0000000000184897E-01     0.0000000000000000E+00 
    6.2500000000090733E-02     5.6250000000147260E-01     0.0000000000000000E+00 
    6.2500000000114922E-02     6.2500000000107636E-01     0.0000000000000000E+00 
    6.2500000000139125E-02     6.8750000000068034E-01     0.0000000000000000E+00 
    6.2500000000163328E-02     7.5000000000028411E-01     0.0000000000000000E+00 
    6.2500000000187531E-02     8.1249999999988787E-01     0.0000000000000000E+00 
    6.2500000000211720E-02     8.7499999999951172E-01     0.0000000000000000E+00 
    6.2500000000235922E-02     9.3749999999974565E-01     0.0000000000000000E+00 
    1.2499999999981980E-01     6.2500000000211733E-02     0.0000000000000000E+00 
    1.2499999999986650E-01     1.2500000000042691E-01     0.0000000000000000E+00 
    1.2499999999991319E-01     1.8750000000063199E-01     0.0000000000000000E+00 
    1.2499999999995989E-01     2.5000000000083678E-01     0.0000000000000000E+00 
    1.2500000000000661E-01     3.1250000000104172E-01     0.0000000000000000E+00 
    1.2500000000005329E-01     3.7500000000124661E-01     0.0000000000000000E+00 
    1.2500000000010000E-01     4.3750000000145117E-01     0.0000000000000000E+00 
    1.2500000000014669E-01     5.0000000000163858E-01     0.0000000000000000E+00 
    1.2500000000019340E-01     5.6250000000129741E-01     0.0000000000000000E+00 
    1.2500000000024011E-01     6.2500000000093847E-01     0.0000000000000000E+00 
    1.2500000000028680E-01     6.8750000000057998E-01     0.0000000000000000E+00 
    1.2500000000033351E-01     7.5000000000022127E-01     0.0000000000000000E+00 
    1.2500000000038020E-01     8.1249999999986211E-01     0.0000000000000000E+00 
    1.2500000000042691E-01     8.7499999999952238E-01     0.0000000000000000E+00 
    1.2500000000047359E-01     9.3749999999975164E-01     0.0000000000000000E+00 
    1.8749999999966760E-01     6.2500000000187531E-02     0.0000000000000000E+00 
    1.8749999999974179E-01     1.2500000000038020E-01     0.0000000000000000E+00 
    1.8749999999981601E-01     1.8750000000055780E-01     0.0000000000000000E+00 
    1.8749999999989009E-01     2.5000000000073502E-01     0.0000000000000000E+00 
    1.8749999999996431E-01     3.1250000000091221E-01     0.0000000000000000E+00 
    1.8750000000003850E-01     3.7500000000108941E-01     0.0000000000000000E+00 
    1.8750000000011269E-01     4.3750000000126649E-01     0.0000000000000000E+00 
    1.8750000000018691E-01     5.0000000000142808E-01     0.0000000000000000E+00 
    1.8750000000026110E-01     5.6250000000112244E-01     0.0000000000000000E+00 
    1.8750000000033529E-01     6.2500000000080080E-01     0.0000000000000000E+00 
    1.8750000000040951E-01     6.8750000000047962E-01     0.0000000000000000E+00 
    1.8750000000048361E-01     7.5000000000015843E-01     0.0000000000000000E+00 
    1.8750000000055780E-01     8.1249999999983680E-01     0.0000000000000000E+00 
    1.8750000000063199E-01     8.7499999999953304E-01     0.0000000000000000E+00 
    1.8750000000070621E-01     9.3749999999975764E-01     0.0000000000000000E+00 
    2.4999999999951281E-01     6.2500000000163314E-02     0.0000000000000000E+00 
    2.4999999999961461E-01     1.2500000000033351E-01     0.0000000000000000E+00 
    2.4999999999971650E-01     1.8750000000048361E-01     0.0000000000000000E+00 
    2.4999999999981831E-01     2.5000000000063310E-01     0.0000000000000000E+00 
    2.4999999999992020E-01     3.1250000000078260E-01     0.0000000000000000E+00 
    2.5000000000002198E-01     3.7500000000093209E-01     0.0000000000000000E+00 
    2.5000000000012390E-01     4.3750000000108180E-01     0.0000000000000000E+00 
    2.5000000000022571E-01     5.0000000000121769E-01     0.0000000000000000E+00 
    2.5000000000032763E-01     5.6250000000094724E-01     0.0000000000000000E+00 
    2.5000000000042938E-01     6.2500000000066314E-01     0.0000000000000000E+00 
    2.5000000000053119E-01     6.8750000000037925E-01     0.0000000000000000E+00 
[...]
CELL_DATA 256 
SCALARS Pressure double 1 
LOOKUP_TABLE default 

    1.0418910040098395E+00 
    9.8600786682603880E-01 
    9.4516382080870187E-01 
    9.0450870006049744E-01 
    8.6081155774406859E-01 
    8.1387228378983556E-01 
    7.6380601844558804E-01 
    7.1005158176476924E-01 
    6.4904615070733163E-01 
    5.7735765030067854E-01 
    5.0764349624575977E-01 
    4.4806862893157440E-01 
    3.9665979518468392E-01 
    3.5682186045270975E-01 
    3.3162430076582028E-01 
    3.2149609967539172E-01 
    1.0279808235816217E+00 
    9.8786017993660347E-01 
    9.4834776356362394E-01 
    9.0814091425718524E-01 
    8.6490830767403426E-01 
    8.1837678496879895E-01 
    7.6868719296689370E-01 
    7.1540013278906023E-01 
    6.5492058044806056E-01 
    5.8363454764761558E-01 
    5.1354754962938398E-01 
    4.5293737564846487E-01 
    4.0024902967589859E-01 
    3.5883499504210070E-01 
    3.3209090874964953E-01 
    3.2105406358605287E-01 
    1.0170907589214475E+00 
    9.8730556970101968E-01 
    9.5051870687386986E-01 
    9.1115455366565146E-01 
    8.6853596529735333E-01 
    8.2250605689814227E-01 
    7.7323417011395590E-01 
    7.2036221742237849E-01 
    6.6011796964682923E-01 
    5.8914793542732202E-01 
    5.1897379550974887E-01 
    4.5724339155452776E-01 
    4.0300833854142665E-01 
    3.5971320537038054E-01 
    3.3124288337428331E-01 
    3.1944367625411368E-01 
    1.0080680892967115E+00 
    9.8532134253976011E-01 
    9.5169676969474459E-01 
    9.1356284761218043E-01 
    8.7170449650179893E-01 
    8.2626618200873270E-01 
    7.7746069297887277E-01 
    7.2496796498481308E-01 
    6.6471616580031734E-01 
    5.9399919537965129E-01 
    5.2397581109458879E-01 
    4.6106366203692578E-01 
    4.0503046133623538E-01 
    3.5949773361137255E-01 
    3.2899996018146382E-01 
    3.1644234360355117E-01 
    1.0002850388504405E+00 
    9.8245611664651877E-01 
    9.5200394000107624E-01 
    9.1541011378875448E-01 
    8.7446108909276410E-01 
    8.2969248038518983E-01 
    7.8139346391631670E-01 
    7.2924515049852701E-01 
    6.6877800739043458E-01 
    5.9828626560228892E-01 
    5.2862694295744839E-01 
    4.6449067282889855E-01 
    4.0642259044037055E-01 
    3.5824260502395655E-01 
    3.2527867940293054E-01 
    3.1181923327562311E-01 
    9.9353113326314646E-01 
    9.7916024723574890E-01 
    9.5165008037017340E-01 
    9.1678099945074365E-01 
    8.7687458908453642E-01 
    8.3283401225388642E-01 
    7.8506116166651640E-01 
    7.3317307624077377E-01 
    6.7234382386798164E-01 
    6.0213996038489426E-01 
    5.3300631089241257E-01 
    4.6763229943272416E-01 
    4.0731285940741063E-01 
    3.5602492423904725E-01 
    3.1999680494290678E-01 
    3.0531824037818822E-01 
    9.8767058715617062E-01 
    9.7575067920043246E-01 
    9.5085318304639310E-01 
    9.1777573145302171E-01 
    8.7901309699197239E-01 
    8.3574473076348177E-01 
    7.8849406566488045E-01 
    7.3665176853011693E-01 
    6.7542408767604456E-01 
    6.0577425489725911E-01 
    5.3719051919680505E-01 
    4.7061032178569479E-01 
    4.0785607386493161E-01 
    3.5295792309560309E-01 
    3.1308176919216241E-01 
    2.9664261785941703E-01 
    9.8260946800508187E-01 
    9.7244490410038764E-01 
    9.4981232518362368E-01 
    9.1850258459069190E-01 
    8.8094455446869524E-01 
    8.3848093417657832E-01 
    7.9171260650507791E-01 
    7.3957283851791722E-01 
    6.7807160400360855E-01 
    6.0947733850586672E-01 
    5.4127852455919268E-01 
    4.7355974987216792E-01 
    4.0823779126855364E-01 
    3.4920589046128897E-01 
    3.0448305590813174E-01 
    2.8543213180483490E-01 
    9.7829941065992365E-01 
    9.6940562504594352E-01 
    9.4870797116434458E-01 
    9.1907816447699542E-01 
    8.8274039647315827E-01 
    8.4108594459892716E-01 
    7.9462496390087278E-01 
    7.4192806895287533E-01 
    6.8054542525886674E-01 
    6.1344949553115868E-01 
    5.4540187115526850E-01 
    4.7662687476123361E-01 
    4.0867672648517595E-01 
    3.4500359483193033E-01 
    2.9419597159945360E-01 
    2.7123410506195333E-01 
    9.7472805997002698E-01 
    9.6676231264317869E-01 
    9.4769609944448219E-01 
    9.1961623981815088E-01 
    8.8445154391264580E-01 
    8.4348533756464850E-01 
    7.9700187742952389E-01 
    7.4385803256767058E-01 
    6.8325598953588818E-01 
    6.1765496254020069E-01 
    5.4968307617887668E-01 
    4.7996145093664599E-01 
    4.0942296957231777E-01 
    3.4067850356043539E-01 
    2.8230193068236936E-01 
    2.5346217764512935E-01 
    9.7179885347735651E-01 
    9.6453843305484399E-01 
    9.4684985167903546E-01 
    9.2013635674108307E-01 
    8.8591533833390923E-01 
    8.4538471092323886E-01 
    7.9884656635070939E-01 
    7.4591074657903600E-01 
    6.8651700807482052E-01 
    6.2202567381464324E-01 
    5.5421077086984127E-01 
    4.8370450152742039E-01 
    4.1074971645903929E-01 
    3.3667408539203231E-01 
    2.6903770160126966E-01 
    2.3134016697215581E-01 
    9.6897999954374792E-01 
    9.6234481291516571E-01 
    9.4583112498191557E-01 
    9.2029184410442766E-01 
    8.8690000977053141E-01 
    8.4688001426388515E-01 
    8.0082456237378064E-01 
    7.4861857759095329E-01 
    6.9027669540546321E-01 
    6.2661639691728410E-01 
    5.5905192321526664E-01 
    4.8797622969977150E-01 
    4.1293525211621529E-01 
    3.3356700599495093E-01 
    2.5491102707592767E-01 
    2.0381749045066111E-01 
    9.6651047412177116E-01 
    9.6026102649909995E-01 
    9.4475111903097830E-01 
    9.2030929350249979E-01 
    8.8791689965615039E-01 
    8.4873823661199299E-01 
    8.0343737297673146E-01 
    7.5195300784979557E-01 
    6.9440646654009397E-01 
    6.3149336147556168E-01 
    5.6425698835729998E-01 
    4.9286449430303425E-01 
    4.1623301795304674E-01 
    3.3206615595480060E-01 
    2.4089687223787615E-01 
    1.6944401303570880E-01 
    9.6494313597908454E-01 
    9.5899634654044985E-01 
    9.4434268823324252E-01 
    9.2094799093587532E-01 
    8.8957203307261246E-01 
    8.5122048066275713E-01 
    8.0657563688412737E-01 
    7.5575470055774896E-01 
    6.9893223363837076E-01 
    6.3669849315606952E-01 
    5.6985759755254173E-01 
    4.9841490086277823E-01 
    4.2082813398216395E-01 
    3.3296376184384213E-01 
    2.2876669830761384E-01 
    1.2618128563088007E-01 
    9.6410446763843138E-01 
    9.5850913282833805E-01 
    9.4466047145258791E-01 
    9.2220996758583351E-01 
    8.9174782078012738E-01 
    8.5418322976492145E-01 
    8.1020154973236758E-01 
    7.6002670101545233E-01 
    7.0387054679399252E-01 
    6.4226018977710797E-01 
    5.7586674120294967E-01 
    5.0462581725536249E-01 
    4.2678552644966711E-01 
    3.3698143967244232E-01 
    2.2164122280955664E-01 
    7.1114431219663612E-02 
    9.6387223877055150E-01 
    9.5872907276537878E-01 
    9.4566691310509732E-01 
    9.2409123657872139E-01 
    8.9446567231538165E-01 
    8.5764282775053924E-01 
    8.1431811411314647E-01 
    7.6477342910676438E-01 
    7.0923593010229569E-01 
    6.4819718443260033E-01 
    5.8228207440959312E-01 
    5.1145249948093585E-01 
    4.3401193994513010E-01 
    3.4440070567388681E-01 
    2.2491818510184397E-01 
    0.0000000000000000E+00 

SCALARS Saturarion double 1 
LOOKUP_TABLE default 

    1.0000000000001781E+00 
    9.4373035027454133E-01 
    8.5973937745620133E-01 
    7.5677123511847699E-01 
    6.8083939427402818E-01 
    6.2541020331034114E-01 
    5.7757666602897673E-01 
    5.2788172362965724E-01 
    4.3994209261711364E-01 
    1.2561914104959018E-01 
    1.0000003516944739E-06 
    1.0000000000005016E-06 
    9.9999999999999995E-07 
    9.9999999999999995E-07 
    9.9999999999999995E-07 
    9.9999999999999995E-07 
    9.7370301323765107E-01 
    9.2135868515984098E-01 
    8.3508226003428643E-01 
    7.4717627923532781E-01 
    6.7511203583341162E-01 
    6.1957682618014709E-01 
    5.7296766811300248E-01 
    5.2427660761841199E-01 
    4.3461487887921318E-01 
    1.1562876724089059E-01 
    2.4484390826115508E-06 
    1.0000009093999742E-06 
    1.0000000000005156E-06 
    9.9999999999999995E-07 
    9.9999999999999995E-07 
    9.9999999999999995E-07 
    9.3088442327402154E-01 
    8.8604238648153077E-01 
    8.0264647011003842E-01 
    7.2875609399769348E-01 
    6.6313152834451483E-01 
    6.0885119412487720E-01 
    5.6445214679197697E-01 
    5.1750523631704026E-01 
    4.2615342545331258E-01 
    1.0175062530509940E-01 
    4.2181671235539485E-06 
    1.0000024878391335E-06 
    1.0000000000012705E-06 
    9.9999999999999995E-07 
    9.9999999999999995E-07 
    9.9999999999999995E-07 
    8.6389691587259865E-01 
    8.2993670421078025E-01 
    7.6092933076259939E-01 
    6.9959525426772851E-01 
    6.4606879771911385E-01 
    5.9902132778714723E-01 
    5.5766367408368456E-01 
    5.1222351724058357E-01 
    4.1777339315879364E-01 
    9.0178087609263019E-02 
    4.4824972543717884E-06 
    1.0000061950525562E-06 
    1.0000000000000474E-06 
    9.9999999999999995E-07 
    9.9999999999999995E-07 
    9.9999999999999995E-07 
    8.0108710166099473E-01 
    7.7378864272507586E-01 
    7.1997550376180330E-01 
    6.6863757686477132E-01 
    6.2515190920520625E-01 
    5.8588522642481389E-01 
    5.4824642554569936E-01 
    5.0419104434388284E-01 
    4.0267181625176857E-01 
    6.9319853178246973E-02 
    1.4122454783506274E-05 
    1.0000156476121766E-06 
    1.0000000000050563E-06 
    9.9999999999999995E-07 
    9.9999999999999995E-07 
    9.9999999999999995E-07 
    7.4227348828203921E-01 
    7.2261347092097339E-01 
    6.8124127419238001E-01 
    6.3830687329990921E-01 
    6.0190342268027730E-01 
    5.6897674372677109E-01 
    5.3494061365171108E-01 
    4.9143433246957180E-01 
    3.6867268153404725E-01 
    3.5766821315838894E-02 
    1.8131681085402960E-05 
    1.0000325857209516E-06 
    1.0000000000001672E-06 
    9.9999999999999995E-07 
    9.9999999999999995E-07 
    9.9999999999999995E-07 
    6.8703237478025858E-01 
    6.7437924954895767E-01 
    6.4374981695621070E-01 
    6.0838173652906591E-01 
    5.7696140157959352E-01 
    5.4912438714661427E-01 
    5.1931049535878604E-01 
    4.7132578334551195E-01 
    2.9475609311852319E-01 
    7.4440661702779298E-03 
    2.8221662767914446E-06 
    1.0000007064705316E-06 
    1.0000000000000004E-06 
    9.9999999999999995E-07 
    9.9999999999999995E-07 
    9.9999999999999995E-07 
    6.3476646773872292E-01 
    6.2846340834921022E-01 
    6.0799956528526911E-01 
    5.7946141177239374E-01 
    5.5148017124300941E-01 
    5.2728859199151790E-01 
    4.9987676366090950E-01 
    4.3997091087480905E-01 
    1.8414218678606600E-01 
    4.0785625602756515E-04 
    1.0156573567150146E-06 
    1.0000000012893503E-06 
    9.9999999999999974E-07 
    9.9999999999999995E-07 
    9.9999999999999995E-07 
    9.9999999999999995E-07 
    5.8730456437528344E-01 
    5.8591613510439677E-01 
    5.7324975227657149E-01 
    5.5090118968544044E-01 
    5.2721575620033423E-01 
    5.0424285271724756E-01 
    4.7121619384365565E-01 
    3.5955856977965123E-01 
    5.6294294021610784E-02 
    1.4516228807217395E-04 
    1.0032545679170858E-06 
    1.0000000000000031E-06 
    9.9999999999999995E-07 
    9.9999999999999995E-07 
    9.9999999999999995E-07 
    9.9999999999999995E-07 
    5.4593892114508258E-01 
    5.4740269966853994E-01 
    5.3890010293462876E-01 
    5.2233389598867053E-01 
    5.0124932135751143E-01 
    4.7010940258359923E-01 
    3.9476678880451016E-01 
    1.5441656120745564E-01 
    9.7727602660081098E-04 
    1.0682078236575996E-06 
    1.0000000150798374E-06 
    1.0000000000000048E-06 
    9.9999999999999995E-07 
    9.9999999999999995E-07 
    9.9999999999999995E-07 
    9.9999999999999995E-07 
    4.9380231299506622E-01 
    4.9841826232559844E-01 
    4.9466280155866721E-01 
    4.8142054109703919E-01 
    4.4206959149099340E-01 
    3.4691931955290034E-01 
    1.4670637548675791E-01 
    3.4049999377921279E-03 
    1.3217289997854437E-06 
    1.0000000762058019E-06 
    1.0000000000000222E-06 
    9.9999999999999995E-07 
    9.9999999999999995E-07 
    9.9999999999999995E-07 
    9.9999999999999995E-07 
    9.9999999999999995E-07 
    3.1168009761100635E-01 
    3.6533532970436983E-01 
    3.6815038874924366E-01 
    3.0718077053545850E-01 
    1.8152419907117573E-01 
    4.2312310511297038E-02 
    4.2625916111895288E-04 
    1.1975338737110502E-06 
    1.0000001235158631E-06 
    1.0000000000000427E-06 
    9.9999999999999995E-07 
    9.9999999999999995E-07 
    9.9999999999999995E-07 
    9.9999999999999995E-07 
    9.9999999999999995E-07 
    9.9999999999999995E-07 
    4.6979005533910965E-03 
    3.1763006710298747E-02 
    2.9962726705175635E-02 
    7.0669874243068790E-03 
    3.3547933667571440E-04 
    4.9566054112373741E-05 
    1.0195793596643298E-06 
    1.0000000217398877E-06 
    1.0000000000000239E-06 
    9.9999999999999995E-07 
    9.9999999999999995E-07 
    9.9999999999999995E-07 
    9.9999999999999995E-07 
    9.9999999999999995E-07 
    9.9999999999999995E-07 
    9.9999999999999995E-07 
    1.0000051179829658E-06 
    5.9655279800848034E-06 
    3.5902854002720599E-06 
    1.9728923914837984E-06 
    1.0083833213433703E-06 
    1.0001272619793353E-06 
    1.0000000010668445E-06 
    1.0000000000000016E-06 
    9.9999999999999995E-07 
    9.9999999999999995E-07 
    9.9999999999999995E-07 
    9.9999999999999995E-07 
    9.9999999999999995E-07 
    9.9999999999999995E-07 
    9.9999999999999995E-07 
    9.9999999999999995E-07 
    1.0000000000005082E-06 
    1.0000008001337722E-06 
    1.0000009387774680E-06 
    1.0000001416149101E-06 
    1.0000000002543900E-06 
    1.0000000000000002E-06 
    9.9999999999999995E-07 
    9.9999999999999995E-07 
    9.9999999999999995E-07 
    9.9999999999999995E-07 
    9.9999999999999995E-07 
    9.9999999999999995E-07 
    9.9999999999999995E-07 
    9.9999999999999995E-07 
    9.9999999999999995E-07 
    9.9999999999999995E-07 
    9.9999999999999995E-07 
    1.0000000000000205E-06 
    9.9999999999999995E-07 
    9.9999999999999995E-07 
    9.9999999999999995E-07 
    9.9999999999999995E-07 
    9.9999999999999995E-07 
    9.9999999999999995E-07 
    9.9999999999999995E-07 
    9.9999999999999995E-07 
    9.9999999999999995E-07 
    9.9999999999999995E-07 
    9.9999999999999995E-07 
    9.9999999999999995E-07 
    9.9999999999999995E-07 
    1.0000002808143289E-06 
