# vtk DataFile Version 2.0
Pressure Field Data 
ASCII 
DATASET UNSTRUCTURED_GRID 

POINTS 289 double 

    0.0000000000000000E+00     0.0000000000000000E+00     0.0000000000000000E+00 
    1.0000000000000000E+00     0.0000000000000000E+00     0.0000000000000000E+00 
    1.0000000000000000E+00     1.0000000000000000E+00     0.0000000000000000E+00 
    0.0000000000000000E+00     1.0000000000000000E+00     0.0000000000000000E+00 
    6.2499999999872928E-02     0.0000000000000000E+00     0.0000000000000000E+00 
    1.2499999999977310E-01     0.0000000000000000E+00     0.0000000000000000E+00 
    1.8749999999959341E-01     0.0000000000000000E+00     0.0000000000000000E+00 
    2.4999999999941089E-01     0.0000000000000000E+00     0.0000000000000000E+00 
    3.1249999999922851E-01     0.0000000000000000E+00     0.0000000000000000E+00 
    3.7499999999904610E-01     0.0000000000000000E+00     0.0000000000000000E+00 
    4.3749999999886358E-01     0.0000000000000000E+00     0.0000000000000000E+00 
    4.9999999999869210E-01     0.0000000000000000E+00     0.0000000000000000E+00 
    5.6249999999884603E-01     0.0000000000000000E+00     0.0000000000000000E+00 
    6.2499999999901090E-01     0.0000000000000000E+00     0.0000000000000000E+00 
    6.8749999999917577E-01     0.0000000000000000E+00     0.0000000000000000E+00 
    7.4999999999934064E-01     0.0000000000000000E+00     0.0000000000000000E+00 
    8.1249999999950551E-01     0.0000000000000000E+00     0.0000000000000000E+00 
    8.7499999999967026E-01     0.0000000000000000E+00     0.0000000000000000E+00 
    9.3749999999983513E-01     0.0000000000000000E+00     0.0000000000000000E+00 
    1.0000000000000000E+00     6.2499999999872928E-02     0.0000000000000000E+00 
    1.0000000000000000E+00     1.2499999999977310E-01     0.0000000000000000E+00 
    1.0000000000000000E+00     1.8749999999959341E-01     0.0000000000000000E+00 
    1.0000000000000000E+00     2.4999999999941089E-01     0.0000000000000000E+00 
    1.0000000000000000E+00     3.1249999999922851E-01     0.0000000000000000E+00 
    1.0000000000000000E+00     3.7499999999904610E-01     0.0000000000000000E+00 
    1.0000000000000000E+00     4.3749999999886358E-01     0.0000000000000000E+00 
    1.0000000000000000E+00     4.9999999999869210E-01     0.0000000000000000E+00 
    1.0000000000000000E+00     5.6249999999884603E-01     0.0000000000000000E+00 
    1.0000000000000000E+00     6.2499999999901090E-01     0.0000000000000000E+00 
    1.0000000000000000E+00     6.8749999999917577E-01     0.0000000000000000E+00 
    1.0000000000000000E+00     7.4999999999934064E-01     0.0000000000000000E+00 
    1.0000000000000000E+00     8.1249999999950551E-01     0.0000000000000000E+00 
    1.0000000000000000E+00     8.7499999999967026E-01     0.0000000000000000E+00 
    1.0000000000000000E+00     9.3749999999983513E-01     0.0000000000000000E+00 
    9.3749999999973976E-01     1.0000000000000000E+00     0.0000000000000000E+00 
    8.7499999999950118E-01     1.0000000000000000E+00     0.0000000000000000E+00 
    8.1249999999991318E-01     1.0000000000000000E+00     0.0000000000000000E+00 
    7.5000000000034706E-01     1.0000000000000000E+00     0.0000000000000000E+00 
    6.8750000000078049E-01     1.0000000000000000E+00     0.0000000000000000E+00 
    6.2500000000121403E-01     1.0000000000000000E+00     0.0000000000000000E+00 
    5.6250000000164757E-01     1.0000000000000000E+00     0.0000000000000000E+00 
    5.0000000000205946E-01     1.0000000000000000E+00     0.0000000000000000E+00 
    4.3750000000182099E-01     1.0000000000000000E+00     0.0000000000000000E+00 
    3.7500000000156092E-01     1.0000000000000000E+00     0.0000000000000000E+00 
    3.1250000000130068E-01     1.0000000000000000E+00     0.0000000000000000E+00 
    2.5000000000104050E-01     1.0000000000000000E+00     0.0000000000000000E+00 
    1.8750000000078040E-01     1.0000000000000000E+00     0.0000000000000000E+00 
    1.2500000000052031E-01     1.0000000000000000E+00     0.0000000000000000E+00 
    6.2500000000260125E-02     1.0000000000000000E+00     0.0000000000000000E+00 
    0.0000000000000000E+00     9.3749999999973976E-01     0.0000000000000000E+00 
    0.0000000000000000E+00     8.7499999999950118E-01     0.0000000000000000E+00 
    0.0000000000000000E+00     8.1249999999991318E-01     0.0000000000000000E+00 
    0.0000000000000000E+00     7.5000000000034706E-01     0.0000000000000000E+00 
    0.0000000000000000E+00     6.8750000000078049E-01     0.0000000000000000E+00 
    0.0000000000000000E+00     6.2500000000121403E-01     0.0000000000000000E+00 
    0.0000000000000000E+00     5.6250000000164757E-01     0.0000000000000000E+00 
    0.0000000000000000E+00     5.0000000000205946E-01     0.0000000000000000E+00 
    0.0000000000000000E+00     4.3750000000182099E-01     0.0000000000000000E+00 
    0.0000000000000000E+00     3.7500000000156092E-01     0.0000000000000000E+00 
    0.0000000000000000E+00     3.1250000000130068E-01     0.0000000000000000E+00 
    0.0000000000000000E+00     2.5000000000104050E-01     0.0000000000000000E+00 
    0.0000000000000000E+00     1.8750000000078040E-01     0.0000000000000000E+00 
    0.0000000000000000E+00     1.2500000000052031E-01     0.0000000000000000E+00 
    0.0000000000000000E+00     6.2500000000260125E-02     0.0000000000000000E+00 
    6.2499999999897131E-02     6.2500000000235922E-02     0.0000000000000000E+00 
    6.2499999999921327E-02     1.2500000000047351E-01     0.0000000000000000E+00 
    6.2499999999945530E-02     1.8750000000070621E-01     0.0000000000000000E+00 
    6.2499999999969733E-02     2.5000000000093858E-01     0.0000000000000000E+00 
    6.2499999999993928E-02     3.1250000000117117E-01     0.0000000000000000E+00 
    6.2500000000018124E-02     3.7500000000140382E-01     0.0000000000000000E+00 
    6.2500000000042327E-02     4.3750000000163619E-01     0.0000000000000000E+00 
    6.2500000000066530E-02     5.0000000000184897E-01     0.0000000000000000E+00 
    6.2500000000090733E-02     5.6250000000147260E-01     0.0000000000000000E+00 
    6.2500000000114922E-02     6.2500000000107636E-01     0.0000000000000000E+00 
    6.2500000000139125E-02     6.8750000000068034E-01     0.0000000000000000E+00 
    6.2500000000163328E-02     7.5000000000028411E-01     0.0000000000000000E+00 
    6.2500000000187531E-02     8.1249999999988787E-01     0.0000000000000000E+00 
    6.2500000000211720E-02     8.7499999999951172E-01     0.0000000000000000E+00 
    6.2500000000235922E-02     9.3749999999974565E-01     0.0000000000000000E+00 
    1.2499999999981980E-01     6.2500000000211733E-02     0.0000000000000000E+00 
    1.2499999999986650E-01     1.2500000000042691E-01     0.0000000000000000E+00 
    1.2499999999991319E-01     1.8750000000063199E-01     0.0000000000000000E+00 
    1.2499999999995989E-01     2.5000000000083678E-01     0.0000000000000000E+00 
    1.2500000000000661E-01     3.1250000000104172E-01     0.0000000000000000E+00 
    1.2500000000005329E-01     3.7500000000124661E-01     0.0000000000000000E+00 
    1.2500000000010000E-01     4.3750000000145117E-01     0.0000000000000000E+00 
    1.2500000000014669E-01     5.0000000000163858E-01     0.0000000000000000E+00 
    1.2500000000019340E-01     5.6250000000129741E-01     0.0000000000000000E+00 
    1.2500000000024011E-01     6.2500000000093847E-01     0.0000000000000000E+00 
    1.2500000000028680E-01     6.8750000000057998E-01     0.0000000000000000E+00 
    1.2500000000033351E-01     7.5000000000022127E-01     0.0000000000000000E+00 
    1.2500000000038020E-01     8.1249999999986211E-01     0.0000000000000000E+00 
    1.2500000000042691E-01     8.7499999999952238E-01     0.0000000000000000E+00 
    1.2500000000047359E-01     9.3749999999975164E-01     0.0000000000000000E+00 
    1.8749999999966760E-01     6.2500000000187531E-02     0.0000000000000000E+00 
    1.8749999999974179E-01     1.2500000000038020E-01     0.0000000000000000E+00 
    1.8749999999981601E-01     1.8750000000055780E-01     0.0000000000000000E+00 
    1.8749999999989009E-01     2.5000000000073502E-01     0.0000000000000000E+00 
    1.8749999999996431E-01     3.1250000000091221E-01     0.0000000000000000E+00 
    1.8750000000003850E-01     3.7500000000108941E-01     0.0000000000000000E+00 
    1.8750000000011269E-01     4.3750000000126649E-01     0.0000000000000000E+00 
    1.8750000000018691E-01     5.0000000000142808E-01     0.0000000000000000E+00 
    1.8750000000026110E-01     5.6250000000112244E-01     0.0000000000000000E+00 
    1.8750000000033529E-01     6.2500000000080080E-01     0.0000000000000000E+00 
    1.8750000000040951E-01     6.8750000000047962E-01     0.0000000000000000E+00 
    1.8750000000048361E-01     7.5000000000015843E-01     0.0000000000000000E+00 
    1.8750000000055780E-01     8.1249999999983680E-01     0.0000000000000000E+00 
    1.8750000000063199E-01     8.7499999999953304E-01     0.0000000000000000E+00 
    1.8750000000070621E-01     9.3749999999975764E-01     0.0000000000000000E+00 
    2.4999999999951281E-01     6.2500000000163314E-02     0.0000000000000000E+00 
    2.4999999999961461E-01     1.2500000000033351E-01     0.0000000000000000E+00 
    2.4999999999971650E-01     1.8750000000048361E-01     0.0000000000000000E+00 
    2.4999999999981831E-01     2.5000000000063310E-01     0.0000000000000000E+00 
    2.4999999999992020E-01     3.1250000000078260E-01     0.0000000000000000E+00 
    2.5000000000002198E-01     3.7500000000093209E-01     0.0000000000000000E+00 
    2.5000000000012390E-01     4.3750000000108180E-01     0.0000000000000000E+00 
    2.5000000000022571E-01     5.0000000000121769E-01     0.0000000000000000E+00 
    2.5000000000032763E-01     5.6250000000094724E-01     0.0000000000000000E+00 
    2.5000000000042938E-01     6.2500000000066314E-01     0.0000000000000000E+00 
    2.5000000000053119E-01     6.8750000000037925E-01     0.0000000000000000E+00 
[...]
CELL_DATA 256 
SCALARS Pressure double 1 
LOOKUP_TABLE default 

    1.0626828984558261E+00 
    1.0060813986602946E+00 
    9.6424201471881876E-01 
    9.2232707211573073E-01 
    8.7712750991366950E-01 
    8.2855304965031273E-01 
    7.7643708753069918E-01 
    7.1869736087214409E-01 
    6.4703786725862489E-01 
    5.7111709466427851E-01 
    5.0650640504235989E-01 
    4.4734645598084194E-01 
    3.9619253402812105E-01 
    3.5649577442760239E-01 
    3.3137102304001320E-01 
    3.2127057208584220E-01 
    1.0487688379526892E+00 
    1.0079870165029590E+00 
    9.6749630538871356E-01 
    9.2605294874951904E-01 
    8.8134827493357193E-01 
    8.3320675584070036E-01 
    7.8154273083310355E-01 
    7.2445526435453056E-01 
    6.5361409981223451E-01 
    5.7762495386149137E-01 
    5.1225073564544710E-01 
    4.5219125035064367E-01 
    3.9977307408065088E-01 
    3.5850470784129868E-01 
    3.3183600180145256E-01 
    3.2082854403305922E-01 
    1.0378241210786427E+00 
    1.0074405011959793E+00 
    9.6969328315372205E-01 
    9.2911321808952052E-01 
    8.8506193470307892E-01 
    8.3744839287930717E-01 
    7.8623526900255958E-01 
    7.2955742657084544E-01 
    6.5938044303048438E-01 
    5.8369117419899963E-01 
    5.1762620903659173E-01 
    4.5649279035031809E-01 
    4.0253599137262031E-01 
    3.5938583677641905E-01 
    3.3099020596400713E-01 
    3.1922019666608753E-01 
    1.0286728406873451E+00 
    1.0054052106811626E+00 
    9.7085088575377265E-01 
    9.3152509632228364E-01 
    8.8827840260002333E-01 
    8.4128929428925181E-01 
    7.9054429848036400E-01 
    7.3403721965870972E-01 
    6.6441984482851335E-01 
    5.8938520204749201E-01 
    5.2268103845968117E-01 
    4.6034089701493247E-01 
    4.0457660569284382E-01 
    3.5918134629379422E-01 
    3.2875395288046194E-01 
    3.1622350119234743E-01 
    1.0207011419049563E+00 
    1.0024289729287421E+00 
    9.7109461788140949E-01 
    9.3334333988738460E-01 
    8.9105122431070460E-01 
    8.4476829287837518E-01 
    7.9451585945541969E-01 
    7.3792325126036762E-01 
    6.6879131862272689E-01 
    5.9479230954530793E-01 
    5.2748014480477834E-01 
    4.6383453949886150E-01 
    4.0600447288481023E-01 
    3.5794605727709583E-01 
    3.2504421522210269E-01 
    3.1160806339716501E-01 
    1.0137319959707627E+00 
    9.9898554465013656E-01 
    9.7064952048178221E-01 
    9.3466487995506731E-01 
    8.9345670363239871E-01 
    8.4793185958619677E-01 
    7.9817362306659811E-01 
    7.4124379555353093E-01 
    6.7257189591955890E-01 
    5.9999220178743107E-01 
    5.3209920627053775E-01 
    4.6708379925921567E-01 
    4.0694911915066972E-01 
    3.5575756198982000E-01 
    3.1977899015901656E-01 
    3.0511799619550334E-01 
    1.0076503630053439E+00 
    9.9541071293199745E-01 
    9.6974499128140734E-01 
    9.3559695678299382E-01 
    8.9556851855037090E-01 
    8.5082782607237573E-01 
    8.0146957819312448E-01 
    7.4404693672650246E-01 
    6.7594842137814248E-01 
    6.0502328616099021E-01 
    5.3661777716609604E-01 
    4.7020967366153471E-01 
    4.0756541723609763E-01 
    3.5272909047590589E-01 
    3.1288570344687427E-01 
    2.9645666403281151E-01 
    1.0023823351358607E+00 
    9.9194294454228293E-01 
    9.6859266649406528E-01 
    9.3625357670937204E-01 
    8.9745898763351140E-01 
    8.5350116293479772E-01 
    8.0426022181961632E-01 
    7.4636081564330292E-01 
    6.7922206398204665E-01 
    6.0989027104075721E-01 
    5.4111361352400289E-01 
    4.7334240314701281E-01 
    4.0803762938451332E-01 
    3.4902443261000510E-01 
    3.0431358271181957E-01 
    2.8526373843017255E-01 
    9.9790124017189374E-01 
    9.8876697498039845E-01 
    9.6738500845360009E-01 
    9.3675530907696469E-01 
    8.9919317538383414E-01 
    8.5591145420190251E-01 
    8.0642773814819790E-01 
    7.4834446341107541E-01 
    6.8272625165362899E-01 
    6.1464446044210230E-01 
    5.4566493425265450E-01 
    4.7661802119811375E-01 
    4.0858156892370290E-01 
    3.4487722547323091E-01 
    2.9405735140679606E-01 
    2.7108623032214524E-01 
    9.9418854769694842E-01 
    9.8601295834069835E-01 
    9.6627538343851949E-01 
    9.3719550757326675E-01 
    9.0073698302499439E-01 
    8.5781111001718213E-01 
    8.0801202233664138E-01 
    7.5044566435842319E-01 
    6.8659261680101424E-01 
    6.1940430487190778E-01 
    5.5035288900282509E-01 
    4.8017323953248087E-01 
    4.0944302379233549E-01 
    3.4061317729389046E-01 
    2.8219750124374116E-01 
    2.5333715113546873E-01 
    9.9104653328608328E-01 
    9.8362548917418180E-01 
    9.6524516433067942E-01 
    9.3741119829751496E-01 
    9.0177088374998127E-01 
    8.5909633191230539E-01 
    8.0954214057073992E-01 
    7.5311460102006034E-01 
    6.9070997669430478E-01 
    6.2427516418827766E-01 
    5.5525557884855825E-01 
    4.8413746569433569E-01 
    4.1089010224754319E-01 
    3.3667347950185966E-01 
    2.6896958633137397E-01 
    2.3123948525544397E-01 
    9.8782785892110681E-01 
    9.8100771754585003E-01 
    9.6381884524086070E-01 
    9.3713959694132221E-01 
    9.0236514661168743E-01 
    8.6041542324946285E-01 
    8.1169353540193412E-01 
    7.5637740147220933E-01 
    6.9504255657363279E-01 
    6.2932683905986564E-01 
    5.6043863439856323E-01 
    4.8862204571189066E-01 
    4.1319587364910049E-01 
    3.3363216500590975E-01 
    2.5487987746806234E-01 
    2.0374159362296251E-01 
    9.8513692181385160E-01 
    9.7863183880796023E-01 
    9.6247410176261117E-01 
    9.3701231814453345E-01 
    9.0335286708880647E-01 
    8.6238324082296258E-01 
    8.1451116742976049E-01 
    7.6005763535374482E-01 
    6.9965117717368730E-01 
    6.3461185655153618E-01 
    5.6595007975503075E-01 
    4.9370798458426712E-01 
    4.1660877863131901E-01 
    3.3219529260455860E-01 
    2.4090168108188251E-01 
    1.6939208526103447E-01 
    9.8351464187859849E-01 
    9.7733450979474223E-01 
    9.6208080730236512E-01 
    9.3770098149497672E-01 
    9.0503463422450736E-01 
    8.6491200781433752E-01 
    8.1782474370508573E-01 
    7.6416906544085250E-01 
    7.0457743298741138E-01 
    6.4017033105253907E-01 
    5.7181867560051947E-01 
    4.9943529884568849E-01 
    4.2130929474636813E-01 
    3.3315220304552479E-01 
    2.2880469808262294E-01 
    1.2615108351256824E-01 
    9.8264218189885055E-01 
    9.7682520788738503E-01 
    9.6240885448301239E-01 
    9.3901501118709740E-01 
    9.0727797614434214E-01 
    8.6797435600254380E-01 
    8.2164289097705612E-01 
    7.6872601363852500E-01 
    7.0985404380844364E-01 
    6.4603143481003877E-01 
    5.7805488298556751E-01 
    5.0579762100960557E-01 
    4.2735808877070947E-01 
    3.3722167957656357E-01 
    2.2170788081690238E-01 
    7.1102142453919631E-02 
    9.8240067306556966E-01 
    9.7705318116851902E-01 
    9.6345573838930332E-01 
    9.4097487060172025E-01 
    9.1010358242933742E-01 
    8.7158284911928718E-01 
    8.2597563926467032E-01 
    7.7374444093402162E-01 
    7.1550811920346113E-01 
    6.5221586244844787E-01 
    5.8465417286618560E-01 
    5.1274605171574583E-01 
    4.3465799576449288E-01 
    3.4468252744610417E-01 
    2.2500730905915434E-01 
    0.0000000000000000E+00 

SCALARS Saturarion double 1 
LOOKUP_TABLE default 

    1.0000000000002265E+00 
    9.3951962650864429E-01 
    8.5151629458450118E-01 
    7.4319241261047098E-01 
    6.6642603822603330E-01 
    6.0970857855625860E-01 
    5.5683150616813060E-01 
    4.8576482099077534E-01 
    2.4911388629019177E-01 
    9.4639991960736108E-04 
    1.0000000050910364E-06 
    1.0000000000000012E-06 
    9.9999999999999995E-07 
    9.9999999999999995E-07 
    9.9999999999999995E-07 
    9.9999999999999995E-07 
    9.7119082115129685E-01 
    9.1523091555171066E-01 
    8.2558729582115353E-01 
    7.3377765249112192E-01 
    6.5999154680748395E-01 
    6.0344739526256863E-01 
    5.5230669139201294E-01 
    4.8100327141641480E-01 
    2.3560608117189272E-01 
    5.8806548957343087E-04 
    1.0002704457847970E-06 
    1.0000000000150473E-06 
    9.9999999999999995E-07 
    9.9999999999999995E-07 
    9.9999999999999995E-07 
    9.9999999999999995E-07 
    9.2391200677485086E-01 
    8.7715967390004856E-01 
    7.9098093843343298E-01 
    7.1515914430590810E-01 
    6.4727075206071016E-01 
    5.9235630199627742E-01 
    5.4391928267171852E-01 
    4.7290888349745741E-01 
    2.1771475546053232E-01 
    2.5425319585947856E-04 
    1.0001667385299724E-06 
    1.0000000000267605E-06 
    9.9999999999999995E-07 
    9.9999999999999995E-07 
    9.9999999999999995E-07 
    9.9999999999999995E-07 
    8.5213921341658883E-01 
    8.1669882603555477E-01 
    7.4662981326419986E-01 
    6.8556018562331411E-01 
    6.3104015319528539E-01 
    5.8311237628369594E-01 
    5.3718816695856986E-01 
    4.6596208562845931E-01 
    1.9982873652689301E-01 
    1.0096499096172532E-04 
    1.0000725854128709E-06 
    1.0000000000092286E-06 
    9.9999999999999995E-07 
    9.9999999999999995E-07 
    9.9999999999999995E-07 
    9.9999999999999995E-07 
    7.8646284066682348E-01 
    7.5861912264164721E-01 
    7.0479767486496925E-01 
    6.5434486748070508E-01 
    6.1111852153675350E-01 
    5.7048228861087291E-01 
    5.2742641145359681E-01 
    4.5382768288252290E-01 
    1.6876561854606092E-01 
    3.8383574426401920E-05 
    1.0001534452009194E-06 
    1.0000000001589965E-06 
    9.9999999999999974E-07 
    9.9999999999999995E-07 
    9.9999999999999995E-07 
    9.9999999999999995E-07 
    7.2602406843296785E-01 
    7.0634469120810572E-01 
    6.6542125762205351E-01 
    6.2382950048942176E-01 
    5.8825493814177388E-01 
    5.5392925402065085E-01 
    5.1285075534587399E-01 
    4.2776236747093810E-01 
    1.1381196733044266E-01 
    6.9302878982784136E-05 
    1.0007523647343816E-06 
    1.0000000001673732E-06 
    9.9999999999999995E-07 
    9.9999999999999995E-07 
    9.9999999999999995E-07 
    9.9999999999999995E-07 
    6.7008357814481589E-01 
    6.5772374627408170E-01 
    6.2800510117669361E-01 
    5.9379920025781030E-01 
    5.6316139794480646E-01 
    5.3410399303662792E-01 
    4.9394209766032299E-01 
    3.7679025279801703E-01 
    4.3733939614546365E-02 
    4.8727882745944629E-05 
    1.0003304042172889E-06 
    1.0000000000000004E-06 
    9.9999999999999995E-07 
    9.9999999999999995E-07 
    9.9999999999999995E-07 
    9.9999999999999995E-07 
    6.1833876244643193E-01 
    6.1254891684001644E-01 
    5.9291755613427333E-01 
    5.6488932057802088E-01 
    5.3776204087174773E-01 
    5.1155152807292492E-01 
    4.6566761651812405E-01 
    2.7426460653416246E-01 
    5.7246237518598364E-03 
    2.3053422792405725E-06 
    1.0000004667671172E-06 
    1.0000000000000016E-06 
    9.9999999999999995E-07 
    9.9999999999999995E-07 
    9.9999999999999995E-07 
    9.9999999999999995E-07 
    5.7301634916986111E-01 
    5.7189112277832577E-01 
    5.5905498780621909E-01 
    5.3693473013592019E-01 
    5.1315199228841279E-01 
    4.8265109482376017E-01 
    4.0024575704000159E-01 
    1.1269269186963959E-01 
    2.6244023070912071E-04 
    1.0279135096690069E-06 
    1.0000000000000919E-06 
    9.9999999999999995E-07 
    9.9999999999999995E-07 
    9.9999999999999995E-07 
    9.9999999999999995E-07 
    9.9999999999999995E-07 
    5.3212319606302216E-01 
    5.3322662083966188E-01 
    5.2395667083872843E-01 
    5.0737730405649506E-01 
    4.7888120543464380E-01 
    4.1579574281391984E-01 
    2.0836136492534724E-01 
    5.4431438949673148E-03 
    1.9678292572564305E-06 
    1.0000002680945491E-06 
    1.0000000000000158E-06 
    9.9999999999999995E-07 
    9.9999999999999995E-07 
    9.9999999999999995E-07 
    9.9999999999999995E-07 
    9.9999999999999995E-07 
    4.6428958662507380E-01 
    4.7126652421416232E-01 
    4.6848744455623315E-01 
    4.4240756646555984E-01 
    3.5520978629414329E-01 
    1.6787608716554098E-01 
    1.0529733378122410E-02 
    4.8693211982208411E-06 
    1.0000018450791008E-06 
    1.0000000000000565E-06 
    9.9999999999999995E-07 
    9.9999999999999995E-07 
    9.9999999999999995E-07 
    9.9999999999999995E-07 
    9.9999999999999995E-07 
    9.9999999999999995E-07 
    1.8675751907991589E-01 
    2.4892715356845310E-01 
    2.3997769059398980E-01 
    1.5637797840652173E-01 
    4.3471576208933778E-02 
    6.3235331222919453E-04 
    2.7512295964350774E-06 
    1.0000014672132921E-06 
    1.0000000000002653E-06 
    9.9999999999999995E-07 
    9.9999999999999995E-07 
    9.9999999999999995E-07 
    9.9999999999999995E-07 
    9.9999999999999995E-07 
    9.9999999999999995E-07 
    9.9999999999999995E-07 
    8.3093731443005074E-06 
    9.8936568450859615E-04 
    5.9906367437861485E-04 
    1.2384221422719806E-04 
    5.2182480650370934E-05 
    1.0220696722496850E-06 
    1.0000002676888842E-06 
    1.0000000000001183E-06 
    9.9999999999999995E-07 
    9.9999999999999995E-07 
    9.9999999999999995E-07 
    9.9999999999999995E-07 
    9.9999999999999995E-07 
    9.9999999999999995E-07 
    9.9999999999999995E-07 
    9.9999999999999995E-07 
    1.0000000037957909E-06 
    1.0079052211082876E-06 
    1.0038016937398792E-06 
    1.0027950382188849E-06 
    1.0001626028548062E-06 
    1.0000000020209270E-06 
    1.0000000000000042E-06 
    9.9999999999999995E-07 
    9.9999999999999995E-07 
    9.9999999999999995E-07 
    9.9999999999999995E-07 
    9.9999999999999995E-07 
    9.9999999999999995E-07 
    9.9999999999999995E-07 
    9.9999999999999995E-07 
    9.9999999999999995E-07 
    1.0000000000000002E-06 
    1.0000000002986405E-06 
    1.0000000005979578E-06 
    1.0000000000972182E-06 
    1.0000000000000004E-06 
    9.9999999999999995E-07 
    9.9999999999999995E-07 
    9.9999999999999995E-07 
    9.9999999999999995E-07 
    9.9999999999999995E-07 
    9.9999999999999995E-07 
    9.9999999999999995E-07 
    9.9999999999999995E-07 
    9.9999999999999995E-07 
    9.9999999999999995E-07 
    9.9999999999999995E-07 
    9.9999999999999995E-07 
    9.9999999999999995E-07 
    9.9999999999999995E-07 
    9.9999999999999995E-07 
    9.9999999999999995E-07 
    9.9999999999999995E-07 
    9.9999999999999995E-07 
    9.9999999999999995E-07 
    9.9999999999999995E-07 
    9.9999999999999995E-07 
    9.9999999999999995E-07 
    9.9999999999999995E-07 
    9.9999999999999995E-07 
    9.9999999999999995E-07 
    9.9999999999999995E-07 
    1.0000002520608036E-06 
