# vtk DataFile Version 2.0
Pressure Field Data 
ASCII 
DATASET UNSTRUCTURED_GRID 

POINTS 289 double 

    0.0000000000000000E+00     0.0000000000000000E+00     0.0000000000000000E+00 
    1.0000000000000000E+00     0.0000000000000000E+00     0.0000000000000000E+00 
    1.0000000000000000E+00     1.0000000000000000E+00     0.0000000000000000E+00 
    0.0000000000000000E+00     1.0000000000000000E+00     0.0000000000000000E+00 
    6.2499999999872928E-02     0.0000000000000000E+00     0.0000000000000000E+00 
    1.2499999999977310E-01     0.0000000000000000E+00     0.0000000000000000E+00 
    1.8749999999959341E-01     0.0000000000000000E+00     0.0000000000000000E+00 
    2.4999999999941089E-01     0.0000000000000000E+00     0.0000000000000000E+00 
    3.1249999999922851E-01     0.0000000000000000E+00     0.0000000000000000E+00 
    3.7499999999904610E-01     0.0000000000000000E+00     0.0000000000000000E+00 
    4.3749999999886358E-01     0.0000000000000000E+00     0.0000000000000000E+00 
    4.9999999999869210E-01     0.0000000000000000E+00     0.0000000000000000E+00 
    5.6249999999884603E-01     0.0000000000000000E+00     0.0000000000000000E+00 
    6.2499999999901090E-01     0.0000000000000000E+00     0.0000000000000000E+00 
    6.8749999999917577E-01     0.0000000000000000E+00     0.0000000000000000E+00 
    7.4999999999934064E-01     0.0000000000000000E+00     0.0000000000000000E+00 
    8.1249999999950551E-01     0.0000000000000000E+00     0.0000000000000000E+00 
    8.7499999999967026E-01     0.0000000000000000E+00     0.0000000000000000E+00 
    9.3749999999983513E-01     0.0000000000000000E+00     0.0000000000000000E+00 
    1.0000000000000000E+00     6.2499999999872928E-02     0.0000000000000000E+00 
    1.0000000000000000E+00     1.2499999999977310E-01     0.0000000000000000E+00 
    1.0000000000000000E+00     1.8749999999959341E-01     0.0000000000000000E+00 
    1.0000000000000000E+00     2.4999999999941089E-01     0.0000000000000000E+00 
    1.0000000000000000E+00     3.1249999999922851E-01     0.0000000000000000E+00 
    1.0000000000000000E+00     3.7499999999904610E-01     0.0000000000000000E+00 
    1.0000000000000000E+00     4.3749999999886358E-01     0.0000000000000000E+00 
    1.0000000000000000E+00     4.9999999999869210E-01     0.0000000000000000E+00 
    1.0000000000000000E+00     5.6249999999884603E-01     0.0000000000000000E+00 
    1.0000000000000000E+00     6.2499999999901090E-01     0.0000000000000000E+00 
    1.0000000000000000E+00     6.8749999999917577E-01     0.0000000000000000E+00 
    1.0000000000000000E+00     7.4999999999934064E-01     0.0000000000000000E+00 
    1.0000000000000000E+00     8.1249999999950551E-01     0.0000000000000000E+00 
    1.0000000000000000E+00     8.7499999999967026E-01     0.0000000000000000E+00 
    1.0000000000000000E+00     9.3749999999983513E-01     0.0000000000000000E+00 
    9.3749999999973976E-01     1.0000000000000000E+00     0.0000000000000000E+00 
    8.7499999999950118E-01     1.0000000000000000E+00     0.0000000000000000E+00 
    8.1249999999991318E-01     1.0000000000000000E+00     0.0000000000000000E+00 
    7.5000000000034706E-01     1.0000000000000000E+00     0.0000000000000000E+00 
    6.8750000000078049E-01     1.0000000000000000E+00     0.0000000000000000E+00 
    6.2500000000121403E-01     1.0000000000000000E+00     0.0000000000000000E+00 
    5.6250000000164757E-01     1.0000000000000000E+00     0.0000000000000000E+00 
    5.0000000000205946E-01     1.0000000000000000E+00     0.0000000000000000E+00 
    4.3750000000182099E-01     1.0000000000000000E+00     0.0000000000000000E+00 
    3.7500000000156092E-01     1.0000000000000000E+00     0.0000000000000000E+00 
    3.1250000000130068E-01     1.0000000000000000E+00     0.0000000000000000E+00 
    2.5000000000104050E-01     1.0000000000000000E+00     0.0000000000000000E+00 
    1.8750000000078040E-01     1.0000000000000000E+00     0.0000000000000000E+00 
    1.2500000000052031E-01     1.0000000000000000E+00     0.0000000000000000E+00 
    6.2500000000260125E-02     1.0000000000000000E+00     0.0000000000000000E+00 
    0.0000000000000000E+00     9.3749999999973976E-01     0.0000000000000000E+00 
    0.0000000000000000E+00     8.7499999999950118E-01     0.0000000000000000E+00 
    0.0000000000000000E+00     8.1249999999991318E-01     0.0000000000000000E+00 
    0.0000000000000000E+00     7.5000000000034706E-01     0.0000000000000000E+00 
    0.0000000000000000E+00     6.8750000000078049E-01     0.0000000000000000E+00 
    0.0000000000000000E+00     6.2500000000121403E-01     0.0000000000000000E+00 
    0.0000000000000000E+00     5.6250000000164757E-01     0.0000000000000000E+00 
    0.0000000000000000E+00     5.0000000000205946E-01     0.0000000000000000E+00 
    0.0000000000000000E+00     4.3750000000182099E-01     0.0000000000000000E+00 
    0.0000000000000000E+00     3.7500000000156092E-01     0.0000000000000000E+00 
    0.0000000000000000E+00     3.1250000000130068E-01     0.0000000000000000E+00 
    0.0000000000000000E+00     2.5000000000104050E-01     0.0000000000000000E+00 
    0.0000000000000000E+00     1.8750000000078040E-01     0.0000000000000000E+00 
    0.0000000000000000E+00     1.2500000000052031E-01     0.0000000000000000E+00 
    0.0000000000000000E+00     6.2500000000260125E-02     0.0000000000000000E+00 
    6.2499999999897131E-02     6.2500000000235922E-02     0.0000000000000000E+00 
    6.2499999999921327E-02     1.2500000000047351E-01     0.0000000000000000E+00 
    6.2499999999945530E-02     1.8750000000070621E-01     0.0000000000000000E+00 
    6.2499999999969733E-02     2.5000000000093858E-01     0.0000000000000000E+00 
    6.2499999999993928E-02     3.1250000000117117E-01     0.0000000000000000E+00 
    6.2500000000018124E-02     3.7500000000140382E-01     0.0000000000000000E+00 
    6.2500000000042327E-02     4.3750000000163619E-01     0.0000000000000000E+00 
    6.2500000000066530E-02     5.0000000000184897E-01     0.0000000000000000E+00 
    6.2500000000090733E-02     5.6250000000147260E-01     0.0000000000000000E+00 
    6.2500000000114922E-02     6.2500000000107636E-01     0.0000000000000000E+00 
    6.2500000000139125E-02     6.8750000000068034E-01     0.0000000000000000E+00 
    6.2500000000163328E-02     7.5000000000028411E-01     0.0000000000000000E+00 
    6.2500000000187531E-02     8.1249999999988787E-01     0.0000000000000000E+00 
    6.2500000000211720E-02     8.7499999999951172E-01     0.0000000000000000E+00 
    6.2500000000235922E-02     9.3749999999974565E-01     0.0000000000000000E+00 
    1.2499999999981980E-01     6.2500000000211733E-02     0.0000000000000000E+00 
    1.2499999999986650E-01     1.2500000000042691E-01     0.0000000000000000E+00 
    1.2499999999991319E-01     1.8750000000063199E-01     0.0000000000000000E+00 
    1.2499999999995989E-01     2.5000000000083678E-01     0.0000000000000000E+00 
    1.2500000000000661E-01     3.1250000000104172E-01     0.0000000000000000E+00 
    1.2500000000005329E-01     3.7500000000124661E-01     0.0000000000000000E+00 
    1.2500000000010000E-01     4.3750000000145117E-01     0.0000000000000000E+00 
    1.2500000000014669E-01     5.0000000000163858E-01     0.0000000000000000E+00 
    1.2500000000019340E-01     5.6250000000129741E-01     0.0000000000000000E+00 
    1.2500000000024011E-01     6.2500000000093847E-01     0.0000000000000000E+00 
    1.2500000000028680E-01     6.8750000000057998E-01     0.0000000000000000E+00 
    1.2500000000033351E-01     7.5000000000022127E-01     0.0000000000000000E+00 
    1.2500000000038020E-01     8.1249999999986211E-01     0.0000000000000000E+00 
    1.2500000000042691E-01     8.7499999999952238E-01     0.0000000000000000E+00 
    1.2500000000047359E-01     9.3749999999975164E-01     0.0000000000000000E+00 
    1.8749999999966760E-01     6.2500000000187531E-02     0.0000000000000000E+00 
    1.8749999999974179E-01     1.2500000000038020E-01     0.0000000000000000E+00 
    1.8749999999981601E-01     1.8750000000055780E-01     0.0000000000000000E+00 
    1.8749999999989009E-01     2.5000000000073502E-01     0.0000000000000000E+00 
    1.8749999999996431E-01     3.1250000000091221E-01     0.0000000000000000E+00 
    1.8750000000003850E-01     3.7500000000108941E-01     0.0000000000000000E+00 
    1.8750000000011269E-01     4.3750000000126649E-01     0.0000000000000000E+00 
    1.8750000000018691E-01     5.0000000000142808E-01     0.0000000000000000E+00 
    1.8750000000026110E-01     5.6250000000112244E-01     0.0000000000000000E+00 
    1.8750000000033529E-01     6.2500000000080080E-01     0.0000000000000000E+00 
    1.8750000000040951E-01     6.8750000000047962E-01     0.0000000000000000E+00 
    1.8750000000048361E-01     7.5000000000015843E-01     0.0000000000000000E+00 
    1.8750000000055780E-01     8.1249999999983680E-01     0.0000000000000000E+00 
    1.8750000000063199E-01     8.7499999999953304E-01     0.0000000000000000E+00 
    1.8750000000070621E-01     9.3749999999975764E-01     0.0000000000000000E+00 
    2.4999999999951281E-01     6.2500000000163314E-02     0.0000000000000000E+00 
    2.4999999999961461E-01     1.2500000000033351E-01     0.0000000000000000E+00 
    2.4999999999971650E-01     1.8750000000048361E-01     0.0000000000000000E+00 
    2.4999999999981831E-01     2.5000000000063310E-01     0.0000000000000000E+00 
    2.4999999999992020E-01     3.1250000000078260E-01     0.0000000000000000E+00 
    2.5000000000002198E-01     3.7500000000093209E-01     0.0000000000000000E+00 
    2.5000000000012390E-01     4.3750000000108180E-01     0.0000000000000000E+00 
    2.5000000000022571E-01     5.0000000000121769E-01     0.0000000000000000E+00 
    2.5000000000032763E-01     5.6250000000094724E-01     0.0000000000000000E+00 
    2.5000000000042938E-01     6.2500000000066314E-01     0.0000000000000000E+00 
    2.5000000000053119E-01     6.8750000000037925E-01     0.0000000000000000E+00 
[...]
CELL_DATA 256 
SCALARS Pressure double 1 
LOOKUP_TABLE default 

    6.3856356511308066E-01 
    5.8930249006122193E-01 
    5.5844091049484268E-01 
    5.3090957800059213E-01 
    5.0323866212383239E-01 
    4.7454048308485164E-01 
    4.4455548786398480E-01 
    4.1335074177767989E-01 
    3.8119649326401167E-01 
    3.4857537969984559E-01 
    3.1627786511567652E-01 
    2.8557187533838824E-01 
    2.5832547302581776E-01 
    2.3683557568586847E-01 
    2.2309581865619391E-01 
    2.1657479752580669E-01 
    6.2456242515577698E-01 
    5.9051593020325466E-01 
    5.6072726387781879E-01 
    5.3340047396944812E-01 
    5.0589801993710515E-01 
    4.7735750077661643E-01 
    4.4751261352689925E-01 
    4.1641256685672295E-01 
    3.8430307511298445E-01 
    3.5163133934654350E-01 
    3.1913747538006609E-01 
    2.8802751104564611E-01 
    2.6012945523089021E-01 
    2.3779044726262485E-01 
    2.2323040558302820E-01 
    2.1620145893021431E-01 
    6.1382250974854469E-01 
    5.8961154669795790E-01 
    5.6228056679737815E-01 
    5.3557688383509283E-01 
    5.0837972158304712E-01 
    4.8005050757124584E-01 
    4.5036668025925963E-01 
    4.1937376253551079E-01 
    3.8729271926271003E-01 
    3.5452821878073310E-01 
    3.2175873050087272E-01 
    2.9011544327958505E-01 
    2.6138343767779615E-01 
    2.3799398661233834E-01 
    2.2248022186146599E-01 
    2.1499325572099939E-01 
    6.0540868488930177E-01 
    5.8765195330712838E-01 
    5.6314446211455893E-01 
    5.3741597130705721E-01 
    5.1067374397515786E-01 
    4.8262108394337905E-01 
    4.5312586259875076E-01 
    4.2224714356091492E-01 
    3.9018484001847931E-01 
    3.5729620234398118E-01 
    3.2418661213413985E-01 
    2.9189511101437438E-01 
    2.6214801192036452E-01 
    2.3747484534208349E-01 
    2.2080450367048804E-01 
    2.1282544315780105E-01 
    5.9868602169049101E-01 
    5.8523435622176134E-01 
    5.6345434013461471E-01 
    5.3892759917208555E-01 
    5.1277621680216245E-01 
    4.8506980791796278E-01 
    4.5579735087512363E-01 
    4.2504638048824300E-01 
    3.9300104298043886E-01 
    3.5996859104869078E-01 
    3.2647024449028994E-01 
    2.9343215753057611E-01 
    2.6249269366886130E-01 
    2.3626893858713674E-01 
    2.1815775843449797E-01 
    2.0956423574371083E-01 
    5.9324662447795284E-01 
    5.8270206378756095E-01 
    5.6336156511854207E-01 
    5.4014559366512627E-01 
    5.1469174452315058E-01 
    4.8739751357621086E-01 
    4.5838636620354617E-01 
    4.2778394490842153E-01 
    3.9576326675200402E-01 
    3.6258066431068270E-01 
    3.2866287391830445E-01 
    2.9479968774811882E-01 
    2.6249875237998999E-01 
    2.3442473292846991E-01 
    2.1449170480684274E-01 
    2.0505182290227858E-01 
    5.8881751742491395E-01 
    5.8025832683356393E-01 
    5.6301096759518932E-01 
    5.4112180222041184E-01 
    5.1643771169975028E-01 
    4.8961181019602901E-01 
    4.6089948069853715E-01 
    4.3047117530857493E-01 
    3.9849227104615159E-01 
    3.6516749436490925E-01 
    3.3082081450060258E-01 
    2.9607945257698720E-01 
    2.6226346122432487E-01 
    2.3201145338775464E-01 
    2.0976541764797957E-01 
    1.9910838584517207E-01 
    5.8520706440631742E-01 
    5.7802038466407468E-01 
    5.6252799594378688E-01 
    5.4191790294292308E-01 
    5.1804215179487190E-01 
    4.9172745235566001E-01 
    4.6334679212496205E-01 
    4.3311901858370672E-01 
    4.0120597156650623E-01 
    3.6776118246544637E-01 
    3.3299994706233227E-01 
    2.9736109659729532E-01 
    2.6190509840550008E-01 
    2.2912889729467906E-01 
    2.0395440796684855E-01 
    1.9152315794054425E-01 
    5.8227536254199508E-01 
    5.7605120860933623E-01 
    5.6201411440275817E-01 
    5.4259778100850986E-01 
    5.1953845178835267E-01 
    4.9376281924244847E-01 
    4.6574058181988859E-01 
    4.3573880348134919E-01 
    4.0392000370724918E-01 
    3.7038904121128041E-01 
    3.3525116321594783E-01 
    2.9873688257163022E-01 
    2.6156440646336931E-01 
    2.2591857668792042E-01 
    1.9705655435066521E-01 
    1.8202761160275757E-01 
    5.7991987845438708E-01 
    5.7438266257395598E-01 
    5.6154796387175265E-01 
    5.4322171355516224E-01 
    5.2096237462801831E-01 
    4.9573831238628202E-01 
    4.6809435562254054E-01 
    4.3834255721372706E-01 
    4.0664912126881786E-01 
    3.7307436244184183E-01 
    3.3761835345149788E-01 
    3.0029626864006043E-01 
    2.6140203218720293E-01 
    2.2257702883636168E-01 
    1.8911096772597899E-01 
    1.7026517162363852E-01 
    5.7806430949954124E-01 
    5.7303011808182802E-01 
    5.6119079859928700E-01 
    5.4384507077382216E-01 
    5.2235132247944360E-01 
    4.9767743741443643E-01 
    4.7042345026449334E-01 
    4.4094310920414143E-01 
    4.0940826261136526E-01 
    3.7583831597426315E-01 
    3.4013885174247105E-01 
    3.0212234853426251E-01 
    2.6159497546822991E-01 
    2.1936599150631916E-01 
    1.8023095322074495E-01 
    1.5576327408071211E-01 
    5.7664853378370950E-01 
    5.7199940815512273E-01 
    5.6099146636392105E-01 
    5.4451876512771458E-01 
    5.2374381304734896E-01 
    4.9960677351837024E-01 
    4.7274606820174520E-01 
    4.4355459428105548E-01 
    4.1221262501711176E-01 
    3.7870071827171226E-01 
    3.4284318747954085E-01 
    3.0428757236171056E-01 
    2.6233067332768134E-01 
    2.1664410672198978E-01 
    1.7069431554479186E-01 
    1.3787096782223052E-01 
    5.7562481396550647E-01 
    5.7129209478856846E-01 
    5.6099037747017477E-01 
    5.4529061009970947E-01 
    5.2517961900384147E-01 
    5.0155599962507058E-01 
    4.7508379891997266E-01 
    4.4619330897785014E-01 
    4.1507814544061528E-01 
    3.8168080253794096E-01 
    3.4575494389129890E-01 
    3.0684760444209092E-01 
    2.6379109997158778E-01 
    2.1487065994644433E-01 
    1.6104279445732780E-01 
    1.1562505399926250E-01 
    5.7496355991202319E-01 
    5.7091929758685400E-01 
    5.6123110703419843E-01 
    5.4621225533510198E-01 
    5.2670394138909438E-01 
    5.0355950023933971E-01 
    4.7746090709622430E-01 
    4.4887475719666653E-01 
    4.1801829229623522E-01 
    3.8479458976634434E-01 
    3.4888498155387665E-01 
    3.0982889262046304E-01 
    2.6612322913311309E-01 
    2.1459079352541124E-01 
    1.5230655785798092E-01 
    8.7550716274365253E-02 
    5.7458508322832946E-01 
    5.7084775059420712E-01 
    5.6172401009113526E-01 
    5.4731126868713686E-01 
    5.2834168367714074E-01 
    5.0562830561988081E-01 
    4.7987251876454018E-01 
    4.5157510583221483E-01 
    4.2097978692505811E-01 
    3.8797787233550790E-01 
    3.5216648653852489E-01 
    3.1314477932233248E-01 
    2.6929328412130238E-01 
    2.1620032172058931E-01 
    1.4626373577402957E-01 
    5.1318104481862518E-02 
    5.7445796040703245E-01 
    5.7104882589674677E-01 
    5.6245290594965724E-01 
    5.4858698351893564E-01 
    5.3009999873402469E-01 
    5.0777523817252035E-01 
    4.8233004990183770E-01 
    4.5430203175658751E-01 
    4.2394717268936716E-01 
    3.9120467678090309E-01 
    3.5562910019239657E-01 
    3.1685567760021893E-01 
    2.7335530808601599E-01 
    2.1998700145281372E-01 
    1.4576916406335327E-01 
    0.0000000000000000E+00 

SCALARS Saturarion double 1 
LOOKUP_TABLE default 

    1.0000000000000002E+00 
    9.7989656609102538E-01 
    9.4284747537124092E-01 
    8.9073668640832204E-01 
    8.4730718019335549E-01 
    8.0885860414517874E-01 
    7.7487626206538462E-01 
    7.4493334827146140E-01 
    7.1825107292513513E-01 
    6.9394873957380221E-01 
    6.7108685047574523E-01 
    6.4850924749210426E-01 
    6.2434912379257468E-01 
    5.9488885948113590E-01 
    5.5171333425428770E-01 
    3.5063075420166029E-01 
    9.9267315246447951E-01 
    9.7367703220511137E-01 
    9.3477692017425174E-01 
    8.8502150672326141E-01 
    8.4245129068647151E-01 
    8.0511209730533750E-01 
    7.7210933501368750E-01 
    7.4283816372742040E-01 
    7.1666037445802999E-01 
    6.9277430166932841E-01 
    6.7042599585246698E-01 
    6.4859755166390054E-01 
    6.2543495657270720E-01 
    5.9697840317303974E-01 
    5.5522084238195690E-01 
    3.6904073538602722E-01 
    9.8106509762461913E-01 
    9.6190895703644019E-01 
    9.2266675408204279E-01 
    8.7441188575347883E-01 
    8.3280188605360495E-01 
    7.9732128886426146E-01 
    7.6632395239126849E-01 
    7.3850877434986995E-01 
    7.1326957540581182E-01 
    6.9004411303649127E-01 
    6.6832123653191366E-01 
    6.4731869619428573E-01 
    6.2559243121183539E-01 
    5.9933036708173926E-01 
    5.6029352119735565E-01 
    3.8640011473086855E-01 
    9.6084197834000840E-01 
    9.4463456964037329E-01 
    9.0764628228807154E-01 
    8.6322660396023321E-01 
    8.2233331044865898E-01 
    7.8749353231549224E-01 
    7.5754844509477959E-01 
    7.3123304618912899E-01 
    7.0746951950472825E-01 
    6.8570894609727395E-01 
    6.6526528543858732E-01 
    6.4544470090604800E-01 
    6.2508122179721093E-01 
    6.0113071635643500E-01 
    5.6528571951623419E-01 
    4.0349165091920869E-01 
    9.3571063576498914E-01 
    9.2104991199800834E-01 
    8.8755287473353606E-01 
    8.4744971923965062E-01 
    8.0851155776811645E-01 
    7.7427727304010274E-01 
    7.4507774529792425E-01 
    7.1994457358026975E-01 
    6.9790515311896806E-01 
    6.7817827106802842E-01 
    6.6008137871170236E-01 
    6.4261362265090149E-01 
    6.2424701999561183E-01 
    6.0239248507081400E-01 
    5.6970294625177531E-01 
    4.1808322778531454E-01 
    9.0667294638990448E-01 
    8.9423403012558533E-01 
    8.6487617469308664E-01 
    8.2822906291442311E-01 
    7.9197270811955556E-01 
    7.5932609990179623E-01 
    7.3088283989466596E-01 
    7.0654718647641801E-01 
    6.8566881672338209E-01 
    6.6758942209825023E-01 
    6.5177863801055558E-01 
    6.3746567382052743E-01 
    6.2250380761492807E-01 
    6.0331518596273737E-01 
    5.7343291640670913E-01 
    4.3148771225162619E-01 
    8.7464859444901555E-01 
    8.6508625458955823E-01 
    8.4011885619893767E-01 
    8.0708447998147825E-01 
    7.7386154929316886E-01 
    7.4349455050486946E-01 
    7.1667411173322404E-01 
    6.9307991601087959E-01 
    6.7276272083202182E-01 
    6.5559747227539877E-01 
    6.4141412579605372E-01 
    6.2973551780451276E-01 
    6.1883032239810909E-01 
    6.0377459914114340E-01 
    5.7705760513508675E-01 
    4.4476213259374581E-01 
    8.3951697860517949E-01 
    8.3325083948235368E-01 
    8.1337222590751546E-01 
    7.8462467778804457E-01 
    7.5433992162357277E-01 
    7.2614887303302245E-01 
    7.0081816440753519E-01 
    6.7852650537039083E-01 
    6.5917117710966155E-01 
    6.4288696551783997E-01 
    6.2975381006209508E-01 
    6.2000027416885306E-01 
    6.1271049151204449E-01 
    6.0298625646115633E-01 
    5.8070759135616223E-01 
    4.5822018177082990E-01 
    8.0127123532600930E-01 
    7.9833373688387688E-01 
    7.8361491087817881E-01 
    7.5960769472350076E-01 
    7.3277509380667383E-01 
    7.0672876187258438E-01 
    6.8298965957453472E-01 
    6.6189079627364988E-01 
    6.4358796276391284E-01 
    6.2822755682038689E-01 
    6.1622357672908012E-01 
    6.0813496725105376E-01 
    6.0400879550983622E-01 
    6.0002148059746263E-01 
    5.8379937939010451E-01 
    4.7119378425933262E-01 
    7.5994220316830463E-01 
    7.6022236116650488E-01 
    7.5048218560941615E-01 
    7.3107949161428742E-01 
    7.0794767903360012E-01 
    6.8449943132107127E-01 
    6.6237909302539999E-01 
    6.4271625584143888E-01 
    6.2574135306305034E-01 
    6.1148640795492482E-01 
    6.0033138117624008E-01 
    5.9352522148736586E-01 
    5.9221485508009131E-01 
    5.9410977990168590E-01 
    5.8541808870536238E-01 
    4.8413752840374413E-01 
    7.1522485853556150E-01 
    7.1856243254456409E-01 
    7.1356685818707832E-01 
    6.9850288632678392E-01 
    6.7911181915377827E-01 
    6.5876411107280863E-01 
    6.3917587389634745E-01 
    6.2107876284468511E-01 
    6.0537527026812066E-01 
    5.9238761526425521E-01 
    5.8237371406221328E-01 
    5.7633101397030495E-01 
    5.7671567428206216E-01 
    5.8420638029588445E-01 
    5.8332971198453865E-01 
    4.9762782263997457E-01 
    6.6570216944003635E-01 
    6.7208316053013595E-01 
    6.7202150897494672E-01 
    6.6143144319000102E-01 
    6.4556162222061897E-01 
    6.2808749570368216E-01 
    6.1096052648806087E-01 
    5.9527345971133960E-01 
    5.8150394020399421E-01 
    5.7011606682135441E-01 
    5.6151378298246224E-01 
    5.5673709539335459E-01 
    5.5798243145838855E-01 
    5.6914540861882046E-01 
    5.8008834097644146E-01 
    5.0970035072382414E-01 
    6.1059117712275313E-01 
    6.1954661673630063E-01 
    6.2401528178970089E-01 
    6.1806776565739374E-01 
    6.0641030273644836E-01 
    5.9233242199291991E-01 
    5.7828007969441320E-01 
    5.6488286171053614E-01 
    5.5286903953933042E-01 
    5.4302260224414156E-01 
    5.3625454694491115E-01 
    5.3314034800941623E-01 
    5.3580803403428034E-01 
    5.4879379178761778E-01 
    5.7023375504116414E-01 
    5.1929116509879247E-01 
    5.5342870874106231E-01 
    5.6380348596470187E-01 
    5.7146946108393148E-01 
    5.6978937277115227E-01 
    5.6226341761819254E-01 
    5.5146432505621845E-01 
    5.3952179995320715E-01 
    5.2761629240278762E-01 
    5.1570251854424065E-01 
    5.0643537812613937E-01 
    5.0028761829387514E-01 
    4.9821810247095005E-01 
    5.0398932837837029E-01 
    5.2177045448566395E-01 
    5.5355716436938540E-01 
    5.2485892985017579E-01 
    4.2247731923262716E-01 
    4.5002500795927647E-01 
    4.7182015102701269E-01 
    4.7881488843985409E-01 
    4.7532278780028464E-01 
    4.6416332956722717E-01 
    4.4730265874400771E-01 
    4.2723362589658959E-01 
    3.9953485005470302E-01 
    3.4816002575883814E-01 
    3.1496591210801655E-01 
    3.3870366176070088E-01 
    3.6893549880625259E-01 
    4.3024151340075062E-01 
    5.1640168866994074E-01 
    5.2568099216727471E-01 
    3.3024760404834680E-02 
    9.4710136648028354E-02 
    1.1745020467733737E-01 
    1.4257167191253597E-01 
    1.0535624509666934E-01 
    1.0021462068813103E-01 
    5.8378744712737907E-02 
    4.1528695425834906E-02 
    1.8484918718827594E-02 
    4.6212390039680118E-03 
    5.9195649890286268E-03 
    7.8883120378320602E-03 
    3.1896640972148289E-02 
    1.8674825249942562E-01 
    3.4616964880292189E-01 
    4.7534520175326295E-01 
