# vtk DataFile Version 2.0
Pressure Field Data 
ASCII 
DATASET UNSTRUCTURED_GRID 

POINTS 289 double 

    0.0000000000000000E+00     0.0000000000000000E+00     0.0000000000000000E+00 
    1.0000000000000000E+00     0.0000000000000000E+00     0.0000000000000000E+00 
    1.0000000000000000E+00     1.0000000000000000E+00     0.0000000000000000E+00 
    0.0000000000000000E+00     1.0000000000000000E+00     0.0000000000000000E+00 
    6.2499999999872928E-02     0.0000000000000000E+00     0.0000000000000000E+00 
    1.2499999999977310E-01     0.0000000000000000E+00     0.0000000000000000E+00 
    1.8749999999959341E-01     0.0000000000000000E+00     0.0000000000000000E+00 
    2.4999999999941089E-01     0.0000000000000000E+00     0.0000000000000000E+00 
    3.1249999999922851E-01     0.0000000000000000E+00     0.0000000000000000E+00 
    3.7499999999904610E-01     0.0000000000000000E+00     0.0000000000000000E+00 
    4.3749999999886358E-01     0.0000000000000000E+00     0.0000000000000000E+00 
    4.9999999999869210E-01     0.0000000000000000E+00     0.0000000000000000E+00 
    5.6249999999884603E-01     0.0000000000000000E+00     0.0000000000000000E+00 
    6.2499999999901090E-01     0.0000000000000000E+00     0.0000000000000000E+00 
    6.8749999999917577E-01     0.0000000000000000E+00     0.0000000000000000E+00 
    7.4999999999934064E-01     0.0000000000000000E+00     0.0000000000000000E+00 
    8.1249999999950551E-01     0.0000000000000000E+00     0.0000000000000000E+00 
    8.7499999999967026E-01     0.0000000000000000E+00     0.0000000000000000E+00 
    9.3749999999983513E-01     0.0000000000000000E+00     0.0000000000000000E+00 
    1.0000000000000000E+00     6.2499999999872928E-02     0.0000000000000000E+00 
    1.0000000000000000E+00     1.2499999999977310E-01     0.0000000000000000E+00 
    1.0000000000000000E+00     1.8749999999959341E-01     0.0000000000000000E+00 
    1.0000000000000000E+00     2.4999999999941089E-01     0.0000000000000000E+00 
    1.0000000000000000E+00     3.1249999999922851E-01     0.0000000000000000E+00 
    1.0000000000000000E+00     3.7499999999904610E-01     0.0000000000000000E+00 
    1.0000000000000000E+00     4.3749999999886358E-01     0.0000000000000000E+00 
    1.0000000000000000E+00     4.9999999999869210E-01     0.0000000000000000E+00 
    1.0000000000000000E+00     5.6249999999884603E-01     0.0000000000000000E+00 
    1.0000000000000000E+00     6.2499999999901090E-01     0.0000000000000000E+00 
    1.0000000000000000E+00     6.8749999999917577E-01     0.0000000000000000E+00 
    1.0000000000000000E+00     7.4999999999934064E-01     0.0000000000000000E+00 
    1.0000000000000000E+00     8.1249999999950551E-01     0.0000000000000000E+00 
    1.0000000000000000E+00     8.7499999999967026E-01     0.0000000000000000E+00 
    1.0000000000000000E+00     9.3749999999983513E-01     0.0000000000000000E+00 
    9.3749999999973976E-01     1.0000000000000000E+00     0.0000000000000000E+00 
    8.7499999999950118E-01     1.0000000000000000E+00     0.0000000000000000E+00 
    8.1249999999991318E-01     1.0000000000000000E+00     0.0000000000000000E+00 
    7.5000000000034706E-01     1.0000000000000000E+00     0.0000000000000000E+00 
    6.8750000000078049E-01     1.0000000000000000E+00     0.0000000000000000E+00 
    6.2500000000121403E-01     1.0000000000000000E+00     0.0000000000000000E+00 
    5.6250000000164757E-01     1.0000000000000000E+00     0.0000000000000000E+00 
    5.0000000000205946E-01     1.0000000000000000E+00     0.0000000000000000E+00 
    4.3750000000182099E-01     1.0000000000000000E+00     0.0000000000000000E+00 
    3.7500000000156092E-01     1.0000000000000000E+00     0.0000000000000000E+00 
    3.1250000000130068E-01     1.0000000000000000E+00     0.0000000000000000E+00 
    2.5000000000104050E-01     1.0000000000000000E+00     0.0000000000000000E+00 
    1.8750000000078040E-01     1.0000000000000000E+00     0.0000000000000000E+00 
    1.2500000000052031E-01     1.0000000000000000E+00     0.0000000000000000E+00 
    6.2500000000260125E-02     1.0000000000000000E+00     0.0000000000000000E+00 
    0.0000000000000000E+00     9.3749999999973976E-01     0.0000000000000000E+00 
    0.0000000000000000E+00     8.7499999999950118E-01     0.0000000000000000E+00 
    0.0000000000000000E+00     8.1249999999991318E-01     0.0000000000000000E+00 
    0.0000000000000000E+00     7.5000000000034706E-01     0.0000000000000000E+00 
    0.0000000000000000E+00     6.8750000000078049E-01     0.0000000000000000E+00 
    0.0000000000000000E+00     6.2500000000121403E-01     0.0000000000000000E+00 
    0.0000000000000000E+00     5.6250000000164757E-01     0.0000000000000000E+00 
    0.0000000000000000E+00     5.0000000000205946E-01     0.0000000000000000E+00 
    0.0000000000000000E+00     4.3750000000182099E-01     0.0000000000000000E+00 
    0.0000000000000000E+00     3.7500000000156092E-01     0.0000000000000000E+00 
    0.0000000000000000E+00     3.1250000000130068E-01     0.0000000000000000E+00 
    0.0000000000000000E+00     2.5000000000104050E-01     0.0000000000000000E+00 
    0.0000000000000000E+00     1.8750000000078040E-01     0.0000000000000000E+00 
    0.0000000000000000E+00     1.2500000000052031E-01     0.0000000000000000E+00 
    0.0000000000000000E+00     6.2500000000260125E-02     0.0000000000000000E+00 
    6.2499999999897131E-02     6.2500000000235922E-02     0.0000000000000000E+00 
    6.2499999999921327E-02     1.2500000000047351E-01     0.0000000000000000E+00 
    6.2499999999945530E-02     1.8750000000070621E-01     0.0000000000000000E+00 
    6.2499999999969733E-02     2.5000000000093858E-01     0.0000000000000000E+00 
    6.2499999999993928E-02     3.1250000000117117E-01     0.0000000000000000E+00 
    6.2500000000018124E-02     3.7500000000140382E-01     0.0000000000000000E+00 
    6.2500000000042327E-02     4.3750000000163619E-01     0.0000000000000000E+00 
    6.2500000000066530E-02     5.0000000000184897E-01     0.0000000000000000E+00 
    6.2500000000090733E-02     5.6250000000147260E-01     0.0000000000000000E+00 
    6.2500000000114922E-02     6.2500000000107636E-01     0.0000000000000000E+00 
    6.2500000000139125E-02     6.8750000000068034E-01     0.0000000000000000E+00 
    6.2500000000163328E-02     7.5000000000028411E-01     0.0000000000000000E+00 
    6.2500000000187531E-02     8.1249999999988787E-01     0.0000000000000000E+00 
    6.2500000000211720E-02     8.7499999999951172E-01     0.0000000000000000E+00 
    6.2500000000235922E-02     9.3749999999974565E-01     0.0000000000000000E+00 
    1.2499999999981980E-01     6.2500000000211733E-02     0.0000000000000000E+00 
    1.2499999999986650E-01     1.2500000000042691E-01     0.0000000000000000E+00 
    1.2499999999991319E-01     1.8750000000063199E-01     0.0000000000000000E+00 
    1.2499999999995989E-01     2.5000000000083678E-01     0.0000000000000000E+00 
    1.2500000000000661E-01     3.1250000000104172E-01     0.0000000000000000E+00 
    1.2500000000005329E-01     3.7500000000124661E-01     0.0000000000000000E+00 
    1.2500000000010000E-01     4.3750000000145117E-01     0.0000000000000000E+00 
    1.2500000000014669E-01     5.0000000000163858E-01     0.0000000000000000E+00 
    1.2500000000019340E-01     5.6250000000129741E-01     0.0000000000000000E+00 
    1.2500000000024011E-01     6.2500000000093847E-01     0.0000000000000000E+00 
    1.2500000000028680E-01     6.8750000000057998E-01     0.0000000000000000E+00 
    1.2500000000033351E-01     7.5000000000022127E-01     0.0000000000000000E+00 
    1.2500000000038020E-01     8.1249999999986211E-01     0.0000000000000000E+00 
    1.2500000000042691E-01     8.7499999999952238E-01     0.0000000000000000E+00 
    1.2500000000047359E-01     9.3749999999975164E-01     0.0000000000000000E+00 
    1.8749999999966760E-01     6.2500000000187531E-02     0.0000000000000000E+00 
    1.8749999999974179E-01     1.2500000000038020E-01     0.0000000000000000E+00 
    1.8749999999981601E-01     1.8750000000055780E-01     0.0000000000000000E+00 
    1.8749999999989009E-01     2.5000000000073502E-01     0.0000000000000000E+00 
    1.8749999999996431E-01     3.1250000000091221E-01     0.0000000000000000E+00 
    1.8750000000003850E-01     3.7500000000108941E-01     0.0000000000000000E+00 
    1.8750000000011269E-01     4.3750000000126649E-01     0.0000000000000000E+00 
    1.8750000000018691E-01     5.0000000000142808E-01     0.0000000000000000E+00 
    1.8750000000026110E-01     5.6250000000112244E-01     0.0000000000000000E+00 
    1.8750000000033529E-01     6.2500000000080080E-01     0.0000000000000000E+00 
    1.8750000000040951E-01     6.8750000000047962E-01     0.0000000000000000E+00 
    1.8750000000048361E-01     7.5000000000015843E-01     0.0000000000000000E+00 
    1.8750000000055780E-01     8.1249999999983680E-01     0.0000000000000000E+00 
    1.8750000000063199E-01     8.7499999999953304E-01     0.0000000000000000E+00 
    1.8750000000070621E-01     9.3749999999975764E-01     0.0000000000000000E+00 
    2.4999999999951281E-01     6.2500000000163314E-02     0.0000000000000000E+00 
    2.4999999999961461E-01     1.2500000000033351E-01     0.0000000000000000E+00 
    2.4999999999971650E-01     1.8750000000048361E-01     0.0000000000000000E+00 
    2.4999999999981831E-01     2.5000000000063310E-01     0.0000000000000000E+00 
    2.4999999999992020E-01     3.1250000000078260E-01     0.0000000000000000E+00 
    2.5000000000002198E-01     3.7500000000093209E-01     0.0000000000000000E+00 
    2.5000000000012390E-01     4.3750000000108180E-01     0.0000000000000000E+00 
    2.5000000000022571E-01     5.0000000000121769E-01     0.0000000000000000E+00 
    2.5000000000032763E-01     5.6250000000094724E-01     0.0000000000000000E+00 
    2.5000000000042938E-01     6.2500000000066314E-01     0.0000000000000000E+00 
    2.5000000000053119E-01     6.8750000000037925E-01     0.0000000000000000E+00 
[...]
CELL_DATA 256 
SCALARS Pressure double 1 
LOOKUP_TABLE default 

    6.6510614000618173E-01 
    6.1553039491388128E-01 
    5.8416664762385762E-01 
    5.5596131119722980E-01 
    5.2746185327708817E-01 
    4.9779676420258051E-01 
    4.6671961578358206E-01 
    4.3431665759315169E-01 
    4.0088347424604359E-01 
    3.6693562865623858E-01 
    3.3330866279784238E-01 
    3.0133726862186772E-01 
    2.7298417599519320E-01 
    2.5066315345149759E-01 
    2.3641812387170616E-01 
    2.2956888163753850E-01 
    6.5111450903811641E-01 
    6.1677932818630310E-01 
    5.8650523686621281E-01 
    5.5851907017236246E-01 
    5.3020181870085259E-01 
    5.0070771915570622E-01 
    4.6978292171954661E-01 
    4.3749423737526827E-01 
    4.0411134583158853E-01 
    3.7011280460932100E-01 
    3.3628133394382537E-01 
    3.0388670548704599E-01 
    2.7485020812597327E-01 
    2.5163964431782010E-01 
    2.3654424325679133E-01 
    2.2916598925405565E-01 
    6.4038071708380906E-01 
    6.1590155833595850E-01 
    5.8810199111103623E-01 
    5.6075389270609077E-01 
    5.3275567798014722E-01 
    5.0348611815309385E-01 
    4.7273473738564359E-01 
    4.4056276315303655E-01 
    4.0721329051953081E-01 
    3.7312026966522871E-01 
    3.3900139767497156E-01 
    3.0604746146811068E-01 
    2.7613538000450827E-01 
    2.5182222321101821E-01 
    2.3573414993052139E-01 
    2.2787332266968421E-01 
    6.3196108913829518E-01 
    6.1395758861104932E-01 
    5.8899924835644912E-01 
    5.6264311284455393E-01 
    5.3511488519903383E-01 
    5.0613531360407615E-01 
    4.7558442305145687E-01 
    4.4353550157252436E-01 
    4.1020889956385348E-01 
    3.7598887806068987E-01 
    3.4151572250549755E-01 
    3.0788219679554552E-01 
    2.7690371505401112E-01 
    2.5124147915578920E-01 
    2.3394490961011344E-01 
    2.2555988263058652E-01 
    6.2521658416761128E-01 
    6.1154198311077834E-01 
    5.8933151435049780E-01 
    5.6419610322460545E-01 
    5.3727596223844709E-01 
    5.0865742540781034E-01 
    4.7834115309689546E-01 
    4.4642778910038627E-01 
    4.1312098036709166E-01 
    3.7875323117140197E-01 
    3.4387567032506211E-01 
    3.0946023414139956E-01 
    2.7722906541204823E-01 
    2.4993559609067922E-01 
    2.3112870371529703E-01 
    2.2208525722680317E-01 
    6.1974325364951333E-01 
    6.0899885605965876E-01 
    5.8925016227127636E-01 
    5.6544651268472812E-01 
    5.3924365640583638E-01 
    5.1105439736571290E-01 
    4.8101226034488059E-01 
    4.4925464300898099E-01 
    4.1597389842368165E-01 
    3.8145096134117767E-01 
    3.4613732799084079E-01 
    3.1085864805087143E-01 
    2.7719777758212233E-01 
    2.4795691702102754E-01 
    2.2723571173405374E-01 
    2.1728294660913983E-01 
    6.1527312261445333E-01 
    6.0653445053856236E-01 
    5.8890154987915289E-01 
    5.6644731503320145E-01 
    5.4103624958037344E-01 
    5.1333478649845832E-01 
    4.8360582018852788E-01 
    4.5202964308948934E-01 
    4.1879114491471198E-01 
    3.8412021373777366E-01 
    3.4836058007445886E-01 
    3.1216347605183264E-01 
    2.7691260872522222E-01 
    2.4537991289476196E-01 
    2.2222453968422337E-01 
    2.1096421286158354E-01 
    6.1161773653707541E-01 
    6.0426896606185998E-01 
    5.8841335676541295E-01 
    5.6726184908459565E-01 
    5.4268288556228816E-01 
    5.1551419641060936E-01 
    4.8613302292418759E-01 
    4.5476533026849936E-01 
    4.2159275804221602E-01 
    3.8679602883179032E-01 
    3.5060543744133837E-01 
    3.1346934410510702E-01 
    2.7649783346552204E-01 
    2.4231019753982719E-01 
    2.1606964869993245E-01 
    2.0290697362836468E-01 
    6.0863967481929870E-01 
    6.0226799961677890E-01 
    5.8788925765103350E-01 
    5.6795553738908311E-01 
    5.4421790443317331E-01 
    5.1761190105266419E-01 
    4.8860740967176564E-01 
    4.5747447326506585E-01 
    4.2439565780709326E-01 
    3.8950757905675704E-01 
    3.5292667859954596E-01 
    3.1487429165974173E-01 
    2.7610133941735399E-01 
    2.3889704124366196E-01 
    2.0877065416357876E-01 
    1.9282921341480502E-01 
    6.0623861717133809E-01 
    6.0056570524176123E-01 
    5.8740972623790833E-01 
    5.6858990701811463E-01 
    5.4567795094350446E-01 
    5.1964942042423312E-01 
    4.9104424485930653E-01 
    4.6017093934163528E-01 
    4.2721545090841018E-01 
    3.9227865734165041E-01 
    3.5537097719291433E-01 
    3.1647373749993141E-01 
    2.7589257395395361E-01 
    2.3534696892479612E-01 
    2.0037042990566911E-01 
    1.8035583107035169E-01 
    6.0433998848589821E-01 
    5.9917931203769559E-01 
    5.8703761299868928E-01 
    5.6922150207180211E-01 
    5.4710139289481829E-01 
    5.2165173354267735E-01 
    4.9346135084923420E-01 
    4.6287029856072742E-01 
    4.3006817211230325E-01 
    3.9513008500263969E-01 
    3.5797743940011884E-01 
    3.1835632738843167E-01 
    2.7605898155820985E-01 
    2.3194037023501410E-01 
    1.9099744550464709E-01 
    1.6499109280933047E-01 
    6.0288513622493500E-01 
    5.9811621078836785E-01 
    5.8682335484919945E-01 
    5.6990258304404251E-01 
    5.4852796019279748E-01 
    5.2364742652167162E-01 
    4.9588055046269253E-01 
    4.6559099241024010E-01 
    4.3297101958348744E-01 
    3.9808106119103986E-01 
    3.6077827405723290E-01 
    3.2059982729710523E-01 
    2.7679978930999577E-01 
    2.2905318364591060E-01 
    1.8093705202056498E-01 
    1.4604800800088474E-01 
    6.0183018348935136E-01 
    5.9738135790197366E-01 
    5.8681053426291774E-01 
    5.7068380433884958E-01 
    5.4999963869345569E-01 
    5.2566880460558663E-01 
    4.9832815333212110E-01 
    4.6835568233125974E-01 
    4.3594320014491417E-01 
    4.0114932594364444E-01 
    3.6379844468701528E-01 
    3.2326428568249088E-01 
    2.7830870600733065E-01 
    2.2716845345329165E-01 
    1.7074528771162534E-01 
    1.2250155184547236E-01 
    6.0114773865086901E-01 
    5.9698932537382920E-01 
    5.8704659768545875E-01 
    5.7161987736780584E-01 
    5.5156227914219225E-01 
    5.2774960784670477E-01 
    5.0083064528945986E-01 
    4.7118701379808420E-01 
    4.3900035610286259E-01 
    4.0433781688719911E-01 
    3.6703794165374326E-01 
    3.2636855951171523E-01 
    2.8072779121259173E-01 
    2.2685626235414721E-01 
    1.6152022707940220E-01 
    9.2814327203542171E-02 
    6.0072513138674810E-01 
    5.9688117662042750E-01 
    5.8752472029703184E-01 
    5.7272264809307960E-01 
    5.5322112745448049E-01 
    5.2987622479960350E-01 
    5.0334954254868869E-01 
    4.7403467496239932E-01 
    4.4208715565297640E-01 
    4.0757903309678006E-01 
    3.7039536658684619E-01 
    3.2977229579525225E-01 
    2.8396719186224373E-01 
    2.2846699254159492E-01 
    1.5503728315953175E-01 
    5.4455272241272140E-02 
    6.0057846606245435E-01 
    5.9706810575946767E-01 
    5.8825830727489359E-01 
    5.7401494241628159E-01 
    5.5500312924871620E-01 
    5.3207206520411965E-01 
    5.0589058762186012E-01 
    4.7688808577788577E-01 
    4.4521016585164974E-01 
    4.1092418066842445E-01 
    3.7395563261149534E-01 
    3.3359087661879289E-01 
    2.8820221912898636E-01 
    2.3250720551076967E-01 
    1.5448501057375222E-01 
    0.0000000000000000E+00 

SCALARS Saturarion double 1 
LOOKUP_TABLE default 

    1.0000000000000004E+00 
    9.7824650664657842E-01 
    9.3832448154157855E-01 
    8.8373612238781185E-01 
    8.3811839188759008E-01 
    7.9784864646719555E-01 
    7.6255252158384679E-01 
    7.3171288945954505E-01 
    7.0440886472381381E-01 
    6.7963655986084393E-01 
    6.5634309231525489E-01 
    6.3325643259890085E-01 
    6.0837701370700326E-01 
    5.7799240785077621E-01 
    5.3033857855471633E-01 
    2.9333943280559210E-01 
    9.9193894540204441E-01 
    9.7135984890722760E-01 
    9.2949490660240186E-01 
    8.7740536310407635E-01 
    8.3300547711480399E-01 
    7.9411047971012760E-01 
    7.5986757804648830E-01 
    7.2965762979060456E-01 
    7.0278601215707504E-01 
    6.7837665325764318E-01 
    6.5559475689947078E-01 
    6.3331100286011577E-01 
    6.0949887147381376E-01 
    5.8012819041392027E-01 
    5.3463433906232649E-01 
    3.1668188305090611E-01 
    9.7919086044538484E-01 
    9.5851791035373635E-01 
    9.1638894397129045E-01 
    8.6592095532569979E-01 
    8.2292887169296380E-01 
    7.8631931932714505E-01 
    7.5424428917008501E-01 
    7.2542668371280672E-01 
    6.9932959107761994E-01 
    6.7542382565912307E-01 
    6.5320254415720913E-01 
    6.3182112382052802E-01 
    6.0963735751841275E-01 
    5.8257032934193431E-01 
    5.4034813625790479E-01 
    3.3813731273179620E-01 
    9.5696960938296827E-01 
    9.3950145314025957E-01 
    9.0027225621573181E-01 
    8.5379772902697626E-01 
    8.1153878414686209E-01 
    7.7584490010023976E-01 
    7.4519870493680251E-01 
    7.1815010651331923E-01 
    6.9360696254518162E-01 
    6.7110883712077973E-01 
    6.5004542135222010E-01 
    6.2977420478499035E-01 
    6.0905831439331637E-01 
    5.8448978386945349E-01 
    5.4598871031755514E-01 
    3.5900876335583626E-01 
    9.2953604986533689E-01 
    9.1394150996666945E-01 
    8.7873079942898824E-01 
    8.3682366629733840E-01 
    7.9664742091890628E-01 
    7.6174946761981688E-01 
    7.3216474056395175E-01 
    7.0666361102130659E-01 
    6.8415730527262486E-01 
    6.6386539454797122E-01 
    6.4514974578573969E-01 
    6.2708039048255515E-01 
    6.0822912462452683E-01 
    5.8585241996814963E-01 
    5.5080058092422146E-01 
    3.7646955729254122E-01 
    8.9837761724901088E-01 
    8.8529235699920639E-01 
    8.5456696158422707E-01 
    8.1649844426623297E-01 
    7.7928503294485607E-01 
    7.4610884262884869E-01 
    7.1736101336124991E-01 
    6.9282555420121106E-01 
    6.7176690939469264E-01 
    6.5344981938736368E-01 
    6.3725992929461761E-01 
    6.2237057281923724E-01 
    6.0672104341349054E-01 
    5.8688550428316666E-01 
    5.5528466619178096E-01 
    3.9230149224045857E-01 
    8.6439880506327105E-01 
    8.5441866605934158E-01 
    8.2846205824611507E-01 
    7.9440209776783199E-01 
    7.6048500023608245E-01 
    7.2968832340644219E-01 
    7.0259156321689620E-01 
    6.7883002543973781E-01 
    6.5845791282561295E-01 
    6.4130214861382528E-01 
    6.2707386428838441E-01 
    6.1509495841447948E-01 
    6.0349774322403127E-01 
    5.8756486291824794E-01 
    5.5937429373093928E-01 
    4.0788828680817280E-01 
    8.2742135392832061E-01 
    8.2097598821253870E-01 
    8.0052655383916083E-01 
    7.7109908681405204E-01 
    7.4028488580411489E-01 
    7.1173144234644492E-01 
    6.8617378604885926E-01 
    6.6378502819126717E-01 
    6.4443060818673370E-01 
    6.2822775696367261E-01 
    6.1523869647099794E-01 
    6.0554349719507938E-01 
    5.9785504684698787E-01 
    5.8715665584087873E-01 
    5.6331807756482577E-01 
    4.2362203244252761E-01 
    7.8754762016503077E-01 
    7.8460608103815399E-01 
    7.6963436777845873E-01 
    7.4523270257358099E-01 
    7.1802867503796852E-01 
    6.9171267667442826E-01 
    6.6784286918246505E-01 
    6.4672179867717827E-01 
    6.2844108626672246E-01 
    6.1313686427429548E-01 
    6.0129501988748568E-01 
    5.9349503172700890E-01 
    5.8943698501937003E-01 
    5.8467720658603262E-01 
    5.6684609274758480E-01 
    4.3867029352423459E-01 
    7.4482070049471982E-01 
    7.4520534181716014E-01 
    7.3542228108737095E-01 
    7.1583214258393935E-01 
    6.9248909459135799E-01 
    6.6890927168776237E-01 
    6.4679898315279527E-01 
    6.2723932428043327E-01 
    6.1031884997838537E-01 
    5.9602550095932760E-01 
    5.8488983802162020E-01 
    5.7837553865751834E-01 
    5.7754916879074591E-01 
    5.7922577521283314E-01 
    5.6888831039087884E-01 
    4.5354911068173065E-01 
    6.9890375206553124E-01 
    7.0240936843467694E-01 
    6.9749992134506089E-01 
    6.8239950653697579E-01 
    6.6295014100008476E-01 
    6.4263435055816120E-01 
    6.2324852447032852E-01 
    6.0544143421137708E-01 
    5.8989850686916689E-01 
    5.7684323452492481E-01 
    5.6669623961816751E-01 
    5.6071458470125468E-01 
    5.6158961837547250E-01 
    5.6953780085575145E-01 
    5.6858385513401766E-01 
    4.6859046748210170E-01 
    6.4841589770540331E-01 
    6.5497690211084325E-01 
    6.5508393983793567E-01 
    6.4459458428035687E-01 
    6.2884396207694560E-01 
    6.1162545566447490E-01 
    5.9497340797463560E-01 
    5.7983770598713225E-01 
    5.6638554181293854E-01 
    5.5496721549062200E-01 
    5.4622796062872658E-01 
    5.4135244043532738E-01 
    5.4262851019707226E-01 
    5.5431419844674845E-01 
    5.6484422030125059E-01 
    4.8264920002000583E-01 
    5.9383501463129473E-01 
    6.0264222159941538E-01 
    6.0708468953856787E-01 
    6.0139905318107312E-01 
    5.9009357392993622E-01 
    5.7639087760315821E-01 
    5.6279370139319729E-01 
    5.5003968947017945E-01 
    5.3859992922535072E-01 
    5.2880169802290256E-01 
    5.2174830810375372E-01 
    5.1849400339578511E-01 
    5.2103896301346242E-01 
    5.3398014490871182E-01 
    5.5427645386647673E-01 
    4.9414731164578690E-01 
    5.3641783240136498E-01 
    5.4778934697297177E-01 
    5.5518041477103486E-01 
    5.5384370775383918E-01 
    5.4609848098526437E-01 
    5.3484857964030885E-01 
    5.2213839148720242E-01 
    5.1054896928345994E-01 
    4.9967579874836821E-01 
    4.8932183420533854E-01 
    4.7877617880792023E-01 
    4.7670772991542448E-01 
    4.8464206613395672E-01 
    5.0518020083498938E-01 
    5.3836706317558802E-01 
    5.0156637364344159E-01 
    3.6006215708287909E-01 
    4.1048877081811258E-01 
    4.3940260088825556E-01 
    4.4834971418117342E-01 
    4.4148970187311914E-01 
    4.2509516950135723E-01 
    3.9565175857440160E-01 
    3.4671411549327891E-01 
    2.9335175805007735E-01 
    2.5063019266681907E-01 
    2.5192031267803144E-01 
    2.4442188396408410E-01 
    2.9474764284993021E-01 
    3.8841490961961717E-01 
    4.9460020326650278E-01 
    5.0336774986989663E-01 
    6.3830023775044683E-03 
    4.5358089991845568E-02 
    7.0586391927883213E-02 
    8.1896610890648661E-02 
    5.8228693009936737E-02 
    3.9916521678974103E-02 
    2.0704646991802779E-02 
    4.5618817385904564E-03 
    2.6236086299480823E-03 
    1.5000414477670567E-04 
    7.6243988972986981E-04 
    1.1412441818837482E-04 
    3.6042514101036235E-03 
    1.4591135972854657E-01 
    3.1940347575901512E-01 
    4.5233367686025172E-01 
