# vtk DataFile Version 2.0
Pressure Field Data 
ASCII 
DATASET UNSTRUCTURED_GRID 

POINTS 289 double 

    0.0000000000000000E+00     0.0000000000000000E+00     0.0000000000000000E+00 
    1.0000000000000000E+00     0.0000000000000000E+00     0.0000000000000000E+00 
    1.0000000000000000E+00     1.0000000000000000E+00     0.0000000000000000E+00 
    0.0000000000000000E+00     1.0000000000000000E+00     0.0000000000000000E+00 
    6.2499999999872928E-02     0.0000000000000000E+00     0.0000000000000000E+00 
    1.2499999999977310E-01     0.0000000000000000E+00     0.0000000000000000E+00 
    1.8749999999959341E-01     0.0000000000000000E+00     0.0000000000000000E+00 
    2.4999999999941089E-01     0.0000000000000000E+00     0.0000000000000000E+00 
    3.1249999999922851E-01     0.0000000000000000E+00     0.0000000000000000E+00 
    3.7499999999904610E-01     0.0000000000000000E+00     0.0000000000000000E+00 
    4.3749999999886358E-01     0.0000000000000000E+00     0.0000000000000000E+00 
    4.9999999999869210E-01     0.0000000000000000E+00     0.0000000000000000E+00 
    5.6249999999884603E-01     0.0000000000000000E+00     0.0000000000000000E+00 
    6.2499999999901090E-01     0.0000000000000000E+00     0.0000000000000000E+00 
    6.8749999999917577E-01     0.0000000000000000E+00     0.0000000000000000E+00 
    7.4999999999934064E-01     0.0000000000000000E+00     0.0000000000000000E+00 
    8.1249999999950551E-01     0.0000000000000000E+00     0.0000000000000000E+00 
    8.7499999999967026E-01     0.0000000000000000E+00     0.0000000000000000E+00 
    9.3749999999983513E-01     0.0000000000000000E+00     0.0000000000000000E+00 
    1.0000000000000000E+00     6.2499999999872928E-02     0.0000000000000000E+00 
    1.0000000000000000E+00     1.2499999999977310E-01     0.0000000000000000E+00 
    1.0000000000000000E+00     1.8749999999959341E-01     0.0000000000000000E+00 
    1.0000000000000000E+00     2.4999999999941089E-01     0.0000000000000000E+00 
    1.0000000000000000E+00     3.1249999999922851E-01     0.0000000000000000E+00 
    1.0000000000000000E+00     3.7499999999904610E-01     0.0000000000000000E+00 
    1.0000000000000000E+00     4.3749999999886358E-01     0.0000000000000000E+00 
    1.0000000000000000E+00     4.9999999999869210E-01     0.0000000000000000E+00 
    1.0000000000000000E+00     5.6249999999884603E-01     0.0000000000000000E+00 
    1.0000000000000000E+00     6.2499999999901090E-01     0.0000000000000000E+00 
    1.0000000000000000E+00     6.8749999999917577E-01     0.0000000000000000E+00 
    1.0000000000000000E+00     7.4999999999934064E-01     0.0000000000000000E+00 
    1.0000000000000000E+00     8.1249999999950551E-01     0.0000000000000000E+00 
    1.0000000000000000E+00     8.7499999999967026E-01     0.0000000000000000E+00 
    1.0000000000000000E+00     9.3749999999983513E-01     0.0000000000000000E+00 
    9.3749999999973976E-01     1.0000000000000000E+00     0.0000000000000000E+00 
    8.7499999999950118E-01     1.0000000000000000E+00     0.0000000000000000E+00 
    8.1249999999991318E-01     1.0000000000000000E+00     0.0000000000000000E+00 
    7.5000000000034706E-01     1.0000000000000000E+00     0.0000000000000000E+00 
    6.8750000000078049E-01     1.0000000000000000E+00     0.0000000000000000E+00 
    6.2500000000121403E-01     1.0000000000000000E+00     0.0000000000000000E+00 
    5.6250000000164757E-01     1.0000000000000000E+00     0.0000000000000000E+00 
    5.0000000000205946E-01     1.0000000000000000E+00     0.0000000000000000E+00 
    4.3750000000182099E-01     1.0000000000000000E+00     0.0000000000000000E+00 
    3.7500000000156092E-01     1.0000000000000000E+00     0.0000000000000000E+00 
    3.1250000000130068E-01     1.0000000000000000E+00     0.0000000000000000E+00 
    2.5000000000104050E-01     1.0000000000000000E+00     0.0000000000000000E+00 
    1.8750000000078040E-01     1.0000000000000000E+00     0.0000000000000000E+00 
    1.2500000000052031E-01     1.0000000000000000E+00     0.0000000000000000E+00 
    6.2500000000260125E-02     1.0000000000000000E+00     0.0000000000000000E+00 
    0.0000000000000000E+00     9.3749999999973976E-01     0.0000000000000000E+00 
    0.0000000000000000E+00     8.7499999999950118E-01     0.0000000000000000E+00 
    0.0000000000000000E+00     8.1249999999991318E-01     0.0000000000000000E+00 
    0.0000000000000000E+00     7.5000000000034706E-01     0.0000000000000000E+00 
    0.0000000000000000E+00     6.8750000000078049E-01     0.0000000000000000E+00 
    0.0000000000000000E+00     6.2500000000121403E-01     0.0000000000000000E+00 
    0.0000000000000000E+00     5.6250000000164757E-01     0.0000000000000000E+00 
    0.0000000000000000E+00     5.0000000000205946E-01     0.0000000000000000E+00 
    0.0000000000000000E+00     4.3750000000182099E-01     0.0000000000000000E+00 
    0.0000000000000000E+00     3.7500000000156092E-01     0.0000000000000000E+00 
    0.0000000000000000E+00     3.1250000000130068E-01     0.0000000000000000E+00 
    0.0000000000000000E+00     2.5000000000104050E-01     0.0000000000000000E+00 
    0.0000000000000000E+00     1.8750000000078040E-01     0.0000000000000000E+00 
    0.0000000000000000E+00     1.2500000000052031E-01     0.0000000000000000E+00 
    0.0000000000000000E+00     6.2500000000260125E-02     0.0000000000000000E+00 
    6.2499999999897131E-02     6.2500000000235922E-02     0.0000000000000000E+00 
    6.2499999999921327E-02     1.2500000000047351E-01     0.0000000000000000E+00 
    6.2499999999945530E-02     1.8750000000070621E-01     0.0000000000000000E+00 
    6.2499999999969733E-02     2.5000000000093858E-01     0.0000000000000000E+00 
    6.2499999999993928E-02     3.1250000000117117E-01     0.0000000000000000E+00 
    6.2500000000018124E-02     3.7500000000140382E-01     0.0000000000000000E+00 
    6.2500000000042327E-02     4.3750000000163619E-01     0.0000000000000000E+00 
    6.2500000000066530E-02     5.0000000000184897E-01     0.0000000000000000E+00 
    6.2500000000090733E-02     5.6250000000147260E-01     0.0000000000000000E+00 
    6.2500000000114922E-02     6.2500000000107636E-01     0.0000000000000000E+00 
    6.2500000000139125E-02     6.8750000000068034E-01     0.0000000000000000E+00 
    6.2500000000163328E-02     7.5000000000028411E-01     0.0000000000000000E+00 
    6.2500000000187531E-02     8.1249999999988787E-01     0.0000000000000000E+00 
    6.2500000000211720E-02     8.7499999999951172E-01     0.0000000000000000E+00 
    6.2500000000235922E-02     9.3749999999974565E-01     0.0000000000000000E+00 
    1.2499999999981980E-01     6.2500000000211733E-02     0.0000000000000000E+00 
    1.2499999999986650E-01     1.2500000000042691E-01     0.0000000000000000E+00 
    1.2499999999991319E-01     1.8750000000063199E-01     0.0000000000000000E+00 
    1.2499999999995989E-01     2.5000000000083678E-01     0.0000000000000000E+00 
    1.2500000000000661E-01     3.1250000000104172E-01     0.0000000000000000E+00 
    1.2500000000005329E-01     3.7500000000124661E-01     0.0000000000000000E+00 
    1.2500000000010000E-01     4.3750000000145117E-01     0.0000000000000000E+00 
    1.2500000000014669E-01     5.0000000000163858E-01     0.0000000000000000E+00 
    1.2500000000019340E-01     5.6250000000129741E-01     0.0000000000000000E+00 
    1.2500000000024011E-01     6.2500000000093847E-01     0.0000000000000000E+00 
    1.2500000000028680E-01     6.8750000000057998E-01     0.0000000000000000E+00 
    1.2500000000033351E-01     7.5000000000022127E-01     0.0000000000000000E+00 
    1.2500000000038020E-01     8.1249999999986211E-01     0.0000000000000000E+00 
    1.2500000000042691E-01     8.7499999999952238E-01     0.0000000000000000E+00 
    1.2500000000047359E-01     9.3749999999975164E-01     0.0000000000000000E+00 
    1.8749999999966760E-01     6.2500000000187531E-02     0.0000000000000000E+00 
    1.8749999999974179E-01     1.2500000000038020E-01     0.0000000000000000E+00 
    1.8749999999981601E-01     1.8750000000055780E-01     0.0000000000000000E+00 
    1.8749999999989009E-01     2.5000000000073502E-01     0.0000000000000000E+00 
    1.8749999999996431E-01     3.1250000000091221E-01     0.0000000000000000E+00 
    1.8750000000003850E-01     3.7500000000108941E-01     0.0000000000000000E+00 
    1.8750000000011269E-01     4.3750000000126649E-01     0.0000000000000000E+00 
    1.8750000000018691E-01     5.0000000000142808E-01     0.0000000000000000E+00 
    1.8750000000026110E-01     5.6250000000112244E-01     0.0000000000000000E+00 
    1.8750000000033529E-01     6.2500000000080080E-01     0.0000000000000000E+00 
    1.8750000000040951E-01     6.8750000000047962E-01     0.0000000000000000E+00 
    1.8750000000048361E-01     7.5000000000015843E-01     0.0000000000000000E+00 
    1.8750000000055780E-01     8.1249999999983680E-01     0.0000000000000000E+00 
    1.8750000000063199E-01     8.7499999999953304E-01     0.0000000000000000E+00 
    1.8750000000070621E-01     9.3749999999975764E-01     0.0000000000000000E+00 
    2.4999999999951281E-01     6.2500000000163314E-02     0.0000000000000000E+00 
    2.4999999999961461E-01     1.2500000000033351E-01     0.0000000000000000E+00 
    2.4999999999971650E-01     1.8750000000048361E-01     0.0000000000000000E+00 
    2.4999999999981831E-01     2.5000000000063310E-01     0.0000000000000000E+00 
    2.4999999999992020E-01     3.1250000000078260E-01     0.0000000000000000E+00 
    2.5000000000002198E-01     3.7500000000093209E-01     0.0000000000000000E+00 
    2.5000000000012390E-01     4.3750000000108180E-01     0.0000000000000000E+00 
    2.5000000000022571E-01     5.0000000000121769E-01     0.0000000000000000E+00 
    2.5000000000032763E-01     5.6250000000094724E-01     0.0000000000000000E+00 
    2.5000000000042938E-01     6.2500000000066314E-01     0.0000000000000000E+00 
    2.5000000000053119E-01     6.8750000000037925E-01     0.0000000000000000E+00 
[...]
CELL_DATA 256 
SCALARS Pressure double 1 
LOOKUP_TABLE default 

    1.0975899886639235E+00 
    1.0394096957065824E+00 
    9.9542971229998578E-01 
    9.5080603537047537E-01 
    9.0227350366067782E-01 
    8.4946142828670146E-01 
    7.8905844737296171E-01 
    7.1435472982350290E-01 
    6.3727396779361789E-01 
    5.6962441728437507E-01 
    5.0563611701539268E-01 
    4.4683067237685931E-01 
    3.9586396827521941E-01 
    3.5626244339807450E-01 
    3.3118194474238943E-01 
    3.2109639399456119E-01 
    1.0836544813699867E+00 
    1.0414199224839960E+00 
    9.9882812145503841E-01 
    9.5473878727596428E-01 
    9.0679961048633284E-01 
    8.5459924349706240E-01 
    7.9492603594248201E-01 
    7.2109069219300226E-01 
    6.4414392574056101E-01 
    5.7592358324470050E-01 
    5.1134716537298341E-01 
    4.5166304129168278E-01 
    3.9943870722318420E-01 
    3.5826897962005655E-01 
    3.3164653612725226E-01 
    3.2065496482895106E-01 
    1.0725527311813503E+00 
    1.0408655121801136E+00 
    1.0010628481696309E+00 
    9.5789874652473173E-01 
    9.1073020673276484E-01 
    8.5919308981246378E-01 
    7.9997658559912466E-01 
    7.2694844197695185E-01 
    6.5066957331381592E-01 
    5.8198122895854054E-01 
    5.1672109731870297E-01 
    4.5596879758640374E-01 
    4.0220499447346320E-01 
    3.5915273567020539E-01 
    3.3080321281050079E-01 
    3.1904894809552758E-01 
    1.0630586041012005E+00 
    1.0386765562648839E+00 
    1.0021469363943472E+00 
    9.6031052178038179E-01 
    9.1407489992763480E-01 
    8.6327272189369297E-01 
    8.0428081886361102E-01 
    7.3201768728882743E-01 
    6.5686121431335653E-01 
    5.8781552921070901E-01 
    5.2182188878601399E-01 
    4.5984136095668499E-01 
    4.0425943113113105E-01 
    3.5895651752694158E-01 
    3.2857265663005747E-01 
    3.1605665915871106E-01 
    1.0546000491023286E+00 
    1.0354046968576085E+00 
    1.0022205166385445E+00 
    9.6205479140521621E-01 
    9.1689470334526879E-01 
    8.6687156711582836E-01 
    8.0790630524828477E-01 
    7.3639716644179376E-01 
    6.6274173255785684E-01 
    5.9345562532953677E-01 
    5.2671704133719199E-01 
    4.6338234747398677E-01 
    4.0571260907257395E-01 
    3.5773560762730705E-01 
    3.2487209525229577E-01 
    3.1144796064579688E-01 
    1.0470824516743256E+00 
    1.0315824736123145E+00 
    1.0015480558978154E+00 
    9.6325582034770030E-01 
    9.1927001442875200E-01 
    8.6995496015720386E-01 
    8.1088541737277764E-01 
    7.4024671073984105E-01 
    6.6832729848735783E-01 
    5.9893834203334451E-01 
    5.3147804220844330E-01 
    4.6670274373076448E-01 
    4.0669462823036179E-01 
    3.5556784156322663E-01 
    3.1961964014323058E-01 
    3.0496708080041046E-01 
    1.0404461107223184E+00 
    1.0275942856050211E+00 
    1.0003863924822376E+00 
    9.6403421637020992E-01 
    9.2127264757591887E-01 
    8.7240790923272937E-01 
    8.1321641940368616E-01 
    7.4383627588473133E-01 
    6.7363849504845408E-01 
    6.0430631514704336E-01 
    5.3618019676212114E-01 
    4.6992300418442201E-01 
    4.0736036277555249E-01 
    3.5256642965594059E-01 
    3.1274266428004416E-01 
    2.9631735651289054E-01 
    1.0346745169250118E+00 
    1.0237303832247866E+00 
    9.9897438543236283E-01 
    9.6451020759303530E-01 
    9.2292670727997883E-01 
    8.7413860111857111E-01 
    8.1500706283187163E-01 
    7.4749141655592366E-01 
    6.7874140133267857E-01 
    6.0960921091846310E-01 
    5.4090034192163916E-01 
    4.7317190433025613E-01 
    4.0789346284546557E-01 
    3.4889483416381795E-01 
    3.0419016051970954E-01 
    2.8513829482274949E-01 
    1.0297692622113750E+00 
    1.0202026511610121E+00 
    9.9751503207691050E-01 
    9.6477029084451493E-01 
    9.2406551474825094E-01 
    8.7514332366106862E-01 
    8.1665081306202347E-01 
    7.5136993429566046E-01 
    6.8374475522641032E-01 
    6.1490380955691781E-01 
    5.4571465032380029E-01 
    4.7658310256517200E-01 
    4.0850850294299734E-01 
    3.4478603230496696E-01 
    2.9395643079764056E-01 
    2.7097659513798683E-01 
    1.0255955878139222E+00 
    1.0170484967694686E+00 
    9.9604449796302508E-01 
    9.6461667917214688E-01 
    9.2443675498106581E-01 
    8.7573722200413806E-01 
    8.1865649744184332E-01 
    7.5539066179534642E-01 
    6.8874335597549752E-01 
    6.2024855048286953E-01 
    5.5069504791899881E-01 
    4.8028952497472277E-01 
    4.0944937841272755E-01 
    3.4056472995575027E-01 
    2.8212135338171979E-01 
    2.5324483614915627E-01 
    1.0214119121470964E+00 
    1.0136664165659972E+00 
    9.9402204098953162E-01 
    9.6373512626158853E-01 
    9.2433999557496638E-01 
    8.7669390664988744E-01 
    8.2123841762154604E-01 
    7.5950485457071737E-01 
    6.9380307187550849E-01 
    6.2569707439356437E-01 
    5.5590508777979475E-01 
    4.8441519631683766E-01 
    4.1098164712780150E-01 
    3.3667078094738173E-01 
    2.6891967310265680E-01 
    2.3116540567604704E-01 
    1.0175591502618022E+00 
    1.0102688894847140E+00 
    9.9180514880126858E-01 
    9.6284258348065055E-01 
    9.2473043403688260E-01 
    8.7837832192904375E-01 
    8.2426115693313085E-01 
    7.6379198876124643E-01 
    6.9897928996217240E-01 
    6.3129507868508972E-01 
    5.6139534510969924E-01 
    4.8906482399598056E-01 
    4.1337517559735742E-01 
    3.3367654527796969E-01 
    2.5485666776505195E-01 
    2.0368591682453319E-01 
    1.0148680698662216E+00 
    1.0079141310477915E+00 
    9.9050721625714033E-01 
    9.6283919036846410E-01 
    9.2591761705658870E-01 
    8.8064291893756286E-01 
    8.2767828845334612E-01 
    7.6831620126441613E-01 
    7.0432161409711969E-01 
    6.3707954608458817E-01 
    5.6720024309675987E-01 
    4.9431216418459939E-01 
    4.1687470832781126E-01 
    3.3228613456697448E-01 
    2.4090449683311344E-01 
    1.6935408637704824E-01 
    1.0131237911327238E+00 
    1.0064963433958871E+00 
    9.9003644223311849E-01 
    9.6352720673361369E-01 
    9.2771544879621304E-01 
    8.8345989515907730E-01 
    8.3152425742930058E-01 
    7.7312808876954831E-01 
    7.0987310402896120E-01 
    6.4307882544073469E-01 
    5.7333661284046611E-01 
    5.0018985472813793E-01 
    4.2165670275141809E-01 
    3.3328673573005246E-01 
    2.2883160492216850E-01 
    1.2612901432390833E-01 
    1.0121855265550879E+00 
    1.0059366155159497E+00 
    9.9036614757448194E-01 
    9.6492275432645258E-01 
    9.3014681427613466E-01 
    8.8684623238853599E-01 
    8.3583026065602284E-01 
    7.7827137441596494E-01 
    7.1567079245039089E-01 
    6.4931341232117268E-01 
    5.7980452604636756E-01 
    5.0668432286665610E-01 
    4.2777764935634272E-01 
    3.3739485231744842E-01 
    2.2175564140283821E-01 
    7.1093117009242937E-02 
    1.0119257846438170E+00 
    1.0061782826069399E+00 
    9.9149017412570284E-01 
    9.6704446103405950E-01 
    9.3323382999938653E-01 
    8.9082252312555044E-01 
    8.4062718421219418E-01 
    7.8378518222842586E-01 
    7.2174679836213873E-01 
    6.5579732297305660E-01 
    5.8659034296245527E-01 
    5.1373980136800323E-01 
    4.3513619742164722E-01 
    3.4488696808780117E-01 
    2.2507142028283048E-01 
    0.0000000000000000E+00 

SCALARS Saturarion double 1 
LOOKUP_TABLE default 

    1.0000000000003866E+00 
    9.3009271133709914E-01 
    8.3354905819696601E-01 
    7.1470359288919794E-01 
    6.3639430187798030E-01 
    5.7065536742572542E-01 
    4.7629092264517620E-01 
    1.6751977533305110E-01 
    2.2175555452191920E-06 
    1.0000000000018192E-06 
    9.9999999999999974E-07 
    9.9999999999999995E-07 
    9.9999999999999995E-07 
    9.9999999999999995E-07 
    9.9999999999999995E-07 
    9.9999999999999995E-07 
    9.6539355463924270E-01 
    9.0158437387299606E-01 
    8.0555469644223743E-01 
    7.0517684742005327E-01 
    6.2807288198803735E-01 
    5.6424590318226042E-01 
    4.6942575795128749E-01 
    1.5340392706666725E-01 
    3.5304414110400376E-06 
    1.0000029907711917E-06 
    1.0000000000024104E-06 
    9.9999999999999995E-07 
    9.9999999999999995E-07 
    9.9999999999999995E-07 
    9.9999999999999995E-07 
    9.9999999999999995E-07 
    9.0772860318708537E-01 
    8.5702283823615577E-01 
    7.6646076923117179E-01 
    6.8590345534676644E-01 
    6.1387920409259733E-01 
    5.5294760598353598E-01 
    4.5895217608043615E-01 
    1.3537166882827001E-01 
    8.4850612065892871E-06 
    1.0000151860833785E-06 
    1.0000000000106916E-06 
    9.9999999999999995E-07 
    9.9999999999999995E-07 
    9.9999999999999995E-07 
    9.9999999999999995E-07 
    9.9999999999999995E-07 
    8.2594766006824782E-01 
    7.8777942325203376E-01 
    7.1739304185024677E-01 
    6.5667136293192829E-01 
    5.9964816235161167E-01 
    5.4353474616857822E-01 
    4.4663181467911794E-01 
    1.1502147952376698E-01 
    1.1744574166318597E-05 
    1.0000287256016440E-06 
    1.0000000000125602E-06 
    9.9999999999999995E-07 
    9.9999999999999995E-07 
    9.9999999999999995E-07 
    9.9999999999999995E-07 
    9.9999999999999995E-07 
    7.5490291284259858E-01 
    7.2660988162224693E-01 
    6.7386397319123736E-01 
    6.2601744207628607E-01 
    5.8164710334683090E-01 
    5.3044922827167684E-01 
    4.2473544359429416E-01 
    8.0792394528876751E-02 
    2.9744354781877652E-05 
    1.0000794878209725E-06 
    1.0000000000183092E-06 
    9.9999999999999995E-07 
    9.9999999999999995E-07 
    9.9999999999999995E-07 
    9.9999999999999995E-07 
    9.9999999999999995E-07 
    6.9188666464578796E-01 
    6.7271871607002320E-01 
    6.3392431535666594E-01 
    5.9542025617034100E-01 
    5.5920332628855551E-01 
    5.1107485130817021E-01 
    3.7453374556657199E-01 
    3.3980095155650335E-02 
    2.7698010052910586E-05 
    1.0000941031273053E-06 
    9.9999999999999995E-07 
    9.9999999999999995E-07 
    9.9999999999999995E-07 
    9.9999999999999995E-07 
    9.9999999999999995E-07 
    9.9999999999999995E-07 
    6.3577001085157492E-01 
    6.2469826339479495E-01 
    5.9728300880555596E-01 
    5.6478627738145082E-01 
    5.3315253340258251E-01 
    4.8382704891232264E-01 
    2.8557114581903975E-01 
    5.4300133585734080E-03 
    2.0167546530268861E-06 
    1.0000003360133396E-06 
    1.0000000000000010E-06 
    9.9999999999999995E-07 
    9.9999999999999995E-07 
    9.9999999999999995E-07 
    9.9999999999999995E-07 
    9.9999999999999995E-07 
    5.8718957471724265E-01 
    5.8260690475127019E-01 
    5.6346509773975484E-01 
    5.3589845141361148E-01 
    5.0502515783405943E-01 
    4.3385742369575558E-01 
    1.4989582738511351E-01 
    2.5272686091764007E-04 
    1.0225342837345928E-06 
    1.0000000000785045E-06 
    9.9999999999999995E-07 
    9.9999999999999995E-07 
    9.9999999999999995E-07 
    9.9999999999999995E-07 
    9.9999999999999995E-07 
    9.9999999999999995E-07 
    5.4602658374715685E-01 
    5.4452046049228231E-01 
    5.2991657374099654E-01 
    5.0664937311772651E-01 
    4.6300188606507936E-01 
    3.0208235936228744E-01 
    2.2314592949390883E-02 
    2.4085217218884163E-05 
    1.0000504826415960E-06 
    1.0000000000000019E-06 
    9.9999999999999995E-07 
    9.9999999999999995E-07 
    9.9999999999999995E-07 
    9.9999999999999995E-07 
    9.9999999999999995E-07 
    9.9999999999999995E-07 
    4.9473609924827538E-01 
    4.9509577328534377E-01 
    4.8470734953926126E-01 
    4.4767535973116135E-01 
    3.2470222587595432E-01 
    7.3341331417173639E-02 
    2.4530324015258780E-04 
    1.0096613542859404E-06 
    1.0000000000060658E-06 
    9.9999999999999995E-07 
    9.9999999999999995E-07 
    9.9999999999999995E-07 
    9.9999999999999995E-07 
    9.9999999999999995E-07 
    9.9999999999999995E-07 
    9.9999999999999995E-07 
    3.2988651546665099E-01 
    3.6069651313743506E-01 
    3.2180158663127106E-01 
    1.9362674389643428E-01 
    4.3750460911005443E-02 
    2.7680349078385334E-04 
    1.0159821040751132E-06 
    1.0000000023284042E-06 
    1.0000000000000002E-06 
    9.9999999999999995E-07 
    9.9999999999999995E-07 
    9.9999999999999995E-07 
    9.9999999999999995E-07 
    9.9999999999999995E-07 
    9.9999999999999995E-07 
    9.9999999999999995E-07 
    8.5864237251111978E-03 
    2.5201082423385656E-02 
    1.1813385281242560E-02 
    5.0877644521752589E-04 
    6.9925881490769882E-05 
    1.0067899549341020E-06 
    1.0000000025331420E-06 
    1.0000000000000004E-06 
    9.9999999999999995E-07 
    9.9999999999999995E-07 
    9.9999999999999995E-07 
    9.9999999999999995E-07 
    9.9999999999999995E-07 
    9.9999999999999995E-07 
    9.9999999999999995E-07 
    9.9999999999999995E-07 
    1.0000006499975747E-06 
    2.0498141175835118E-06 
    3.3170005421805737E-06 
    1.0217718895289281E-06 
    1.0002947443557602E-06 
    1.0000000000913152E-06 
    9.9999999999999995E-07 
    9.9999999999999995E-07 
    9.9999999999999995E-07 
    9.9999999999999995E-07 
    9.9999999999999995E-07 
    9.9999999999999995E-07 
    9.9999999999999995E-07 
    9.9999999999999995E-07 
    9.9999999999999995E-07 
    9.9999999999999995E-07 
    1.0000000000000950E-06 
    1.0000002708939754E-06 
    1.0000002390083804E-06 
    1.0000000009671208E-06 
    1.0000000000000023E-06 
    9.9999999999999995E-07 
    9.9999999999999995E-07 
    9.9999999999999995E-07 
    9.9999999999999995E-07 
    9.9999999999999995E-07 
    9.9999999999999995E-07 
    9.9999999999999995E-07 
    9.9999999999999995E-07 
    9.9999999999999995E-07 
    9.9999999999999995E-07 
    9.9999999999999995E-07 
    9.9999999999999995E-07 
    1.0000000000000004E-06 
    1.0000000000000080E-06 
    9.9999999999999974E-07 
    9.9999999999999995E-07 
    9.9999999999999995E-07 
    9.9999999999999995E-07 
    9.9999999999999995E-07 
    9.9999999999999995E-07 
    9.9999999999999995E-07 
    9.9999999999999995E-07 
    9.9999999999999995E-07 
    9.9999999999999995E-07 
    9.9999999999999995E-07 
    9.9999999999999995E-07 
    9.9999999999999995E-07 
    9.9999999999999995E-07 
    9.9999999999999995E-07 
    9.9999999999999995E-07 
    9.9999999999999995E-07 
    9.9999999999999995E-07 
    9.9999999999999995E-07 
    9.9999999999999995E-07 
    9.9999999999999995E-07 
    9.9999999999999995E-07 
    9.9999999999999995E-07 
    9.9999999999999995E-07 
    9.9999999999999995E-07 
    9.9999999999999995E-07 
    9.9999999999999995E-07 
    9.9999999999999995E-07 
    1.0000002022349318E-06 
