# vtk DataFile Version 2.0
Pressure Field Data 
ASCII 
DATASET UNSTRUCTURED_GRID 

POINTS 289 double 

    0.0000000000000000E+00     0.0000000000000000E+00     0.0000000000000000E+00 
    1.0000000000000000E+00     0.0000000000000000E+00     0.0000000000000000E+00 
    1.0000000000000000E+00     1.0000000000000000E+00     0.0000000000000000E+00 
    0.0000000000000000E+00     1.0000000000000000E+00     0.0000000000000000E+00 
    6.2499999999872928E-02     0.0000000000000000E+00     0.0000000000000000E+00 
    1.2499999999977310E-01     0.0000000000000000E+00     0.0000000000000000E+00 
    1.8749999999959341E-01     0.0000000000000000E+00     0.0000000000000000E+00 
    2.4999999999941089E-01     0.0000000000000000E+00     0.0000000000000000E+00 
    3.1249999999922851E-01     0.0000000000000000E+00     0.0000000000000000E+00 
    3.7499999999904610E-01     0.0000000000000000E+00     0.0000000000000000E+00 
    4.3749999999886358E-01     0.0000000000000000E+00     0.0000000000000000E+00 
    4.9999999999869210E-01     0.0000000000000000E+00     0.0000000000000000E+00 
    5.6249999999884603E-01     0.0000000000000000E+00     0.0000000000000000E+00 
    6.2499999999901090E-01     0.0000000000000000E+00     0.0000000000000000E+00 
    6.8749999999917577E-01     0.0000000000000000E+00     0.0000000000000000E+00 
    7.4999999999934064E-01     0.0000000000000000E+00     0.0000000000000000E+00 
    8.1249999999950551E-01     0.0000000000000000E+00     0.0000000000000000E+00 
    8.7499999999967026E-01     0.0000000000000000E+00     0.0000000000000000E+00 
    9.3749999999983513E-01     0.0000000000000000E+00     0.0000000000000000E+00 
    1.0000000000000000E+00     6.2499999999872928E-02     0.0000000000000000E+00 
    1.0000000000000000E+00     1.2499999999977310E-01     0.0000000000000000E+00 
    1.0000000000000000E+00     1.8749999999959341E-01     0.0000000000000000E+00 
    1.0000000000000000E+00     2.4999999999941089E-01     0.0000000000000000E+00 
    1.0000000000000000E+00     3.1249999999922851E-01     0.0000000000000000E+00 
    1.0000000000000000E+00     3.7499999999904610E-01     0.0000000000000000E+00 
    1.0000000000000000E+00     4.3749999999886358E-01     0.0000000000000000E+00 
    1.0000000000000000E+00     4.9999999999869210E-01     0.0000000000000000E+00 
    1.0000000000000000E+00     5.6249999999884603E-01     0.0000000000000000E+00 
    1.0000000000000000E+00     6.2499999999901090E-01     0.0000000000000000E+00 
    1.0000000000000000E+00     6.8749999999917577E-01     0.0000000000000000E+00 
    1.0000000000000000E+00     7.4999999999934064E-01     0.0000000000000000E+00 
    1.0000000000000000E+00     8.1249999999950551E-01     0.0000000000000000E+00 
    1.0000000000000000E+00     8.7499999999967026E-01     0.0000000000000000E+00 
    1.0000000000000000E+00     9.3749999999983513E-01     0.0000000000000000E+00 
    9.3749999999973976E-01     1.0000000000000000E+00     0.0000000000000000E+00 
    8.7499999999950118E-01     1.0000000000000000E+00     0.0000000000000000E+00 
    8.1249999999991318E-01     1.0000000000000000E+00     0.0000000000000000E+00 
    7.5000000000034706E-01     1.0000000000000000E+00     0.0000000000000000E+00 
    6.8750000000078049E-01     1.0000000000000000E+00     0.0000000000000000E+00 
    6.2500000000121403E-01     1.0000000000000000E+00     0.0000000000000000E+00 
    5.6250000000164757E-01     1.0000000000000000E+00     0.0000000000000000E+00 
    5.0000000000205946E-01     1.0000000000000000E+00     0.0000000000000000E+00 
    4.3750000000182099E-01     1.0000000000000000E+00     0.0000000000000000E+00 
    3.7500000000156092E-01     1.0000000000000000E+00     0.0000000000000000E+00 
    3.1250000000130068E-01     1.0000000000000000E+00     0.0000000000000000E+00 
    2.5000000000104050E-01     1.0000000000000000E+00     0.0000000000000000E+00 
    1.8750000000078040E-01     1.0000000000000000E+00     0.0000000000000000E+00 
    1.2500000000052031E-01     1.0000000000000000E+00     0.0000000000000000E+00 
    6.2500000000260125E-02     1.0000000000000000E+00     0.0000000000000000E+00 
    0.0000000000000000E+00     9.3749999999973976E-01     0.0000000000000000E+00 
    0.0000000000000000E+00     8.7499999999950118E-01     0.0000000000000000E+00 
    0.0000000000000000E+00     8.1249999999991318E-01     0.0000000000000000E+00 
    0.0000000000000000E+00     7.5000000000034706E-01     0.0000000000000000E+00 
    0.0000000000000000E+00     6.8750000000078049E-01     0.0000000000000000E+00 
    0.0000000000000000E+00     6.2500000000121403E-01     0.0000000000000000E+00 
    0.0000000000000000E+00     5.6250000000164757E-01     0.0000000000000000E+00 
    0.0000000000000000E+00     5.0000000000205946E-01     0.0000000000000000E+00 
    0.0000000000000000E+00     4.3750000000182099E-01     0.0000000000000000E+00 
    0.0000000000000000E+00     3.7500000000156092E-01     0.0000000000000000E+00 
    0.0000000000000000E+00     3.1250000000130068E-01     0.0000000000000000E+00 
    0.0000000000000000E+00     2.5000000000104050E-01     0.0000000000000000E+00 
    0.0000000000000000E+00     1.8750000000078040E-01     0.0000000000000000E+00 
    0.0000000000000000E+00     1.2500000000052031E-01     0.0000000000000000E+00 
    0.0000000000000000E+00     6.2500000000260125E-02     0.0000000000000000E+00 
    6.2499999999897131E-02     6.2500000000235922E-02     0.0000000000000000E+00 
    6.2499999999921327E-02     1.2500000000047351E-01     0.0000000000000000E+00 
    6.2499999999945530E-02     1.8750000000070621E-01     0.0000000000000000E+00 
    6.2499999999969733E-02     2.5000000000093858E-01     0.0000000000000000E+00 
    6.2499999999993928E-02     3.1250000000117117E-01     0.0000000000000000E+00 
    6.2500000000018124E-02     3.7500000000140382E-01     0.0000000000000000E+00 
    6.2500000000042327E-02     4.3750000000163619E-01     0.0000000000000000E+00 
    6.2500000000066530E-02     5.0000000000184897E-01     0.0000000000000000E+00 
    6.2500000000090733E-02     5.6250000000147260E-01     0.0000000000000000E+00 
    6.2500000000114922E-02     6.2500000000107636E-01     0.0000000000000000E+00 
    6.2500000000139125E-02     6.8750000000068034E-01     0.0000000000000000E+00 
    6.2500000000163328E-02     7.5000000000028411E-01     0.0000000000000000E+00 
    6.2500000000187531E-02     8.1249999999988787E-01     0.0000000000000000E+00 
    6.2500000000211720E-02     8.7499999999951172E-01     0.0000000000000000E+00 
    6.2500000000235922E-02     9.3749999999974565E-01     0.0000000000000000E+00 
    1.2499999999981980E-01     6.2500000000211733E-02     0.0000000000000000E+00 
    1.2499999999986650E-01     1.2500000000042691E-01     0.0000000000000000E+00 
    1.2499999999991319E-01     1.8750000000063199E-01     0.0000000000000000E+00 
    1.2499999999995989E-01     2.5000000000083678E-01     0.0000000000000000E+00 
    1.2500000000000661E-01     3.1250000000104172E-01     0.0000000000000000E+00 
    1.2500000000005329E-01     3.7500000000124661E-01     0.0000000000000000E+00 
    1.2500000000010000E-01     4.3750000000145117E-01     0.0000000000000000E+00 
    1.2500000000014669E-01     5.0000000000163858E-01     0.0000000000000000E+00 
    1.2500000000019340E-01     5.6250000000129741E-01     0.0000000000000000E+00 
    1.2500000000024011E-01     6.2500000000093847E-01     0.0000000000000000E+00 
    1.2500000000028680E-01     6.8750000000057998E-01     0.0000000000000000E+00 
    1.2500000000033351E-01     7.5000000000022127E-01     0.0000000000000000E+00 
    1.2500000000038020E-01     8.1249999999986211E-01     0.0000000000000000E+00 
    1.2500000000042691E-01     8.7499999999952238E-01     0.0000000000000000E+00 
    1.2500000000047359E-01     9.3749999999975164E-01     0.0000000000000000E+00 
    1.8749999999966760E-01     6.2500000000187531E-02     0.0000000000000000E+00 
    1.8749999999974179E-01     1.2500000000038020E-01     0.0000000000000000E+00 
    1.8749999999981601E-01     1.8750000000055780E-01     0.0000000000000000E+00 
    1.8749999999989009E-01     2.5000000000073502E-01     0.0000000000000000E+00 
    1.8749999999996431E-01     3.1250000000091221E-01     0.0000000000000000E+00 
    1.8750000000003850E-01     3.7500000000108941E-01     0.0000000000000000E+00 
    1.8750000000011269E-01     4.3750000000126649E-01     0.0000000000000000E+00 
    1.8750000000018691E-01     5.0000000000142808E-01     0.0000000000000000E+00 
    1.8750000000026110E-01     5.6250000000112244E-01     0.0000000000000000E+00 
    1.8750000000033529E-01     6.2500000000080080E-01     0.0000000000000000E+00 
    1.8750000000040951E-01     6.8750000000047962E-01     0.0000000000000000E+00 
    1.8750000000048361E-01     7.5000000000015843E-01     0.0000000000000000E+00 
    1.8750000000055780E-01     8.1249999999983680E-01     0.0000000000000000E+00 
    1.8750000000063199E-01     8.7499999999953304E-01     0.0000000000000000E+00 
    1.8750000000070621E-01     9.3749999999975764E-01     0.0000000000000000E+00 
    2.4999999999951281E-01     6.2500000000163314E-02     0.0000000000000000E+00 
    2.4999999999961461E-01     1.2500000000033351E-01     0.0000000000000000E+00 
    2.4999999999971650E-01     1.8750000000048361E-01     0.0000000000000000E+00 
    2.4999999999981831E-01     2.5000000000063310E-01     0.0000000000000000E+00 
    2.4999999999992020E-01     3.1250000000078260E-01     0.0000000000000000E+00 
    2.5000000000002198E-01     3.7500000000093209E-01     0.0000000000000000E+00 
    2.5000000000012390E-01     4.3750000000108180E-01     0.0000000000000000E+00 
    2.5000000000022571E-01     5.0000000000121769E-01     0.0000000000000000E+00 
    2.5000000000032763E-01     5.6250000000094724E-01     0.0000000000000000E+00 
    2.5000000000042938E-01     6.2500000000066314E-01     0.0000000000000000E+00 
    2.5000000000053119E-01     6.8750000000037925E-01     0.0000000000000000E+00 
[...]
CELL_DATA 256 
SCALARS Pressure double 1 
LOOKUP_TABLE default 

    6.6190460775708404E-01 
    6.1236598018118471E-01 
    5.8106143423939272E-01 
    5.5293562103141825E-01 
    5.2453400013235485E-01 
    4.9498303030705054E-01 
    4.6403435190608683E-01 
    4.3177163177195838E-01 
    3.9848759649392368E-01 
    3.6469451151049181E-01 
    3.3122306037161842E-01 
    2.9940000308375353E-01 
    2.7117655759866105E-01 
    2.4895206282425156E-01 
    2.3476762052285444E-01 
    2.2795748398175969E-01 
    6.4791186716264371E-01 
    6.1361073273540723E-01 
    5.8339387074431914E-01 
    5.5548551154495973E-01 
    5.2726449031467959E-01 
    4.9788297003382870E-01 
    4.6708525789765243E-01 
    4.3493572472229131E-01 
    4.0170130934942838E-01 
    3.6785749184131533E-01 
    3.3418248724677846E-01 
    3.0193849634412234E-01 
    2.7303543016399018E-01 
    2.4992611951368235E-01 
    2.3489464751434200E-01 
    2.2755798594690219E-01 
    6.3717738932200452E-01 
    6.1272984276576348E-01 
    5.8498551152779454E-01 
    5.5771346957859003E-01 
    5.2980989889610808E-01 
    5.0065141325194440E-01 
    4.7002573552304011E-01 
    4.3799180848848340E-01 
    4.0479014759220111E-01 
    3.7085196019586636E-01 
    3.3689094821400373E-01 
    3.0409079704563446E-01 
    2.7431713646734734E-01 
    2.5011138700618102E-01 
    2.3409162570294137E-01 
    2.2627530668831145E-01 
    6.2875852628581230E-01 
    6.1078407068665452E-01 
    5.8587884754439346E-01 
    5.5959679316566868E-01 
    5.3216148487766646E-01 
    5.0329149820171781E-01 
    4.7286502550678899E-01 
    4.4095313381862183E-01 
    4.0777370618284425E-01 
    3.7370868356860110E-01 
    3.3939505832891598E-01 
    3.0591915612196163E-01 
    2.7508529268712367E-01 
    2.4953824871266156E-01 
    2.3231593177766083E-01 
    2.2397926019487796E-01 
    6.2201670754871929E-01 
    6.0836829367012601E-01 
    5.8620849251626828E-01 
    5.6114490663236571E-01 
    5.3431569910886190E-01 
    5.0580513882961975E-01 
    4.7561207279350953E-01 
    4.4383487730081833E-01 
    4.1067467972094446E-01 
    3.7646210285201648E-01 
    3.4174588400825467E-01 
    3.0749242678432220E-01 
    2.7541322984730848E-01 
    2.4824459883943267E-01 
    2.2951998863712628E-01 
    2.2053022533733604E-01 
    6.1654747915833596E-01 
    6.0582651362642026E-01 
    5.8612581181394519E-01 
    5.6239146784356941E-01 
    5.3627724491127327E-01 
    5.0819411490538868E-01 
    4.7827395115134991E-01 
    4.4665178684615414E-01 
    4.1351717596458115E-01 
    3.7914956551465462E-01 
    3.4399915328937469E-01 
    3.0888718611020460E-01 
    2.7538669256515935E-01 
    2.4628223416149186E-01 
    2.2565400877633254E-01 
    2.1576268206374818E-01 
    6.1208226946812172E-01 
    6.0336461060675595E-01 
    5.8577697098743342E-01 
    5.6338930063983172E-01 
    5.3806427642216870E-01 
    5.1046684390656005E-01 
    4.8085854725905852E-01 
    4.4941721078786873E-01 
    4.1632439035566776E-01 
    3.8180883560939755E-01 
    3.4621430705674561E-01 
    3.1018894579761247E-01 
    2.7510780270861723E-01 
    2.4372517214524894E-01 
    2.2067696190160743E-01 
    2.0948916781334859E-01 
    6.0843224912001337E-01 
    6.0110243053431522E-01 
    5.8528937887362742E-01 
    5.6420153764559555E-01 
    5.3970578854466322E-01 
    5.1263879879872021E-01 
    4.8337690922010407E-01 
    4.5214355518275506E-01 
    4.1911615113654699E-01 
    3.8447456872750013E-01 
    3.4845082983773146E-01 
    3.1149171979682266E-01 
    2.7470014095051332E-01 
    2.4067834391068177E-01 
    2.1456339273316891E-01 
    2.0148899052285388E-01 
    6.0545969750704320E-01 
    5.9910525783790625E-01 
    5.8476645141281558E-01 
    5.6489341620258482E-01 
    5.4123598546498553E-01 
    5.1472909925103039E-01 
    4.8584240320584754E-01 
    4.5484351191986483E-01 
    4.2190931139302840E-01 
    3.8717566331453596E-01 
    3.5076297034421311E-01 
    3.1289281069496577E-01 
    2.7431078211790366E-01 
    2.3728996283469309E-01 
    2.0731216563690097E-01 
    1.9148125567122939E-01 
    6.0306403280450016E-01 
    5.9740698285303417E-01 
    5.8428845700377152E-01 
    5.6552631302121292E-01 
    5.4269137392309819E-01 
    5.1675905749706208E-01 
    4.8827002853971607E-01 
    4.5753087524511410E-01 
    4.2471953618231018E-01 
    3.8993578718653488E-01 
    3.5319697103128406E-01 
    3.1448681647417753E-01 
    2.7410818877485660E-01 
    2.3376554401947416E-01 
    1.9896600970072431E-01 
    1.7909344850147285E-01 
    6.0117047620510156E-01 
    5.9602462694230118E-01 
    5.8391807493579306E-01 
    5.6615663049019216E-01 
    5.4411016395334744E-01 
    5.1875336833552244E-01 
    4.9067719283570982E-01 
    4.6022109338796824E-01 
    4.2756299377728380E-01 
    3.9277570962982422E-01 
    3.5579159708016378E-01 
    3.1636151053439837E-01 
    2.7427858056681997E-01 
    2.3038390552066521E-01 
    1.8965233859997616E-01 
    1.6383297826586304E-01 
    5.9972017954709445E-01 
    5.9496539679603155E-01 
    5.8370557108144150E-01 
    5.6683646140498745E-01 
    5.4553188340373671E-01 
    5.2074022433597977E-01 
    4.9308505549647214E-01 
    4.6293238114189805E-01 
    4.3045707110093717E-01 
    3.9571453296211784E-01 
    3.5857869726602909E-01 
    3.1859370129194697E-01 
    2.7501967923764098E-01 
    2.2751905313391371E-01 
    1.7965505648406499E-01 
    1.4501747339641718E-01 
    5.9866872343254840E-01 
    5.9423378865286258E-01 
    5.8369413606178810E-01 
    5.6761609690321024E-01 
    5.4699820240215880E-01 
    5.2275144685651942E-01 
    4.9551893813277126E-01 
    4.6568704073651235E-01 
    4.3342133128688243E-01 
    3.9876993304233072E-01 
    3.6158297717999949E-01 
    3.2124258356787488E-01 
    2.7652371099127721E-01 
    2.2565185781777514E-01 
    1.6952830646804454E-01 
    1.2163033980591781E-01 
    5.9798865889135988E-01 
    5.9384416084665648E-01 
    5.8393094467112161E-01 
    5.6855001721888143E-01 
    5.4855499545336539E-01 
    5.2482077026951057E-01 
    4.9800423183968562E-01 
    4.6850736348508987E-01 
    4.3647285766715482E-01 
    4.0194652235220985E-01 
    3.6480572640824627E-01 
    3.2432798122820566E-01 
    2.7893411836936299E-01 
    2.2535123550516267E-01 
    1.6036206598487782E-01 
    9.2141131863580569E-02 
    5.9757162356492199E-01 
    5.9374109981386380E-01 
    5.8441172766263416E-01 
    5.6965246346703313E-01 
    5.5021046578636768E-01 
    5.2693844566727410E-01 
    5.0050656596650223E-01 
    4.7134256447435607E-01 
    4.3955567780398525E-01 
    4.0517894264189180E-01 
    3.6814872598788762E-01 
    3.2771633776293746E-01 
    2.8216695529890823E-01 
    2.2697096735206471E-01 
    1.5393138242283952E-01 
    5.4052690791520523E-02 
    5.9742749884986723E-01 
    5.9393030143956771E-01 
    5.8514555621845821E-01 
    5.7094297817769091E-01 
    5.5198900994693034E-01 
    5.2912737366147100E-01 
    5.0303409590059545E-01 
    4.7417982254099933E-01 
    4.4266672315451544E-01 
    4.0851320044536354E-01 
    3.7169463607957010E-01 
    3.3151864221247385E-01 
    2.8638166739242610E-01 
    2.3098781837526572E-01 
    1.5338137665064447E-01 
    0.0000000000000000E+00 

SCALARS Saturarion double 1 
LOOKUP_TABLE default 

    1.0000000000000004E+00 
    9.7844111111570065E-01 
    9.3885335501936951E-01 
    8.8455281919783124E-01 
    8.3919229239226567E-01 
    7.9913291489964289E-01 
    7.6398495917484510E-01 
    7.3324432207998325E-01 
    7.0600801940612679E-01 
    6.8128758790413257E-01 
    6.5804435925445925E-01 
    6.3501994496971204E-01 
    6.1022846599949998E-01 
    5.7993891689138644E-01 
    5.3295775418736380E-01 
    3.0051585679367743E-01 
    9.9202637202126021E-01 
    9.7163386351850678E-01 
    9.3011454676964223E-01 
    8.7829318367096820E-01 
    8.3410586295005051E-01 
    7.9539122486224301E-01 
    7.6129027761367107E-01 
    7.3118598145589475E-01 
    7.0439118989356420E-01 
    6.8003950689591020E-01 
    6.5730684677052409E-01 
    6.3507794819033703E-01 
    6.1134569764214330E-01 
    5.8207116402282577E-01 
    5.3715747732810160E-01 
    3.2319201852688328E-01 
    9.7941393679089417E-01 
    9.5891897086315736E-01 
    9.1712593460767677E-01 
    8.6690911848158259E-01 
    8.2407395134902883E-01 
    7.8759606075221933E-01 
    7.5564794865411755E-01 
    7.2694711475901141E-01 
    7.0094781287908947E-01 
    6.7711746000746698E-01 
    6.5494996385769977E-01 
    6.3361051247443667E-01 
    6.1148293952690735E-01 
    5.8450456140033480E-01 
    5.4278129406917341E-01 
    3.4410023658096101E-01 
    9.5743112044107859E-01 
    9.4010908818528538E-01 
    9.0113811962475365E-01 
    8.5489842258176207E-01 
    8.1279202015569052E-01 
    7.7719302572800564E-01 
    7.4662824999261346E-01 
    7.1966734941730437E-01 
    6.9521624859742182E-01 
    6.7280219711103095E-01 
    6.5180641665440142E-01 
    6.3158256431444326E-01 
    6.1090706020669505E-01 
    5.8640964303601717E-01 
    5.4834355543369995E-01 
    3.6446665909305209E-01 
    9.3026791729023717E-01 
    9.1477959234221184E-01 
    8.7976631000534700E-01 
    8.3806490955485935E-01 
    7.9802412314023619E-01 
    7.6319577629594926E-01 
    7.3365290755259660E-01 
    7.0819600118627213E-01 
    6.8574675556063547E-01 
    6.6552170097629693E-01 
    6.4687650733073510E-01 
    6.2887308725366653E-01 
    6.1007483705810561E-01 
    5.8775858993630403E-01 
    5.5307370774704756E-01 
    3.8155403932836973E-01 
    8.9935405041540595E-01 
    8.8634276673405132E-01 
    8.5577425259560702E-01 
    8.1786478059318313E-01 
    7.8075415773614509E-01 
    7.4763294632163901E-01 
    7.1891705325240340E-01 
    6.9440353820190703E-01 
    6.7336591446140981E-01 
    6.5507756417523200E-01 
    6.3893370515297609E-01 
    6.2411197903961646E-01 
    6.0853969765807747E-01 
    5.8877764684793565E-01 
    5.5742374957074070E-01 
    3.9708088779881223E-01 
    8.6560047505560700E-01 
    8.5566768943054294E-01 
    8.2982219112451883E-01 
    7.9587457004936890E-01 
    7.6203132111296346E-01 
    7.3127983790662721E-01 
    7.0421194509709140E-01 
    6.8046681392131059E-01 
    6.6009817964741102E-01 
    6.4293976397257435E-01 
    6.2871882684202185E-01 
    6.1678036474454290E-01 
    6.0526570337473129E-01 
    5.8943210068939178E-01 
    5.6151458735833093E-01 
    4.1237320648616677E-01 
    8.2883339411815271E-01 
    8.2240742410701595E-01 
    8.0202021648278676E-01 
    7.7266594806803290E-01 
    7.4190796439559747E-01 
    7.1339235251935762E-01 
    6.8785713980942031E-01 
    6.6547649094679673E-01 
    6.4611938678796044E-01 
    6.2990402713599392E-01 
    6.1689699015122346E-01 
    6.0720032161570159E-01 
    5.9956681322988703E-01 
    5.8898208681344799E-01 
    5.6538097641868479E-01 
    4.2780766582543311E-01 
    7.8914263474926838E-01 
    7.8620076562526675E-01 
    7.7125531837210182E-01 
    7.4689496915526754E-01 
    7.1972931768209703E-01 
    6.9343931500034550E-01 
    6.6957997276853642E-01 
    6.4845967821265216E-01 
    6.3017691621753080E-01 
    6.1486446542026107E-01 
    6.0299971488877158E-01 
    5.9516599952524207E-01 
    5.9110929702690340E-01 
    5.8644806022993246E-01 
    5.6882195824776549E-01 
    4.4258957312550190E-01 
    7.4657195349126315E-01 
    7.4694426557673299E-01 
    7.3716403925423513E-01 
    7.1759204002534005E-01 
    6.9426816110403777E-01 
    6.7069625373340092E-01 
    6.4857851778131093E-01 
    6.2900714228534016E-01 
    6.1208678697923402E-01 
    5.9780010589396848E-01 
    5.8665687527771204E-01 
    5.8010298659725978E-01 
    5.7922253811838365E-01 
    5.8093997837629763E-01 
    5.7083546514789507E-01 
    4.5722827951170680E-01 
    7.0078795643455272E-01 
    7.0427460352059212E-01 
    6.9935375944417288E-01 
    6.8425404713566373E-01 
    6.6480443987565807E-01 
    6.4447400542378397E-01 
    6.2505514518721783E-01 
    6.0721665143573822E-01 
    5.9166932356189106E-01 
    5.7862816379722481E-01 
    5.6848940568359840E-01 
    5.6249270223995007E-01 
    5.6330534399835674E-01 
    5.7121591049033282E-01 
    5.7043174314382805E-01 
    4.7203732374428747E-01 
    6.5039941512246380E-01 
    6.5694291124089088E-01 
    6.5703036743729770E-01 
    6.4652493903437114E-01 
    6.3074923420478279E-01 
    6.1348357255380193E-01 
    5.9676282233945233E-01 
    5.8157076900535642E-01 
    5.6810976172271066E-01 
    5.5670155224747842E-01 
    5.4795998213732466E-01 
    5.4309107687510028E-01 
    5.4435826451853375E-01 
    5.5599045804562452E-01 
    5.6668369394225360E-01 
    4.8590065054246995E-01 
    5.9571519835704478E-01 
    6.0454893486803440E-01 
    6.0899799310911007E-01 
    6.0327923534643613E-01 
    5.9192703196436147E-01 
    5.7817284049593598E-01 
    5.6450829385779622E-01 
    5.5168132582354679E-01 
    5.4021877490412173E-01 
    5.3044748615907067E-01 
    5.2341628995816725E-01 
    5.2017513632244905E-01 
    5.2271991142443797E-01 
    5.3564216771950834E-01 
    5.5617848538341130E-01 
    4.9719290488577977E-01 
    5.3847099088908112E-01 
    5.4968847376616470E-01 
    5.5710033159775785E-01 
    5.5569783749857893E-01 
    5.4799061738840926E-01 
    5.3678714117884030E-01 
    5.2413086546097343E-01 
    5.1242961185111924E-01 
    5.0151857646969489E-01 
    4.9163707881613605E-01 
    4.8168049712777616E-01 
    4.7938805478607244E-01 
    4.8728847609236731E-01 
    5.0724321420108942E-01 
    5.4023561705687018E-01 
    5.0438790548123558E-01 
    3.6856912477262277E-01 
    4.1553631231008298E-01 
    4.4357892444099378E-01 
    4.5222171991151006E-01 
    4.4603186000123557E-01 
    4.3051446624947620E-01 
    4.0363628071830415E-01 
    3.6021057540382578E-01 
    3.0223694363220122E-01 
    2.5855969633450410E-01 
    2.6098751516783780E-01 
    2.5672740553562778E-01 
    3.0745281513172312E-01 
    3.9260724754399051E-01 
    4.9713617209222882E-01 
    5.0637365066375961E-01 
    8.2409118402425995E-03 
    5.0270648873770835E-02 
    7.5840799940979933E-02 
    8.8945031019185036E-02 
    6.3019947084479139E-02 
    4.5798318636626138E-02 
    2.4135917526821794E-02 
    6.4068293788140038E-03 
    3.3125813237789565E-03 
    2.3084470037292007E-04 
    1.0131737115808381E-03 
    1.8428133513851628E-04 
    4.9363111575190096E-03 
    1.5258785269452457E-01 
    3.2228228876459591E-01 
    4.5520383118787794E-01 
