# vtk DataFile Version 2.0
Pressure Field Data 
ASCII 
DATASET UNSTRUCTURED_GRID 

POINTS 289 double 

    0.0000000000000000E+00     0.0000000000000000E+00     0.0000000000000000E+00 
    1.0000000000000000E+00     0.0000000000000000E+00     0.0000000000000000E+00 
    1.0000000000000000E+00     1.0000000000000000E+00     0.0000000000000000E+00 
    0.0000000000000000E+00     1.0000000000000000E+00     0.0000000000000000E+00 
    6.2499999999872928E-02     0.0000000000000000E+00     0.0000000000000000E+00 
    1.2499999999977310E-01     0.0000000000000000E+00     0.0000000000000000E+00 
    1.8749999999959341E-01     0.0000000000000000E+00     0.0000000000000000E+00 
    2.4999999999941089E-01     0.0000000000000000E+00     0.0000000000000000E+00 
    3.1249999999922851E-01     0.0000000000000000E+00     0.0000000000000000E+00 
    3.7499999999904610E-01     0.0000000000000000E+00     0.0000000000000000E+00 
    4.3749999999886358E-01     0.0000000000000000E+00     0.0000000000000000E+00 
    4.9999999999869210E-01     0.0000000000000000E+00     0.0000000000000000E+00 
    5.6249999999884603E-01     0.0000000000000000E+00     0.0000000000000000E+00 
    6.2499999999901090E-01     0.0000000000000000E+00     0.0000000000000000E+00 
    6.8749999999917577E-01     0.0000000000000000E+00     0.0000000000000000E+00 
    7.4999999999934064E-01     0.0000000000000000E+00     0.0000000000000000E+00 
    8.1249999999950551E-01     0.0000000000000000E+00     0.0000000000000000E+00 
    8.7499999999967026E-01     0.0000000000000000E+00     0.0000000000000000E+00 
    9.3749999999983513E-01     0.0000000000000000E+00     0.0000000000000000E+00 
    1.0000000000000000E+00     6.2499999999872928E-02     0.0000000000000000E+00 
    1.0000000000000000E+00     1.2499999999977310E-01     0.0000000000000000E+00 
    1.0000000000000000E+00     1.8749999999959341E-01     0.0000000000000000E+00 
    1.0000000000000000E+00     2.4999999999941089E-01     0.0000000000000000E+00 
    1.0000000000000000E+00     3.1249999999922851E-01     0.0000000000000000E+00 
    1.0000000000000000E+00     3.7499999999904610E-01     0.0000000000000000E+00 
    1.0000000000000000E+00     4.3749999999886358E-01     0.0000000000000000E+00 
    1.0000000000000000E+00     4.9999999999869210E-01     0.0000000000000000E+00 
    1.0000000000000000E+00     5.6249999999884603E-01     0.0000000000000000E+00 
    1.0000000000000000E+00     6.2499999999901090E-01     0.0000000000000000E+00 
    1.0000000000000000E+00     6.8749999999917577E-01     0.0000000000000000E+00 
    1.0000000000000000E+00     7.4999999999934064E-01     0.0000000000000000E+00 
    1.0000000000000000E+00     8.1249999999950551E-01     0.0000000000000000E+00 
    1.0000000000000000E+00     8.7499999999967026E-01     0.0000000000000000E+00 
    1.0000000000000000E+00     9.3749999999983513E-01     0.0000000000000000E+00 
    9.3749999999973976E-01     1.0000000000000000E+00     0.0000000000000000E+00 
    8.7499999999950118E-01     1.0000000000000000E+00     0.0000000000000000E+00 
    8.1249999999991318E-01     1.0000000000000000E+00     0.0000000000000000E+00 
    7.5000000000034706E-01     1.0000000000000000E+00     0.0000000000000000E+00 
    6.8750000000078049E-01     1.0000000000000000E+00     0.0000000000000000E+00 
    6.2500000000121403E-01     1.0000000000000000E+00     0.0000000000000000E+00 
    5.6250000000164757E-01     1.0000000000000000E+00     0.0000000000000000E+00 
    5.0000000000205946E-01     1.0000000000000000E+00     0.0000000000000000E+00 
    4.3750000000182099E-01     1.0000000000000000E+00     0.0000000000000000E+00 
    3.7500000000156092E-01     1.0000000000000000E+00     0.0000000000000000E+00 
    3.1250000000130068E-01     1.0000000000000000E+00     0.0000000000000000E+00 
    2.5000000000104050E-01     1.0000000000000000E+00     0.0000000000000000E+00 
    1.8750000000078040E-01     1.0000000000000000E+00     0.0000000000000000E+00 
    1.2500000000052031E-01     1.0000000000000000E+00     0.0000000000000000E+00 
    6.2500000000260125E-02     1.0000000000000000E+00     0.0000000000000000E+00 
    0.0000000000000000E+00     9.3749999999973976E-01     0.0000000000000000E+00 
    0.0000000000000000E+00     8.7499999999950118E-01     0.0000000000000000E+00 
    0.0000000000000000E+00     8.1249999999991318E-01     0.0000000000000000E+00 
    0.0000000000000000E+00     7.5000000000034706E-01     0.0000000000000000E+00 
    0.0000000000000000E+00     6.8750000000078049E-01     0.0000000000000000E+00 
    0.0000000000000000E+00     6.2500000000121403E-01     0.0000000000000000E+00 
    0.0000000000000000E+00     5.6250000000164757E-01     0.0000000000000000E+00 
    0.0000000000000000E+00     5.0000000000205946E-01     0.0000000000000000E+00 
    0.0000000000000000E+00     4.3750000000182099E-01     0.0000000000000000E+00 
    0.0000000000000000E+00     3.7500000000156092E-01     0.0000000000000000E+00 
    0.0000000000000000E+00     3.1250000000130068E-01     0.0000000000000000E+00 
    0.0000000000000000E+00     2.5000000000104050E-01     0.0000000000000000E+00 
    0.0000000000000000E+00     1.8750000000078040E-01     0.0000000000000000E+00 
    0.0000000000000000E+00     1.2500000000052031E-01     0.0000000000000000E+00 
    0.0000000000000000E+00     6.2500000000260125E-02     0.0000000000000000E+00 
    6.2499999999897131E-02     6.2500000000235922E-02     0.0000000000000000E+00 
    6.2499999999921327E-02     1.2500000000047351E-01     0.0000000000000000E+00 
    6.2499999999945530E-02     1.8750000000070621E-01     0.0000000000000000E+00 
    6.2499999999969733E-02     2.5000000000093858E-01     0.0000000000000000E+00 
    6.2499999999993928E-02     3.1250000000117117E-01     0.0000000000000000E+00 
    6.2500000000018124E-02     3.7500000000140382E-01     0.0000000000000000E+00 
    6.2500000000042327E-02     4.3750000000163619E-01     0.0000000000000000E+00 
    6.2500000000066530E-02     5.0000000000184897E-01     0.0000000000000000E+00 
    6.2500000000090733E-02     5.6250000000147260E-01     0.0000000000000000E+00 
    6.2500000000114922E-02     6.2500000000107636E-01     0.0000000000000000E+00 
    6.2500000000139125E-02     6.8750000000068034E-01     0.0000000000000000E+00 
    6.2500000000163328E-02     7.5000000000028411E-01     0.0000000000000000E+00 
    6.2500000000187531E-02     8.1249999999988787E-01     0.0000000000000000E+00 
    6.2500000000211720E-02     8.7499999999951172E-01     0.0000000000000000E+00 
    6.2500000000235922E-02     9.3749999999974565E-01     0.0000000000000000E+00 
    1.2499999999981980E-01     6.2500000000211733E-02     0.0000000000000000E+00 
    1.2499999999986650E-01     1.2500000000042691E-01     0.0000000000000000E+00 
    1.2499999999991319E-01     1.8750000000063199E-01     0.0000000000000000E+00 
    1.2499999999995989E-01     2.5000000000083678E-01     0.0000000000000000E+00 
    1.2500000000000661E-01     3.1250000000104172E-01     0.0000000000000000E+00 
    1.2500000000005329E-01     3.7500000000124661E-01     0.0000000000000000E+00 
    1.2500000000010000E-01     4.3750000000145117E-01     0.0000000000000000E+00 
    1.2500000000014669E-01     5.0000000000163858E-01     0.0000000000000000E+00 
    1.2500000000019340E-01     5.6250000000129741E-01     0.0000000000000000E+00 
    1.2500000000024011E-01     6.2500000000093847E-01     0.0000000000000000E+00 
    1.2500000000028680E-01     6.8750000000057998E-01     0.0000000000000000E+00 
    1.2500000000033351E-01     7.5000000000022127E-01     0.0000000000000000E+00 
    1.2500000000038020E-01     8.1249999999986211E-01     0.0000000000000000E+00 
    1.2500000000042691E-01     8.7499999999952238E-01     0.0000000000000000E+00 
    1.2500000000047359E-01     9.3749999999975164E-01     0.0000000000000000E+00 
    1.8749999999966760E-01     6.2500000000187531E-02     0.0000000000000000E+00 
    1.8749999999974179E-01     1.2500000000038020E-01     0.0000000000000000E+00 
    1.8749999999981601E-01     1.8750000000055780E-01     0.0000000000000000E+00 
    1.8749999999989009E-01     2.5000000000073502E-01     0.0000000000000000E+00 
    1.8749999999996431E-01     3.1250000000091221E-01     0.0000000000000000E+00 
    1.8750000000003850E-01     3.7500000000108941E-01     0.0000000000000000E+00 
    1.8750000000011269E-01     4.3750000000126649E-01     0.0000000000000000E+00 
    1.8750000000018691E-01     5.0000000000142808E-01     0.0000000000000000E+00 
    1.8750000000026110E-01     5.6250000000112244E-01     0.0000000000000000E+00 
    1.8750000000033529E-01     6.2500000000080080E-01     0.0000000000000000E+00 
    1.8750000000040951E-01     6.8750000000047962E-01     0.0000000000000000E+00 
    1.8750000000048361E-01     7.5000000000015843E-01     0.0000000000000000E+00 
    1.8750000000055780E-01     8.1249999999983680E-01     0.0000000000000000E+00 
    1.8750000000063199E-01     8.7499999999953304E-01     0.0000000000000000E+00 
    1.8750000000070621E-01     9.3749999999975764E-01     0.0000000000000000E+00 
    2.4999999999951281E-01     6.2500000000163314E-02     0.0000000000000000E+00 
    2.4999999999961461E-01     1.2500000000033351E-01     0.0000000000000000E+00 
    2.4999999999971650E-01     1.8750000000048361E-01     0.0000000000000000E+00 
    2.4999999999981831E-01     2.5000000000063310E-01     0.0000000000000000E+00 
    2.4999999999992020E-01     3.1250000000078260E-01     0.0000000000000000E+00 
    2.5000000000002198E-01     3.7500000000093209E-01     0.0000000000000000E+00 
    2.5000000000012390E-01     4.3750000000108180E-01     0.0000000000000000E+00 
    2.5000000000022571E-01     5.0000000000121769E-01     0.0000000000000000E+00 
    2.5000000000032763E-01     5.6250000000094724E-01     0.0000000000000000E+00 
    2.5000000000042938E-01     6.2500000000066314E-01     0.0000000000000000E+00 
    2.5000000000053119E-01     6.8750000000037925E-01     0.0000000000000000E+00 
[...]
CELL_DATA 256 
SCALARS Pressure double 1 
LOOKUP_TABLE default 

    7.0597652736227812E-01 
    6.5592957315581824E-01 
    6.2381752506690802E-01 
    5.9461109529819101E-01 
    5.6488668642561057E-01 
    5.3380316810807582E-01 
    5.0114322493980501E-01 
    4.6702529927759590E-01 
    4.3177703760089092E-01 
    3.9595129220039427E-01 
    3.6043765801930511E-01 
    3.2665872066660606E-01 
    2.9671412054522106E-01 
    2.7321446937841481E-01 
    2.5815102583616356E-01 
    2.5080738293111382E-01 
    6.9199891295140992E-01 
    6.5723125687261696E-01 
    6.2623307080634238E-01 
    5.9726624293068364E-01 
    5.6774297500274207E-01 
    5.3684866048272972E-01 
    5.0435749275301212E-01 
    4.7036672674396429E-01 
    4.3517647013323330E-01 
    3.9930019592157884E-01 
    3.6357104686808628E-01 
    3.2934201627332749E-01 
    2.9866798259281885E-01 
    2.7422185854661585E-01 
    2.5827330129197978E-01 
    2.5036978789045145E-01 
    6.8127342032323412E-01 
    6.5639254248100687E-01 
    6.2789327891040603E-01 
    5.9958492032115707E-01 
    5.7039871417262600E-01 
    5.3974650657949430E-01 
    5.0744558877776635E-01 
    4.7358536698104359E-01 
    4.3843658749340780E-01 
    4.0246437918942390E-01 
    3.6643171904587962E-01 
    3.3160646403915450E-01 
    2.9999571944687303E-01 
    2.7436953641641310E-01 
    2.5738000946331685E-01 
    2.4895722584446345E-01 
    6.7284299690644345E-01 
    6.5447058339448660E-01 
    6.2883866651940123E-01 
    6.0154529487211150E-01 
    5.7284809033237971E-01 
    5.4250251322310150E-01 
    5.1041778145604511E-01 
    4.7669417709856904E-01 
    4.4157669467642596E-01 
    4.0547580032659164E-01 
    3.6907000216867786E-01 
    3.3352030578792929E-01 
    3.0076679667329559E-01 
    2.7369054213129446E-01 
    2.5542186367366099E-01 
    2.4642440973774007E-01 
    6.6606315438144192E-01 
    6.5205606780108838E-01 
    6.2920239243324150E-01 
    6.0315627994964582E-01 
    5.7508891681131158E-01 
    5.4512150467335851E-01 
    5.1328580795146150E-01 
    4.7971011882366005E-01 
    4.4462073739708280E-01 
    4.0837088062143240E-01 
    3.7154108427479865E-01 
    3.3515930622541174E-01 
    3.0106218836832965E-01 
    2.7222771715821920E-01 
    2.5234822601944423E-01 
    2.4262000570030495E-01 
    6.6053725257997997E-01 
    6.4949506205873775E-01 
    6.2913624958746106E-01 
    6.0445175549891539E-01 
    5.7712690506462450E-01 
    5.4760769776228924E-01 
    5.1606018527724740E-01 
    4.8265153849151704E-01 
    4.4759616334682700E-01 
    4.1119032057506388E-01 
    3.7390514691829640E-01 
    3.3660712751029015E-01 
    3.0097662776230460E-01 
    2.7003954537921082E-01 
    2.4810676028820783E-01 
    2.3736418942756440E-01 
    6.5600500710725929E-01 
    6.4699877994403010E-01 
    6.2878950958478841E-01 
    6.0548705558717852E-01 
    5.7898218255932632E-01 
    5.4997131473895233E-01 
    5.1875118536783626E-01 
    4.8553516872075825E-01 
    4.5053039617738755E-01 
    4.1397645932866850E-01 
    3.7622670428950372E-01 
    3.3795633772262368E-01 
    3.0062207361417370E-01 
    2.6720822095273961E-01 
    2.4265289163739920E-01 
    2.3045110803270782E-01 
    6.5228281267766419E-01 
    6.4469220602378363E-01 
    6.2829367997992014E-01 
    6.0632849853216775E-01 
    5.8068595185280503E-01 
    5.5222930704432294E-01 
    5.2137124019373993E-01 
    4.8837546620108657E-01 
    4.5344670034089896E-01 
    4.1676881201128041E-01 
    3.7857126707428895E-01 
    3.3930885463212940E-01 
    3.0013302594441105E-01 
    2.6385032827130450E-01 
    2.3596243326805016E-01 
    2.2164204334973373E-01 
    6.4923721828061864E-01 
    6.4264515822727519E-01 
    6.2775596464497663E-01 
    6.0704424640366450E-01 
    5.8227471692118571E-01 
    5.5440261827881099E-01 
    5.2393498232234748E-01 
    4.9118599474510699E-01 
    4.5636356130771116E-01 
    4.1959986090750362E-01 
    3.8099932144027449E-01 
    3.4077155420648686E-01 
    2.9966966996316913E-01 
    2.6012831482230020E-01 
    2.2803679855984804E-01 
    2.1063227532370413E-01 
    6.4677116533880574E-01 
    6.4089523291271144E-01 
    6.2725962928699064E-01 
    6.0769833578794674E-01 
    5.8378779033343875E-01 
    5.5651524026542076E-01 
    5.2645914931181126E-01 
    4.9398086771498712E-01 
    4.5929672837004132E-01 
    4.2249487793733920E-01 
    3.8356216870899867E-01 
    3.4245001362421246E-01 
    2.9941696861045253E-01 
    2.5626714360219921E-01 
    2.1892491686036528E-01 
    1.9701310906005340E-01 
    6.4481260834764609E-01 
    6.3946242752584437E-01 
    6.2686993155694348E-01 
    6.0835001258095578E-01 
    5.8526715374803606E-01 
    5.5859588503984825E-01 
    5.2896389497506857E-01 
    4.9677603841149687E-01 
    4.6226214568216717E-01 
    4.2547540883955048E-01 
    3.8630232167542433E-01 
    3.4444400986939416E-01 
    2.9958251227171900E-01 
    2.5257323293647876E-01 
    2.0877147374657648E-01 
    1.8025085540150443E-01 
    6.4330589149307860E-01 
    6.3835715477548804E-01 
    6.2664004118496652E-01 
    6.0905511654407329E-01 
    5.8675788125887729E-01 
    5.6067883859880208E-01 
    5.3147469809586345E-01 
    4.9959094312426444E-01 
    4.6527796372151187E-01 
    4.2856230140381391E-01 
    3.8925423099194323E-01 
    3.4684169057293618E-01 
    3.0039106661000858E-01 
    2.4944915727408717E-01 
    1.9786925265130606E-01 
    1.5959520419275666E-01 
    6.4221517310512788E-01 
    6.3759210793813537E-01 
    6.2661977962526016E-01 
    6.0987062146362248E-01 
    5.8830961401207083E-01 
    5.6280389374296524E-01 
    5.3402246524492425E-01 
    5.0244880860475394E-01 
    4.6836323087242276E-01 
    4.3177276724430913E-01 
    3.9243972766727808E-01 
    3.4970634407722567E-01 
    3.0206091770479443E-01 
    2.4742839891776353E-01 
    1.8683666963676920E-01 
    1.3395623047140984E-01 
    6.4150577858474811E-01 
    6.3717846480827156E-01 
    6.2685535917074209E-01 
    6.1085162170061613E-01 
    5.8997062836856107E-01 
    5.6500772220905604E-01 
    5.3663379796974875E-01 
    5.0536252335938869E-01 
    4.7150875957541832E-01 
    4.3507809288657029E-01 
    3.9581594376675222E-01 
    3.5300125177179481E-01 
    3.0468981796255784E-01 
    2.4706325394391038E-01 
    1.7680889019149124E-01 
    1.0168643755593132E-01 
    6.4101733398180538E-01 
    6.3700394653896264E-01 
    6.2729125296955701E-01 
    6.1196466478419198E-01 
    5.9169848279652792E-01 
    5.6724139944566621E-01 
    5.3925945185102830E-01 
    5.0828288754038231E-01 
    4.7465308864752831E-01 
    4.3840479901711388E-01 
    3.9929288292555121E-01 
    3.5658582639991887E-01 
    3.0813780942360042E-01 
    2.4863534036590998E-01 
    1.6941202218211612E-01 
    5.9695922047720534E-02 
    6.4084215850836412E-01 
    6.3715972422295764E-01 
    6.2801209991688334E-01 
    6.1328227723463213E-01 
    5.9354964943543342E-01 
    5.6954830507993992E-01 
    5.4194630920594511E-01 
    5.1127422339089579E-01 
    4.7789583262787055E-01 
    4.4188336077626400E-01 
    4.0301845696998917E-01 
    3.6060469570781584E-01 
    3.1262775166868312E-01 
    2.5307528218917053E-01 
    1.6879737654200813E-01 
    0.0000000000000000E+00 

SCALARS Saturarion double 1 
LOOKUP_TABLE default 

    1.0000000000000007E+00 
    9.7578776944525270E-01 
    9.3174560475708124E-01 
    8.7359784636183901E-01 
    8.2475090043598698E-01 
    7.8193846159416347E-01 
    7.4493100187097561E-01 
    7.1299048688743072E-01 
    6.8494066764300032E-01 
    6.5956074044009516E-01 
    6.3560892509848177E-01 
    6.1166662614054024E-01 
    5.8565660633901728E-01 
    5.5456611590968741E-01 
    4.9444202522838498E-01 
    1.9279347120614812E-01 
    9.9081583129914830E-01 
    9.6788248438342206E-01 
    9.2174416185998720E-01 
    8.6641063141691621E-01 
    8.1938648708311246E-01 
    7.7828596386837534E-01 
    7.4235478861561677E-01 
    7.1092886530865695E-01 
    6.8319263863173996E-01 
    6.5812358798695669E-01 
    6.3472859494444100E-01 
    6.1169821684814485E-01 
    5.8683747661219099E-01 
    5.5670948012072685E-01 
    4.9983074014638529E-01 
    2.2503997646569937E-01 
    9.7632676337381763E-01 
    9.5342795871484209E-01 
    9.0716051410767562E-01 
    8.5372862023583362E-01 
    8.0886567585898794E-01 
    7.7061010593058399E-01 
    7.3694079989789341E-01 
    7.0669776819706043E-01 
    6.7945747302580284E-01 
    6.5471238719532299E-01 
    6.3190874685528642E-01 
    6.1001902130130192E-01 
    5.8706128019550430E-01 
    5.5920011073246656E-01 
    5.0699628234690908E-01 
    2.5496433595225282E-01 
    9.5103040580023690E-01 
    9.3178306824535551E-01 
    8.8941730974145283E-01 
    8.4013849624188752E-01 
    7.9613709947540512E-01 
    7.5935181794739626E-01 
    7.2768403500692502E-01 
    6.9950707175320337E-01 
    6.7383014827068499E-01 
    6.5036370842343183E-01 
    6.2857477014732566E-01 
    6.0780354467431952E-01 
    5.8655191516025096E-01 
    5.6126508606435466E-01 
    5.1404782995004739E-01 
    2.8392554984037077E-01 
    9.2022690467086254E-01 
    9.0337166134494939E-01 
    8.6575718126990298E-01 
    8.2141593399299284E-01 
    7.7975882465098090E-01 
    7.4414491584502251E-01 
    7.1407779037672348E-01 
    6.8799445107463753E-01 
    6.6475049827430333E-01 
    6.4364161685371446E-01 
    6.2411030134173062E-01 
    6.0530909349918072E-01 
    5.8582459732680003E-01 
    5.6278797736094777E-01 
    5.2067133076858851E-01 
    3.0704461797998156E-01 
    8.8610090959350207E-01 
    8.7212360564761238E-01 
    8.3951598242262848E-01 
    7.9963212252968141E-01 
    7.6132382793412723E-01 
    7.2758620959123199E-01 
    6.9850451013755399E-01 
    6.7373462325790512E-01 
    6.5243348768790432E-01 
    6.3374160410992464E-01 
    6.1694000159862294E-01 
    6.0121095332593599E-01 
    5.8464553158687960E-01 
    5.6398052569797741E-01 
    5.2651240766257734E-01 
    3.2754031688997143E-01 
    8.4939197975044400E-01 
    8.3885726615598510E-01 
    8.1162208837690364E-01 
    7.7632284498237902E-01 
    7.4162004020233618E-01 
    7.1034476391299883E-01 
    6.8296207519501673E-01 
    6.5908935269312274E-01 
    6.3876102290935033E-01 
    6.2165717065976889E-01 
    6.0725158679565194E-01 
    5.9464181724980369E-01 
    5.8198970223580315E-01 
    5.6493017283196734E-01 
    5.3178685302561923E-01 
    3.4742969353005360E-01 
    8.0992715027342366E-01 
    8.0327196658491806E-01 
    7.8214315451701433E-01 
    7.5192887424394617E-01 
    7.2051285664269682E-01 
    6.9156540278818812E-01 
    6.6580886438099018E-01 
    6.4340958174365714E-01 
    6.2418874774614408E-01 
    6.0821392723113632E-01 
    5.9542679557369493E-01 
    5.8558225628093796E-01 
    5.7702111488467100E-01 
    5.6496454555630315E-01 
    5.3699582147327418E-01 
    3.6740925584141976E-01 
    7.6793444226669516E-01 
    7.6501072432802320E-01 
    7.4978158201428824E-01 
    7.2496121922787748E-01 
    6.9737023603860337E-01 
    6.7082027160034374E-01 
    6.4688403975170650E-01 
    6.2579354093463502E-01 
    6.0759980303748029E-01 
    5.9248763710007979E-01 
    5.8100804961450325E-01 
    5.7357778343097188E-01 
    5.6922330500443286E-01 
    5.6309196970887732E-01 
    5.4140844671601629E-01 
    3.8612463965692900E-01 
    7.2341728730984911E-01 
    7.2395272694617763E-01 
    7.1418436136327967E-01 
    6.9445581551398139E-01 
    6.7098411400614466E-01 
    6.4741610422777129E-01 
    6.2543361066780723E-01 
    6.0597142562904338E-01 
    5.8903938621771623E-01 
    5.7475173923320022E-01 
    5.6388216926345380E-01 
    5.5799586504014587E-01 
    5.5763186511179419E-01 
    5.5838673646252934E-01 
    5.4466820095124979E-01 
    4.0436033936058879E-01 
    6.7601884017744640E-01 
    6.7973204735704573E-01 
    6.7500545031026904E-01 
    6.6000649024577462E-01 
    6.4072148240039739E-01 
    6.2074434063748252E-01 
    6.0175615869586319E-01 
    5.8416767753629129E-01 
    5.6862748922354589E-01 
    5.5554176063446281E-01 
    5.4552094128603601E-01 
    5.4001171799096570E-01 
    5.4163169876030892E-01 
    5.4943286684926418E-01 
    5.4565085233715560E-01 
    4.2270257906284053E-01 
    6.2469423512815569E-01 
    6.3135113976410451E-01 
    6.3171471767764720E-01 
    6.2159642707409135E-01 
    6.0642496355663023E-01 
    5.8998004291410377E-01 
    5.7398102856386068E-01 
    5.5913101323206593E-01 
    5.4582393556545639E-01 
    5.3466781257283968E-01 
    5.2609043136171130E-01 
    5.2124485056830860E-01 
    5.2283688874053647E-01 
    5.3480526568828224E-01 
    5.4126336222145965E-01 
    4.4012056674646388E-01 
    5.7218340974921911E-01 
    5.8050527854880318E-01 
    5.8486909110568974E-01 
    5.7965981509169917E-01 
    5.6898711124515566E-01 
    5.5589418963579385E-01 
    5.4281315795283880E-01 
    5.3036629476955410E-01 
    5.1890300528499622E-01 
    5.0864526251797160E-01 
    5.0114038992694832E-01 
    4.9812382155177548E-01 
    5.0126854782218111E-01 
    5.1481702148770625E-01 
    5.3329391850366092E-01 
    4.5503083104038983E-01 
    5.0819771591550056E-01 
    5.2208370870531462E-01 
    5.3030470656202333E-01 
    5.3053345391904971E-01 
    5.2241752264447783E-01 
    5.1107155563820128E-01 
    4.9788630865023487E-01 
    4.8593985182830468E-01 
    4.7062083783735187E-01 
    4.4891064494546906E-01 
    4.3269781044848221E-01 
    4.2656932981073981E-01 
    4.3620223062467811E-01 
    4.7339576295426183E-01 
    5.1612533387365811E-01 
    4.6545109271240648E-01 
    2.4449387856642960E-01 
    3.2769405251676043E-01 
    3.7401185691689559E-01 
    3.8224440358091122E-01 
    3.6462088152576511E-01 
    3.2008936717091685E-01 
    2.7954260499110417E-01 
    2.2826667014488705E-01 
    1.9755034635193525E-01 
    1.4353556863435829E-01 
    1.0132665722321335E-01 
    9.2743481391599103E-02 
    1.3094005909217996E-01 
    2.7318849782925364E-01 
    4.5475796960339498E-01 
    4.6690429339274936E-01 
    5.6302677951545052E-05 
    7.3637058283928516E-03 
    1.6978099038996924E-02 
    1.6237163228617683E-02 
    1.4070866542076801E-02 
    2.2971229766077204E-03 
    1.4184530640728936E-03 
    4.8367792313596560E-05 
    1.0025465458180726E-04 
    1.2967639688404616E-05 
    6.2093259517783316E-06 
    8.2511563902753241E-06 
    1.4354761068778146E-04 
    7.6738357457633563E-02 
    2.8196664255151516E-01 
    4.1751567796801009E-01 
