# vtk DataFile Version 2.0
Pressure Field Data 
ASCII 
DATASET UNSTRUCTURED_GRID 

POINTS 289 double 

    0.0000000000000000E+00     0.0000000000000000E+00     0.0000000000000000E+00 
    1.0000000000000000E+00     0.0000000000000000E+00     0.0000000000000000E+00 
    1.0000000000000000E+00     1.0000000000000000E+00     0.0000000000000000E+00 
    0.0000000000000000E+00     1.0000000000000000E+00     0.0000000000000000E+00 
    6.2499999999872928E-02     0.0000000000000000E+00     0.0000000000000000E+00 
    1.2499999999977310E-01     0.0000000000000000E+00     0.0000000000000000E+00 
    1.8749999999959341E-01     0.0000000000000000E+00     0.0000000000000000E+00 
    2.4999999999941089E-01     0.0000000000000000E+00     0.0000000000000000E+00 
    3.1249999999922851E-01     0.0000000000000000E+00     0.0000000000000000E+00 
    3.7499999999904610E-01     0.0000000000000000E+00     0.0000000000000000E+00 
    4.3749999999886358E-01     0.0000000000000000E+00     0.0000000000000000E+00 
    4.9999999999869210E-01     0.0000000000000000E+00     0.0000000000000000E+00 
    5.6249999999884603E-01     0.0000000000000000E+00     0.0000000000000000E+00 
    6.2499999999901090E-01     0.0000000000000000E+00     0.0000000000000000E+00 
    6.8749999999917577E-01     0.0000000000000000E+00     0.0000000000000000E+00 
    7.4999999999934064E-01     0.0000000000000000E+00     0.0000000000000000E+00 
    8.1249999999950551E-01     0.0000000000000000E+00     0.0000000000000000E+00 
    8.7499999999967026E-01     0.0000000000000000E+00     0.0000000000000000E+00 
    9.3749999999983513E-01     0.0000000000000000E+00     0.0000000000000000E+00 
    1.0000000000000000E+00     6.2499999999872928E-02     0.0000000000000000E+00 
    1.0000000000000000E+00     1.2499999999977310E-01     0.0000000000000000E+00 
    1.0000000000000000E+00     1.8749999999959341E-01     0.0000000000000000E+00 
    1.0000000000000000E+00     2.4999999999941089E-01     0.0000000000000000E+00 
    1.0000000000000000E+00     3.1249999999922851E-01     0.0000000000000000E+00 
    1.0000000000000000E+00     3.7499999999904610E-01     0.0000000000000000E+00 
    1.0000000000000000E+00     4.3749999999886358E-01     0.0000000000000000E+00 
    1.0000000000000000E+00     4.9999999999869210E-01     0.0000000000000000E+00 
    1.0000000000000000E+00     5.6249999999884603E-01     0.0000000000000000E+00 
    1.0000000000000000E+00     6.2499999999901090E-01     0.0000000000000000E+00 
    1.0000000000000000E+00     6.8749999999917577E-01     0.0000000000000000E+00 
    1.0000000000000000E+00     7.4999999999934064E-01     0.0000000000000000E+00 
    1.0000000000000000E+00     8.1249999999950551E-01     0.0000000000000000E+00 
    1.0000000000000000E+00     8.7499999999967026E-01     0.0000000000000000E+00 
    1.0000000000000000E+00     9.3749999999983513E-01     0.0000000000000000E+00 
    9.3749999999973976E-01     1.0000000000000000E+00     0.0000000000000000E+00 
    8.7499999999950118E-01     1.0000000000000000E+00     0.0000000000000000E+00 
    8.1249999999991318E-01     1.0000000000000000E+00     0.0000000000000000E+00 
    7.5000000000034706E-01     1.0000000000000000E+00     0.0000000000000000E+00 
    6.8750000000078049E-01     1.0000000000000000E+00     0.0000000000000000E+00 
    6.2500000000121403E-01     1.0000000000000000E+00     0.0000000000000000E+00 
    5.6250000000164757E-01     1.0000000000000000E+00     0.0000000000000000E+00 
    5.0000000000205946E-01     1.0000000000000000E+00     0.0000000000000000E+00 
    4.3750000000182099E-01     1.0000000000000000E+00     0.0000000000000000E+00 
    3.7500000000156092E-01     1.0000000000000000E+00     0.0000000000000000E+00 
    3.1250000000130068E-01     1.0000000000000000E+00     0.0000000000000000E+00 
    2.5000000000104050E-01     1.0000000000000000E+00     0.0000000000000000E+00 
    1.8750000000078040E-01     1.0000000000000000E+00     0.0000000000000000E+00 
    1.2500000000052031E-01     1.0000000000000000E+00     0.0000000000000000E+00 
    6.2500000000260125E-02     1.0000000000000000E+00     0.0000000000000000E+00 
    0.0000000000000000E+00     9.3749999999973976E-01     0.0000000000000000E+00 
    0.0000000000000000E+00     8.7499999999950118E-01     0.0000000000000000E+00 
    0.0000000000000000E+00     8.1249999999991318E-01     0.0000000000000000E+00 
    0.0000000000000000E+00     7.5000000000034706E-01     0.0000000000000000E+00 
    0.0000000000000000E+00     6.8750000000078049E-01     0.0000000000000000E+00 
    0.0000000000000000E+00     6.2500000000121403E-01     0.0000000000000000E+00 
    0.0000000000000000E+00     5.6250000000164757E-01     0.0000000000000000E+00 
    0.0000000000000000E+00     5.0000000000205946E-01     0.0000000000000000E+00 
    0.0000000000000000E+00     4.3750000000182099E-01     0.0000000000000000E+00 
    0.0000000000000000E+00     3.7500000000156092E-01     0.0000000000000000E+00 
    0.0000000000000000E+00     3.1250000000130068E-01     0.0000000000000000E+00 
    0.0000000000000000E+00     2.5000000000104050E-01     0.0000000000000000E+00 
    0.0000000000000000E+00     1.8750000000078040E-01     0.0000000000000000E+00 
    0.0000000000000000E+00     1.2500000000052031E-01     0.0000000000000000E+00 
    0.0000000000000000E+00     6.2500000000260125E-02     0.0000000000000000E+00 
    6.2499999999897131E-02     6.2500000000235922E-02     0.0000000000000000E+00 
    6.2499999999921327E-02     1.2500000000047351E-01     0.0000000000000000E+00 
    6.2499999999945530E-02     1.8750000000070621E-01     0.0000000000000000E+00 
    6.2499999999969733E-02     2.5000000000093858E-01     0.0000000000000000E+00 
    6.2499999999993928E-02     3.1250000000117117E-01     0.0000000000000000E+00 
    6.2500000000018124E-02     3.7500000000140382E-01     0.0000000000000000E+00 
    6.2500000000042327E-02     4.3750000000163619E-01     0.0000000000000000E+00 
    6.2500000000066530E-02     5.0000000000184897E-01     0.0000000000000000E+00 
    6.2500000000090733E-02     5.6250000000147260E-01     0.0000000000000000E+00 
    6.2500000000114922E-02     6.2500000000107636E-01     0.0000000000000000E+00 
    6.2500000000139125E-02     6.8750000000068034E-01     0.0000000000000000E+00 
    6.2500000000163328E-02     7.5000000000028411E-01     0.0000000000000000E+00 
    6.2500000000187531E-02     8.1249999999988787E-01     0.0000000000000000E+00 
    6.2500000000211720E-02     8.7499999999951172E-01     0.0000000000000000E+00 
    6.2500000000235922E-02     9.3749999999974565E-01     0.0000000000000000E+00 
    1.2499999999981980E-01     6.2500000000211733E-02     0.0000000000000000E+00 
    1.2499999999986650E-01     1.2500000000042691E-01     0.0000000000000000E+00 
    1.2499999999991319E-01     1.8750000000063199E-01     0.0000000000000000E+00 
    1.2499999999995989E-01     2.5000000000083678E-01     0.0000000000000000E+00 
    1.2500000000000661E-01     3.1250000000104172E-01     0.0000000000000000E+00 
    1.2500000000005329E-01     3.7500000000124661E-01     0.0000000000000000E+00 
    1.2500000000010000E-01     4.3750000000145117E-01     0.0000000000000000E+00 
    1.2500000000014669E-01     5.0000000000163858E-01     0.0000000000000000E+00 
    1.2500000000019340E-01     5.6250000000129741E-01     0.0000000000000000E+00 
    1.2500000000024011E-01     6.2500000000093847E-01     0.0000000000000000E+00 
    1.2500000000028680E-01     6.8750000000057998E-01     0.0000000000000000E+00 
    1.2500000000033351E-01     7.5000000000022127E-01     0.0000000000000000E+00 
    1.2500000000038020E-01     8.1249999999986211E-01     0.0000000000000000E+00 
    1.2500000000042691E-01     8.7499999999952238E-01     0.0000000000000000E+00 
    1.2500000000047359E-01     9.3749999999975164E-01     0.0000000000000000E+00 
    1.8749999999966760E-01     6.2500000000187531E-02     0.0000000000000000E+00 
    1.8749999999974179E-01     1.2500000000038020E-01     0.0000000000000000E+00 
    1.8749999999981601E-01     1.8750000000055780E-01     0.0000000000000000E+00 
    1.8749999999989009E-01     2.5000000000073502E-01     0.0000000000000000E+00 
    1.8749999999996431E-01     3.1250000000091221E-01     0.0000000000000000E+00 
    1.8750000000003850E-01     3.7500000000108941E-01     0.0000000000000000E+00 
    1.8750000000011269E-01     4.3750000000126649E-01     0.0000000000000000E+00 
    1.8750000000018691E-01     5.0000000000142808E-01     0.0000000000000000E+00 
    1.8750000000026110E-01     5.6250000000112244E-01     0.0000000000000000E+00 
    1.8750000000033529E-01     6.2500000000080080E-01     0.0000000000000000E+00 
    1.8750000000040951E-01     6.8750000000047962E-01     0.0000000000000000E+00 
    1.8750000000048361E-01     7.5000000000015843E-01     0.0000000000000000E+00 
    1.8750000000055780E-01     8.1249999999983680E-01     0.0000000000000000E+00 
    1.8750000000063199E-01     8.7499999999953304E-01     0.0000000000000000E+00 
    1.8750000000070621E-01     9.3749999999975764E-01     0.0000000000000000E+00 
    2.4999999999951281E-01     6.2500000000163314E-02     0.0000000000000000E+00 
    2.4999999999961461E-01     1.2500000000033351E-01     0.0000000000000000E+00 
    2.4999999999971650E-01     1.8750000000048361E-01     0.0000000000000000E+00 
    2.4999999999981831E-01     2.5000000000063310E-01     0.0000000000000000E+00 
    2.4999999999992020E-01     3.1250000000078260E-01     0.0000000000000000E+00 
    2.5000000000002198E-01     3.7500000000093209E-01     0.0000000000000000E+00 
    2.5000000000012390E-01     4.3750000000108180E-01     0.0000000000000000E+00 
    2.5000000000022571E-01     5.0000000000121769E-01     0.0000000000000000E+00 
    2.5000000000032763E-01     5.6250000000094724E-01     0.0000000000000000E+00 
    2.5000000000042938E-01     6.2500000000066314E-01     0.0000000000000000E+00 
    2.5000000000053119E-01     6.8750000000037925E-01     0.0000000000000000E+00 
[...]
CELL_DATA 256 
SCALARS Pressure double 1 
LOOKUP_TABLE default 

    7.9873121236973321E-01 
    7.4769006610408195E-01 
    7.1402030327094757E-01 
    6.8274528302317938E-01 
    6.5049807770671686E-01 
    6.1649356838184954E-01 
    5.8057633860780489E-01 
    5.4293737568543032E-01 
    5.0398248799678058E-01 
    4.6435350807261627E-01 
    4.2505227546372498E-01 
    3.8767823850671240E-01 
    3.5463891222749427E-01 
    3.2876860501705851E-01 
    3.1058808215326006E-01 
    3.0197794118469168E-01 
    7.8477870408011297E-01 
    7.4909874614183070E-01 
    7.1658998977509658E-01 
    6.8559355068466477E-01 
    6.5358754926240381E-01 
    6.1981387307780988E-01 
    5.8410175690733834E-01 
    5.4661500300225163E-01 
    5.0772861967854743E-01 
    4.6804266038482528E-01 
    4.2849839686722285E-01 
    3.9061679461805970E-01 
    3.5675699568183988E-01 
    3.2987462208810614E-01 
    3.1082460717011462E-01 
    3.0158384842287722E-01 
    7.7406066590275602E-01 
    7.4833387484320568E-01 
    7.1837182310194037E-01 
    6.8807121560043960E-01 
    6.5643990749887349E-01 
    6.2295116084044933E-01 
    5.8746984415571235E-01 
    5.5014223326900724E-01 
    5.1130754444533844E-01 
    4.7151312002195550E-01 
    4.3162464771525449E-01 
    3.9306800381230944E-01 
    3.5814650487833344E-01 
    3.2996532132353856E-01 
    3.0992064410786574E-01 
    3.0016187528524479E-01 
    7.6558882837763542E-01 
    7.4644426747176218E-01 
    7.1940246729880430E-01 
    6.9015965841115279E-01 
    6.5905554874336714E-01 
    6.2591455325613532E-01 
    5.9069033769429202E-01 
    5.5353042129892782E-01 
    5.1473938443648803E-01 
    4.7480225025027006E-01 
    4.3449112272652751E-01 
    3.9511161779183057E-01 
    3.5888743613119134E-01 
    3.2908411827161427E-01 
    3.0779366224762655E-01 
    2.9747382003026202E-01 
    7.5871071582163208E-01 
    7.4401233715266524E-01 
    7.1981158688666502E-01 
    6.9186733847151560E-01 
    6.6143671135585524E-01 
    6.2871521621689330E-01 
    5.9377968549239724E-01 
    5.5679929439123854E-01 
    5.1805092878777625E-01 
    4.7795213021622379E-01 
    4.3716319816653981E-01 
    3.9683712742441996E-01 
    3.5907450693761367E-01 
    3.2728214702552599E-01 
    3.0435122783799579E-01 
    2.9325416221712286E-01 
    7.5305020800360956E-01 
    7.4139137655430942E-01 
    7.1975338116726306E-01 
    6.9322965535223335E-01 
    6.6359272343938824E-01 
    6.3136413630541144E-01 
    5.9675679800336479E-01 
    5.5997488274030915E-01 
    5.2127545612536896E-01 
    4.8100889047181639E-01 
    4.3970940224303012E-01 
    3.9834202593356977E-01 
    3.5881948935057839E-01 
    3.2462550061873002E-01 
    2.9950512180510658E-01 
    2.8723586509915544E-01 
    7.4836415978524951E-01 
    7.3880538457897726E-01 
    7.1938553990185949E-01 
    6.9430754538140049E-01 
    6.6554705835107630E-01 
    6.3387584351652371E-01 
    5.9963926072703932E-01 
    5.6308318782743583E-01 
    5.2444884555704963E-01 
    4.8402137622165081E-01 
    4.4220151063789398E-01 
    3.9973139841746524E-01 
    3.5825366830464905E-01 
    3.2121062001108780E-01 
    2.9319107238548470E-01 
    2.7913861945716106E-01 
    7.4448058206224721E-01 
    7.3639149575485185E-01 
    7.1884909027222688E-01 
    6.9517308673582312E-01 
    6.6733357657216585E-01 
    6.3626968782552218E-01 
    6.0244423572573591E-01 
    5.6614628591448268E-01 
    5.2760352573162417E-01 
    4.8703823592488915E-01 
    4.4471449035267707E-01 
    4.0112066108697531E-01 
    3.5753285047974948E-01 
    3.1717448443241159E-01 
    2.8537957656696589E-01 
    2.6866764256852194E-01 
    7.4127514450758558E-01 
    7.3422980762876133E-01 
    7.1825956895464960E-01 
    6.9589984458923970E-01 
    6.6899192516276229E-01 
    6.3856880231685431E-01 
    6.0518900613243198E-01 
    5.6918222230965032E-01 
    5.3076536845130706E-01 
    4.9010258285290015E-01 
    4.4732197783081518E-01 
    4.0263345160462638E-01 
    3.5684336589229315E-01 
    3.1271357778262054E-01 
    2.7608525605450585E-01 
    2.5547277482477099E-01 
    7.3865747475604016E-01 
    7.3236620790250329E-01 
    7.1770769704422177E-01 
    6.9655782621638807E-01 
    6.7056593780234119E-01 
    6.4080006699600633E-01 
    6.0789224236013217E-01 
    5.7220777628365782E-01 
    5.3395582301963129E-01 
    4.9325081604106208E-01 
    4.5009198992655780E-01 
    4.0439668232768838E-01 
    3.5640096202338206E-01 
    3.0810078570062821E-01 
    2.6538567759005821E-01 
    2.3908372455402011E-01 
    7.3656178611070411E-01 
    7.3082910548184021E-01 
    7.1726750251220772E-01 
    6.9721443176658970E-01 
    6.7210424708570715E-01 
    6.4299665322132449E-01 
    6.1057749111232540E-01 
    5.7524315396149417E-01 
    5.3719703109726091E-01 
    4.9651462443199479E-01 
    4.5308330512948292E-01 
    4.0653428325973689E-01 
    3.5644879950632918E-01 
    3.0370932051308575E-01 
    2.5348029693822038E-01 
    2.1887258480210697E-01 
    7.3494436879915848E-01 
    7.2964319350793749E-01 
    7.1700664940001779E-01 
    6.9793845211773364E-01 
    6.7366121170518511E-01 
    6.4519864451773967E-01 
    6.1327660091217573E-01 
    5.7831556074851354E-01 
    5.4051162736832614E-01 
    4.9991571910708710E-01 
    4.5633282386127566E-01 
    4.0914857063011867E-01 
    3.5724451883382080E-01 
    3.0003386460163373E-01 
    2.4077862574126960E-01 
    1.9398851312017210E-01 
    7.3378063150047479E-01 
    7.2883979832786405E-01 
    7.1699357412831011E-01 
    6.9880067514016386E-01 
    6.7529232293719521E-01 
    6.4744528215660313E-01 
    6.1602084888592346E-01 
    5.8144899779405224E-01 
    5.4390587016856129E-01 
    5.0343234773621959E-01 
    4.5980156139066980E-01 
    4.1223622967957080E-01 
    3.5894834025381894E-01 
    2.9759690470605443E-01 
    2.2793950662992915E-01 
    1.6314296331051154E-01 
    7.3295661125783296E-01 
    7.2837496286640124E-01 
    7.1724264316138231E-01 
    6.9983175282113752E-01 
    6.7701044956480527E-01 
    6.4970654253537086E-01 
    6.1873294488888075E-01 
    5.8454486796317517E-01 
    5.4726581778100003E-01 
    5.0692598678909639E-01 
    4.6330681658558381E-01 
    4.1555022835701239E-01 
    3.6141410601698587E-01 
    2.9671040625844347E-01 
    2.1581333055140406E-01 
    1.2400618301589811E-01 
    7.3237451228783534E-01 
    7.2811617932753736E-01 
    7.1763499625727245E-01 
    7.0094368875959712E-01 
    6.7875704994693764E-01 
    6.5194992009472152E-01 
    6.2138316689050554E-01 
    5.8757387155353713E-01 
    5.5060716521394626E-01 
    5.1049658291132605E-01 
    4.6703784371535034E-01 
    4.1935696362821090E-01 
    3.6506722608433362E-01 
    2.9846723258633018E-01 
    2.0659969826751373E-01 
    7.2230903066382912E-02 
    7.3219011045830862E-01 
    7.2827418975650215E-01 
    7.1838534038026891E-01 
    7.0233677148908458E-01 
    6.8073289954757243E-01 
    6.5440795903853199E-01 
    6.2423449784745255E-01 
    5.9078279834216740E-01 
    5.5415386362086105E-01 
    5.1435381676060266E-01 
    4.7119668376577400E-01 
    4.2384706164643854E-01 
    3.7003189192058733E-01 
    3.0388950068524334E-01 
    2.0686769736602786E-01 
    0.0000000000000000E+00 

SCALARS Saturarion double 1 
LOOKUP_TABLE default 

    1.0000000000000011E+00 
    9.7047961077529499E-01 
    9.1817227737195017E-01 
    8.5261302638159830E-01 
    7.9701680378418582E-01 
    7.4957580318150341E-01 
    7.0986909216855643E-01 
    6.7633697385802383E-01 
    6.4707049113170956E-01 
    6.2033181530171222E-01 
    5.9465318192128569E-01 
    5.6876730509384277E-01 
    5.4142781581115285E-01 
    5.0440813447781774E-01 
    3.4525754369859174E-01 
    6.2936684813492023E-03 
    9.8828164581701805E-01 
    9.6029411859578895E-01 
    9.0552556229083836E-01 
    8.4391175480693337E-01 
    7.9154050138283849E-01 
    7.4619278436918790E-01 
    7.0731694631569653E-01 
    6.7395371050127861E-01 
    6.4483625582966131E-01 
    6.1850787919852790E-01 
    5.9363742641259265E-01 
    5.6883249457460661E-01 
    5.4257856378944425E-01 
    5.0706494840103344E-01 
    3.6746143175736229E-01 
    1.5995213878096531E-02 
    9.6986272846436372E-01 
    9.4232938840053682E-01 
    8.8780389169617480E-01 
    8.2911161516076237E-01 
    7.8066093006855508E-01 
    7.3888221920957342E-01 
    7.0193579610680323E-01 
    6.6907944268094999E-01 
    6.4004760930179538E-01 
    6.1416086063651065E-01 
    5.9045291616730555E-01 
    5.6735005635843960E-01 
    5.4298654237912536E-01 
    5.1027751473906025E-01 
    3.8967151363800429E-01 
    3.4791826654795688E-02 
    9.3757305208330499E-01 
    9.1496216885345916E-01 
    8.6645778944778007E-01 
    8.1211326358411751E-01 
    7.6539726289196508E-01 
    7.2666063247225487E-01 
    6.9271189431668534E-01 
    6.6215411286216785E-01 
    6.3450833520979377E-01 
    6.0969481825176330E-01 
    5.8699318509828002E-01 
    5.6530030888297889E-01 
    5.4284429916051247E-01 
    5.1375938109418406E-01 
    4.1041877931921616E-01 
    6.7341811122220471E-02 
    8.9996092217130397E-01 
    8.8075212207128406E-01 
    8.3840570932173453E-01 
    7.8991143553831333E-01 
    7.4634301407090586E-01 
    7.0986385089190251E-01 
    6.7882626010502456E-01 
    6.5141132658535050E-01 
    6.2668793038252268E-01 
    6.0415984659898014E-01 
    5.8333823462328616E-01 
    5.6329308305438874E-01 
    5.4251276922201930E-01 
    5.1632121187602731E-01 
    4.2693381819978804E-01 
    1.0112703206013661E-01 
    8.6008555348365701E-01 
    8.4439263593175917E-01 
    8.0835015087054030E-01 
    7.6567272615449655E-01 
    7.2600355414611595E-01 
    6.9166610148256835E-01 
    6.6228275511515877E-01 
    6.3727494009763352E-01 
    6.1544990267252819E-01 
    5.9572369256642321E-01 
    5.7745477372318954E-01 
    5.6006993666894422E-01 
    5.4191608601171704E-01 
    5.1885015078705243E-01 
    4.4066918368475533E-01 
    1.3680838062376455E-01 
    8.1821666731527010E-01 
    8.0673135032814447E-01 
    7.7741662852384852E-01 
    7.4032094483499056E-01 
    7.0457628027922425E-01 
    6.7282665303205613E-01 
    6.4548649856101514E-01 
    6.2197206783630754E-01 
    6.0193375708728969E-01 
    5.8456977606814897E-01 
    5.6905608894368520E-01 
    5.5460869762096754E-01 
    5.3995402704847617E-01 
    5.2081009543909307E-01 
    4.5304191350557366E-01 
    1.7352110009227872E-01 
    7.7441815997955055E-01 
    7.6745766037764318E-01 
    7.4533882439254184E-01 
    7.1399975240857971E-01 
    6.8179464697162551E-01 
    6.5259741945298833E-01 
    6.2710208705152592E-01 
    6.0527161783827754E-01 
    5.8670513394957902E-01 
    5.7121363327573604E-01 
    5.5823029770088362E-01 
    5.4696883958776155E-01 
    5.3603081710349498E-01 
    5.2163626337397040E-01 
    4.6450820923166575E-01 
    2.1000453851588236E-01 
    7.2889867547679466E-01 
    7.2605255759460630E-01 
    7.1052393764408972E-01 
    6.8517968396733198E-01 
    6.5724358496364998E-01 
    6.3076833301940927E-01 
    6.0716892026145131E-01 
    5.8647832676333744E-01 
    5.6887905399301564E-01 
    5.5472594523050944E-01 
    5.4414611454630923E-01 
    5.3642898992420596E-01 
    5.2983250489068734E-01 
    5.2082887370476239E-01 
    4.7497480870265885E-01 
    2.4218861983637466E-01 
    6.8157893561624483E-01 
    6.8239291891382148E-01 
    6.7276154279708456E-01 
    6.5305109942998585E-01 
    6.2980648670380113E-01 
    6.0675524685033588E-01 
    5.8524942299124860E-01 
    5.6602500263274702E-01 
    5.4953752943792555E-01 
    5.3650884602633964E-01 
    5.2729825033414501E-01 
    5.2220833696957147E-01 
    5.2037964927626845E-01 
    5.1755307841232578E-01 
    4.8369372035955377E-01 
    2.7207298779511396E-01 
    6.3241507466794999E-01 
    6.3639475505449195E-01 
    6.3208941907677263E-01 
    6.1770850535277921E-01 
    5.9929183297270361E-01 
    5.8025262830376045E-01 
    5.6198076494718796E-01 
    5.4494910810645880E-01 
    5.3011831783482699E-01 
    5.1817569827874044E-01 
    5.0948477205431297E-01 
    5.0504714372613946E-01 
    5.0662608877340309E-01 
    5.1096712952531353E-01 
    4.9047130540721989E-01 
    3.0126595791916910E-01 
    5.8261180382646593E-01 
    5.8890464158572142E-01 
    5.8958074939025829E-01 
    5.8058652234687136E-01 
    5.6650666390942273E-01 
    5.5075579725029800E-01 
    5.3572824616087389E-01 
    5.2233391104806659E-01 
    5.0971815740687432E-01 
    4.9805056111377738E-01 
    4.8869835237031534E-01 
    4.8391536065178226E-01 
    4.8764380643192001E-01 
    4.9936844503451561E-01 
    4.9357244521485832E-01 
    3.2950492379646240E-01 
    5.3366426146249069E-01 
    5.4226947899727074E-01 
    5.4632405188318434E-01 
    5.4146265775891145E-01 
    5.3048732791382591E-01 
    5.1652699635567523E-01 
    5.0303767713180136E-01 
    4.9056032687994344E-01 
    4.7708915077197084E-01 
    4.6082912321117564E-01 
    4.4138902730411189E-01 
    4.3079397073698777E-01 
    4.3889840223804871E-01 
    4.6987176788073870E-01 
    4.8644275188263525E-01 
    3.5518083222346475E-01 
    4.1951859454923590E-01 
    4.5009490268354529E-01 
    4.7006500348622965E-01 
    4.7275537230537601E-01 
    4.6335831986866111E-01 
    4.4034675212357649E-01 
    3.9976379509298060E-01 
    3.3735498792791685E-01 
    2.7275190612482741E-01 
    1.9262512599441967E-01 
    1.4924134634342154E-01 
    1.3833069339731516E-01 
    1.9957045441405732E-01 
    3.5901612714136238E-01 
    4.5273557678178306E-01 
    3.7177822276170702E-01 
    5.2664508352187861E-02 
    1.2935730934069187E-01 
    1.6091895189778441E-01 
    1.7446019274912802E-01 
    1.5306617546097417E-01 
    1.0031001227796013E-01 
    3.4491300040661400E-02 
    6.1578511979307480E-03 
    2.1227233928655287E-03 
    1.2337601362060263E-04 
    2.1013952283848216E-05 
    8.7391766719439495E-06 
    6.3607943613242287E-03 
    9.9556796506929071E-02 
    3.5630951886449341E-01 
    3.7623211287571812E-01 
    1.0006711280125051E-06 
    6.8973541372646695E-05 
    1.7282357409135767E-05 
    3.6368925029101005E-06 
    3.2763710457727403E-05 
    1.6577680851988643E-05 
    5.5070062094550684E-06 
    1.2175663779898708E-06 
    1.0108463616121423E-06 
    1.0001952799407757E-06 
    1.0000159295392104E-06 
    1.0000053080409095E-06 
    3.3744722790983930E-06 
    4.3325684757762450E-03 
    2.0898942431530421E-01 
    3.3626297465875737E-01 
