# vtk DataFile Version 2.0
Pressure Field Data 
ASCII 
DATASET UNSTRUCTURED_GRID 

POINTS 289 double 

    0.0000000000000000E+00     0.0000000000000000E+00     0.0000000000000000E+00 
    1.0000000000000000E+00     0.0000000000000000E+00     0.0000000000000000E+00 
    1.0000000000000000E+00     1.0000000000000000E+00     0.0000000000000000E+00 
    0.0000000000000000E+00     1.0000000000000000E+00     0.0000000000000000E+00 
    6.2499999999872928E-02     0.0000000000000000E+00     0.0000000000000000E+00 
    1.2499999999977310E-01     0.0000000000000000E+00     0.0000000000000000E+00 
    1.8749999999959341E-01     0.0000000000000000E+00     0.0000000000000000E+00 
    2.4999999999941089E-01     0.0000000000000000E+00     0.0000000000000000E+00 
    3.1249999999922851E-01     0.0000000000000000E+00     0.0000000000000000E+00 
    3.7499999999904610E-01     0.0000000000000000E+00     0.0000000000000000E+00 
    4.3749999999886358E-01     0.0000000000000000E+00     0.0000000000000000E+00 
    4.9999999999869210E-01     0.0000000000000000E+00     0.0000000000000000E+00 
    5.6249999999884603E-01     0.0000000000000000E+00     0.0000000000000000E+00 
    6.2499999999901090E-01     0.0000000000000000E+00     0.0000000000000000E+00 
    6.8749999999917577E-01     0.0000000000000000E+00     0.0000000000000000E+00 
    7.4999999999934064E-01     0.0000000000000000E+00     0.0000000000000000E+00 
    8.1249999999950551E-01     0.0000000000000000E+00     0.0000000000000000E+00 
    8.7499999999967026E-01     0.0000000000000000E+00     0.0000000000000000E+00 
    9.3749999999983513E-01     0.0000000000000000E+00     0.0000000000000000E+00 
    1.0000000000000000E+00     6.2499999999872928E-02     0.0000000000000000E+00 
    1.0000000000000000E+00     1.2499999999977310E-01     0.0000000000000000E+00 
    1.0000000000000000E+00     1.8749999999959341E-01     0.0000000000000000E+00 
    1.0000000000000000E+00     2.4999999999941089E-01     0.0000000000000000E+00 
    1.0000000000000000E+00     3.1249999999922851E-01     0.0000000000000000E+00 
    1.0000000000000000E+00     3.7499999999904610E-01     0.0000000000000000E+00 
    1.0000000000000000E+00     4.3749999999886358E-01     0.0000000000000000E+00 
    1.0000000000000000E+00     4.9999999999869210E-01     0.0000000000000000E+00 
    1.0000000000000000E+00     5.6249999999884603E-01     0.0000000000000000E+00 
    1.0000000000000000E+00     6.2499999999901090E-01     0.0000000000000000E+00 
    1.0000000000000000E+00     6.8749999999917577E-01     0.0000000000000000E+00 
    1.0000000000000000E+00     7.4999999999934064E-01     0.0000000000000000E+00 
    1.0000000000000000E+00     8.1249999999950551E-01     0.0000000000000000E+00 
    1.0000000000000000E+00     8.7499999999967026E-01     0.0000000000000000E+00 
    1.0000000000000000E+00     9.3749999999983513E-01     0.0000000000000000E+00 
    9.3749999999973976E-01     1.0000000000000000E+00     0.0000000000000000E+00 
    8.7499999999950118E-01     1.0000000000000000E+00     0.0000000000000000E+00 
    8.1249999999991318E-01     1.0000000000000000E+00     0.0000000000000000E+00 
    7.5000000000034706E-01     1.0000000000000000E+00     0.0000000000000000E+00 
    6.8750000000078049E-01     1.0000000000000000E+00     0.0000000000000000E+00 
    6.2500000000121403E-01     1.0000000000000000E+00     0.0000000000000000E+00 
    5.6250000000164757E-01     1.0000000000000000E+00     0.0000000000000000E+00 
    5.0000000000205946E-01     1.0000000000000000E+00     0.0000000000000000E+00 
    4.3750000000182099E-01     1.0000000000000000E+00     0.0000000000000000E+00 
    3.7500000000156092E-01     1.0000000000000000E+00     0.0000000000000000E+00 
    3.1250000000130068E-01     1.0000000000000000E+00     0.0000000000000000E+00 
    2.5000000000104050E-01     1.0000000000000000E+00     0.0000000000000000E+00 
    1.8750000000078040E-01     1.0000000000000000E+00     0.0000000000000000E+00 
    1.2500000000052031E-01     1.0000000000000000E+00     0.0000000000000000E+00 
    6.2500000000260125E-02     1.0000000000000000E+00     0.0000000000000000E+00 
    0.0000000000000000E+00     9.3749999999973976E-01     0.0000000000000000E+00 
    0.0000000000000000E+00     8.7499999999950118E-01     0.0000000000000000E+00 
    0.0000000000000000E+00     8.1249999999991318E-01     0.0000000000000000E+00 
    0.0000000000000000E+00     7.5000000000034706E-01     0.0000000000000000E+00 
    0.0000000000000000E+00     6.8750000000078049E-01     0.0000000000000000E+00 
    0.0000000000000000E+00     6.2500000000121403E-01     0.0000000000000000E+00 
    0.0000000000000000E+00     5.6250000000164757E-01     0.0000000000000000E+00 
    0.0000000000000000E+00     5.0000000000205946E-01     0.0000000000000000E+00 
    0.0000000000000000E+00     4.3750000000182099E-01     0.0000000000000000E+00 
    0.0000000000000000E+00     3.7500000000156092E-01     0.0000000000000000E+00 
    0.0000000000000000E+00     3.1250000000130068E-01     0.0000000000000000E+00 
    0.0000000000000000E+00     2.5000000000104050E-01     0.0000000000000000E+00 
    0.0000000000000000E+00     1.8750000000078040E-01     0.0000000000000000E+00 
    0.0000000000000000E+00     1.2500000000052031E-01     0.0000000000000000E+00 
    0.0000000000000000E+00     6.2500000000260125E-02     0.0000000000000000E+00 
    6.2499999999897131E-02     6.2500000000235922E-02     0.0000000000000000E+00 
    6.2499999999921327E-02     1.2500000000047351E-01     0.0000000000000000E+00 
    6.2499999999945530E-02     1.8750000000070621E-01     0.0000000000000000E+00 
    6.2499999999969733E-02     2.5000000000093858E-01     0.0000000000000000E+00 
    6.2499999999993928E-02     3.1250000000117117E-01     0.0000000000000000E+00 
    6.2500000000018124E-02     3.7500000000140382E-01     0.0000000000000000E+00 
    6.2500000000042327E-02     4.3750000000163619E-01     0.0000000000000000E+00 
    6.2500000000066530E-02     5.0000000000184897E-01     0.0000000000000000E+00 
    6.2500000000090733E-02     5.6250000000147260E-01     0.0000000000000000E+00 
    6.2500000000114922E-02     6.2500000000107636E-01     0.0000000000000000E+00 
    6.2500000000139125E-02     6.8750000000068034E-01     0.0000000000000000E+00 
    6.2500000000163328E-02     7.5000000000028411E-01     0.0000000000000000E+00 
    6.2500000000187531E-02     8.1249999999988787E-01     0.0000000000000000E+00 
    6.2500000000211720E-02     8.7499999999951172E-01     0.0000000000000000E+00 
    6.2500000000235922E-02     9.3749999999974565E-01     0.0000000000000000E+00 
    1.2499999999981980E-01     6.2500000000211733E-02     0.0000000000000000E+00 
    1.2499999999986650E-01     1.2500000000042691E-01     0.0000000000000000E+00 
    1.2499999999991319E-01     1.8750000000063199E-01     0.0000000000000000E+00 
    1.2499999999995989E-01     2.5000000000083678E-01     0.0000000000000000E+00 
    1.2500000000000661E-01     3.1250000000104172E-01     0.0000000000000000E+00 
    1.2500000000005329E-01     3.7500000000124661E-01     0.0000000000000000E+00 
    1.2500000000010000E-01     4.3750000000145117E-01     0.0000000000000000E+00 
    1.2500000000014669E-01     5.0000000000163858E-01     0.0000000000000000E+00 
    1.2500000000019340E-01     5.6250000000129741E-01     0.0000000000000000E+00 
    1.2500000000024011E-01     6.2500000000093847E-01     0.0000000000000000E+00 
    1.2500000000028680E-01     6.8750000000057998E-01     0.0000000000000000E+00 
    1.2500000000033351E-01     7.5000000000022127E-01     0.0000000000000000E+00 
    1.2500000000038020E-01     8.1249999999986211E-01     0.0000000000000000E+00 
    1.2500000000042691E-01     8.7499999999952238E-01     0.0000000000000000E+00 
    1.2500000000047359E-01     9.3749999999975164E-01     0.0000000000000000E+00 
    1.8749999999966760E-01     6.2500000000187531E-02     0.0000000000000000E+00 
    1.8749999999974179E-01     1.2500000000038020E-01     0.0000000000000000E+00 
    1.8749999999981601E-01     1.8750000000055780E-01     0.0000000000000000E+00 
    1.8749999999989009E-01     2.5000000000073502E-01     0.0000000000000000E+00 
    1.8749999999996431E-01     3.1250000000091221E-01     0.0000000000000000E+00 
    1.8750000000003850E-01     3.7500000000108941E-01     0.0000000000000000E+00 
    1.8750000000011269E-01     4.3750000000126649E-01     0.0000000000000000E+00 
    1.8750000000018691E-01     5.0000000000142808E-01     0.0000000000000000E+00 
    1.8750000000026110E-01     5.6250000000112244E-01     0.0000000000000000E+00 
    1.8750000000033529E-01     6.2500000000080080E-01     0.0000000000000000E+00 
    1.8750000000040951E-01     6.8750000000047962E-01     0.0000000000000000E+00 
    1.8750000000048361E-01     7.5000000000015843E-01     0.0000000000000000E+00 
    1.8750000000055780E-01     8.1249999999983680E-01     0.0000000000000000E+00 
    1.8750000000063199E-01     8.7499999999953304E-01     0.0000000000000000E+00 
    1.8750000000070621E-01     9.3749999999975764E-01     0.0000000000000000E+00 
    2.4999999999951281E-01     6.2500000000163314E-02     0.0000000000000000E+00 
    2.4999999999961461E-01     1.2500000000033351E-01     0.0000000000000000E+00 
    2.4999999999971650E-01     1.8750000000048361E-01     0.0000000000000000E+00 
    2.4999999999981831E-01     2.5000000000063310E-01     0.0000000000000000E+00 
    2.4999999999992020E-01     3.1250000000078260E-01     0.0000000000000000E+00 
    2.5000000000002198E-01     3.7500000000093209E-01     0.0000000000000000E+00 
    2.5000000000012390E-01     4.3750000000108180E-01     0.0000000000000000E+00 
    2.5000000000022571E-01     5.0000000000121769E-01     0.0000000000000000E+00 
    2.5000000000032763E-01     5.6250000000094724E-01     0.0000000000000000E+00 
    2.5000000000042938E-01     6.2500000000066314E-01     0.0000000000000000E+00 
    2.5000000000053119E-01     6.8750000000037925E-01     0.0000000000000000E+00 
[...]
CELL_DATA 256 
SCALARS Pressure double 1 
LOOKUP_TABLE default 

    8.9831643085797885E-01 
    8.4623913652230198E-01 
    8.1097129778464128E-01 
    7.7757902825440806E-01 
    7.4273563890617800E-01 
    7.0571810109215094E-01 
    6.6646454888413165E-01 
    6.2527085578232744E-01 
    5.8263556815403239E-01 
    5.3928395298378062E-01 
    4.9631532230072239E-01 
    4.5545893964223272E-01 
    4.1887599593005570E-01 
    3.8666576920942614E-01 
    3.6179573322949438E-01 
    3.5121407771610064E-01 
    8.8438339874259242E-01 
    8.4775398152809123E-01 
    8.1369277437164478E-01 
    7.8061799641687135E-01 
    7.4606143021916682E-01 
    7.0932031158164643E-01 
    6.7030483395387852E-01 
    6.2927962441644836E-01 
    5.8671461161920824E-01 
    5.4329562829425615E-01 
    5.0006024566556539E-01 
    4.5867022046923234E-01 
    4.2133342945546182E-01 
    3.8835170944735753E-01 
    3.6228387078095514E-01 
    3.5076147625862930E-01 
    8.7365731304469763E-01 
    8.4705510016469920E-01 
    8.1558821623372324E-01 
    7.8324522919124751E-01 
    7.4910684841935149E-01 
    7.1269999577778209E-01 
    6.7395404543385640E-01 
    6.3310710220587452E-01 
    5.9059305968945319E-01 
    5.4704739154334348E-01 
    5.0343034344316961E-01 
    4.6131107741456195E-01 
    4.2292230001797887E-01 
    3.8892093712612597E-01 
    3.6146252056296235E-01 
    3.4910112742660881E-01 
    8.6511373157433702E-01 
    8.4518011706422402E-01 
    8.1669019954747013E-01 
    7.8544776490599744E-01 
    7.5187860232383308E-01 
    7.1586680599579944E-01 
    6.7741962470533501E-01 
    6.3676489043244744E-01 
    5.9429608003110468E-01 
    5.5058459065189591E-01 
    5.0649336876989326E-01 
    4.6346806869110257E-01 
    4.2373217895082832E-01 
    3.8838595802058012E-01 
    3.5923464866959631E-01 
    3.4600245778429667E-01 
    8.5809724073867721E-01 
    8.4270226376435087E-01 
    8.1712411631683302E-01 
    7.8723601106767671E-01 
    7.5438680569555105E-01 
    7.1883908425879328E-01 
    6.8072197566414439E-01 
    6.4027555295540028E-01 
    5.9785495047148918E-01 
    5.5395677531149201E-01 
    5.0932458477091747E-01 
    4.6524189788581694E-01 
    4.2386895525122542E-01 
    3.8676671564343268E-01 
    3.5549515581182517E-01 
    3.4122766574933222E-01 
    8.5225849736247827E-01 
    8.3998658876256083E-01 
    8.1704935579415205E-01 
    7.8864981365944464E-01 
    7.5664884739324123E-01 
    7.2163864526253474E-01 
    6.8388968888063095E-01 
    6.4367090017096396E-01 
    6.0130575969289601E-01 
    5.5721394370328570E-01 
    5.1200039281924503E-01 
    4.6674151119118035E-01 
    4.2345148240775476E-01 
    3.8409765638590054E-01 
    3.5014455997286720E-01 
    3.3452467492563287E-01 
    8.4737323601453463E-01 
    8.3727271855858176E-01 
    8.1663439806045379E-01 
    7.8975670265974107E-01 
    7.5869378590712466E-01 
    7.2428889498074800E-01 
    6.8695093224806825E-01 
    6.4698530199198112E-01 
    6.0468876229320390E-01 
    5.6040799455019152E-01 
    5.1459913827886783E-01 
    4.6808379362728819E-01 
    4.2261881574790472E-01 
    3.8043966032378579E-01 
    3.4308977165902255E-01 
    3.2560685563331504E-01 
    8.4328325809762295E-01 
    8.3471148324412769E-01 
    8.1602997733536198E-01 
    7.9063456445040148E-01 
    7.6055995920538544E-01 
    7.2681507598917661E-01 
    6.8993120438257927E-01 
    6.5025085424172224E-01 
    6.0804529429475807E-01 
    5.6359441375658381E-01 
    5.1720424033082180E-01 
    4.6939922550891644E-01 
    4.2154847092031461E-01 
    3.7591739266703417E-01 
    3.3429152274866353E-01 
    3.1414475751147425E-01 
    8.3987372556137863E-01 
    8.3239315438293726E-01 
    8.1535982235019311E-01 
    7.9136384861065789E-01 
    7.6229268547678619E-01 
    7.2924408133851826E-01 
    6.9285247301852160E-01 
    6.5349562692400875E-01 
    6.1141504985696660E-01 
    5.6682886387024922E-01 
    5.1990094738647541E-01 
    4.7082878516840798E-01 
    4.2045800968802899E-01 
    3.7075447091337116E-01 
    3.2381514083190904E-01 
    2.9975179402122670E-01 
    8.3706263400025127E-01 
    8.3037275009055878E-01 
    8.1472329693957135E-01 
    7.9202378210602808E-01 
    7.6394382881498690E-01 
    7.3160659978008724E-01 
    6.9573661650561824E-01 
    6.5674665355526995E-01 
    6.1483594908917916E-01 
    5.7016349902149266E-01 
    5.2277111573504709E-01 
    4.7251785264793361E-01 
    4.1959977781091440E-01 
    3.6529297817048750E-01 
    3.1179666551743257E-01 
    2.8181644344982398E-01 
    8.3479759824799382E-01 
    8.2869237054801903E-01 
    8.1420718399873071E-01 
    7.9269459295920741E-01 
    7.6557354171621428E-01 
    7.3394311606616436E-01 
    6.9861106789460148E-01 
    6.6003054929601079E-01 
    6.1833854446975467E-01 
    5.7363584025954084E-01 
    5.2587924180376910E-01 
    4.7459895201497132E-01 
    4.1924102727528378E-01 
    3.5995854122476784E-01 
    2.9831471850063784E-01 
    2.5913245468216700E-01 
    8.3305533868265658E-01 
    8.2739826231951108E-01 
    8.1389556570253463E-01 
    7.9345803277286320E-01 
    7.6724917437294804E-01 
    7.3630289784169434E-01 
    7.0150397467030778E-01 
    6.6335830592525213E-01 
    6.2191422263109897E-01 
    5.7721741979347574E-01 
    5.2919654800574067E-01 
    4.7709980805855279E-01 
    4.1956921233683414E-01 
    3.5522053399581738E-01 
    2.8356433034015449E-01 
    2.2992064331649525E-01 
    8.3177431177489436E-01 
    8.2649652532410711E-01 
    8.1384060210152798E-01 
    7.9437324757928918E-01 
    7.6901677746668085E-01 
    7.3870361456938272E-01 
    7.0435124018205086E-01 
    6.6656722474835484E-01 
    6.2537122143659274E-01 
    5.8070657482815702E-01 
    5.3248415893700440E-01 
    4.7973243600017856E-01 
    4.2043814224879583E-01 
    3.5125296620555913E-01 
    2.6776139136221083E-01 
    1.9205424706492219E-01 
    8.3067901721825999E-01 
    8.2577984219072698E-01 
    8.1390935511346563E-01 
    7.9531701537377530E-01 
    7.7074218491965396E-01 
    7.4102429641223411E-01 
    7.0706217611903965E-01 
    6.6957310590654184E-01 
    6.2869187740651877E-01 
    5.8424540447063489E-01 
    5.3603419119620821E-01 
    4.8296671899711685E-01 
    4.2246554077205145E-01 
    3.4891508280397404E-01 
    2.5176718851777058E-01 
    1.4258098942485325E-01 
    8.2995217791719011E-01 
    8.2536815708427858E-01 
    8.1419750162104032E-01 
    7.9637353714505421E-01 
    7.7250713778668967E-01 
    7.4339035805651810E-01 
    7.0989371636757437E-01 
    6.7276173621491064E-01 
    6.3224623286522608E-01 
    5.8814804651676944E-01 
    5.4016290685927959E-01 
    4.8717550078044736E-01 
    4.2634361822549810E-01 
    3.5044725893008627E-01 
    2.4023163708345324E-01 
    7.7816753006343886E-02 
    8.2976264713477610E-01 
    8.2555524141645775E-01 
    8.1501773283400558E-01 
    7.9787198116725366E-01 
    7.7464321442826822E-01 
    7.4609311632293596E-01 
    7.1307036346845842E-01 
    6.7631797363387502E-01 
    6.3613715263437476E-01 
    5.9238282506860784E-01 
    5.4473991078654316E-01 
    4.9212841865167684E-01 
    4.3174205854225561E-01 
    3.5621329008128738E-01 
    2.4223652302982185E-01 
    0.0000000000000000E+00 

SCALARS Saturarion double 1 
LOOKUP_TABLE default 

    1.0000000000000029E+00 
    9.6481635599386695E-01 
    9.0456700769872633E-01 
    8.3114369264688659E-01 
    7.6898187476551194E-01 
    7.1801757888308670E-01 
    6.7665155716725978E-01 
    6.4198451012869651E-01 
    6.1126188617640165E-01 
    5.8266820751968151E-01 
    5.5520120394800232E-01 
    5.2778369711492679E-01 
    4.9048598340960048E-01 
    3.6097675049413169E-01 
    1.9842048638022088E-02 
    1.0000001952967437E-06 
    9.8542696043435418E-01 
    9.5210917750877688E-01 
    8.8904016146022335E-01 
    8.2142927274746180E-01 
    7.6376675055038545E-01 
    7.1473427650438204E-01 
    6.7369059108222584E-01 
    6.3895685339204211E-01 
    6.0857269113869072E-01 
    5.8072124553271853E-01 
    5.5417705990561905E-01 
    5.2766297346088609E-01 
    4.9168191431800201E-01 
    3.7513297747917085E-01 
    3.3076759524320667E-02 
    1.7777790445676922E-06 
    9.6253360205953276E-01 
    9.3039632330939637E-01 
    8.6807241841043092E-01 
    8.0505996793310608E-01 
    7.5299867609002735E-01 
    7.0747695248156794E-01 
    6.6755501606229606E-01 
    6.3287836056147118E-01 
    6.0292699795949245E-01 
    5.7628505419353770E-01 
    5.5137928828086102E-01 
    5.2643552905642721E-01 
    4.9341059024532630E-01 
    3.9067015168626784E-01 
    5.2737565657536949E-02 
    3.7267225332629683E-06 
    9.2242806704301217E-01 
    8.9693983542225297E-01 
    8.4257901127648904E-01 
    7.8436672062452317E-01 
    7.3589795784598322E-01 
    6.9509816507762401E-01 
    6.5867448089885028E-01 
    6.2623392229129393E-01 
    5.9753353539996934E-01 
    5.7200474474772989E-01 
    5.4829186786426354E-01 
    5.2492330335430504E-01 
    4.9518399328769863E-01 
    4.0594698310142963E-01 
    8.1276712377260238E-02 
    1.0522078956318512E-05 
    8.7841365981744834E-01 
    8.5697864508220489E-01 
    8.1032520862260060E-01 
    7.5914705939973670E-01 
    7.1487999233926647E-01 
    6.7778850076722075E-01 
    6.4566209770916372E-01 
    6.1697762601372030E-01 
    5.9104440147228698E-01 
    5.6736293648158265E-01 
    5.4524069505175854E-01 
    5.2364427041967632E-01 
    4.9660698572134182E-01 
    4.2019783051172399E-01 
    1.0896148897814022E-01 
    9.9957068297708474E-06 
    8.3312412954786919E-01 
    8.1595214861176113E-01 
    7.7727419943185549E-01 
    7.3303531922611498E-01 
    6.9288886703577535E-01 
    6.5858767064768398E-01 
    6.2934718907053067E-01 
    6.0403754164371271E-01 
    5.8118071602359922E-01 
    5.5992569957848914E-01 
    5.3991520187444653E-01 
    5.2059685402674705E-01 
    4.9732213651462143E-01 
    4.3115220532257292E-01 
    1.3906742565837088E-01 
    2.9503802511094452E-05 
    7.8684926005847189E-01 
    7.7468122912130877E-01 
    7.4401980073904495E-01 
    7.0595028865303222E-01 
    6.6992403032608061E-01 
    6.3861928079546171E-01 
    6.1207592666428023E-01 
    5.8907093851539394E-01 
    5.6871754832034371E-01 
    5.5006498788106051E-01 
    5.3265309506614655E-01 
    5.1578103520973506E-01 
    4.9628255853171632E-01 
    4.4099892830024129E-01 
    1.7477363098489918E-01 
    1.5726436829044545E-04 
    7.3963096247339466E-01 
    7.3252611868817219E-01 
    7.0989069345331968E-01 
    6.7806006680203679E-01 
    6.4594615299116787E-01 
    6.1742123696966766E-01 
    5.9281327611177637E-01 
    5.7189416226717515E-01 
    5.5399676974610490E-01 
    5.3818326136512940E-01 
    5.2339223850295136E-01 
    5.0927022263660726E-01 
    4.9349746992804167E-01 
    4.4967793706568981E-01 
    2.1895484082584463E-01 
    8.4942355498425698E-04 
    6.9150436893303580E-01 
    6.8880115362335714E-01 
    6.7328358147814227E-01 
    6.4807607660491362E-01 
    6.2073205978161572E-01 
    5.9492518557210328E-01 
    5.7186261118527770E-01 
    5.5220224085754455E-01 
    5.3638711104122516E-01 
    5.2334155190403375E-01 
    5.1180385001711759E-01 
    5.0080068413154888E-01 
    4.8887952261390910E-01 
    4.5531570646809122E-01 
    2.7209585531679970E-01 
    3.6841611081763008E-03 
    6.4260265937420102E-01 
    6.4364712535424706E-01 
    6.3443814032886003E-01 
    6.1548492689494294E-01 
    5.9334081462196453E-01 
    5.7107912886201018E-01 
    5.4998969257837493E-01 
    5.3190234158870342E-01 
    5.1778075547258706E-01 
    5.0640992929657525E-01 
    4.9685877815371077E-01 
    4.8921263483360411E-01 
    4.8188063199538334E-01 
    4.5807677748290904E-01 
    3.1935118653520295E-01 
    1.8117090348930436E-02 
    5.9421120146668882E-01 
    5.9814070581635759E-01 
    5.9446571127463210E-01 
    5.8125108457104357E-01 
    5.6393576905407927E-01 
    5.4594258886144253E-01 
    5.2859114141833163E-01 
    5.1216106559570185E-01 
    4.9780526485247972E-01 
    4.8575072699166694E-01 
    4.7649728029026400E-01 
    4.7100446159395165E-01 
    4.6917853309781599E-01 
    4.5616363386187841E-01 
    3.5171858036496839E-01 
    5.4212008666410925E-02 
    5.4913930954566381E-01 
    5.5495163688148585E-01 
    5.5541640592414365E-01 
    5.4632993456645440E-01 
    5.3243796381925046E-01 
    5.1839974319951831E-01 
    5.0386651195677479E-01 
    4.8658028776516393E-01 
    4.6707333024128539E-01 
    4.4532469625672161E-01 
    4.2695539095190371E-01 
    4.1841072234630855E-01 
    4.3032705540525829E-01 
    4.4173606537473176E-01 
    3.7509510678846680E-01 
    1.0559862381010593E-01 
    4.8528021409243960E-01 
    4.9812864800629925E-01 
    5.0499231978907899E-01 
    5.0146757115184537E-01 
    4.8831486042756117E-01 
    4.7194435990050121E-01 
    4.4817722588564279E-01 
    3.8464631988803039E-01 
    2.7911064965796928E-01 
    2.0615983784748237E-01 
    1.4961502505468280E-01 
    1.4549268757246209E-01 
    2.4653403228825080E-01 
    3.7224686271337842E-01 
    3.6203969617539161E-01 
    1.5612812509369112E-01 
    2.1849354260760856E-01 
    3.1203669424701613E-01 
    3.5712699908206136E-01 
    3.5006730249830920E-01 
    2.9444679169122756E-01 
    2.2120443442201640E-01 
    1.5598179810183616E-01 
    3.9684816068082919E-02 
    3.0041561943486804E-03 
    2.6762992602154349E-04 
    2.7192708751874833E-05 
    2.8559164561534920E-05 
    8.5996322407467640E-03 
    1.3001852697503891E-01 
    3.0805948036662517E-01 
    1.7437230220424133E-01 
    4.4595879149033841E-05 
    7.8399371165796174E-03 
    1.6763299114335002E-02 
    1.1260547936081732E-02 
    3.6253737569523787E-03 
    2.6094420946096185E-04 
    6.1648228967431566E-05 
    1.3779060456626230E-05 
    1.0878882809185910E-06 
    1.0022110360342057E-06 
    1.0000478696021367E-06 
    1.0000470973063879E-06 
    4.1004645784323171E-06 
    1.8023613959138523E-04 
    1.0884603757344669E-01 
    1.5989742154700781E-01 
    1.0000000499992298E-06 
    1.6638064092970139E-06 
    1.2329030959859292E-06 
    1.3473130103680722E-06 
    1.1223999882504964E-06 
    1.0016165569686938E-06 
    1.0002708127362760E-06 
    1.0000030278245587E-06 
    1.0000000063112712E-06 
    1.0000000001340817E-06 
    1.0000000000003354E-06 
    1.0000000000001232E-06 
    1.0000006413561628E-06 
    1.0121277026175102E-06 
    2.5856554586095712E-04 
    2.1222516976650681E-02 
