# vtk DataFile Version 2.0
Pressure Field Data 
ASCII 
DATASET UNSTRUCTURED_GRID 

POINTS 289 double 

    0.0000000000000000E+00     0.0000000000000000E+00     0.0000000000000000E+00 
    1.0000000000000000E+00     0.0000000000000000E+00     0.0000000000000000E+00 
    1.0000000000000000E+00     1.0000000000000000E+00     0.0000000000000000E+00 
    0.0000000000000000E+00     1.0000000000000000E+00     0.0000000000000000E+00 
    6.2499999999872928E-02     0.0000000000000000E+00     0.0000000000000000E+00 
    1.2499999999977310E-01     0.0000000000000000E+00     0.0000000000000000E+00 
    1.8749999999959341E-01     0.0000000000000000E+00     0.0000000000000000E+00 
    2.4999999999941089E-01     0.0000000000000000E+00     0.0000000000000000E+00 
    3.1249999999922851E-01     0.0000000000000000E+00     0.0000000000000000E+00 
    3.7499999999904610E-01     0.0000000000000000E+00     0.0000000000000000E+00 
    4.3749999999886358E-01     0.0000000000000000E+00     0.0000000000000000E+00 
    4.9999999999869210E-01     0.0000000000000000E+00     0.0000000000000000E+00 
    5.6249999999884603E-01     0.0000000000000000E+00     0.0000000000000000E+00 
    6.2499999999901090E-01     0.0000000000000000E+00     0.0000000000000000E+00 
    6.8749999999917577E-01     0.0000000000000000E+00     0.0000000000000000E+00 
    7.4999999999934064E-01     0.0000000000000000E+00     0.0000000000000000E+00 
    8.1249999999950551E-01     0.0000000000000000E+00     0.0000000000000000E+00 
    8.7499999999967026E-01     0.0000000000000000E+00     0.0000000000000000E+00 
    9.3749999999983513E-01     0.0000000000000000E+00     0.0000000000000000E+00 
    1.0000000000000000E+00     6.2499999999872928E-02     0.0000000000000000E+00 
    1.0000000000000000E+00     1.2499999999977310E-01     0.0000000000000000E+00 
    1.0000000000000000E+00     1.8749999999959341E-01     0.0000000000000000E+00 
    1.0000000000000000E+00     2.4999999999941089E-01     0.0000000000000000E+00 
    1.0000000000000000E+00     3.1249999999922851E-01     0.0000000000000000E+00 
    1.0000000000000000E+00     3.7499999999904610E-01     0.0000000000000000E+00 
    1.0000000000000000E+00     4.3749999999886358E-01     0.0000000000000000E+00 
    1.0000000000000000E+00     4.9999999999869210E-01     0.0000000000000000E+00 
    1.0000000000000000E+00     5.6249999999884603E-01     0.0000000000000000E+00 
    1.0000000000000000E+00     6.2499999999901090E-01     0.0000000000000000E+00 
    1.0000000000000000E+00     6.8749999999917577E-01     0.0000000000000000E+00 
    1.0000000000000000E+00     7.4999999999934064E-01     0.0000000000000000E+00 
    1.0000000000000000E+00     8.1249999999950551E-01     0.0000000000000000E+00 
    1.0000000000000000E+00     8.7499999999967026E-01     0.0000000000000000E+00 
    1.0000000000000000E+00     9.3749999999983513E-01     0.0000000000000000E+00 
    9.3749999999973976E-01     1.0000000000000000E+00     0.0000000000000000E+00 
    8.7499999999950118E-01     1.0000000000000000E+00     0.0000000000000000E+00 
    8.1249999999991318E-01     1.0000000000000000E+00     0.0000000000000000E+00 
    7.5000000000034706E-01     1.0000000000000000E+00     0.0000000000000000E+00 
    6.8750000000078049E-01     1.0000000000000000E+00     0.0000000000000000E+00 
    6.2500000000121403E-01     1.0000000000000000E+00     0.0000000000000000E+00 
    5.6250000000164757E-01     1.0000000000000000E+00     0.0000000000000000E+00 
    5.0000000000205946E-01     1.0000000000000000E+00     0.0000000000000000E+00 
    4.3750000000182099E-01     1.0000000000000000E+00     0.0000000000000000E+00 
    3.7500000000156092E-01     1.0000000000000000E+00     0.0000000000000000E+00 
    3.1250000000130068E-01     1.0000000000000000E+00     0.0000000000000000E+00 
    2.5000000000104050E-01     1.0000000000000000E+00     0.0000000000000000E+00 
    1.8750000000078040E-01     1.0000000000000000E+00     0.0000000000000000E+00 
    1.2500000000052031E-01     1.0000000000000000E+00     0.0000000000000000E+00 
    6.2500000000260125E-02     1.0000000000000000E+00     0.0000000000000000E+00 
    0.0000000000000000E+00     9.3749999999973976E-01     0.0000000000000000E+00 
    0.0000000000000000E+00     8.7499999999950118E-01     0.0000000000000000E+00 
    0.0000000000000000E+00     8.1249999999991318E-01     0.0000000000000000E+00 
    0.0000000000000000E+00     7.5000000000034706E-01     0.0000000000000000E+00 
    0.0000000000000000E+00     6.8750000000078049E-01     0.0000000000000000E+00 
    0.0000000000000000E+00     6.2500000000121403E-01     0.0000000000000000E+00 
    0.0000000000000000E+00     5.6250000000164757E-01     0.0000000000000000E+00 
    0.0000000000000000E+00     5.0000000000205946E-01     0.0000000000000000E+00 
    0.0000000000000000E+00     4.3750000000182099E-01     0.0000000000000000E+00 
    0.0000000000000000E+00     3.7500000000156092E-01     0.0000000000000000E+00 
    0.0000000000000000E+00     3.1250000000130068E-01     0.0000000000000000E+00 
    0.0000000000000000E+00     2.5000000000104050E-01     0.0000000000000000E+00 
    0.0000000000000000E+00     1.8750000000078040E-01     0.0000000000000000E+00 
    0.0000000000000000E+00     1.2500000000052031E-01     0.0000000000000000E+00 
    0.0000000000000000E+00     6.2500000000260125E-02     0.0000000000000000E+00 
    6.2499999999897131E-02     6.2500000000235922E-02     0.0000000000000000E+00 
    6.2499999999921327E-02     1.2500000000047351E-01     0.0000000000000000E+00 
    6.2499999999945530E-02     1.8750000000070621E-01     0.0000000000000000E+00 
    6.2499999999969733E-02     2.5000000000093858E-01     0.0000000000000000E+00 
    6.2499999999993928E-02     3.1250000000117117E-01     0.0000000000000000E+00 
    6.2500000000018124E-02     3.7500000000140382E-01     0.0000000000000000E+00 
    6.2500000000042327E-02     4.3750000000163619E-01     0.0000000000000000E+00 
    6.2500000000066530E-02     5.0000000000184897E-01     0.0000000000000000E+00 
    6.2500000000090733E-02     5.6250000000147260E-01     0.0000000000000000E+00 
    6.2500000000114922E-02     6.2500000000107636E-01     0.0000000000000000E+00 
    6.2500000000139125E-02     6.8750000000068034E-01     0.0000000000000000E+00 
    6.2500000000163328E-02     7.5000000000028411E-01     0.0000000000000000E+00 
    6.2500000000187531E-02     8.1249999999988787E-01     0.0000000000000000E+00 
    6.2500000000211720E-02     8.7499999999951172E-01     0.0000000000000000E+00 
    6.2500000000235922E-02     9.3749999999974565E-01     0.0000000000000000E+00 
    1.2499999999981980E-01     6.2500000000211733E-02     0.0000000000000000E+00 
    1.2499999999986650E-01     1.2500000000042691E-01     0.0000000000000000E+00 
    1.2499999999991319E-01     1.8750000000063199E-01     0.0000000000000000E+00 
    1.2499999999995989E-01     2.5000000000083678E-01     0.0000000000000000E+00 
    1.2500000000000661E-01     3.1250000000104172E-01     0.0000000000000000E+00 
    1.2500000000005329E-01     3.7500000000124661E-01     0.0000000000000000E+00 
    1.2500000000010000E-01     4.3750000000145117E-01     0.0000000000000000E+00 
    1.2500000000014669E-01     5.0000000000163858E-01     0.0000000000000000E+00 
    1.2500000000019340E-01     5.6250000000129741E-01     0.0000000000000000E+00 
    1.2500000000024011E-01     6.2500000000093847E-01     0.0000000000000000E+00 
    1.2500000000028680E-01     6.8750000000057998E-01     0.0000000000000000E+00 
    1.2500000000033351E-01     7.5000000000022127E-01     0.0000000000000000E+00 
    1.2500000000038020E-01     8.1249999999986211E-01     0.0000000000000000E+00 
    1.2500000000042691E-01     8.7499999999952238E-01     0.0000000000000000E+00 
    1.2500000000047359E-01     9.3749999999975164E-01     0.0000000000000000E+00 
    1.8749999999966760E-01     6.2500000000187531E-02     0.0000000000000000E+00 
    1.8749999999974179E-01     1.2500000000038020E-01     0.0000000000000000E+00 
    1.8749999999981601E-01     1.8750000000055780E-01     0.0000000000000000E+00 
    1.8749999999989009E-01     2.5000000000073502E-01     0.0000000000000000E+00 
    1.8749999999996431E-01     3.1250000000091221E-01     0.0000000000000000E+00 
    1.8750000000003850E-01     3.7500000000108941E-01     0.0000000000000000E+00 
    1.8750000000011269E-01     4.3750000000126649E-01     0.0000000000000000E+00 
    1.8750000000018691E-01     5.0000000000142808E-01     0.0000000000000000E+00 
    1.8750000000026110E-01     5.6250000000112244E-01     0.0000000000000000E+00 
    1.8750000000033529E-01     6.2500000000080080E-01     0.0000000000000000E+00 
    1.8750000000040951E-01     6.8750000000047962E-01     0.0000000000000000E+00 
    1.8750000000048361E-01     7.5000000000015843E-01     0.0000000000000000E+00 
    1.8750000000055780E-01     8.1249999999983680E-01     0.0000000000000000E+00 
    1.8750000000063199E-01     8.7499999999953304E-01     0.0000000000000000E+00 
    1.8750000000070621E-01     9.3749999999975764E-01     0.0000000000000000E+00 
    2.4999999999951281E-01     6.2500000000163314E-02     0.0000000000000000E+00 
    2.4999999999961461E-01     1.2500000000033351E-01     0.0000000000000000E+00 
    2.4999999999971650E-01     1.8750000000048361E-01     0.0000000000000000E+00 
    2.4999999999981831E-01     2.5000000000063310E-01     0.0000000000000000E+00 
    2.4999999999992020E-01     3.1250000000078260E-01     0.0000000000000000E+00 
    2.5000000000002198E-01     3.7500000000093209E-01     0.0000000000000000E+00 
    2.5000000000012390E-01     4.3750000000108180E-01     0.0000000000000000E+00 
    2.5000000000022571E-01     5.0000000000121769E-01     0.0000000000000000E+00 
    2.5000000000032763E-01     5.6250000000094724E-01     0.0000000000000000E+00 
    2.5000000000042938E-01     6.2500000000066314E-01     0.0000000000000000E+00 
    2.5000000000053119E-01     6.8750000000037925E-01     0.0000000000000000E+00 
[...]
CELL_DATA 256 
SCALARS Pressure double 1 
LOOKUP_TABLE default 

    1.0777204872705559E+00 
    1.0204595294816814E+00 
    9.7771748611040299E-01 
    9.3465664658786662E-01 
    8.8806361277263268E-01 
    8.3783349286814346E-01 
    7.8294092222496947E-01 
    7.1711428471570493E-01 
    6.4142783442735851E-01 
    5.7088192554685913E-01 
    5.0631315545682309E-01 
    4.4721917227505165E-01 
    3.9610762604430638E-01 
    3.5643381109361616E-01 
    3.3131983418668243E-01 
    3.2122297121012061E-01 
    1.0637985492543460E+00 
    1.0224106603296603E+00 
    9.8103412597419071E-01 
    9.3847005136590911E-01 
    8.9240904777324526E-01 
    8.4267951729061874E-01 
    7.8846393280942739E-01 
    7.2338028831039858E-01 
    6.4801888450622103E-01 
    5.7725397889165131E-01 
    5.1204298987940156E-01 
    4.5206012971770937E-01 
    3.9968655758937222E-01 
    3.5844212662976171E-01 
    3.3178474951535381E-01 
    3.2078113397641045E-01 
    1.0527922492352007E+00 
    1.0218643090850907E+00 
    9.8325061933338598E-01 
    9.4157425775891967E-01 
    8.9621203518716097E-01 
    8.4706912895530162E-01 
    7.9347008786521855E-01 
    7.2888414846606442E-01 
    6.5393457237244268E-01 
    5.8327232005406460E-01 
    5.1740360364775695E-01 
    4.5635962735340729E-01 
    4.0244961860499945E-01 
    3.5932378608899235E-01 
    3.3093960549590362E-01 
    3.1917343765117961E-01 
    1.0435040401004669E+00 
    1.0197699935911686E+00 
    9.8438277867884760E-01 
    9.4398994333431285E-01 
    8.9948203634604762E-01 
    8.5101139095635880E-01 
    7.9796696966572889E-01 
    7.3370502766418377E-01 
    6.5928389987923131E-01 
    5.8895575177249948E-01 
    5.2245135073995141E-01 
    4.6020873091987397E-01 
    4.0449243041001098E-01 
    3.5912111665440782E-01 
    3.2870480366793220E-01 
    3.1617793326972687E-01 
    1.0353354041998364E+00 
    1.0166757373340278E+00 
    9.8456097531093656E-01 
    9.4578270295704447E-01 
    9.0227791262372081E-01 
    8.5454531075522977E-01 
    8.0194498374622925E-01 
    7.3788826635770610E-01 
    6.6418545140353868E-01 
    5.9434732393734513E-01 
    5.2725195628658483E-01 
    4.6370768942232571E-01 
    4.0592493953396563E-01 
    3.5788908085933191E-01 
    3.2499738428957947E-01 
    3.1156428674001974E-01 
    1.0281420441846263E+00 
    1.0130783431797625E+00 
    9.8402578246678230E-01 
    9.4706153192236320E-01 
    9.0468136200795379E-01 
    8.5771798452610426E-01 
    8.0533913748136321E-01 
    7.4143264599062875E-01 
    6.6880147539843338E-01 
    5.9950952543371594E-01 
    5.3188049205100285E-01 
    4.6696759388210729E-01 
    4.0687707702301651E-01 
    3.5570540178837728E-01 
    3.1973539040263949E-01 
    3.0507664471573054E-01 
    1.0218298396638861E+00 
    1.0093320707559070E+00 
    9.8301758354200153E-01 
    9.4794045268630422E-01 
    9.0676858639654445E-01 
    8.6056909181904262E-01 
    8.0808893859089048E-01 
    7.4438069207714186E-01 
    6.7333972001842213E-01 
    6.0452247814388649E-01 
    5.3642029376670453E-01 
    4.7011056799953510E-01 
    4.0750410570385137E-01 
    3.5268341749719978E-01 
    3.1284626509167940E-01 
    2.9641837414876671E-01 
    1.0163468197855501E+00 
    1.0056959304201463E+00 
    9.8175938664477980E-01 
    9.4853916921908199E-01 
    9.0860879609773293E-01 
    8.6305937594782167E-01 
    8.1021378635198249E-01 
    7.4695417624242444E-01 
    6.7792967547659089E-01 
    6.0947434467269279E-01 
    5.4095893185855104E-01 
    4.7326840669547288E-01 
    4.0799063342503750E-01 
    3.4898697613017998E-01 
    3.0427921605259356E-01 
    2.8522911780518101E-01 
    1.0116839208504695E+00 
    1.0023703650857259E+00 
    9.8045136985767911E-01 
    9.4897785751938324E-01 
    9.1022881125850263E-01 
    8.6499312401753903E-01 
    8.1176820356744350E-01 
    7.4953037101270770E-01 
    6.8254045874611402E-01 
    6.1444003534322189E-01 
    5.4558293716317441E-01 
    4.7657866124323661E-01 
    4.0855271360827056E-01 
    3.4484970337890952E-01 
    2.9402890332752524E-01 
    2.7105582174599196E-01 
    1.0077951444051028E+00 
    9.9946539441128612E-01 
    9.7922434382772361E-01 
    9.4929100504338848E-01 
    9.1141912648500789E-01 
    8.6621730231180694E-01 
    8.1313732844141362E-01 
    7.5249881244721373E-01 
    6.8713218636529794E-01 
    6.1947601093410398E-01 
    5.5037201115645684E-01 
    4.8017842865604693E-01 
    4.0943611689957865E-01 
    3.4059719348983214E-01 
    2.8217570205882148E-01 
    2.5331139769629107E-01 
    1.0043296537779134E+00 
    9.9678034184083641E-01 
    9.7785730535478221E-01 
    9.4911982921507032E-01 
    9.1193764890889206E-01 
    8.6710791106623730E-01 
    8.1498088256987267E-01 
    7.5592974823791359E-01 
    6.9177484686882518E-01 
    6.2463244125157547E-01 
    5.5539518421833067E-01 
    4.8419576121337660E-01 
    4.1090851790314098E-01 
    3.3667038619691336E-01 
    2.6895498786420879E-01 
    2.3121868576234086E-01 
    1.0008702810853101E+00 
    9.9386662200677933E-01 
    9.7610358653101548E-01 
    9.4852987903941632E-01 
    9.1235809062708273E-01 
    8.6849962222318866E-01 
    8.1750249643017281E-01 
    7.5967312712700352E-01 
    6.9655933889458488E-01 
    6.2995706879322766E-01 
    5.6070743725147554E-01 
    4.8873915464315826E-01 
    4.1324204872853715E-01 
    3.3364288799482278E-01 
    2.5487278094094068E-01 
    2.0372585402263627E-01 
    9.9815223754353033E-01 
    9.9144573147742243E-01 
    9.7473618860416222E-01 
    9.4843193556185679E-01 
    9.1345418553922830E-01 
    8.7061012435995522E-01 
    8.2053381882524545E-01 
    7.6374072034189366E-01 
    7.0154786290071114E-01 
    6.3549123562194287E-01 
    5.6634724630473399E-01 
    4.9388589684433404E-01 
    4.1668375978083660E-01 
    3.3222015488020645E-01 
    2.4090206458793667E-01 
    1.6938126820085259E-01 
    9.9647701434517799E-01 
    9.9009968014817440E-01 
    9.7432420759832561E-01 
    9.4910906243918014E-01 
    9.1516322587333365E-01 
    8.7325512231279789E-01 
    8.2405162027693923E-01 
    7.6817029692289929E-01 
    7.0678898435625259E-01 
    6.4126769553774299E-01 
    5.7233530283802903E-01 
    4.9967194097866063E-01 
    4.2141239637669142E-01 
    3.3319076658122859E-01 
    2.2881215241349070E-01 
    1.2614475911628290E-01 
    9.9557598776536471E-01 
    9.8957030378457878E-01 
    9.7466019739292209E-01 
    9.5045050497626649E-01 
    9.1747257739107602E-01 
    8.7645128331791344E-01 
    8.2806821762090799E-01 
    7.7299333300563933E-01 
    7.1232208616954162E-01 
    6.4731084406586958E-01 
    5.7867534359976136E-01 
    5.0608684607267262E-01 
    4.2748668332971307E-01 
    3.3727262492803628E-01 
    2.2172156411736835E-01 
    7.1099543375787208E-02 
    9.9532656076178716E-01 
    9.8980475533787937E-01 
    9.7574198517756827E-01 
    9.5247391956375915E-01 
    9.2040194440476553E-01 
    8.8021565432731619E-01 
    8.3259991643660436E-01 
    7.7823882666149369E-01 
    7.1817997803275069E-01 
    6.5363804801802550E-01 
    5.8535719291771438E-01 
    5.1307781668674712E-01 
    4.3480742904852365E-01 
    3.4474358293056606E-01 
    2.2502593157425504E-01 
    0.0000000000000000E+00 

SCALARS Saturarion double 1 
LOOKUP_TABLE default 

    1.0000000000003184E+00 
    9.3569840754553424E-01 
    8.4417390991346541E-01 
    7.3132499119698791E-01 
    6.5400598419528067E-01 
    5.9502479578650491E-01 
    5.3302210061420729E-01 
    4.1049029440356788E-01 
    5.8014232635668253E-02 
    1.0000002761569339E-06 
    1.0000000000002217E-06 
    9.9999999999999995E-07 
    9.9999999999999995E-07 
    9.9999999999999995E-07 
    9.9999999999999995E-07 
    9.9999999999999995E-07 
    9.6886895100504777E-01 
    9.0968570034914153E-01 
    8.1727867291027090E-01 
    7.2196944484681425E-01 
    6.4682871476646275E-01 
    5.8859025784815944E-01 
    5.2825723372662658E-01 
    4.0010866703965253E-01 
    4.8743283744553959E-02 
    2.0108892628402756E-06 
    1.0000002506728489E-06 
    1.0000000000000859E-06 
    9.9999999999999995E-07 
    9.9999999999999995E-07 
    9.9999999999999995E-07 
    9.9999999999999995E-07 
    9.1744407726627430E-01 
    8.6905007428979975E-01 
    7.8077710180377502E-01 
    7.0312843120443835E-01 
    6.3344808828689059E-01 
    5.7738668627683443E-01 
    5.1968966891780521E-01 
    3.8667465355073771E-01 
    3.7908541596629174E-02 
    2.6853468589863299E-06 
    1.0000004267449073E-06 
    1.0000000000001323E-06 
    9.9999999999999995E-07 
    9.9999999999999995E-07 
    9.9999999999999995E-07 
    9.9999999999999995E-07 
    8.4149428225964407E-01 
    8.0482587505205783E-01 
    7.3432863277006899E-01 
    6.7345928750942119E-01 
    6.1806466116687075E-01 
    5.6843356302414483E-01 
    5.1230199020055467E-01 
    3.7241787021720024E-01 
    2.8022031562473036E-02 
    2.4060895418429458E-06 
    1.0000008030982887E-06 
    9.9999999999999995E-07 
    9.9999999999999995E-07 
    9.9999999999999995E-07 
    9.9999999999999995E-07 
    9.9999999999999995E-07 
    7.7347353577264033E-01 
    7.4532698708546141E-01 
    6.9176059439901649E-01 
    6.4230433285823441E-01 
    5.9902755491333282E-01 
    5.5595696840853093E-01 
    5.0125236987348876E-01 
    3.4079757152217727E-01 
    1.4817701846637358E-02 
    3.2089268566238812E-06 
    1.0000004856792803E-06 
    1.0000000000000374E-06 
    9.9999999999999995E-07 
    9.9999999999999995E-07 
    9.9999999999999995E-07 
    9.9999999999999995E-07 
    7.1181817243059364E-01 
    6.9224137893493665E-01 
    6.5200784992776906E-01 
    6.1173826456178859E-01 
    5.7646447470252760E-01 
    5.3916820329487103E-01 
    4.8224521417923760E-01 
    2.7427541849225495E-01 
    3.6806089793542805E-03 
    1.3638000393789462E-06 
    1.0000000922027876E-06 
    9.9999999999999995E-07 
    9.9999999999999995E-07 
    9.9999999999999995E-07 
    9.9999999999999995E-07 
    9.9999999999999995E-07 
    6.5556541735127072E-01 
    6.4362069917513964E-01 
    6.1485337203563217E-01 
    5.8154067864991543E-01 
    5.5118877250808618E-01 
    5.1844102119260005E-01 
    4.5278720858729510E-01 
    1.7948253783072621E-01 
    2.6026300613072597E-04 
    1.0081865633208800E-06 
    1.0000000007693066E-06 
    9.9999999999999995E-07 
    9.9999999999999995E-07 
    9.9999999999999995E-07 
    9.9999999999999995E-07 
    9.9999999999999995E-07 
    6.0480068613622484E-01 
    5.9953089704022344E-01 
    5.8036502294866188E-01 
    5.5264771366094745E-01 
    5.2565291673876569E-01 
    4.9201166003752300E-01 
    3.9119653109389996E-01 
    7.1609965789201799E-02 
    1.4716582052593731E-04 
    1.0042313447829994E-06 
    1.0000000000000006E-06 
    9.9999999999999995E-07 
    9.9999999999999995E-07 
    9.9999999999999995E-07 
    9.9999999999999995E-07 
    9.9999999999999995E-07 
    5.6149818511139804E-01 
    5.6041030744053510E-01 
    5.4695425770360850E-01 
    5.2501431788004738E-01 
    4.9830159033077648E-01 
    4.4640771509017418E-01 
    2.3645542344900355E-01 
    4.7131443881479754E-03 
    1.8144391333597225E-06 
    1.0000002341049759E-06 
    1.0000000000000033E-06 
    9.9999999999999995E-07 
    9.9999999999999995E-07 
    9.9999999999999995E-07 
    9.9999999999999995E-07 
    9.9999999999999995E-07 
    5.1875302824851022E-01 
    5.1941777628631958E-01 
    5.0979332384836618E-01 
    4.9035382143647244E-01 
    4.4396141892869667E-01 
    2.9733715144690032E-01 
    4.4702111224690338E-02 
    1.0213226142216352E-04 
    1.0011727981760290E-06 
    1.0000000000000343E-06 
    9.9999999999999995E-07 
    9.9999999999999995E-07 
    9.9999999999999995E-07 
    9.9999999999999995E-07 
    9.9999999999999995E-07 
    9.9999999999999995E-07 
    4.2680416427353535E-01 
    4.3919571485883491E-01 
    4.3129999505913158E-01 
    3.7220901922478494E-01 
    2.2158048685194476E-01 
    3.8062050640454002E-02 
    1.4264595821805940E-04 
    1.0026733918094260E-06 
    1.0000000001625460E-06 
    9.9999999999999995E-07 
    9.9999999999999995E-07 
    9.9999999999999995E-07 
    9.9999999999999995E-07 
    9.9999999999999995E-07 
    9.9999999999999995E-07 
    9.9999999999999995E-07 
    9.2022714284632073E-02 
    1.4001923680487333E-01 
    1.2148469390658310E-01 
    4.2119565276038579E-02 
    2.1176302121431621E-03 
    4.3645489463637345E-05 
    1.0012939653013098E-06 
    1.0000000003525838E-06 
    9.9999999999999995E-07 
    9.9999999999999995E-07 
    9.9999999999999995E-07 
    9.9999999999999995E-07 
    9.9999999999999995E-07 
    9.9999999999999995E-07 
    9.9999999999999995E-07 
    9.9999999999999995E-07 
    1.0000215509379755E-06 
    1.1688642225358876E-05 
    6.0795287966187662E-05 
    4.0747159299990172E-05 
    1.1106641249434550E-06 
    1.0000938724241600E-06 
    1.0000000000267933E-06 
    9.9999999999999974E-07 
    9.9999999999999995E-07 
    9.9999999999999995E-07 
    9.9999999999999995E-07 
    9.9999999999999995E-07 
    9.9999999999999995E-07 
    9.9999999999999995E-07 
    9.9999999999999995E-07 
    9.9999999999999995E-07 
    1.0000000000123531E-06 
    1.0000508011953105E-06 
    1.0003218868599095E-06 
    1.0001197457710356E-06 
    1.0000000129315313E-06 
    1.0000000000000080E-06 
    9.9999999999999995E-07 
    9.9999999999999995E-07 
    9.9999999999999995E-07 
    9.9999999999999995E-07 
    9.9999999999999995E-07 
    9.9999999999999995E-07 
    9.9999999999999995E-07 
    9.9999999999999995E-07 
    9.9999999999999995E-07 
    9.9999999999999995E-07 
    9.9999999999999995E-07 
    1.0000000000000004E-06 
    1.0000000000296258E-06 
    9.9999999999999995E-07 
    1.0000000000000002E-06 
    9.9999999999999995E-07 
    9.9999999999999995E-07 
    9.9999999999999995E-07 
    9.9999999999999995E-07 
    9.9999999999999995E-07 
    9.9999999999999995E-07 
    9.9999999999999995E-07 
    9.9999999999999995E-07 
    9.9999999999999995E-07 
    9.9999999999999995E-07 
    9.9999999999999995E-07 
    9.9999999999999995E-07 
    9.9999999999999995E-07 
    9.9999999999999995E-07 
    9.9999999999999995E-07 
    9.9999999999999995E-07 
    9.9999999999999995E-07 
    9.9999999999999995E-07 
    9.9999999999999995E-07 
    9.9999999999999995E-07 
    9.9999999999999995E-07 
    9.9999999999999995E-07 
    9.9999999999999995E-07 
    9.9999999999999995E-07 
    9.9999999999999995E-07 
    9.9999999999999995E-07 
    1.0000002297695229E-06 
