# vtk DataFile Version 2.0
Pressure Field Data 
ASCII 
DATASET UNSTRUCTURED_GRID 

POINTS 289 double 

    0.0000000000000000E+00     0.0000000000000000E+00     0.0000000000000000E+00 
    1.0000000000000000E+00     0.0000000000000000E+00     0.0000000000000000E+00 
    1.0000000000000000E+00     1.0000000000000000E+00     0.0000000000000000E+00 
    0.0000000000000000E+00     1.0000000000000000E+00     0.0000000000000000E+00 
    6.2499999999872928E-02     0.0000000000000000E+00     0.0000000000000000E+00 
    1.2499999999977310E-01     0.0000000000000000E+00     0.0000000000000000E+00 
    1.8749999999959341E-01     0.0000000000000000E+00     0.0000000000000000E+00 
    2.4999999999941089E-01     0.0000000000000000E+00     0.0000000000000000E+00 
    3.1249999999922851E-01     0.0000000000000000E+00     0.0000000000000000E+00 
    3.7499999999904610E-01     0.0000000000000000E+00     0.0000000000000000E+00 
    4.3749999999886358E-01     0.0000000000000000E+00     0.0000000000000000E+00 
    4.9999999999869210E-01     0.0000000000000000E+00     0.0000000000000000E+00 
    5.6249999999884603E-01     0.0000000000000000E+00     0.0000000000000000E+00 
    6.2499999999901090E-01     0.0000000000000000E+00     0.0000000000000000E+00 
    6.8749999999917577E-01     0.0000000000000000E+00     0.0000000000000000E+00 
    7.4999999999934064E-01     0.0000000000000000E+00     0.0000000000000000E+00 
    8.1249999999950551E-01     0.0000000000000000E+00     0.0000000000000000E+00 
    8.7499999999967026E-01     0.0000000000000000E+00     0.0000000000000000E+00 
    9.3749999999983513E-01     0.0000000000000000E+00     0.0000000000000000E+00 
    1.0000000000000000E+00     6.2499999999872928E-02     0.0000000000000000E+00 
    1.0000000000000000E+00     1.2499999999977310E-01     0.0000000000000000E+00 
    1.0000000000000000E+00     1.8749999999959341E-01     0.0000000000000000E+00 
    1.0000000000000000E+00     2.4999999999941089E-01     0.0000000000000000E+00 
    1.0000000000000000E+00     3.1249999999922851E-01     0.0000000000000000E+00 
    1.0000000000000000E+00     3.7499999999904610E-01     0.0000000000000000E+00 
    1.0000000000000000E+00     4.3749999999886358E-01     0.0000000000000000E+00 
    1.0000000000000000E+00     4.9999999999869210E-01     0.0000000000000000E+00 
    1.0000000000000000E+00     5.6249999999884603E-01     0.0000000000000000E+00 
    1.0000000000000000E+00     6.2499999999901090E-01     0.0000000000000000E+00 
    1.0000000000000000E+00     6.8749999999917577E-01     0.0000000000000000E+00 
    1.0000000000000000E+00     7.4999999999934064E-01     0.0000000000000000E+00 
    1.0000000000000000E+00     8.1249999999950551E-01     0.0000000000000000E+00 
    1.0000000000000000E+00     8.7499999999967026E-01     0.0000000000000000E+00 
    1.0000000000000000E+00     9.3749999999983513E-01     0.0000000000000000E+00 
    9.3749999999973976E-01     1.0000000000000000E+00     0.0000000000000000E+00 
    8.7499999999950118E-01     1.0000000000000000E+00     0.0000000000000000E+00 
    8.1249999999991318E-01     1.0000000000000000E+00     0.0000000000000000E+00 
    7.5000000000034706E-01     1.0000000000000000E+00     0.0000000000000000E+00 
    6.8750000000078049E-01     1.0000000000000000E+00     0.0000000000000000E+00 
    6.2500000000121403E-01     1.0000000000000000E+00     0.0000000000000000E+00 
    5.6250000000164757E-01     1.0000000000000000E+00     0.0000000000000000E+00 
    5.0000000000205946E-01     1.0000000000000000E+00     0.0000000000000000E+00 
    4.3750000000182099E-01     1.0000000000000000E+00     0.0000000000000000E+00 
    3.7500000000156092E-01     1.0000000000000000E+00     0.0000000000000000E+00 
    3.1250000000130068E-01     1.0000000000000000E+00     0.0000000000000000E+00 
    2.5000000000104050E-01     1.0000000000000000E+00     0.0000000000000000E+00 
    1.8750000000078040E-01     1.0000000000000000E+00     0.0000000000000000E+00 
    1.2500000000052031E-01     1.0000000000000000E+00     0.0000000000000000E+00 
    6.2500000000260125E-02     1.0000000000000000E+00     0.0000000000000000E+00 
    0.0000000000000000E+00     9.3749999999973976E-01     0.0000000000000000E+00 
    0.0000000000000000E+00     8.7499999999950118E-01     0.0000000000000000E+00 
    0.0000000000000000E+00     8.1249999999991318E-01     0.0000000000000000E+00 
    0.0000000000000000E+00     7.5000000000034706E-01     0.0000000000000000E+00 
    0.0000000000000000E+00     6.8750000000078049E-01     0.0000000000000000E+00 
    0.0000000000000000E+00     6.2500000000121403E-01     0.0000000000000000E+00 
    0.0000000000000000E+00     5.6250000000164757E-01     0.0000000000000000E+00 
    0.0000000000000000E+00     5.0000000000205946E-01     0.0000000000000000E+00 
    0.0000000000000000E+00     4.3750000000182099E-01     0.0000000000000000E+00 
    0.0000000000000000E+00     3.7500000000156092E-01     0.0000000000000000E+00 
    0.0000000000000000E+00     3.1250000000130068E-01     0.0000000000000000E+00 
    0.0000000000000000E+00     2.5000000000104050E-01     0.0000000000000000E+00 
    0.0000000000000000E+00     1.8750000000078040E-01     0.0000000000000000E+00 
    0.0000000000000000E+00     1.2500000000052031E-01     0.0000000000000000E+00 
    0.0000000000000000E+00     6.2500000000260125E-02     0.0000000000000000E+00 
    6.2499999999897131E-02     6.2500000000235922E-02     0.0000000000000000E+00 
    6.2499999999921327E-02     1.2500000000047351E-01     0.0000000000000000E+00 
    6.2499999999945530E-02     1.8750000000070621E-01     0.0000000000000000E+00 
    6.2499999999969733E-02     2.5000000000093858E-01     0.0000000000000000E+00 
    6.2499999999993928E-02     3.1250000000117117E-01     0.0000000000000000E+00 
    6.2500000000018124E-02     3.7500000000140382E-01     0.0000000000000000E+00 
    6.2500000000042327E-02     4.3750000000163619E-01     0.0000000000000000E+00 
    6.2500000000066530E-02     5.0000000000184897E-01     0.0000000000000000E+00 
    6.2500000000090733E-02     5.6250000000147260E-01     0.0000000000000000E+00 
    6.2500000000114922E-02     6.2500000000107636E-01     0.0000000000000000E+00 
    6.2500000000139125E-02     6.8750000000068034E-01     0.0000000000000000E+00 
    6.2500000000163328E-02     7.5000000000028411E-01     0.0000000000000000E+00 
    6.2500000000187531E-02     8.1249999999988787E-01     0.0000000000000000E+00 
    6.2500000000211720E-02     8.7499999999951172E-01     0.0000000000000000E+00 
    6.2500000000235922E-02     9.3749999999974565E-01     0.0000000000000000E+00 
    1.2499999999981980E-01     6.2500000000211733E-02     0.0000000000000000E+00 
    1.2499999999986650E-01     1.2500000000042691E-01     0.0000000000000000E+00 
    1.2499999999991319E-01     1.8750000000063199E-01     0.0000000000000000E+00 
    1.2499999999995989E-01     2.5000000000083678E-01     0.0000000000000000E+00 
    1.2500000000000661E-01     3.1250000000104172E-01     0.0000000000000000E+00 
    1.2500000000005329E-01     3.7500000000124661E-01     0.0000000000000000E+00 
    1.2500000000010000E-01     4.3750000000145117E-01     0.0000000000000000E+00 
    1.2500000000014669E-01     5.0000000000163858E-01     0.0000000000000000E+00 
    1.2500000000019340E-01     5.6250000000129741E-01     0.0000000000000000E+00 
    1.2500000000024011E-01     6.2500000000093847E-01     0.0000000000000000E+00 
    1.2500000000028680E-01     6.8750000000057998E-01     0.0000000000000000E+00 
    1.2500000000033351E-01     7.5000000000022127E-01     0.0000000000000000E+00 
    1.2500000000038020E-01     8.1249999999986211E-01     0.0000000000000000E+00 
    1.2500000000042691E-01     8.7499999999952238E-01     0.0000000000000000E+00 
    1.2500000000047359E-01     9.3749999999975164E-01     0.0000000000000000E+00 
    1.8749999999966760E-01     6.2500000000187531E-02     0.0000000000000000E+00 
    1.8749999999974179E-01     1.2500000000038020E-01     0.0000000000000000E+00 
    1.8749999999981601E-01     1.8750000000055780E-01     0.0000000000000000E+00 
    1.8749999999989009E-01     2.5000000000073502E-01     0.0000000000000000E+00 
    1.8749999999996431E-01     3.1250000000091221E-01     0.0000000000000000E+00 
    1.8750000000003850E-01     3.7500000000108941E-01     0.0000000000000000E+00 
    1.8750000000011269E-01     4.3750000000126649E-01     0.0000000000000000E+00 
    1.8750000000018691E-01     5.0000000000142808E-01     0.0000000000000000E+00 
    1.8750000000026110E-01     5.6250000000112244E-01     0.0000000000000000E+00 
    1.8750000000033529E-01     6.2500000000080080E-01     0.0000000000000000E+00 
    1.8750000000040951E-01     6.8750000000047962E-01     0.0000000000000000E+00 
    1.8750000000048361E-01     7.5000000000015843E-01     0.0000000000000000E+00 
    1.8750000000055780E-01     8.1249999999983680E-01     0.0000000000000000E+00 
    1.8750000000063199E-01     8.7499999999953304E-01     0.0000000000000000E+00 
    1.8750000000070621E-01     9.3749999999975764E-01     0.0000000000000000E+00 
    2.4999999999951281E-01     6.2500000000163314E-02     0.0000000000000000E+00 
    2.4999999999961461E-01     1.2500000000033351E-01     0.0000000000000000E+00 
    2.4999999999971650E-01     1.8750000000048361E-01     0.0000000000000000E+00 
    2.4999999999981831E-01     2.5000000000063310E-01     0.0000000000000000E+00 
    2.4999999999992020E-01     3.1250000000078260E-01     0.0000000000000000E+00 
    2.5000000000002198E-01     3.7500000000093209E-01     0.0000000000000000E+00 
    2.5000000000012390E-01     4.3750000000108180E-01     0.0000000000000000E+00 
    2.5000000000022571E-01     5.0000000000121769E-01     0.0000000000000000E+00 
    2.5000000000032763E-01     5.6250000000094724E-01     0.0000000000000000E+00 
    2.5000000000042938E-01     6.2500000000066314E-01     0.0000000000000000E+00 
    2.5000000000053119E-01     6.8750000000037925E-01     0.0000000000000000E+00 
[...]
CELL_DATA 256 
SCALARS Pressure double 1 
LOOKUP_TABLE default 

    6.9052165378016606E-01 
    6.4065779103502873E-01 
    6.0883563265622298E-01 
    5.8001584719180665E-01 
    5.5076276303088956E-01 
    5.2022259505239365E-01 
    4.8816597897211267E-01 
    4.5469883619702195E-01 
    4.2013630002468394E-01 
    3.8501648948538575E-01 
    3.5020894388509316E-01 
    3.1710473802482314E-01 
    2.8775289555254885E-01 
    2.6468687583915401E-01 
    2.4994478149409802E-01 
    2.4278561428765122E-01 
    6.7653860514056818E-01 
    6.4193906726542960E-01 
    6.1122159064866777E-01 
    5.8263380765575801E-01 
    5.5357483781097827E-01 
    5.2321706525272971E-01 
    4.9132310370155918E-01 
    4.5797845556197347E-01 
    4.2347139031928510E-01 
    3.8830139105030520E-01 
    3.5328269860659245E-01 
    3.1973853141930658E-01 
    2.8967462181967879E-01 
    2.6568294436682632E-01 
    2.5006637746430671E-01 
    2.4235851691906243E-01 
    6.6580996687068483E-01 
    6.4108532104516980E-01 
    6.1285755026411493E-01 
    5.8492077157605959E-01 
    5.5619231811796821E-01 
    5.2607009566943475E-01 
    4.9435998359012406E-01 
    4.6114074738865402E-01 
    4.2667250782316474E-01 
    3.9140757147699740E-01 
    3.5609164099346902E-01 
    3.2196510641274323E-01 
    2.9098749683523362E-01 
    2.6584477436305465E-01 
    2.4920266314119988E-01 
    2.4098880748782697E-01 
    6.5738395433411023E-01 
    6.3915502127092749E-01 
    6.1378470770177596E-01 
    5.8685450695824193E-01 
    5.5860829108200960E-01 
    5.2878660889613083E-01 
    4.9728664801766181E-01 
    4.6419886338746075E-01 
    4.2975909255682976E-01 
    3.9436654456418574E-01 
    3.5868471498753096E-01 
    3.2385052952300480E-01 
    2.9175893635323003E-01 
    2.6520458516522771E-01 
    2.4730753229158031E-01 
    2.3853788904099485E-01 
    6.5061806771276021E-01 
    6.3674033347800840E-01 
    6.1413673773257005E-01 
    5.8844406837832020E-01 
    5.6082000067194793E-01 
    5.3137037313694024E-01 
    5.0011389274037887E-01 
    4.6716918224777870E-01 
    4.3275469277614148E-01 
    3.9721406318820501E-01 
    3.6111561651347945E-01 
    3.2546804206155050E-01 
    2.9206718535125614E-01 
    2.6380344861310528E-01 
    2.4433161074239881E-01 
    2.3485886438256601E-01 
    6.4511263233004956E-01 
    6.3418644024309134E-01 
    6.1406519317688879E-01 
    5.8972317938320318E-01 
    5.6283272002192009E-01 
    5.3382469811023037E-01 
    5.0285098661027727E-01 
    4.7006872691432089E-01 
    4.3568559716853467E-01 
    3.9998976699967537E-01 
    3.6344304984365372E-01 
    3.2689877401054751E-01 
    2.9200372768473321E-01 
    2.6169746992222054E-01 
    2.4022355218835442E-01 
    2.2977696934957020E-01 
    6.4060434897595253E-01 
    6.3170253172398450E-01 
    6.1371810031507656E-01 
    5.9074617308376798E-01 
    5.6466585027234351E-01 
    5.3615921051591486E-01 
    5.0550733897267652E-01 
    4.7291288133191556E-01 
    4.3857766829132905E-01 
    4.0273453706233886E-01 
    3.6572995972444655E-01 
    3.2823287354416597E-01 
    2.9167692160682285E-01 
    2.5896583160533432E-01 
    2.3494010102024987E-01 
    2.2309326522292799E-01 
    6.3690769725628837E-01 
    6.2941164801562111E-01 
    6.1322538102759927E-01 
    5.9157814836913913E-01 
    5.6634980853431105E-01 
    5.3839045862468016E-01 
    5.0809495552961237E-01 
    4.7571519432642223E-01 
    4.4145279720374941E-01 
    4.0548627781242247E-01 
    3.6803996694150476E-01 
    3.2956960294717003E-01 
    2.9121721329138767E-01 
    2.5572099396731091E-01 
    2.2845707422918393E-01 
    2.1457597176609103E-01 
    6.3388764872168690E-01 
    6.2738188901371117E-01 
    6.1269279128645615E-01 
    5.9228612848386319E-01 
    5.6792022580990387E-01 
    5.4053890066346111E-01 
    5.1062821798993874E-01 
    4.7848878048973681E-01 
    4.4432870364584659E-01 
    4.0827626640127801E-01 
    3.7043150579569617E-01 
    3.3101257197517830E-01 
    2.9077983617092934E-01 
    2.5211992455909071E-01 
    2.2077495507575326E-01 
    2.0392911909072750E-01 
    6.3144589545097463E-01 
    6.2564945944596617E-01 
    6.1220242727650476E-01 
    5.9293304362478660E-01 
    5.6941525791443903E-01 
    5.4262778461106054E-01 
    5.1312362713502835E-01 
    4.8124752628672396E-01 
    4.4722088866134130E-01 
    4.1112928877330734E-01 
    3.7295411997869582E-01 
    3.3266347121505113E-01 
    2.9054343796237120E-01 
    2.4838019935667802E-01 
    2.1194052310213807E-01 
    1.9075672957470152E-01 
    6.2950942940474852E-01 
    6.2423319948324951E-01 
    6.1181848429711350E-01 
    5.9357687429702410E-01 
    5.7087522146755165E-01 
    5.4468465741135463E-01 
    5.1560099775977408E-01 
    4.8400703310447729E-01 
    4.5014498245814738E-01 
    4.1406673378565628E-01 
    3.7564894231826695E-01 
    3.3461764638300556E-01 
    2.9070718539177043E-01 
    2.4479784466878302E-01 
    2.0209313991564243E-01 
    1.7454050522226183E-01 
    6.2802132925319776E-01 
    6.2314211176596512E-01 
    6.1159281734663073E-01 
    5.9427170168947385E-01 
    5.7234259779731012E-01 
    5.4674198831817000E-01 
    5.1808538210285782E-01 
    4.8678597313871569E-01 
    4.5311804420420165E-01 
    4.1710911260537498E-01 
    3.7854978248269511E-01 
    3.3695942370764492E-01 
    2.9148526517406353E-01 
    2.4176129411831218E-01 
    1.9151582029999351E-01 
    1.5454816804003566E-01 
    6.2694250918972272E-01 
    6.2238541842985295E-01 
    6.1157240648432565E-01 
    5.9507164299895643E-01 
    5.7386332223285541E-01 
    5.4883730246007356E-01 
    5.2060769700235832E-01 
    4.8960694536630162E-01 
    4.5615835919460107E-01 
    4.2027500590970068E-01 
    3.8168061131044811E-01 
    3.3975181745576494E-01 
    2.9308606800721088E-01 
    2.3978646696121428E-01 
    1.8081026747440940E-01 
    1.2971498858316471E-01 
    6.2624318859319050E-01 
    6.2197702788316445E-01 
    6.1180482202587971E-01 
    5.9603215644583829E-01 
    5.7548396027551740E-01 
    5.5100713570610360E-01 
    5.2319812791085119E-01 
    4.9248824135463731E-01 
    4.5926796837379991E-01 
    4.2355302392036731E-01 
    3.8502322962564395E-01 
    3.4298953555007106E-01 
    2.9563470597272651E-01 
    2.3945215208508702E-01 
    1.7113092056317281E-01 
    9.8464491120746830E-02 
    6.2577819858454198E-01 
    6.2182679530097928E-01 
    6.1225701108358765E-01 
    5.9714025918630453E-01 
    5.7718172351769670E-01 
    5.5320926184723507E-01 
    5.2580767856356914E-01 
    4.9538424112065754E-01 
    4.6238798346782634E-01 
    4.2686361750944213E-01 
    3.8847218355314700E-01 
    3.4650856423736098E-01 
    2.9898384434878628E-01 
    2.4102610896873844E-01 
    1.6410827222596416E-01 
    5.7859691907809527E-02 
    6.2561237675081327E-01 
    6.2199371695444883E-01 
    6.1298319878517393E-01 
    5.9844735181830222E-01 
    5.7900190982152444E-01 
    5.5547064430247584E-01 
    5.2845138068603992E-01 
    4.9833289069672371E-01 
    4.6558482737513374E-01 
    4.3029291852302104E-01 
    3.9214134735331141E-01 
    3.5045118834749522E-01 
    3.0337270708725267E-01 
    2.4529228895851965E-01 
    1.6349106352599418E-01 
    0.0000000000000000E+00 

SCALARS Saturarion double 1 
LOOKUP_TABLE default 

    1.0000000000000007E+00 
    9.7674060899325232E-01 
    9.3427260310446436E-01 
    8.7748918346655091E-01 
    8.2988874507082044E-01 
    7.8803501569718648E-01 
    7.5165506200045018E-01 
    7.2010891848288949E-01 
    6.9232583139468296E-01 
    6.6717380145340410E-01 
    6.4348514266184242E-01 
    6.1988998721918742E-01 
    5.9431511109759283E-01 
    5.6338527859662946E-01 
    5.0908193620355269E-01 
    2.3375842889101350E-01 
    9.9125508039331323E-01 
    9.6923331196273899E-01 
    9.2473048951583958E-01 
    8.7062397428763305E-01 
    8.2460413612511019E-01 
    7.8434181021426541E-01 
    7.4904111410774377E-01 
    7.1806024875692231E-01 
    6.9063675861485807E-01 
    6.6581024011645806E-01 
    6.4265349571517361E-01 
    6.1992556291586154E-01 
    5.9547409972390486E-01 
    5.6553118728985352E-01 
    5.1405755931179120E-01 
    2.6274603703223848E-01 
    9.7744662414752281E-01 
    9.5540519632739818E-01 
    9.1071818437294738E-01 
    8.5839031925234177E-01 
    8.1423010459863199E-01 
    7.7660957294879973E-01 
    7.4355523483048647E-01 
    7.1385217698132486E-01 
    6.8703349148385051E-01 
    6.6258845876053007E-01 
    6.3999064825834628E-01 
    6.1829647985980607E-01 
    5.9565176931309305E-01 
    5.6801606859155385E-01 
    5.2057833877984105E-01 
    2.8906752462964869E-01 
    9.5335552387646305E-01 
    9.3478233379779174E-01 
    8.9360569807217982E-01 
    8.4537859331202558E-01 
    8.0201272809677016E-01 
    7.6562894320628305E-01 
    7.3435686215468110E-01 
    7.0662052486392712E-01 
    6.8137391379718049E-01 
    6.5825981765487052E-01 
    6.3672349046214471E-01 
    6.1612793098185359E-01 
    5.9509310086218370E-01 
    5.7003498331777103E-01 
    5.2694662954182891E-01 
    3.1449826045996393E-01 
    9.2384621472239081E-01 
    9.0746267130604885E-01 
    8.7076121187668643E-01 
    8.2732663878496226E-01 
    7.8619394914400154E-01 
    7.5082447766453875E-01 
    7.2093638889623379E-01 
    6.9508359231872097E-01 
    6.7212701673224551E-01 
    6.5132615828402485E-01 
    6.3209298812576964E-01 
    6.1355482743245315E-01 
    5.9431289363240691E-01 
    5.7150214967226498E-01 
    5.3276088238388686E-01 
    3.3518469370694054E-01 
    8.9084395591182697E-01 
    8.7720374578878357E-01 
    8.4530376009656194E-01 
    8.0608144600765685E-01 
    7.6815528575460845E-01 
    7.3460871206137635E-01 
    7.0564165649658650E-01 
    6.8095231282876179E-01 
    6.5974006661223583E-01 
    6.4119659052734623E-01 
    6.2463774226242019E-01 
    6.0922976584397259E-01 
    5.9300926653136865E-01 
    5.7263941703444610E-01 
    5.3794454479668474E-01 
    3.5374378008111929E-01 
    8.5516777501468044E-01 
    8.4483854220706178E-01 
    8.1807200705583982E-01 
    7.8321560237412269E-01 
    7.4878827716695628E-01 
    7.1768004388813988E-01 
    6.9038945179971989E-01 
    6.6653665331501810E-01 
    6.4617318470504814E-01 
    6.2904864216687650E-01 
    6.1473208368860754E-01 
    6.0239140146709502E-01 
    5.9015032152679880E-01 
    5.7349532156930216E-01 
    5.4265287421281561E-01 
    3.7185839474497051E-01 
    8.1662916589541390E-01 
    8.1004818653747190E-01 
    7.8916065108558409E-01 
    7.5922367748990083E-01 
    7.2802032844831965E-01 
    6.9920861188153272E-01 
    6.7350904822682667E-01 
    6.5109095937780215E-01 
    6.3179682745913213E-01 
    6.1572146991397603E-01 
    6.0286410409025026E-01 
    5.9311489106989324E-01 
    5.8492978806427676E-01 
    5.7337766983143890E-01 
    5.4733692632296915E-01 
    3.9009238378782518E-01 
    7.7541638117153444E-01 
    7.7248328213029560E-01 
    7.5733896974712678E-01 
    7.3266068212926039E-01 
    7.0520140634861028E-01 
    6.7872437819195908E-01 
    6.5479920617356380E-01 
    6.3368425177530308E-01 
    6.1544239941823897E-01 
    6.0023781751730887E-01 
    5.8860032959855957E-01 
    5.8103957482629742E-01 
    5.7686478410591302E-01 
    5.7128971507759718E-01 
    5.5125174236024821E-01 
    4.0729913285103936E-01 
    7.3155335353729545E-01 
    7.3203182795792010E-01 
    7.2224781569494123E-01 
    7.0255467859437293E-01 
    6.7911192840426471E-01 
    6.5552147466234334E-01 
    6.3348451646971204E-01 
    6.1398914888074263E-01 
    5.9705913755094520E-01 
    5.8274819787505883E-01 
    5.7172841764495586E-01 
    5.6556461770449540E-01 
    5.6508101850238690E-01 
    5.6629043338513596E-01 
    5.5403511304764730E-01 
    4.2413780213060365E-01 
    6.8468434419241431E-01 
    6.8832464461472864E-01 
    6.8351919836568586E-01 
    6.6845686485675859E-01 
    6.4907798021301466E-01 
    6.2895022660347011E-01 
    6.0982142354844338E-01 
    5.9217325128619280E-01 
    5.7662861150377520E-01 
    5.6352142038339881E-01 
    5.5338954753102076E-01 
    5.4761726926008680E-01 
    5.4896632008400426E-01 
    5.5698668786963901E-01 
    5.5449649729607031E-01 
    4.4111358176676241E-01 
    6.3358377250207054E-01 
    6.4023211957192072E-01 
    6.4049481276762665E-01 
    6.3019372245061711E-01 
    6.1475063611253300E-01 
    5.9800339828917171E-01 
    5.8182405374736546E-01 
    5.6691441714931590E-01 
    5.5349899662738711E-01 
    5.4218139133883625E-01 
    5.3353678123442816E-01 
    5.2862537822698374E-01 
    5.3002788080424057E-01 
    5.4199619286585698E-01 
    5.4960867630919585E-01 
    4.5704339805565292E-01 
    5.8012932492789637E-01 
    5.8865851021510318E-01 
    5.9304769023494275E-01 
    5.8764718101822211E-01 
    5.7673768092041122E-01 
    5.6346287956851016E-01 
    5.5029546515997740E-01 
    5.3780452510955590E-01 
    5.2637893322210094E-01 
    5.1640139585678968E-01 
    5.0910189814327234E-01 
    5.0579497781231531E-01 
    5.0854506928597465E-01 
    5.2179384360402481E-01 
    5.4122473414956984E-01 
    4.7050064509625639E-01 
    5.1972753157827400E-01 
    5.3253366040492178E-01 
    5.4010096805550090E-01 
    5.3958095564348474E-01 
    5.3154315586942524E-01 
    5.2020144069716212E-01 
    5.0731824834219452E-01 
    4.9597201117287409E-01 
    4.8372951655700602E-01 
    4.6727460372563545E-01 
    4.5390190960320043E-01 
    4.5146727650137081E-01 
    4.5898678601249437E-01 
    4.8812290024862476E-01 
    5.2570101544562653E-01 
    4.7987820390177410E-01 
    2.8854553946207756E-01 
    3.6421894699703034E-01 
    4.0332655577161181E-01 
    4.1226347716499628E-01 
    3.9892172164883116E-01 
    3.7003082500832607E-01 
    3.1701488015166290E-01 
    2.6374179311867002E-01 
    2.4039343580410580E-01 
    1.8991326916001960E-01 
    1.6974031951610483E-01 
    1.5048941938525640E-01 
    1.8306981538334621E-01 
    3.2656890941339045E-01 
    4.6769289068144299E-01 
    4.8062080906605220E-01 
    4.7471449292899097E-04 
    1.7228726609667060E-02 
    3.3979441567067899E-02 
    3.5199633382115375E-02 
    2.7471899075055439E-02 
    9.3005236779321130E-03 
    4.3648357272420826E-03 
    2.8885714204588021E-04 
    3.9265726728918496E-04 
    1.4524677258201484E-05 
    5.0837636347861233E-05 
    2.0539220601335726E-05 
    5.0741191905634290E-04 
    9.6917809885808726E-02 
    2.9301019502916659E-01 
    4.2970743630983238E-01 
