# vtk DataFile Version 2.0
Pressure Field Data 
ASCII 
DATASET UNSTRUCTURED_GRID 

POINTS 289 double 

    0.0000000000000000E+00     0.0000000000000000E+00     0.0000000000000000E+00 
    1.0000000000000000E+00     0.0000000000000000E+00     0.0000000000000000E+00 
    1.0000000000000000E+00     1.0000000000000000E+00     0.0000000000000000E+00 
    0.0000000000000000E+00     1.0000000000000000E+00     0.0000000000000000E+00 
    6.2499999999872928E-02     0.0000000000000000E+00     0.0000000000000000E+00 
    1.2499999999977310E-01     0.0000000000000000E+00     0.0000000000000000E+00 
    1.8749999999959341E-01     0.0000000000000000E+00     0.0000000000000000E+00 
    2.4999999999941089E-01     0.0000000000000000E+00     0.0000000000000000E+00 
    3.1249999999922851E-01     0.0000000000000000E+00     0.0000000000000000E+00 
    3.7499999999904610E-01     0.0000000000000000E+00     0.0000000000000000E+00 
    4.3749999999886358E-01     0.0000000000000000E+00     0.0000000000000000E+00 
    4.9999999999869210E-01     0.0000000000000000E+00     0.0000000000000000E+00 
    5.6249999999884603E-01     0.0000000000000000E+00     0.0000000000000000E+00 
    6.2499999999901090E-01     0.0000000000000000E+00     0.0000000000000000E+00 
    6.8749999999917577E-01     0.0000000000000000E+00     0.0000000000000000E+00 
    7.4999999999934064E-01     0.0000000000000000E+00     0.0000000000000000E+00 
    8.1249999999950551E-01     0.0000000000000000E+00     0.0000000000000000E+00 
    8.7499999999967026E-01     0.0000000000000000E+00     0.0000000000000000E+00 
    9.3749999999983513E-01     0.0000000000000000E+00     0.0000000000000000E+00 
    1.0000000000000000E+00     6.2499999999872928E-02     0.0000000000000000E+00 
    1.0000000000000000E+00     1.2499999999977310E-01     0.0000000000000000E+00 
    1.0000000000000000E+00     1.8749999999959341E-01     0.0000000000000000E+00 
    1.0000000000000000E+00     2.4999999999941089E-01     0.0000000000000000E+00 
    1.0000000000000000E+00     3.1249999999922851E-01     0.0000000000000000E+00 
    1.0000000000000000E+00     3.7499999999904610E-01     0.0000000000000000E+00 
    1.0000000000000000E+00     4.3749999999886358E-01     0.0000000000000000E+00 
    1.0000000000000000E+00     4.9999999999869210E-01     0.0000000000000000E+00 
    1.0000000000000000E+00     5.6249999999884603E-01     0.0000000000000000E+00 
    1.0000000000000000E+00     6.2499999999901090E-01     0.0000000000000000E+00 
    1.0000000000000000E+00     6.8749999999917577E-01     0.0000000000000000E+00 
    1.0000000000000000E+00     7.4999999999934064E-01     0.0000000000000000E+00 
    1.0000000000000000E+00     8.1249999999950551E-01     0.0000000000000000E+00 
    1.0000000000000000E+00     8.7499999999967026E-01     0.0000000000000000E+00 
    1.0000000000000000E+00     9.3749999999983513E-01     0.0000000000000000E+00 
    9.3749999999973976E-01     1.0000000000000000E+00     0.0000000000000000E+00 
    8.7499999999950118E-01     1.0000000000000000E+00     0.0000000000000000E+00 
    8.1249999999991318E-01     1.0000000000000000E+00     0.0000000000000000E+00 
    7.5000000000034706E-01     1.0000000000000000E+00     0.0000000000000000E+00 
    6.8750000000078049E-01     1.0000000000000000E+00     0.0000000000000000E+00 
    6.2500000000121403E-01     1.0000000000000000E+00     0.0000000000000000E+00 
    5.6250000000164757E-01     1.0000000000000000E+00     0.0000000000000000E+00 
    5.0000000000205946E-01     1.0000000000000000E+00     0.0000000000000000E+00 
    4.3750000000182099E-01     1.0000000000000000E+00     0.0000000000000000E+00 
    3.7500000000156092E-01     1.0000000000000000E+00     0.0000000000000000E+00 
    3.1250000000130068E-01     1.0000000000000000E+00     0.0000000000000000E+00 
    2.5000000000104050E-01     1.0000000000000000E+00     0.0000000000000000E+00 
    1.8750000000078040E-01     1.0000000000000000E+00     0.0000000000000000E+00 
    1.2500000000052031E-01     1.0000000000000000E+00     0.0000000000000000E+00 
    6.2500000000260125E-02     1.0000000000000000E+00     0.0000000000000000E+00 
    0.0000000000000000E+00     9.3749999999973976E-01     0.0000000000000000E+00 
    0.0000000000000000E+00     8.7499999999950118E-01     0.0000000000000000E+00 
    0.0000000000000000E+00     8.1249999999991318E-01     0.0000000000000000E+00 
    0.0000000000000000E+00     7.5000000000034706E-01     0.0000000000000000E+00 
    0.0000000000000000E+00     6.8750000000078049E-01     0.0000000000000000E+00 
    0.0000000000000000E+00     6.2500000000121403E-01     0.0000000000000000E+00 
    0.0000000000000000E+00     5.6250000000164757E-01     0.0000000000000000E+00 
    0.0000000000000000E+00     5.0000000000205946E-01     0.0000000000000000E+00 
    0.0000000000000000E+00     4.3750000000182099E-01     0.0000000000000000E+00 
    0.0000000000000000E+00     3.7500000000156092E-01     0.0000000000000000E+00 
    0.0000000000000000E+00     3.1250000000130068E-01     0.0000000000000000E+00 
    0.0000000000000000E+00     2.5000000000104050E-01     0.0000000000000000E+00 
    0.0000000000000000E+00     1.8750000000078040E-01     0.0000000000000000E+00 
    0.0000000000000000E+00     1.2500000000052031E-01     0.0000000000000000E+00 
    0.0000000000000000E+00     6.2500000000260125E-02     0.0000000000000000E+00 
    6.2499999999897131E-02     6.2500000000235922E-02     0.0000000000000000E+00 
    6.2499999999921327E-02     1.2500000000047351E-01     0.0000000000000000E+00 
    6.2499999999945530E-02     1.8750000000070621E-01     0.0000000000000000E+00 
    6.2499999999969733E-02     2.5000000000093858E-01     0.0000000000000000E+00 
    6.2499999999993928E-02     3.1250000000117117E-01     0.0000000000000000E+00 
    6.2500000000018124E-02     3.7500000000140382E-01     0.0000000000000000E+00 
    6.2500000000042327E-02     4.3750000000163619E-01     0.0000000000000000E+00 
    6.2500000000066530E-02     5.0000000000184897E-01     0.0000000000000000E+00 
    6.2500000000090733E-02     5.6250000000147260E-01     0.0000000000000000E+00 
    6.2500000000114922E-02     6.2500000000107636E-01     0.0000000000000000E+00 
    6.2500000000139125E-02     6.8750000000068034E-01     0.0000000000000000E+00 
    6.2500000000163328E-02     7.5000000000028411E-01     0.0000000000000000E+00 
    6.2500000000187531E-02     8.1249999999988787E-01     0.0000000000000000E+00 
    6.2500000000211720E-02     8.7499999999951172E-01     0.0000000000000000E+00 
    6.2500000000235922E-02     9.3749999999974565E-01     0.0000000000000000E+00 
    1.2499999999981980E-01     6.2500000000211733E-02     0.0000000000000000E+00 
    1.2499999999986650E-01     1.2500000000042691E-01     0.0000000000000000E+00 
    1.2499999999991319E-01     1.8750000000063199E-01     0.0000000000000000E+00 
    1.2499999999995989E-01     2.5000000000083678E-01     0.0000000000000000E+00 
    1.2500000000000661E-01     3.1250000000104172E-01     0.0000000000000000E+00 
    1.2500000000005329E-01     3.7500000000124661E-01     0.0000000000000000E+00 
    1.2500000000010000E-01     4.3750000000145117E-01     0.0000000000000000E+00 
    1.2500000000014669E-01     5.0000000000163858E-01     0.0000000000000000E+00 
    1.2500000000019340E-01     5.6250000000129741E-01     0.0000000000000000E+00 
    1.2500000000024011E-01     6.2500000000093847E-01     0.0000000000000000E+00 
    1.2500000000028680E-01     6.8750000000057998E-01     0.0000000000000000E+00 
    1.2500000000033351E-01     7.5000000000022127E-01     0.0000000000000000E+00 
    1.2500000000038020E-01     8.1249999999986211E-01     0.0000000000000000E+00 
    1.2500000000042691E-01     8.7499999999952238E-01     0.0000000000000000E+00 
    1.2500000000047359E-01     9.3749999999975164E-01     0.0000000000000000E+00 
    1.8749999999966760E-01     6.2500000000187531E-02     0.0000000000000000E+00 
    1.8749999999974179E-01     1.2500000000038020E-01     0.0000000000000000E+00 
    1.8749999999981601E-01     1.8750000000055780E-01     0.0000000000000000E+00 
    1.8749999999989009E-01     2.5000000000073502E-01     0.0000000000000000E+00 
    1.8749999999996431E-01     3.1250000000091221E-01     0.0000000000000000E+00 
    1.8750000000003850E-01     3.7500000000108941E-01     0.0000000000000000E+00 
    1.8750000000011269E-01     4.3750000000126649E-01     0.0000000000000000E+00 
    1.8750000000018691E-01     5.0000000000142808E-01     0.0000000000000000E+00 
    1.8750000000026110E-01     5.6250000000112244E-01     0.0000000000000000E+00 
    1.8750000000033529E-01     6.2500000000080080E-01     0.0000000000000000E+00 
    1.8750000000040951E-01     6.8750000000047962E-01     0.0000000000000000E+00 
    1.8750000000048361E-01     7.5000000000015843E-01     0.0000000000000000E+00 
    1.8750000000055780E-01     8.1249999999983680E-01     0.0000000000000000E+00 
    1.8750000000063199E-01     8.7499999999953304E-01     0.0000000000000000E+00 
    1.8750000000070621E-01     9.3749999999975764E-01     0.0000000000000000E+00 
    2.4999999999951281E-01     6.2500000000163314E-02     0.0000000000000000E+00 
    2.4999999999961461E-01     1.2500000000033351E-01     0.0000000000000000E+00 
    2.4999999999971650E-01     1.8750000000048361E-01     0.0000000000000000E+00 
    2.4999999999981831E-01     2.5000000000063310E-01     0.0000000000000000E+00 
    2.4999999999992020E-01     3.1250000000078260E-01     0.0000000000000000E+00 
    2.5000000000002198E-01     3.7500000000093209E-01     0.0000000000000000E+00 
    2.5000000000012390E-01     4.3750000000108180E-01     0.0000000000000000E+00 
    2.5000000000022571E-01     5.0000000000121769E-01     0.0000000000000000E+00 
    2.5000000000032763E-01     5.6250000000094724E-01     0.0000000000000000E+00 
    2.5000000000042938E-01     6.2500000000066314E-01     0.0000000000000000E+00 
    2.5000000000053119E-01     6.8750000000037925E-01     0.0000000000000000E+00 
[...]
CELL_DATA 256 
SCALARS Pressure double 1 
LOOKUP_TABLE default 

    6.2121047161847764E-01 
    5.7216071401017621E-01 
    5.4163649266582203E-01 
    5.1455652205537039E-01 
    4.8743774224418268E-01 
    4.5938078359623291E-01 
    4.3011943194447488E-01 
    3.9971163929296416E-01 
    3.6841303419253496E-01 
    3.3668256908263977E-01 
    3.0527597967975018E-01 
    2.7541448786081590E-01 
    2.4890643459820169E-01 
    2.2797829695251573E-01 
    2.1456865209989540E-01 
    2.0826175002092817E-01 
    6.0720267702458219E-01 
    5.7335019839761803E-01 
    5.4388772736987634E-01 
    5.1700261738917030E-01 
    4.9004337051571334E-01 
    4.6213543483351899E-01 
    4.3300592146416134E-01 
    4.0269604385536961E-01 
    3.7143827128156975E-01 
    3.3965742275618327E-01 
    3.0806014005156757E-01 
    2.7780718983372205E-01 
    2.5066791412705891E-01 
    2.2891728818146853E-01 
    2.1470887030142649E-01 
    2.0790810339105575E-01 
    5.9645800079063127E-01 
    5.7242757752139595E-01 
    5.4541172088504830E-01 
    5.1913986261603606E-01 
    4.9247691271716953E-01 
    4.6477163453202391E-01 
    4.3579472077918630E-01 
    4.0558509219475980E-01 
    3.7435237666606769E-01 
    3.4248049913367612E-01 
    3.1061582727342102E-01 
    2.7984607525812427E-01 
    2.5189923186231755E-01 
    2.2913198820293618E-01 
    2.1399731266686309E-01 
    2.0675475679992530E-01 
    5.8804680075390914E-01 
    5.7045676939950840E-01 
    5.4625296449180605E-01 
    5.2094542555576973E-01 
    4.9472754905728150E-01 
    4.6728987568183261E-01 
    4.3849313652391031E-01 
    4.0839105419058974E-01 
    3.7717436538580063E-01 
    3.4518146355516544E-01 
    3.1298703215911455E-01 
    2.8158880699456229E-01 
    2.5265882383851995E-01 
    2.2864975945680319E-01 
    2.1239431104482301E-01 
    2.0468050936079513E-01 
    5.8133701239805124E-01 
    5.6803670939818707E-01 
    5.4654736782362356E-01 
    5.2242949169818698E-01 
    4.9679134100996797E-01 
    4.6968998850867127E-01 
    4.4110717507880087E-01 
    4.1112633694855638E-01 
    3.7992471325454530E-01 
    3.4779260383321908E-01 
    3.1522166496786508E-01 
    2.8309903554786603E-01 
    2.5301354144709071E-01 
    2.2750490578448171E-01 
    2.0985571126892216E-01 
    2.0155574337575607E-01 
    5.7591854315832269E-01 
    5.6551033665060735E-01 
    5.4644631749107697E-01 
    5.2362604887555142E-01 
    4.9867299657293845E-01 
    4.7197242004878109E-01 
    4.4364097251218182E-01 
    4.1380173049681723E-01 
    3.8262343524107600E-01 
    3.5034740387167557E-01 
    3.1737129791951857E-01 
    2.8444765330445820E-01 
    2.5304151256074092E-01 
    2.2574374415842663E-01 
    2.0633491589051337E-01 
    1.9722854639451026E-01 
    5.7151518285597025E-01 
    5.6307900672432998E-01 
    5.4609371178588306E-01 
    5.2458629284808633E-01 
    5.0038942745709536E-01 
    4.7414440225411009E-01 
    4.4610043435767738E-01 
    4.1642720104594794E-01 
    3.8528921473403405E-01 
    3.5287863112164231E-01 
    3.1949009526043354E-01 
    2.8571394995934185E-01 
    2.5283648151756322E-01 
    2.2343227759899029E-01 
    2.0179178291846064E-01 
    1.9152528048103901E-01 
    5.6793314911786585E-01 
    5.6085801576598204E-01 
    5.4561356513201298E-01 
    5.2537081811599906E-01 
    5.0196796389612708E-01 
    4.7622033989791890E-01 
    4.4849529944181454E-01 
    4.1901276125078862E-01 
    3.8793819714967448E-01 
    3.5541609424532022E-01 
    3.2163158081882631E-01 
    2.8698476495382297E-01 
    2.5251270287463468E-01 
    2.2066577385033159E-01 
    1.9620082023890467E-01 
    1.8424099818706488E-01 
    5.6503095784383472E-01 
    5.5890861475372400E-01 
    5.4510583679362923E-01 
    5.2604241656568329E-01 
    5.0344137898531760E-01 
    4.7821832867185665E-01 
    4.5083753895073986E-01 
    4.2156888765854600E-01 
    3.9058446301660810E-01 
    3.5798519291424657E-01 
    3.2384471558100358E-01 
    2.8834946107849263E-01 
    2.5220609118348214E-01 
    2.1758022438458738E-01 
    1.8955851791488226E-01 
    1.7511549967443568E-01 
    5.6270461685515927E-01 
    5.5726108405182373E-01 
    5.4464783049447885E-01 
    5.2666042423715409E-01 
    5.0484489493417117E-01 
    4.8015848389198329E-01 
    4.5314030230900243E-01 
    4.2410658104465659E-01 
    3.9324102278384893E-01 
    3.6060749089843896E-01 
    3.2617238095543388E-01 
    2.8989524267991212E-01 
    2.5207141248661824E-01 
    2.1436526266617539E-01 
    1.8190234492934945E-01 
    1.6380507451653381E-01 
    5.6087665573930345E-01 
    5.5592943028434427E-01 
    5.4429957316730659E-01 
    5.2727930176508853E-01 
    5.0621531214119730E-01 
    4.8206393256417746E-01 
    4.5541853769766938E-01 
    4.2663739004071488E-01 
    3.9592046000212655E-01 
    3.6330192614013851E-01 
    3.2865168490986019E-01 
    2.9170438939303123E-01 
    2.5227893643469690E-01 
    2.1127115176644859E-01 
    1.7333752834668298E-01 
    1.4984980927142200E-01 
    5.5948613403771397E-01 
    5.5491839418425803E-01 
    5.4410871926951609E-01 
    5.2794896383488887E-01 
    5.0759039927226812E-01 
    4.8396071116446387E-01 
    4.5769001507329043E-01 
    4.2917379902344233E-01 
    3.9863457043200134E-01 
    3.6608469667165439E-01 
    3.3131313243810812E-01 
    2.9385040932569606E-01 
    2.5300896972067000E-01 
    2.0864252719965079E-01 
    1.6413342072217013E-01 
    1.3261837525803580E-01 
    5.5848361451826056E-01 
    5.5422780143727812E-01 
    5.4411386025655228E-01 
    5.2871551045236820E-01 
    5.0900845391263871E-01 
    4.8587742572356979E-01 
    4.5997595280068249E-01 
    4.3173027925812107E-01 
    4.0139457637312415E-01 
    3.6896894174766087E-01 
    3.3417982163552101E-01 
    2.9639247068006180E-01 
    2.5443669172152528E-01 
    2.0691514678415607E-01 
    1.5480996841979980E-01 
    1.1117992412218886E-01 
    5.5783662451167404E-01 
    5.5386507373061133E-01 
    5.4435487520316916E-01 
    5.2962753721688482E-01 
    5.1051266958166130E-01 
    4.8784791197215910E-01 
    4.6230259283907466E-01 
    4.3432313969126185E-01 
    4.0420920236751767E-01 
    3.7196186490406002E-01 
    3.3726467928384979E-01 
    2.9936954592359583E-01 
    2.5670807664440104E-01 
    2.0661871070870705E-01 
    1.4638508350450044E-01 
    8.4141807050871265E-02 
    5.5748166803615751E-01 
    5.5380888734711398E-01 
    5.4484905326092992E-01 
    5.3071870149598344E-01 
    5.1213505123215153E-01 
    4.8989205939839792E-01 
    4.6467950895056420E-01 
    4.3694813842283586E-01 
    4.0705365727229642E-01 
    3.7502251071563952E-01 
    3.4050419061879050E-01 
    3.0271052382868102E-01 
    2.5981394281032810E-01 
    2.0817073268819816E-01 
    1.4062588057456626E-01 
    4.9324273007734371E-02 
    5.5736419830160788E-01 
    5.5401276640715624E-01 
    5.4556837912321698E-01 
    5.3197895817740626E-01 
    5.1387473713384835E-01 
    4.9201342342497201E-01 
    4.6710992470030149E-01 
    4.3961588647334249E-01 
    4.0992974309292896E-01 
    3.7813678821033037E-01 
    3.4386520894701683E-01 
    3.0637771873568725E-01 
    2.6375843139446487E-01 
    2.1176641264114698E-01 
    1.4016829538146708E-01 
    0.0000000000000000E+00 

SCALARS Saturarion double 1 
LOOKUP_TABLE default 

    1.0000000000000004E+00 
    9.8099817796320632E-01 
    9.4591629693454538E-01 
    8.9551439589682580E-01 
    8.5355734379826431E-01 
    8.1636930875868419E-01 
    7.8333600817995452E-01 
    7.5406578719836037E-01 
    7.2786309456405285E-01 
    7.0392167545718287E-01 
    6.8136798140725729E-01 
    6.5911738848501122E-01 
    6.3540074255908774E-01 
    6.0663385684981297E-01 
    5.6516502996885820E-01 
    3.8479720977126775E-01 
    9.9315417573213294E-01 
    9.7521574058177007E-01 
    9.3833798094323584E-01 
    8.9022300771386564E-01 
    8.4891425174076773E-01 
    8.1264902495893976E-01 
    7.8052033707359014E-01 
    7.5192990843321328E-01 
    7.2627053472997749E-01 
    7.0278305180879086E-01 
    6.8075561892108261E-01 
    6.5923089368788634E-01 
    6.3646732318878652E-01 
    6.0867707332385623E-01 
    5.6834159436460485E-01 
    4.0072319191429223E-01 
    9.8229428044483158E-01 
    9.6415985473898402E-01 
    9.2689255625668154E-01 
    8.8022541145630329E-01 
    8.3961274512441464E-01 
    8.0490955697027777E-01 
    7.7463557566351993E-01 
    7.4750225902079592E-01 
    7.2286749960045527E-01 
    7.0014579697122814E-01 
    6.7881343373502689E-01 
    6.5810490840918934E-01 
    6.3667162791533594E-01 
    6.1096069187850344E-01 
    5.7307277640249088E-01 
    4.1593479593337640E-01 
    9.6337544375948492E-01 
    9.4803436690170328E-01 
    9.1261027439702369E-01 
    8.6964677150733050E-01 
    8.2975983886392968E-01 
    7.9556143446327321E-01 
    7.6610834010561490E-01 
    7.4027245737258818E-01 
    7.1702098421573957E-01 
    6.9577364052484614E-01 
    6.7579851736681396E-01 
    6.5634807144234630E-01 
    6.3625014335919927E-01 
    6.1270022499774379E-01 
    5.7779075394847723E-01 
    4.3101401651181648E-01 
    9.3978789138199137E-01 
    9.2579396423870197E-01 
    8.9349676938855560E-01 
    8.5467208535384176E-01 
    8.1667536271868180E-01 
    7.8298733645944063E-01 
    7.5409820781158499E-01 
    7.2921124521199099E-01 
    7.0745749302232064E-01 
    6.8809195951046898E-01 
    6.7042629704511747E-01 
    6.5341556789844224E-01 
    6.3543168579259701E-01 
    6.1392634340147823E-01 
    5.8199448661914188E-01 
    4.4402945171577041E-01 
    9.1222604419577014E-01 
    9.0024583087346299E-01 
    8.7184897677389761E-01 
    8.3624163467244406E-01 
    8.0073799714148353E-01 
    7.6853719214712479E-01 
    7.4035283680709796E-01 
    7.1617517654223017E-01 
    6.9541721766293452E-01 
    6.7748031159409805E-01 
    6.6190442813488004E-01 
    6.4798024589356140E-01 
    6.3352333692372043E-01 
    6.1479604148850087E-01 
    5.8560451824111692E-01 
    4.5607981777852158E-01 
    8.8156639648017654E-01 
    8.7230342921945070E-01 
    8.4805503785390501E-01 
    8.1580003554959346E-01 
    7.8313448571393929E-01 
    7.5312400731511386E-01 
    7.2653770848482302E-01 
    7.0309586524915080E-01 
    6.8284408553276488E-01 
    6.6568157350910961E-01 
    6.5151058607116963E-01 
    6.3999011240417025E-01 
    6.2953401335334691E-01 
    6.1510438025821002E-01 
    5.8905909893808472E-01 
    4.6802545243682198E-01 
    8.4774556532227918E-01 
    8.4161815457822264E-01 
    8.2217649049247166E-01 
    7.9396140840678542E-01 
    7.6410302241114458E-01 
    7.3621338698363181E-01 
    7.1109092708213117E-01 
    6.8891250703973905E-01 
    6.6958231826578662E-01 
    6.5325590028570268E-01 
    6.4003500578747530E-01 
    6.3021240903164455E-01 
    6.2311271226856546E-01 
    6.1403669905698877E-01 
    5.9247164870546687E-01 
    4.8014560904243508E-01 
    8.1068857902096636E-01 
    8.0776326054296654E-01 
    7.9325196095377581E-01 
    7.6956527864064483E-01 
    7.4303950102103300E-01 
    7.1723809240214165E-01 
    6.9365652625409124E-01 
    6.7262192547423783E-01 
    6.5430443848668174E-01 
    6.3888436918734925E-01 
    6.2678422734526140E-01 
    6.1853223605544594E-01 
    6.1429583626577677E-01 
    6.1073294801473044E-01 
    5.9532652063069902E-01 
    4.9191903879405863E-01 
    7.7039286152669539E-01 
    7.7060420984926836E-01 
    7.6091476448205753E-01 
    7.4167649539391689E-01 
    7.1873922853980943E-01 
    6.9545735039024736E-01 
    6.7342412620200709E-01 
    6.5374823885031619E-01 
    6.3669501655161631E-01 
    6.2236982985407918E-01 
    6.1117894682121043E-01 
    6.0425887339829809E-01 
    6.0265554188741044E-01 
    6.0455470507209674E-01 
    5.9670424215408724E-01 
    5.0375139525586676E-01 
    7.2657266180428681E-01 
    7.2979227042983574E-01 
    7.2474794839384482E-01 
    7.0973643291138799E-01 
    6.9043921558877541E-01 
    6.7016980682867777E-01 
    6.5058025805012332E-01 
    6.3237603469056902E-01 
    6.1648454882790327E-01 
    6.0334859186959511E-01 
    5.9333197552732175E-01 
    5.8735066371921518E-01 
    5.8753610479000695E-01 
    5.9461991040207796E-01 
    5.9382569766060367E-01 
    5.1603152774927086E-01 
    6.7783402049330976E-01 
    6.8406879026260592E-01 
    6.8388525221158192E-01 
    6.7325347206298003E-01 
    6.5737931021309814E-01 
    6.3988162348993116E-01 
    6.2263071154229899E-01 
    6.0670214957823188E-01 
    5.9258915203707185E-01 
    5.8089755726032755E-01 
    5.7222955477126980E-01 
    5.6765128812505639E-01 
    5.6905297104679509E-01 
    5.7983974665688409E-01 
    5.9062568122348158E-01 
    5.2696943131010532E-01 
    6.2280919017734648E-01 
    6.3177430449512906E-01 
    6.3619987536604017E-01 
    6.3009592191068675E-01 
    6.1823887156125934E-01 
    6.0395593899893341E-01 
    5.8973857775702421E-01 
    5.7614656073359061E-01 
    5.6373657123033494E-01 
    5.5330315716986711E-01 
    5.4619592280143936E-01 
    5.4330374746162691E-01 
    5.4644962601578129E-01 
    5.5967686276838147E-01 
    5.7977656628075491E-01 
    5.3535837106096074E-01 
    5.6470241960920997E-01 
    5.7482366357667203E-01 
    5.8269050541708434E-01 
    5.8093205652952173E-01 
    5.7337733769938826E-01 
    5.6272215972368123E-01 
    5.5128268323787977E-01 
    5.4002367611708202E-01 
    5.2839413652716360E-01 
    5.1789232232109861E-01 
    5.1105775467947379E-01 
    5.0986125884356770E-01 
    5.1564628482559527E-01 
    5.3249520877130740E-01 
    5.6587102305518888E-01 
    5.4052734769158484E-01 
    4.5297279333710350E-01 
    4.7386692296746402E-01 
    4.9034584514069496E-01 
    4.9714116089982424E-01 
    4.9415138001226133E-01 
    4.8499252677808319E-01 
    4.7084457527053830E-01 
    4.5616064347590390E-01 
    4.4106816471761751E-01 
    4.1780363085124655E-01 
    3.9752268796530282E-01 
    3.7666505162936942E-01 
    3.9274266897071242E-01 
    4.5432470622789273E-01 
    5.3196324967266617E-01 
    5.4079937775869735E-01 
    6.4086134973212500E-02 
    1.3439579445440858E-01 
    1.5128205272303114E-01 
    1.8052104604795957E-01 
    1.4428469896483007E-01 
    1.4629870908501222E-01 
    9.6637463646585139E-02 
    8.9542668520609423E-02 
    4.2184858066205130E-02 
    2.8630692405766350E-02 
    1.9283684087968905E-02 
    2.5063398087847227E-02 
    6.4221151625749345E-02 
    2.0977095052236513E-01 
    3.6212334406569480E-01 
    4.9020041457200003E-01 
