# vtk DataFile Version 2.0
Pressure Field Data 
ASCII 
DATASET UNSTRUCTURED_GRID 

POINTS 289 double 

    0.0000000000000000E+00     0.0000000000000000E+00     0.0000000000000000E+00 
    1.0000000000000000E+00     0.0000000000000000E+00     0.0000000000000000E+00 
    1.0000000000000000E+00     1.0000000000000000E+00     0.0000000000000000E+00 
    0.0000000000000000E+00     1.0000000000000000E+00     0.0000000000000000E+00 
    6.2499999999872928E-02     0.0000000000000000E+00     0.0000000000000000E+00 
    1.2499999999977310E-01     0.0000000000000000E+00     0.0000000000000000E+00 
    1.8749999999959341E-01     0.0000000000000000E+00     0.0000000000000000E+00 
    2.4999999999941089E-01     0.0000000000000000E+00     0.0000000000000000E+00 
    3.1249999999922851E-01     0.0000000000000000E+00     0.0000000000000000E+00 
    3.7499999999904610E-01     0.0000000000000000E+00     0.0000000000000000E+00 
    4.3749999999886358E-01     0.0000000000000000E+00     0.0000000000000000E+00 
    4.9999999999869210E-01     0.0000000000000000E+00     0.0000000000000000E+00 
    5.6249999999884603E-01     0.0000000000000000E+00     0.0000000000000000E+00 
    6.2499999999901090E-01     0.0000000000000000E+00     0.0000000000000000E+00 
    6.8749999999917577E-01     0.0000000000000000E+00     0.0000000000000000E+00 
    7.4999999999934064E-01     0.0000000000000000E+00     0.0000000000000000E+00 
    8.1249999999950551E-01     0.0000000000000000E+00     0.0000000000000000E+00 
    8.7499999999967026E-01     0.0000000000000000E+00     0.0000000000000000E+00 
    9.3749999999983513E-01     0.0000000000000000E+00     0.0000000000000000E+00 
    1.0000000000000000E+00     6.2499999999872928E-02     0.0000000000000000E+00 
    1.0000000000000000E+00     1.2499999999977310E-01     0.0000000000000000E+00 
    1.0000000000000000E+00     1.8749999999959341E-01     0.0000000000000000E+00 
    1.0000000000000000E+00     2.4999999999941089E-01     0.0000000000000000E+00 
    1.0000000000000000E+00     3.1249999999922851E-01     0.0000000000000000E+00 
    1.0000000000000000E+00     3.7499999999904610E-01     0.0000000000000000E+00 
    1.0000000000000000E+00     4.3749999999886358E-01     0.0000000000000000E+00 
    1.0000000000000000E+00     4.9999999999869210E-01     0.0000000000000000E+00 
    1.0000000000000000E+00     5.6249999999884603E-01     0.0000000000000000E+00 
    1.0000000000000000E+00     6.2499999999901090E-01     0.0000000000000000E+00 
    1.0000000000000000E+00     6.8749999999917577E-01     0.0000000000000000E+00 
    1.0000000000000000E+00     7.4999999999934064E-01     0.0000000000000000E+00 
    1.0000000000000000E+00     8.1249999999950551E-01     0.0000000000000000E+00 
    1.0000000000000000E+00     8.7499999999967026E-01     0.0000000000000000E+00 
    1.0000000000000000E+00     9.3749999999983513E-01     0.0000000000000000E+00 
    9.3749999999973976E-01     1.0000000000000000E+00     0.0000000000000000E+00 
    8.7499999999950118E-01     1.0000000000000000E+00     0.0000000000000000E+00 
    8.1249999999991318E-01     1.0000000000000000E+00     0.0000000000000000E+00 
    7.5000000000034706E-01     1.0000000000000000E+00     0.0000000000000000E+00 
    6.8750000000078049E-01     1.0000000000000000E+00     0.0000000000000000E+00 
    6.2500000000121403E-01     1.0000000000000000E+00     0.0000000000000000E+00 
    5.6250000000164757E-01     1.0000000000000000E+00     0.0000000000000000E+00 
    5.0000000000205946E-01     1.0000000000000000E+00     0.0000000000000000E+00 
    4.3750000000182099E-01     1.0000000000000000E+00     0.0000000000000000E+00 
    3.7500000000156092E-01     1.0000000000000000E+00     0.0000000000000000E+00 
    3.1250000000130068E-01     1.0000000000000000E+00     0.0000000000000000E+00 
    2.5000000000104050E-01     1.0000000000000000E+00     0.0000000000000000E+00 
    1.8750000000078040E-01     1.0000000000000000E+00     0.0000000000000000E+00 
    1.2500000000052031E-01     1.0000000000000000E+00     0.0000000000000000E+00 
    6.2500000000260125E-02     1.0000000000000000E+00     0.0000000000000000E+00 
    0.0000000000000000E+00     9.3749999999973976E-01     0.0000000000000000E+00 
    0.0000000000000000E+00     8.7499999999950118E-01     0.0000000000000000E+00 
    0.0000000000000000E+00     8.1249999999991318E-01     0.0000000000000000E+00 
    0.0000000000000000E+00     7.5000000000034706E-01     0.0000000000000000E+00 
    0.0000000000000000E+00     6.8750000000078049E-01     0.0000000000000000E+00 
    0.0000000000000000E+00     6.2500000000121403E-01     0.0000000000000000E+00 
    0.0000000000000000E+00     5.6250000000164757E-01     0.0000000000000000E+00 
    0.0000000000000000E+00     5.0000000000205946E-01     0.0000000000000000E+00 
    0.0000000000000000E+00     4.3750000000182099E-01     0.0000000000000000E+00 
    0.0000000000000000E+00     3.7500000000156092E-01     0.0000000000000000E+00 
    0.0000000000000000E+00     3.1250000000130068E-01     0.0000000000000000E+00 
    0.0000000000000000E+00     2.5000000000104050E-01     0.0000000000000000E+00 
    0.0000000000000000E+00     1.8750000000078040E-01     0.0000000000000000E+00 
    0.0000000000000000E+00     1.2500000000052031E-01     0.0000000000000000E+00 
    0.0000000000000000E+00     6.2500000000260125E-02     0.0000000000000000E+00 
    6.2499999999897131E-02     6.2500000000235922E-02     0.0000000000000000E+00 
    6.2499999999921327E-02     1.2500000000047351E-01     0.0000000000000000E+00 
    6.2499999999945530E-02     1.8750000000070621E-01     0.0000000000000000E+00 
    6.2499999999969733E-02     2.5000000000093858E-01     0.0000000000000000E+00 
    6.2499999999993928E-02     3.1250000000117117E-01     0.0000000000000000E+00 
    6.2500000000018124E-02     3.7500000000140382E-01     0.0000000000000000E+00 
    6.2500000000042327E-02     4.3750000000163619E-01     0.0000000000000000E+00 
    6.2500000000066530E-02     5.0000000000184897E-01     0.0000000000000000E+00 
    6.2500000000090733E-02     5.6250000000147260E-01     0.0000000000000000E+00 
    6.2500000000114922E-02     6.2500000000107636E-01     0.0000000000000000E+00 
    6.2500000000139125E-02     6.8750000000068034E-01     0.0000000000000000E+00 
    6.2500000000163328E-02     7.5000000000028411E-01     0.0000000000000000E+00 
    6.2500000000187531E-02     8.1249999999988787E-01     0.0000000000000000E+00 
    6.2500000000211720E-02     8.7499999999951172E-01     0.0000000000000000E+00 
    6.2500000000235922E-02     9.3749999999974565E-01     0.0000000000000000E+00 
    1.2499999999981980E-01     6.2500000000211733E-02     0.0000000000000000E+00 
    1.2499999999986650E-01     1.2500000000042691E-01     0.0000000000000000E+00 
    1.2499999999991319E-01     1.8750000000063199E-01     0.0000000000000000E+00 
    1.2499999999995989E-01     2.5000000000083678E-01     0.0000000000000000E+00 
    1.2500000000000661E-01     3.1250000000104172E-01     0.0000000000000000E+00 
    1.2500000000005329E-01     3.7500000000124661E-01     0.0000000000000000E+00 
    1.2500000000010000E-01     4.3750000000145117E-01     0.0000000000000000E+00 
    1.2500000000014669E-01     5.0000000000163858E-01     0.0000000000000000E+00 
    1.2500000000019340E-01     5.6250000000129741E-01     0.0000000000000000E+00 
    1.2500000000024011E-01     6.2500000000093847E-01     0.0000000000000000E+00 
    1.2500000000028680E-01     6.8750000000057998E-01     0.0000000000000000E+00 
    1.2500000000033351E-01     7.5000000000022127E-01     0.0000000000000000E+00 
    1.2500000000038020E-01     8.1249999999986211E-01     0.0000000000000000E+00 
    1.2500000000042691E-01     8.7499999999952238E-01     0.0000000000000000E+00 
    1.2500000000047359E-01     9.3749999999975164E-01     0.0000000000000000E+00 
    1.8749999999966760E-01     6.2500000000187531E-02     0.0000000000000000E+00 
    1.8749999999974179E-01     1.2500000000038020E-01     0.0000000000000000E+00 
    1.8749999999981601E-01     1.8750000000055780E-01     0.0000000000000000E+00 
    1.8749999999989009E-01     2.5000000000073502E-01     0.0000000000000000E+00 
    1.8749999999996431E-01     3.1250000000091221E-01     0.0000000000000000E+00 
    1.8750000000003850E-01     3.7500000000108941E-01     0.0000000000000000E+00 
    1.8750000000011269E-01     4.3750000000126649E-01     0.0000000000000000E+00 
    1.8750000000018691E-01     5.0000000000142808E-01     0.0000000000000000E+00 
    1.8750000000026110E-01     5.6250000000112244E-01     0.0000000000000000E+00 
    1.8750000000033529E-01     6.2500000000080080E-01     0.0000000000000000E+00 
    1.8750000000040951E-01     6.8750000000047962E-01     0.0000000000000000E+00 
    1.8750000000048361E-01     7.5000000000015843E-01     0.0000000000000000E+00 
    1.8750000000055780E-01     8.1249999999983680E-01     0.0000000000000000E+00 
    1.8750000000063199E-01     8.7499999999953304E-01     0.0000000000000000E+00 
    1.8750000000070621E-01     9.3749999999975764E-01     0.0000000000000000E+00 
    2.4999999999951281E-01     6.2500000000163314E-02     0.0000000000000000E+00 
    2.4999999999961461E-01     1.2500000000033351E-01     0.0000000000000000E+00 
    2.4999999999971650E-01     1.8750000000048361E-01     0.0000000000000000E+00 
    2.4999999999981831E-01     2.5000000000063310E-01     0.0000000000000000E+00 
    2.4999999999992020E-01     3.1250000000078260E-01     0.0000000000000000E+00 
    2.5000000000002198E-01     3.7500000000093209E-01     0.0000000000000000E+00 
    2.5000000000012390E-01     4.3750000000108180E-01     0.0000000000000000E+00 
    2.5000000000022571E-01     5.0000000000121769E-01     0.0000000000000000E+00 
    2.5000000000032763E-01     5.6250000000094724E-01     0.0000000000000000E+00 
    2.5000000000042938E-01     6.2500000000066314E-01     0.0000000000000000E+00 
    2.5000000000053119E-01     6.8750000000037925E-01     0.0000000000000000E+00 
[...]
CELL_DATA 256 
SCALARS Pressure double 1 
LOOKUP_TABLE default 

    1.2530049971506130E+00 
    1.1779127626217545E+00 
    1.1021398013368948E+00 
    1.0076495887700474E+00 
    9.2180139238387759E-01 
    8.4559056857256909E-01 
    7.7301690543658619E-01 
    7.0267380314528327E-01 
    6.3420503979879106E-01 
    5.6789780362755582E-01 
    5.0466344064575541E-01 
    4.4625833138413573E-01 
    3.9549985575146918E-01 
    3.5600300279282066E-01 
    3.3097023157152211E-01 
    3.2090040720468038E-01 
    1.2378706643389199E+00 
    1.1805195809810731E+00 
    1.1072015130942758E+00 
    1.0142757107657332E+00 
    9.2912373278807281E-01 
    8.5269413197161326E-01 
    7.7997463961925972E-01 
    7.0947488793034108E-01 
    6.4078655609691715E-01 
    5.7413481794358845E-01 
    5.1034776718058183E-01 
    4.5107731533677825E-01 
    3.9906809308048813E-01 
    3.5800697239716178E-01 
    3.3143461228552656E-01 
    3.2045987479070720E-01 
    1.2223999859281958E+00 
    1.1779917640348374E+00 
    1.1084175432550822E+00 
    1.0185424648728465E+00 
    9.3555182468641540E-01 
    8.5941998629809435E-01 
    7.8673578726267723E-01 
    7.1614725482532249E-01 
    6.4724211486820915E-01 
    5.8019116043218943E-01 
    5.1572968191675594E-01 
    4.5538860935356656E-01 
    4.0183799121998848E-01 
    3.5889368475685512E-01 
    3.3059429606354007E-01 
    3.1885679402062095E-01 
    1.2054899221929167E+00 
    1.1707588304699177E+00 
    1.1057260526532735E+00 
    1.0209025656163866E+00 
    9.4103201520543722E-01 
    8.6572296548828587E-01 
    7.9328444171871293E-01 
    7.2269322189379859E-01 
    6.5359179828248748E-01 
    5.8610954402362581E-01 
    5.2087970189528432E-01 
    4.5928836634762227E-01 
    4.0390750497939115E-01 
    3.5870661752664923E-01 
    3.2837031339159889E-01 
    3.1586978031544827E-01 
    1.1888517738798381E+00 
    1.1603737648728871E+00 
    1.1000744466586359E+00 
    1.0219922571533386E+00 
    9.4562912676718136E-01 
    8.7159115430970469E-01 
    7.9961405097854954E-01 
    7.2911844030301454E-01 
    6.5985691378598299E-01 
    5.9193359704845738E-01 
    5.2587111468832148E-01 
    4.6288049713064144E-01 
    4.0538828882965100E-01 
    3.5750155808960327E-01 
    3.2468013804069673E-01 
    3.1126889365246041E-01 
    1.1706771767115240E+00 
    1.1471055006810038E+00 
    1.0929834265442080E+00 
    1.0223524384854028E+00 
    9.4949215035271517E-01 
    8.7704682399870559E-01 
    8.0573017423987514E-01 
    7.3543275072536718E-01 
    6.6605951553844966E-01 
    5.9770698595056382E-01 
    5.3077908987440747E-01 
    4.6627750543096902E-01 
    4.0641110262071234E-01 
    3.5535662685934960E-01 
    3.1944199723142008E-01 
    3.0479847557980538E-01 
    1.1522765523312302E+00 
    1.1330592301214848E+00 
    1.0860171448328544E+00 
    1.0221743805180219E+00 
    9.5278552115896276E-01 
    8.8213925987814057E-01 
    8.1164944237741821E-01 
    7.4165037149594948E-01 
    6.7222312733030887E-01 
    6.0347233410348544E-01 
    5.3567971923117486E-01 
    4.6960024962908459E-01 
    4.0713095862303000E-01 
    3.5238504421622641E-01 
    3.1258321529220806E-01 
    2.9616184356745318E-01 
    1.1374048762377842E+00 
    1.1213789785839900E+00 
    1.0799618595616929E+00 
    1.0215942705160719E+00 
    9.5566318504845460E-01 
    8.8693546193591011E-01 
    8.1739986867162995E-01 
    7.4778971019983020E-01 
    6.7837095877573406E-01 
    6.0927002036684419E-01 
    5.4064722539684429E-01 
    4.7297648604351672E-01 
    4.0773098145223097E-01 
    3.4874994482183774E-01 
    3.0405254555290112E-01 
    2.8499834176983896E-01 
    1.1254827207263316E+00 
    1.1115393005090952E+00 
    1.0745899323871912E+00 
    1.0209178697470072E+00 
    9.5828101764176554E-01 
    8.9151373717952320E-01 
    8.2301855685517822E-01 
    7.5387300585765948E-01 
    6.8452586538405369E-01 
    6.1513690626579487E-01 
    5.4575142336022031E-01 
    4.7653728676500356E-01 
    4.0842449527920466E-01 
    3.4468361414813975E-01 
    2.9384384081900855E-01 
    2.7085434953906212E-01 
    1.1159786202917936E+00 
    1.1034268758705155E+00 
    1.0700515739415701E+00 
    1.0203801554131187E+00 
    9.6079309765996646E-01 
    8.9595928255721502E-01 
    8.2854980243995391E-01 
    7.5992576721979743E-01 
    6.9070971378903157E-01 
    6.2110498444811812E-01 
    5.5105442300159668E-01 
    4.8041138501720149E-01 
    4.0945337730304848E-01 
    3.4050968000443826E-01 
    2.8203631049312350E-01 
    2.5314195877338097E-01 
    1.1085680856129749E+00 
    1.0969601196622714E+00 
    1.0664495641143033E+00 
    1.0201686257393467E+00 
    9.6334351901996451E-01 
    9.0036034121447561E-01 
    8.3404219117140566E-01 
    7.6597591874063553E-01 
    6.9694334099540445E-01 
    6.2720021135668913E-01 
    5.5660739212392341E-01 
    4.8471712989987259E-01 
    4.1108040533847540E-01 
    3.3666652427707749E-01 
    2.6886380237667323E-01 
    2.3108289236026849E-01 
    1.1029830207746973E+00 
    1.0920457184796271E+00 
    1.0638513434015215E+00 
    1.0204332553154729E+00 
    9.6606430728367476E-01 
    9.0480513750291514E-01 
    8.3954743194764658E-01 
    7.7205275936250739E-01 
    7.0324552541947605E-01 
    6.3344161930668108E-01 
    5.6244691549298198E-01 
    4.8955231457204335E-01 
    4.1357196976258198E-01 
    3.3372467432260366E-01 
    2.5483049797306079E-01 
    2.0362393048439939E-01 
    1.0989941208564324E+00 
    1.0885875826748086E+00 
    1.0622992162362976E+00 
    1.0212947125920118E+00 
    9.6907427086323483E-01 
    9.0937953859847642E-01 
    8.4511858964721309E-01 
    7.7818636525510176E-01 
    7.0963301670135182E-01 
    6.3984100026660251E-01 
    5.6859261794856730E-01 
    4.9498284947544757E-01 
    4.1716874463314546E-01 
    3.3238608878589321E-01 
    2.4090728618886253E-01 
    1.6931179772903987E-01 
    1.0963968573008305E+00 
    1.0864915698171427E+00 
    1.0618188802642547E+00 
    1.0228515385413546E+00 
    9.7247981956917662E-01 
    9.1416568132871545E-01 
    8.5080874752689661E-01 
    7.8440692113389132E-01 
    7.1612046611207525E-01 
    6.4640317578473305E-01 
    5.7504630326869766E-01 
    5.0103291382483917E-01 
    4.2204265932596247E-01 
    3.3343554638045653E-01 
    2.2886121374301793E-01 
    1.2610445626515923E-01 
    1.0949995274204434E+00 
    1.0856677364548699E+00 
    1.0624263429916476E+00 
    1.0251865037605588E+00 
    9.7637669473408883E-01 
    9.1924134502717547E-01 
    8.5666997706721515E-01 
    7.9074412580093412E-01 
    7.2272048575948655E-01 
    6.5312683903500535E-01 
    5.8179319654501105E-01 
    5.0768016330108456E-01 
    4.2824537492745096E-01 
    3.3758696932836962E-01 
    2.2180847204189463E-01 
    7.1083056588845978E-02 
    1.0946120417534830E+00 
    1.0860313262598931E+00 
    1.0641336176525131E+00 
    1.0283722850225072E+00 
    9.8085221866040917E-01 
    9.2467990860401805E-01 
    8.6275261055577845E-01 
    7.9722670214096270E-01 
    7.2944379064280040E-01 
    6.6000581223084043E-01 
    5.8880526548263179E-01 
    5.1486001383091140E-01 
    4.3567057437110357E-01 
    3.4511417861601562E-01 
    2.2514244928350347E-01 
    0.0000000000000000E+00 

SCALARS Saturarion double 1 
LOOKUP_TABLE default 

    9.9752274947448938E-01 
    8.0841928601624113E-01 
    5.1076271527271366E-01 
    4.4848146321021541E-02 
    1.0001204532627934E-06 
    1.0000000000553089E-06 
    9.9999999999999995E-07 
    9.9999999999999995E-07 
    9.9999999999999995E-07 
    9.9999999999999995E-07 
    9.9999999999999995E-07 
    9.9999999999999995E-07 
    9.9999999999999995E-07 
    9.9999999999999995E-07 
    9.9999999999999995E-07 
    9.9999999999999995E-07 
    8.7634735110328321E-01 
    7.4578035799919629E-01 
    4.6585110656349010E-01 
    3.0649697167809409E-02 
    6.3231964921057794E-06 
    1.0000014569917667E-06 
    1.0000000000001120E-06 
    9.9999999999999995E-07 
    9.9999999999999995E-07 
    9.9999999999999995E-07 
    9.9999999999999995E-07 
    9.9999999999999995E-07 
    9.9999999999999995E-07 
    9.9999999999999995E-07 
    9.9999999999999995E-07 
    9.9999999999999995E-07 
    6.8495075502264335E-01 
    6.3247113471381677E-01 
    3.9018292074013466E-01 
    1.2216968553669492E-02 
    3.2072257006337196E-06 
    1.0000008075392288E-06 
    9.9999999999999995E-07 
    9.9999999999999995E-07 
    9.9999999999999995E-07 
    9.9999999999999995E-07 
    9.9999999999999995E-07 
    9.9999999999999995E-07 
    9.9999999999999995E-07 
    9.9999999999999995E-07 
    9.9999999999999995E-07 
    9.9999999999999995E-07 
    5.8549133119495511E-01 
    5.4554208252233871E-01 
    2.7780666356846984E-01 
    2.1104511991399439E-03 
    1.1286447329702256E-06 
    1.0000000232102828E-06 
    9.9999999999999974E-07 
    9.9999999999999995E-07 
    9.9999999999999995E-07 
    9.9999999999999995E-07 
    9.9999999999999995E-07 
    9.9999999999999995E-07 
    9.9999999999999995E-07 
    9.9999999999999995E-07 
    9.9999999999999995E-07 
    9.9999999999999995E-07 
    5.2490206710908494E-01 
    4.5080161323416362E-01 
    1.2780452343797954E-01 
    1.6386637849343468E-04 
    1.0072602139713387E-06 
    1.0000000000002871E-06 
    9.9999999999999995E-07 
    9.9999999999999995E-07 
    9.9999999999999995E-07 
    9.9999999999999995E-07 
    9.9999999999999995E-07 
    9.9999999999999995E-07 
    9.9999999999999995E-07 
    9.9999999999999995E-07 
    9.9999999999999995E-07 
    9.9999999999999995E-07 
    3.8670965091880688E-01 
    2.0144302327776090E-01 
    7.1625593131734505E-03 
    1.8675999877588475E-06 
    1.0000001139338128E-06 
    1.0000000000000002E-06 
    9.9999999999999995E-07 
    9.9999999999999995E-07 
    9.9999999999999995E-07 
    9.9999999999999995E-07 
    9.9999999999999995E-07 
    9.9999999999999995E-07 
    9.9999999999999995E-07 
    9.9999999999999995E-07 
    9.9999999999999995E-07 
    9.9999999999999995E-07 
    3.3175227807214637E-02 
    1.6935353547470628E-03 
    3.3684238335757509E-06 
    1.0000008402533734E-06 
    1.0000000000000268E-06 
    9.9999999999999995E-07 
    9.9999999999999995E-07 
    9.9999999999999995E-07 
    9.9999999999999995E-07 
    9.9999999999999995E-07 
    9.9999999999999995E-07 
    9.9999999999999995E-07 
    9.9999999999999995E-07 
    9.9999999999999995E-07 
    9.9999999999999995E-07 
    9.9999999999999995E-07 
    1.0618125663464776E-06 
    1.2916034903807386E-06 
    1.0000002309264617E-06 
    1.0000000000000605E-06 
    9.9999999999999995E-07 
    9.9999999999999995E-07 
    9.9999999999999995E-07 
    9.9999999999999995E-07 
    9.9999999999999995E-07 
    9.9999999999999995E-07 
    9.9999999999999995E-07 
    9.9999999999999995E-07 
    9.9999999999999995E-07 
    9.9999999999999995E-07 
    9.9999999999999995E-07 
    9.9999999999999995E-07 
    1.0000000201682462E-06 
    1.0000000187122065E-06 
    1.0000000000000186E-06 
    9.9999999999999995E-07 
    9.9999999999999995E-07 
    9.9999999999999995E-07 
    9.9999999999999995E-07 
    9.9999999999999995E-07 
    9.9999999999999995E-07 
    9.9999999999999995E-07 
    9.9999999999999995E-07 
    9.9999999999999995E-07 
    9.9999999999999995E-07 
    9.9999999999999995E-07 
    9.9999999999999995E-07 
    9.9999999999999995E-07 
    9.9999999999999995E-07 
    1.0000000000000006E-06 
    9.9999999999999995E-07 
    9.9999999999999995E-07 
    9.9999999999999995E-07 
    9.9999999999999995E-07 
    9.9999999999999995E-07 
    9.9999999999999995E-07 
    9.9999999999999995E-07 
    9.9999999999999995E-07 
    9.9999999999999995E-07 
    9.9999999999999995E-07 
    9.9999999999999995E-07 
    9.9999999999999995E-07 
    9.9999999999999995E-07 
    9.9999999999999995E-07 
    9.9999999999999995E-07 
    9.9999999999999995E-07 
    9.9999999999999995E-07 
    9.9999999999999995E-07 
    9.9999999999999995E-07 
    9.9999999999999995E-07 
    9.9999999999999995E-07 
    9.9999999999999995E-07 
    9.9999999999999995E-07 
    9.9999999999999995E-07 
    9.9999999999999995E-07 
    9.9999999999999995E-07 
    9.9999999999999995E-07 
    9.9999999999999995E-07 
    9.9999999999999995E-07 
    9.9999999999999995E-07 
    9.9999999999999995E-07 
    9.9999999999999995E-07 
    9.9999999999999995E-07 
    9.9999999999999995E-07 
    9.9999999999999995E-07 
    9.9999999999999995E-07 
    9.9999999999999995E-07 
    9.9999999999999995E-07 
    9.9999999999999995E-07 
    9.9999999999999995E-07 
    9.9999999999999995E-07 
    9.9999999999999995E-07 
    9.9999999999999995E-07 
    9.9999999999999995E-07 
    9.9999999999999995E-07 
    9.9999999999999995E-07 
    9.9999999999999995E-07 
    9.9999999999999995E-07 
    9.9999999999999995E-07 
    9.9999999999999995E-07 
    9.9999999999999995E-07 
    9.9999999999999995E-07 
    9.9999999999999995E-07 
    9.9999999999999995E-07 
    9.9999999999999995E-07 
    9.9999999999999995E-07 
    9.9999999999999995E-07 
    9.9999999999999995E-07 
    9.9999999999999995E-07 
    9.9999999999999995E-07 
    9.9999999999999995E-07 
    9.9999999999999995E-07 
    9.9999999999999995E-07 
    9.9999999999999995E-07 
    9.9999999999999995E-07 
    9.9999999999999995E-07 
    9.9999999999999995E-07 
    9.9999999999999995E-07 
    9.9999999999999995E-07 
    9.9999999999999995E-07 
    9.9999999999999995E-07 
    9.9999999999999995E-07 
    9.9999999999999995E-07 
    9.9999999999999995E-07 
    9.9999999999999995E-07 
    9.9999999999999995E-07 
    9.9999999999999995E-07 
    9.9999999999999995E-07 
    9.9999999999999995E-07 
    9.9999999999999995E-07 
    9.9999999999999995E-07 
    9.9999999999999995E-07 
    9.9999999999999995E-07 
    9.9999999999999995E-07 
    9.9999999999999995E-07 
    9.9999999999999995E-07 
    9.9999999999999995E-07 
    9.9999999999999995E-07 
    9.9999999999999995E-07 
    9.9999999999999995E-07 
    9.9999999999999995E-07 
    9.9999999999999995E-07 
    9.9999999999999995E-07 
    9.9999999999999995E-07 
    9.9999999999999995E-07 
    9.9999999999999995E-07 
    9.9999999999999995E-07 
    9.9999999999999995E-07 
    9.9999999999999995E-07 
    9.9999999999999995E-07 
    9.9999999999999995E-07 
    9.9999999999999995E-07 
    9.9999999999999995E-07 
    9.9999999999999995E-07 
    9.9999999999999995E-07 
    9.9999999999999995E-07 
    9.9999999999999995E-07 
    9.9999999999999995E-07 
    9.9999999999999995E-07 
    1.0000000414518908E-06 
