# vtk DataFile Version 2.0
Pressure Field Data 
ASCII 
DATASET UNSTRUCTURED_GRID 

POINTS 289 double 

    0.0000000000000000E+00     0.0000000000000000E+00     0.0000000000000000E+00 
    1.0000000000000000E+00     0.0000000000000000E+00     0.0000000000000000E+00 
    1.0000000000000000E+00     1.0000000000000000E+00     0.0000000000000000E+00 
    0.0000000000000000E+00     1.0000000000000000E+00     0.0000000000000000E+00 
    6.2499999999872928E-02     0.0000000000000000E+00     0.0000000000000000E+00 
    1.2499999999977310E-01     0.0000000000000000E+00     0.0000000000000000E+00 
    1.8749999999959341E-01     0.0000000000000000E+00     0.0000000000000000E+00 
    2.4999999999941089E-01     0.0000000000000000E+00     0.0000000000000000E+00 
    3.1249999999922851E-01     0.0000000000000000E+00     0.0000000000000000E+00 
    3.7499999999904610E-01     0.0000000000000000E+00     0.0000000000000000E+00 
    4.3749999999886358E-01     0.0000000000000000E+00     0.0000000000000000E+00 
    4.9999999999869210E-01     0.0000000000000000E+00     0.0000000000000000E+00 
    5.6249999999884603E-01     0.0000000000000000E+00     0.0000000000000000E+00 
    6.2499999999901090E-01     0.0000000000000000E+00     0.0000000000000000E+00 
    6.8749999999917577E-01     0.0000000000000000E+00     0.0000000000000000E+00 
    7.4999999999934064E-01     0.0000000000000000E+00     0.0000000000000000E+00 
    8.1249999999950551E-01     0.0000000000000000E+00     0.0000000000000000E+00 
    8.7499999999967026E-01     0.0000000000000000E+00     0.0000000000000000E+00 
    9.3749999999983513E-01     0.0000000000000000E+00     0.0000000000000000E+00 
    1.0000000000000000E+00     6.2499999999872928E-02     0.0000000000000000E+00 
    1.0000000000000000E+00     1.2499999999977310E-01     0.0000000000000000E+00 
    1.0000000000000000E+00     1.8749999999959341E-01     0.0000000000000000E+00 
    1.0000000000000000E+00     2.4999999999941089E-01     0.0000000000000000E+00 
    1.0000000000000000E+00     3.1249999999922851E-01     0.0000000000000000E+00 
    1.0000000000000000E+00     3.7499999999904610E-01     0.0000000000000000E+00 
    1.0000000000000000E+00     4.3749999999886358E-01     0.0000000000000000E+00 
    1.0000000000000000E+00     4.9999999999869210E-01     0.0000000000000000E+00 
    1.0000000000000000E+00     5.6249999999884603E-01     0.0000000000000000E+00 
    1.0000000000000000E+00     6.2499999999901090E-01     0.0000000000000000E+00 
    1.0000000000000000E+00     6.8749999999917577E-01     0.0000000000000000E+00 
    1.0000000000000000E+00     7.4999999999934064E-01     0.0000000000000000E+00 
    1.0000000000000000E+00     8.1249999999950551E-01     0.0000000000000000E+00 
    1.0000000000000000E+00     8.7499999999967026E-01     0.0000000000000000E+00 
    1.0000000000000000E+00     9.3749999999983513E-01     0.0000000000000000E+00 
    9.3749999999973976E-01     1.0000000000000000E+00     0.0000000000000000E+00 
    8.7499999999950118E-01     1.0000000000000000E+00     0.0000000000000000E+00 
    8.1249999999991318E-01     1.0000000000000000E+00     0.0000000000000000E+00 
    7.5000000000034706E-01     1.0000000000000000E+00     0.0000000000000000E+00 
    6.8750000000078049E-01     1.0000000000000000E+00     0.0000000000000000E+00 
    6.2500000000121403E-01     1.0000000000000000E+00     0.0000000000000000E+00 
    5.6250000000164757E-01     1.0000000000000000E+00     0.0000000000000000E+00 
    5.0000000000205946E-01     1.0000000000000000E+00     0.0000000000000000E+00 
    4.3750000000182099E-01     1.0000000000000000E+00     0.0000000000000000E+00 
    3.7500000000156092E-01     1.0000000000000000E+00     0.0000000000000000E+00 
    3.1250000000130068E-01     1.0000000000000000E+00     0.0000000000000000E+00 
    2.5000000000104050E-01     1.0000000000000000E+00     0.0000000000000000E+00 
    1.8750000000078040E-01     1.0000000000000000E+00     0.0000000000000000E+00 
    1.2500000000052031E-01     1.0000000000000000E+00     0.0000000000000000E+00 
    6.2500000000260125E-02     1.0000000000000000E+00     0.0000000000000000E+00 
    0.0000000000000000E+00     9.3749999999973976E-01     0.0000000000000000E+00 
    0.0000000000000000E+00     8.7499999999950118E-01     0.0000000000000000E+00 
    0.0000000000000000E+00     8.1249999999991318E-01     0.0000000000000000E+00 
    0.0000000000000000E+00     7.5000000000034706E-01     0.0000000000000000E+00 
    0.0000000000000000E+00     6.8750000000078049E-01     0.0000000000000000E+00 
    0.0000000000000000E+00     6.2500000000121403E-01     0.0000000000000000E+00 
    0.0000000000000000E+00     5.6250000000164757E-01     0.0000000000000000E+00 
    0.0000000000000000E+00     5.0000000000205946E-01     0.0000000000000000E+00 
    0.0000000000000000E+00     4.3750000000182099E-01     0.0000000000000000E+00 
    0.0000000000000000E+00     3.7500000000156092E-01     0.0000000000000000E+00 
    0.0000000000000000E+00     3.1250000000130068E-01     0.0000000000000000E+00 
    0.0000000000000000E+00     2.5000000000104050E-01     0.0000000000000000E+00 
    0.0000000000000000E+00     1.8750000000078040E-01     0.0000000000000000E+00 
    0.0000000000000000E+00     1.2500000000052031E-01     0.0000000000000000E+00 
    0.0000000000000000E+00     6.2500000000260125E-02     0.0000000000000000E+00 
    6.2499999999897131E-02     6.2500000000235922E-02     0.0000000000000000E+00 
    6.2499999999921327E-02     1.2500000000047351E-01     0.0000000000000000E+00 
    6.2499999999945530E-02     1.8750000000070621E-01     0.0000000000000000E+00 
    6.2499999999969733E-02     2.5000000000093858E-01     0.0000000000000000E+00 
    6.2499999999993928E-02     3.1250000000117117E-01     0.0000000000000000E+00 
    6.2500000000018124E-02     3.7500000000140382E-01     0.0000000000000000E+00 
    6.2500000000042327E-02     4.3750000000163619E-01     0.0000000000000000E+00 
    6.2500000000066530E-02     5.0000000000184897E-01     0.0000000000000000E+00 
    6.2500000000090733E-02     5.6250000000147260E-01     0.0000000000000000E+00 
    6.2500000000114922E-02     6.2500000000107636E-01     0.0000000000000000E+00 
    6.2500000000139125E-02     6.8750000000068034E-01     0.0000000000000000E+00 
    6.2500000000163328E-02     7.5000000000028411E-01     0.0000000000000000E+00 
    6.2500000000187531E-02     8.1249999999988787E-01     0.0000000000000000E+00 
    6.2500000000211720E-02     8.7499999999951172E-01     0.0000000000000000E+00 
    6.2500000000235922E-02     9.3749999999974565E-01     0.0000000000000000E+00 
    1.2499999999981980E-01     6.2500000000211733E-02     0.0000000000000000E+00 
    1.2499999999986650E-01     1.2500000000042691E-01     0.0000000000000000E+00 
    1.2499999999991319E-01     1.8750000000063199E-01     0.0000000000000000E+00 
    1.2499999999995989E-01     2.5000000000083678E-01     0.0000000000000000E+00 
    1.2500000000000661E-01     3.1250000000104172E-01     0.0000000000000000E+00 
    1.2500000000005329E-01     3.7500000000124661E-01     0.0000000000000000E+00 
    1.2500000000010000E-01     4.3750000000145117E-01     0.0000000000000000E+00 
    1.2500000000014669E-01     5.0000000000163858E-01     0.0000000000000000E+00 
    1.2500000000019340E-01     5.6250000000129741E-01     0.0000000000000000E+00 
    1.2500000000024011E-01     6.2500000000093847E-01     0.0000000000000000E+00 
    1.2500000000028680E-01     6.8750000000057998E-01     0.0000000000000000E+00 
    1.2500000000033351E-01     7.5000000000022127E-01     0.0000000000000000E+00 
    1.2500000000038020E-01     8.1249999999986211E-01     0.0000000000000000E+00 
    1.2500000000042691E-01     8.7499999999952238E-01     0.0000000000000000E+00 
    1.2500000000047359E-01     9.3749999999975164E-01     0.0000000000000000E+00 
    1.8749999999966760E-01     6.2500000000187531E-02     0.0000000000000000E+00 
    1.8749999999974179E-01     1.2500000000038020E-01     0.0000000000000000E+00 
    1.8749999999981601E-01     1.8750000000055780E-01     0.0000000000000000E+00 
    1.8749999999989009E-01     2.5000000000073502E-01     0.0000000000000000E+00 
    1.8749999999996431E-01     3.1250000000091221E-01     0.0000000000000000E+00 
    1.8750000000003850E-01     3.7500000000108941E-01     0.0000000000000000E+00 
    1.8750000000011269E-01     4.3750000000126649E-01     0.0000000000000000E+00 
    1.8750000000018691E-01     5.0000000000142808E-01     0.0000000000000000E+00 
    1.8750000000026110E-01     5.6250000000112244E-01     0.0000000000000000E+00 
    1.8750000000033529E-01     6.2500000000080080E-01     0.0000000000000000E+00 
    1.8750000000040951E-01     6.8750000000047962E-01     0.0000000000000000E+00 
    1.8750000000048361E-01     7.5000000000015843E-01     0.0000000000000000E+00 
    1.8750000000055780E-01     8.1249999999983680E-01     0.0000000000000000E+00 
    1.8750000000063199E-01     8.7499999999953304E-01     0.0000000000000000E+00 
    1.8750000000070621E-01     9.3749999999975764E-01     0.0000000000000000E+00 
    2.4999999999951281E-01     6.2500000000163314E-02     0.0000000000000000E+00 
    2.4999999999961461E-01     1.2500000000033351E-01     0.0000000000000000E+00 
    2.4999999999971650E-01     1.8750000000048361E-01     0.0000000000000000E+00 
    2.4999999999981831E-01     2.5000000000063310E-01     0.0000000000000000E+00 
    2.4999999999992020E-01     3.1250000000078260E-01     0.0000000000000000E+00 
    2.5000000000002198E-01     3.7500000000093209E-01     0.0000000000000000E+00 
    2.5000000000012390E-01     4.3750000000108180E-01     0.0000000000000000E+00 
    2.5000000000022571E-01     5.0000000000121769E-01     0.0000000000000000E+00 
    2.5000000000032763E-01     5.6250000000094724E-01     0.0000000000000000E+00 
    2.5000000000042938E-01     6.2500000000066314E-01     0.0000000000000000E+00 
    2.5000000000053119E-01     6.8750000000037925E-01     0.0000000000000000E+00 
[...]
CELL_DATA 256 
SCALARS Pressure double 1 
LOOKUP_TABLE default 

    7.7172044799427797E-01 
    7.2094775947589484E-01 
    6.8769656634310505E-01 
    6.5697797344672726E-01 
    6.2541316862812235E-01 
    5.9220451515034289E-01 
    5.5717871120218709E-01 
    5.2050261795169284E-01 
    4.8255664645324786E-01 
    4.4395951861928834E-01 
    4.0568905131603705E-01 
    3.6929948113871724E-01 
    3.3710467334216732E-01 
    3.1195350762256185E-01 
    2.9505298358891030E-01 
    2.8694725862772019E-01 
    7.5776215022907489E-01 
    7.2232821371291589E-01 
    6.9022545020856307E-01 
    6.5977481441502162E-01 
    6.2843954242253985E-01 
    5.9544946159534229E-01 
    5.6061867973215396E-01 
    5.2408858610732301E-01 
    4.8620891358209606E-01 
    4.4755644741192963E-01 
    4.0904968694267435E-01 
    3.7216802572864044E-01 
    3.3917669523977861E-01 
    3.1302147673755248E-01 
    2.9524027753944898E-01 
    2.8653159514694326E-01 
    7.4704423368911621E-01 
    7.2154486015696429E-01 
    6.9197580699084493E-01 
    6.6221080085649242E-01 
    6.3123907065152862E-01 
    5.9852098687168587E-01 
    5.6390962745179496E-01 
    5.2753169331456362E-01 
    4.8970174368426073E-01 
    4.5094397035729228E-01 
    4.1210311995132332E-01 
    3.7456794539207289E-01 
    3.4055054199857632E-01 
    3.1312260909962392E-01 
    2.9431486349342184E-01 
    2.8507267357709049E-01 
    7.3858737096492222E-01 
    7.1964905179538652E-01 
    6.9298541379815337E-01 
    6.6426625353200031E-01 
    6.3381039920331250E-01 
    6.0142749665714190E-01 
    5.6706162902732793E-01 
    5.3084375731462052E-01 
    4.9305483828307667E-01 
    4.5415760784521586E-01 
    4.1490647632066380E-01 
    3.7657573365231023E-01 
    3.4130264649167930E-01 
    3.1229384149713341E-01 
    2.9219470682841409E-01 
    2.8234548077173638E-01 
    7.3174079255812818E-01 
    7.1722556663147230E-01 
    6.9338503983174793E-01 
    6.6594964225107212E-01 
    6.3615424232539819E-01 
    6.0417823169136786E-01 
    5.7008981527807723E-01 
    5.3404383904317310E-01 
    4.9629428895031669E-01 
    4.5723773964739339E-01 
    4.1752202153946927E-01 
    3.7827686005520850E-01 
    3.4152359330898496E-01 
    3.1058262030502276E-01 
    2.8880345451453626E-01 
    2.7813408639043297E-01 
    7.2612223856415414E-01 
    7.1462540033309740E-01 
    6.9332808230979037E-01 
    6.6729579291202434E-01 
    6.3827859437326895E-01 
    6.0678184220973419E-01 
    5.7301039960997280E-01 
    5.3715593542065898E-01 
    4.9945230482298447E-01 
    4.6022938171299121E-01 
    4.2001585408327274E-01 
    3.7976452463723182E-01 
    3.4131977423256249E-01 
    3.0805429833405590E-01 
    2.8407732950560877E-01 
    2.7223073343229826E-01 
    7.2148383215518253E-01 
    7.1206888576506566E-01 
    6.9296977873437882E-01 
    6.6836412153308833E-01 
    6.4020596751614267E-01 
    6.0925120710347569E-01 
    5.7583827386584507E-01 
    5.4020336124858725E-01 
    5.0256312535636105E-01 
    4.6318034630058591E-01 
    4.2245779881302054E-01 
    3.8113976177013537E-01 
    3.4081665926037674E-01 
    3.0480349685081048E-01 
    2.7796780781778219E-01 
    2.6439905369022337E-01 
    7.1765025991367914E-01 
    7.0968974593736367E-01 
    6.9244861100046151E-01 
    6.6922532462326945E-01 
    6.4196956436715336E-01 
    6.1160462931175508E-01 
    5.7858849154402281E-01 
    5.4320569039640720E-01 
    5.0565715791983035E-01 
    4.6613745661193839E-01 
    4.2492027644293978E-01 
    3.8251345036655948E-01 
    3.4016381312202998E-01 
    3.0096450745115494E-01 
    2.7045315631652594E-01 
    2.5436904908519703E-01 
    7.1449470267231474E-01 
    7.0756535027419631E-01 
    6.9187800344190153E-01 
    6.6995164419509923E-01 
    6.4360820978331468E-01 
    6.1386437071035527E-01 
    5.8127681788732732E-01 
    5.4617917322232512E-01 
    5.0875848206375640E-01 
    4.6914119030841472E-01 
    4.2747318641182347E-01 
    3.8400368047552252E-01 
    3.3953885281085067E-01 
    2.9672370276442367E-01 
    2.6154321756671889E-01 
    2.4180060489694813E-01 
    7.1192497099370899E-01 
    7.0573942386579613E-01 
    6.9134674458117584E-01 
    6.7061150421488280E-01 
    6.4516454211755669E-01 
    6.1605636700012145E-01 
    5.8392043540011263E-01 
    5.4913900769911173E-01 
    5.1188706053522703E-01 
    4.7222478152612801E-01 
    4.3017949474660699E-01 
    3.8573045792604094E-01 
    3.3914736245898541E-01 
    2.9233972246112316E-01 
    2.5130435107110211E-01 
    2.2623313664863107E-01 
    7.0987320452627967E-01 
    7.0423790233409223E-01 
    6.9092632993293424E-01 
    6.7126997348248563E-01 
    6.4668549882687720E-01 
    6.1821249805562983E-01 
    5.8654039386165058E-01 
    5.5210281334032119E-01 
    5.1506398755576432E-01 
    4.7541797651163120E-01 
    4.3309395146137958E-01 
    3.8781048799118817E-01 
    3.3922141760051272E-01 
    2.8816552133613088E-01 
    2.3991724168029688E-01 
    2.0706337730835636E-01 
    7.0829129435951577E-01 
    7.0308068795439549E-01 
    6.9067986512454382E-01 
    6.7199222067927566E-01 
    6.4822351799164146E-01 
    6.2037145355087797E-01 
    5.8916416580644859E-01 
    5.5509401223604460E-01 
    5.1831406213080800E-01 
    4.7874635242032232E-01 
    4.3625577838189156E-01 
    3.9034224722068434E-01 
    3.4000800475409737E-01 
    2.8466956266398474E-01 
    2.2775714361660990E-01 
    1.8347109627444422E-01 
    7.0715375021247007E-01 
    7.0229593435767634E-01 
    6.9067229385127860E-01 
    6.7284693371053284E-01 
    6.4983489353308110E-01 
    6.2257482264179154E-01 
    5.9182049603802223E-01 
    5.5813413821518720E-01 
    5.2165654247162041E-01 
    4.8221778495335615E-01 
    4.3966462713986199E-01 
    3.9336303382701904E-01 
    3.4170884309570243E-01 
    2.8240891613805519E-01 
    2.1549341624422963E-01 
    1.5423401187608368E-01 
    7.0637747242693349E-01 
    7.0186270202202561E-01 
    6.9093333139075785E-01 
    6.7387770932574809E-01 
    6.5155268841386060E-01 
    6.2483249634127491E-01 
    5.9448066521685761E-01 
    5.6114588963761158E-01 
    5.2497581364664392E-01 
    4.8570066604922069E-01 
    4.4315036751007114E-01 
    3.9666349532842565E-01 
    3.4424245467280917E-01 
    2.8178243475098996E-01 
    2.0411779995399493E-01 
    1.1726782213577450E-01 
    7.0582045063694265E-01 
    7.0162702598603366E-01 
    6.9133760032443692E-01 
    6.7499264746125509E-01 
    6.5330647457923730E-01 
    6.2709273951461764E-01 
    5.9711291901401953E-01 
    5.6408926073691634E-01 
    5.2821949295059456E-01 
    4.8920049586382836E-01 
    4.4682486312921532E-01 
    4.0042792283804018E-01 
    3.4785404338588627E-01 
    2.8350392574328892E-01 
    1.9549013876780813E-01 
    6.8591083339977488E-02 
    7.0563433168745671E-01 
    7.0177664645790749E-01 
    6.9207234538187179E-01 
    6.7636087847271731E-01 
    6.5525062452983518E-01 
    6.2951830280428833E-01 
    5.9992174699753820E-01 
    5.6720729128336644E-01 
    5.3163703353353231E-01 
    4.9293682895100194E-01 
    4.5088044243433628E-01 
    4.0481752145532757E-01 
    3.5269679480857336E-01 
    2.8865979168352457E-01 
    1.9543152931149663E-01 
    0.0000000000000000E+00 

SCALARS Saturarion double 1 
LOOKUP_TABLE default 

    1.0000000000000007E+00 
    9.7194447940419626E-01 
    9.2183460579367138E-01 
    8.5830269585643681E-01 
    8.0452690857263098E-01 
    7.5823778590547297E-01 
    7.1915016825504574E-01 
    6.8597575621319085E-01 
    6.5702945276638758E-01 
    6.3070426956852865E-01 
    6.0553979590432472E-01 
    5.8013790382487118E-01 
    5.5293572681287551E-01 
    5.2001192223618875E-01 
    4.0991227337502034E-01 
    3.6273474933331933E-02 
    9.8899531055074075E-01 
    9.6239781225367993E-01 
    9.0992880902514528E-01 
    8.4996745559500064E-01 
    7.9903320851485415E-01 
    7.5478411411018886E-01 
    7.1662794059358703E-01 
    6.8371997376893723E-01 
    6.5494328114670086E-01 
    6.2896877344432511E-01 
    6.0453550254209165E-01 
    5.8019640402356487E-01 
    5.5412648954340904E-01 
    5.2239137933652768E-01 
    4.2037772828852027E-01 
    5.9174004583819440E-02 
    9.7168490948446762E-01 
    9.4540395379098174E-01 
    8.9306438321596360E-01 
    8.3568700867227774E-01 
    7.8818806326218360E-01 
    7.4738252347926570E-01 
    7.1130859762406329E-01 
    6.7909964084933427E-01 
    6.5046748431902335E-01 
    6.2482081992013283E-01 
    6.0135042187956833E-01 
    5.7860707471377482E-01 
    5.5452768225529880E-01 
    5.2505492312137869E-01 
    4.3518799960186133E-01 
    9.2185241081063754E-02 
    9.4136792490933796E-01 
    9.1961694773348723E-01 
    8.7273483343257774E-01 
    8.1965220012623241E-01 
    7.7355693535092451E-01 
    7.3533210987051911E-01 
    7.0202989524753223E-01 
    6.7210047692775166E-01 
    6.4491113930008170E-01 
    6.2037113119697884E-01 
    5.9787101576993518E-01 
    5.7645924030190798E-01 
    5.5430474337422331E-01 
    5.2770019795479239E-01 
    4.4846293889852834E-01 
    1.3429560333331830E-01 
    9.0555826256511751E-01 
    8.8696328850321193E-01 
    8.4586341838451284E-01 
    7.9835711066771120E-01 
    7.5516130364487133E-01 
    7.1886277221071182E-01 
    6.8809822732115533E-01 
    6.6105111817871776E-01 
    6.3670834656087516E-01 
    6.1452461185359541E-01 
    5.9401594384503709E-01 
    5.7430887865104041E-01 
    5.5385092567374095E-01 
    5.2970140387427356E-01 
    4.6003418466623963E-01 
    1.6838451917442088E-01 
    8.6719465850585464E-01 
    8.5194708540552266E-01 
    8.1676296718718910E-01 
    7.7471229751381332E-01 
    7.3530661194574165E-01 
    7.0106450789538721E-01 
    6.7170737077005571E-01 
    6.4674210130580334E-01 
    6.2509120807255036E-01 
    6.0570010170178668E-01 
    5.8785382562868449E-01 
    5.7091016863023492E-01 
    5.5310436824186504E-01 
    5.3132702312719482E-01 
    4.7043005038278501E-01 
    1.9937266951762111E-01 
    8.2664889520010709E-01 
    8.1539396902201489E-01 
    7.8656853767777291E-01 
    7.4986895909971796E-01 
    7.1433526067587583E-01 
    6.8262840199309793E-01 
    6.5517877766146027E-01 
    6.3150994553839701E-01 
    6.1141896468916779E-01 
    5.9422526526395536E-01 
    5.7911726434859701E-01 
    5.6520796804102946E-01 
    5.5102512614913202E-01 
    5.3285757733978545E-01 
    4.7985429727970746E-01 
    2.2977785545301443E-01 
    7.8391843600609190E-01 
    7.7702555096132131E-01 
    7.5512781224789371E-01 
    7.2403777023464355E-01 
    6.9197535961595891E-01 
    6.6274496114967685E-01 
    6.3708027410128187E-01 
    6.1503628589275183E-01 
    5.9628126447997276E-01 
    5.8070844994682280E-01 
    5.6790682056764907E-01 
    5.5716522038816951E-01 
    5.4687649940594230E-01 
    5.3341236790053725E-01 
    4.8897725771284289E-01 
    2.6006272005230308E-01 
    7.3925108952900220E-01 
    7.3637832617648602E-01 
    7.2090911419761372E-01 
    6.9566552322743513E-01 
    6.6774359128842886E-01 
    6.4115394428960426E-01 
    6.1740086361845736E-01 
    5.9656566783610965E-01 
    5.7874098379706851E-01 
    5.6425851197237875E-01 
    5.5348935221163265E-01 
    5.4608250061986996E-01 
    5.4027101018387524E-01 
    5.3214360317394116E-01 
    4.9696738036596733E-01 
    2.8734455616972993E-01 
    6.9257422645605171E-01 
    6.9331542705837335E-01 
    6.8363965071467148E-01 
    6.6388483327046177E-01 
    6.4049711078723526E-01 
    6.1722613341934029E-01 
    5.9556088517458949E-01 
    5.7624204445411953E-01 
    5.5950124715286675E-01 
    5.4592259393817522E-01 
    5.3625484476641261E-01 
    5.3121568578823719E-01 
    5.3014714289478970E-01 
    5.2847479017431853E-01 
    5.0352931832969261E-01 
    3.1326064932007458E-01 
    6.4368501787717580E-01 
    6.4761240199974879E-01 
    6.4319382279737358E-01 
    6.2860050003374601E-01 
    6.0989635895622185E-01 
    5.9058025184662333E-01 
    5.7207218252647141E-01 
    5.5477553107678845E-01 
    5.3964830923153850E-01 
    5.2733186080982763E-01 
    5.1839548315088613E-01 
    5.1389422083627267E-01 
    5.1566882358256882E-01 
    5.2120718076747108E-01 
    5.0781242967234430E-01 
    3.3883655031647825E-01 
    5.9300217189495952E-01 
    5.9943904006757665E-01 
    6.0007353083481640E-01 
    5.9082807292746198E-01 
    5.7662598997346459E-01 
    5.6076835988588536E-01 
    5.4522721055341794E-01 
    5.3124053920243719E-01 
    5.1883447476245215E-01 
    5.0783113767828614E-01 
    4.9902343720797193E-01 
    4.9437284707675294E-01 
    4.9704336857389120E-01 
    5.0861419771908201E-01 
    5.0843814166703039E-01 
    3.6367817045720385E-01 
    5.4397684863248041E-01 
    5.5213499122009346E-01 
    5.5629902109168061E-01 
    5.5137964467110678E-01 
    5.4080323910318029E-01 
    5.2726383377313490E-01 
    5.1389624868446959E-01 
    5.0140409615519899E-01 
    4.8857216248813107E-01 
    4.7718993788401237E-01 
    4.6666565750598143E-01 
    4.6013654990147212E-01 
    4.6511862169072454E-01 
    4.8560568802402077E-01 
    5.0079118491311680E-01 
    3.8585939785678425E-01 
    4.4998852674154038E-01 
    4.7260958065584108E-01 
    4.8840277877007743E-01 
    4.9085622841773946E-01 
    4.8270329764227615E-01 
    4.6714022652214082E-01 
    4.4434497058996775E-01 
    4.0838089147052259E-01 
    3.4793272127774566E-01 
    2.6452489964292381E-01 
    2.3612291045214959E-01 
    2.4288220821704212E-01 
    3.0210986669571221E-01 
    4.0491661038626492E-01 
    4.7389947404438876E-01 
    4.0084521639212750E-01 
    9.6976896729970896E-02 
    1.7497583046089726E-01 
    2.1379522320197883E-01 
    2.2664517072114571E-01 
    2.1325222260980967E-01 
    1.6667584868645238E-01 
    1.0473339088956810E-01 
    3.7125484689728684E-02 
    1.4529416474055010E-02 
    2.5126694407641755E-03 
    3.6919658176149940E-04 
    2.8048296127049758E-04 
    2.0762734558212148E-02 
    1.4688904930138405E-01 
    3.8571184132148295E-01 
    4.0456818647882620E-01 
    1.0007976735444437E-06 
    1.0068933663393523E-04 
    1.2783170155777486E-04 
    2.0603535847965652E-05 
    1.9887382157329517E-04 
    2.0325386961154704E-05 
    1.0456259344344993E-05 
    3.7623993689874168E-06 
    1.5268520703037135E-06 
    1.0592501826975396E-06 
    1.0009636527378401E-06 
    1.0012993956154311E-06 
    3.4593109911633430E-05 
    1.0396812965239184E-02 
    2.2443876983746344E-01 
    3.5985007338119041E-01 
