# vtk DataFile Version 2.0
Pressure Field Data 
ASCII 
DATASET UNSTRUCTURED_GRID 

POINTS 289 double 

    0.0000000000000000E+00     0.0000000000000000E+00     0.0000000000000000E+00 
    1.0000000000000000E+00     0.0000000000000000E+00     0.0000000000000000E+00 
    1.0000000000000000E+00     1.0000000000000000E+00     0.0000000000000000E+00 
    0.0000000000000000E+00     1.0000000000000000E+00     0.0000000000000000E+00 
    6.2499999999872928E-02     0.0000000000000000E+00     0.0000000000000000E+00 
    1.2499999999977310E-01     0.0000000000000000E+00     0.0000000000000000E+00 
    1.8749999999959341E-01     0.0000000000000000E+00     0.0000000000000000E+00 
    2.4999999999941089E-01     0.0000000000000000E+00     0.0000000000000000E+00 
    3.1249999999922851E-01     0.0000000000000000E+00     0.0000000000000000E+00 
    3.7499999999904610E-01     0.0000000000000000E+00     0.0000000000000000E+00 
    4.3749999999886358E-01     0.0000000000000000E+00     0.0000000000000000E+00 
    4.9999999999869210E-01     0.0000000000000000E+00     0.0000000000000000E+00 
    5.6249999999884603E-01     0.0000000000000000E+00     0.0000000000000000E+00 
    6.2499999999901090E-01     0.0000000000000000E+00     0.0000000000000000E+00 
    6.8749999999917577E-01     0.0000000000000000E+00     0.0000000000000000E+00 
    7.4999999999934064E-01     0.0000000000000000E+00     0.0000000000000000E+00 
    8.1249999999950551E-01     0.0000000000000000E+00     0.0000000000000000E+00 
    8.7499999999967026E-01     0.0000000000000000E+00     0.0000000000000000E+00 
    9.3749999999983513E-01     0.0000000000000000E+00     0.0000000000000000E+00 
    1.0000000000000000E+00     6.2499999999872928E-02     0.0000000000000000E+00 
    1.0000000000000000E+00     1.2499999999977310E-01     0.0000000000000000E+00 
    1.0000000000000000E+00     1.8749999999959341E-01     0.0000000000000000E+00 
    1.0000000000000000E+00     2.4999999999941089E-01     0.0000000000000000E+00 
    1.0000000000000000E+00     3.1249999999922851E-01     0.0000000000000000E+00 
    1.0000000000000000E+00     3.7499999999904610E-01     0.0000000000000000E+00 
    1.0000000000000000E+00     4.3749999999886358E-01     0.0000000000000000E+00 
    1.0000000000000000E+00     4.9999999999869210E-01     0.0000000000000000E+00 
    1.0000000000000000E+00     5.6249999999884603E-01     0.0000000000000000E+00 
    1.0000000000000000E+00     6.2499999999901090E-01     0.0000000000000000E+00 
    1.0000000000000000E+00     6.8749999999917577E-01     0.0000000000000000E+00 
    1.0000000000000000E+00     7.4999999999934064E-01     0.0000000000000000E+00 
    1.0000000000000000E+00     8.1249999999950551E-01     0.0000000000000000E+00 
    1.0000000000000000E+00     8.7499999999967026E-01     0.0000000000000000E+00 
    1.0000000000000000E+00     9.3749999999983513E-01     0.0000000000000000E+00 
    9.3749999999973976E-01     1.0000000000000000E+00     0.0000000000000000E+00 
    8.7499999999950118E-01     1.0000000000000000E+00     0.0000000000000000E+00 
    8.1249999999991318E-01     1.0000000000000000E+00     0.0000000000000000E+00 
    7.5000000000034706E-01     1.0000000000000000E+00     0.0000000000000000E+00 
    6.8750000000078049E-01     1.0000000000000000E+00     0.0000000000000000E+00 
    6.2500000000121403E-01     1.0000000000000000E+00     0.0000000000000000E+00 
    5.6250000000164757E-01     1.0000000000000000E+00     0.0000000000000000E+00 
    5.0000000000205946E-01     1.0000000000000000E+00     0.0000000000000000E+00 
    4.3750000000182099E-01     1.0000000000000000E+00     0.0000000000000000E+00 
    3.7500000000156092E-01     1.0000000000000000E+00     0.0000000000000000E+00 
    3.1250000000130068E-01     1.0000000000000000E+00     0.0000000000000000E+00 
    2.5000000000104050E-01     1.0000000000000000E+00     0.0000000000000000E+00 
    1.8750000000078040E-01     1.0000000000000000E+00     0.0000000000000000E+00 
    1.2500000000052031E-01     1.0000000000000000E+00     0.0000000000000000E+00 
    6.2500000000260125E-02     1.0000000000000000E+00     0.0000000000000000E+00 
    0.0000000000000000E+00     9.3749999999973976E-01     0.0000000000000000E+00 
    0.0000000000000000E+00     8.7499999999950118E-01     0.0000000000000000E+00 
    0.0000000000000000E+00     8.1249999999991318E-01     0.0000000000000000E+00 
    0.0000000000000000E+00     7.5000000000034706E-01     0.0000000000000000E+00 
    0.0000000000000000E+00     6.8750000000078049E-01     0.0000000000000000E+00 
    0.0000000000000000E+00     6.2500000000121403E-01     0.0000000000000000E+00 
    0.0000000000000000E+00     5.6250000000164757E-01     0.0000000000000000E+00 
    0.0000000000000000E+00     5.0000000000205946E-01     0.0000000000000000E+00 
    0.0000000000000000E+00     4.3750000000182099E-01     0.0000000000000000E+00 
    0.0000000000000000E+00     3.7500000000156092E-01     0.0000000000000000E+00 
    0.0000000000000000E+00     3.1250000000130068E-01     0.0000000000000000E+00 
    0.0000000000000000E+00     2.5000000000104050E-01     0.0000000000000000E+00 
    0.0000000000000000E+00     1.8750000000078040E-01     0.0000000000000000E+00 
    0.0000000000000000E+00     1.2500000000052031E-01     0.0000000000000000E+00 
    0.0000000000000000E+00     6.2500000000260125E-02     0.0000000000000000E+00 
    6.2499999999897131E-02     6.2500000000235922E-02     0.0000000000000000E+00 
    6.2499999999921327E-02     1.2500000000047351E-01     0.0000000000000000E+00 
    6.2499999999945530E-02     1.8750000000070621E-01     0.0000000000000000E+00 
    6.2499999999969733E-02     2.5000000000093858E-01     0.0000000000000000E+00 
    6.2499999999993928E-02     3.1250000000117117E-01     0.0000000000000000E+00 
    6.2500000000018124E-02     3.7500000000140382E-01     0.0000000000000000E+00 
    6.2500000000042327E-02     4.3750000000163619E-01     0.0000000000000000E+00 
    6.2500000000066530E-02     5.0000000000184897E-01     0.0000000000000000E+00 
    6.2500000000090733E-02     5.6250000000147260E-01     0.0000000000000000E+00 
    6.2500000000114922E-02     6.2500000000107636E-01     0.0000000000000000E+00 
    6.2500000000139125E-02     6.8750000000068034E-01     0.0000000000000000E+00 
    6.2500000000163328E-02     7.5000000000028411E-01     0.0000000000000000E+00 
    6.2500000000187531E-02     8.1249999999988787E-01     0.0000000000000000E+00 
    6.2500000000211720E-02     8.7499999999951172E-01     0.0000000000000000E+00 
    6.2500000000235922E-02     9.3749999999974565E-01     0.0000000000000000E+00 
    1.2499999999981980E-01     6.2500000000211733E-02     0.0000000000000000E+00 
    1.2499999999986650E-01     1.2500000000042691E-01     0.0000000000000000E+00 
    1.2499999999991319E-01     1.8750000000063199E-01     0.0000000000000000E+00 
    1.2499999999995989E-01     2.5000000000083678E-01     0.0000000000000000E+00 
    1.2500000000000661E-01     3.1250000000104172E-01     0.0000000000000000E+00 
    1.2500000000005329E-01     3.7500000000124661E-01     0.0000000000000000E+00 
    1.2500000000010000E-01     4.3750000000145117E-01     0.0000000000000000E+00 
    1.2500000000014669E-01     5.0000000000163858E-01     0.0000000000000000E+00 
    1.2500000000019340E-01     5.6250000000129741E-01     0.0000000000000000E+00 
    1.2500000000024011E-01     6.2500000000093847E-01     0.0000000000000000E+00 
    1.2500000000028680E-01     6.8750000000057998E-01     0.0000000000000000E+00 
    1.2500000000033351E-01     7.5000000000022127E-01     0.0000000000000000E+00 
    1.2500000000038020E-01     8.1249999999986211E-01     0.0000000000000000E+00 
    1.2500000000042691E-01     8.7499999999952238E-01     0.0000000000000000E+00 
    1.2500000000047359E-01     9.3749999999975164E-01     0.0000000000000000E+00 
    1.8749999999966760E-01     6.2500000000187531E-02     0.0000000000000000E+00 
    1.8749999999974179E-01     1.2500000000038020E-01     0.0000000000000000E+00 
    1.8749999999981601E-01     1.8750000000055780E-01     0.0000000000000000E+00 
    1.8749999999989009E-01     2.5000000000073502E-01     0.0000000000000000E+00 
    1.8749999999996431E-01     3.1250000000091221E-01     0.0000000000000000E+00 
    1.8750000000003850E-01     3.7500000000108941E-01     0.0000000000000000E+00 
    1.8750000000011269E-01     4.3750000000126649E-01     0.0000000000000000E+00 
    1.8750000000018691E-01     5.0000000000142808E-01     0.0000000000000000E+00 
    1.8750000000026110E-01     5.6250000000112244E-01     0.0000000000000000E+00 
    1.8750000000033529E-01     6.2500000000080080E-01     0.0000000000000000E+00 
    1.8750000000040951E-01     6.8750000000047962E-01     0.0000000000000000E+00 
    1.8750000000048361E-01     7.5000000000015843E-01     0.0000000000000000E+00 
    1.8750000000055780E-01     8.1249999999983680E-01     0.0000000000000000E+00 
    1.8750000000063199E-01     8.7499999999953304E-01     0.0000000000000000E+00 
    1.8750000000070621E-01     9.3749999999975764E-01     0.0000000000000000E+00 
    2.4999999999951281E-01     6.2500000000163314E-02     0.0000000000000000E+00 
    2.4999999999961461E-01     1.2500000000033351E-01     0.0000000000000000E+00 
    2.4999999999971650E-01     1.8750000000048361E-01     0.0000000000000000E+00 
    2.4999999999981831E-01     2.5000000000063310E-01     0.0000000000000000E+00 
    2.4999999999992020E-01     3.1250000000078260E-01     0.0000000000000000E+00 
    2.5000000000002198E-01     3.7500000000093209E-01     0.0000000000000000E+00 
    2.5000000000012390E-01     4.3750000000108180E-01     0.0000000000000000E+00 
    2.5000000000022571E-01     5.0000000000121769E-01     0.0000000000000000E+00 
    2.5000000000032763E-01     5.6250000000094724E-01     0.0000000000000000E+00 
    2.5000000000042938E-01     6.2500000000066314E-01     0.0000000000000000E+00 
    2.5000000000053119E-01     6.8750000000037925E-01     0.0000000000000000E+00 
[...]
CELL_DATA 256 
SCALARS Pressure double 1 
LOOKUP_TABLE default 

    1.1231980763634342E+00 
    1.0636498883916838E+00 
    1.0178745365929172E+00 
    9.7098660711970286E-01 
    9.1941749092680380E-01 
    8.6111753217691700E-01 
    7.8679605780106143E-01 
    7.0601200159509903E-01 
    6.3601724662721670E-01 
    5.6888801287446245E-01 
    5.0522349615702089E-01 
    4.4659246595917090E-01 
    3.9571360890880930E-01 
    3.5615222265589724E-01 
    3.3108682529310590E-01 
    3.2100485881329793E-01 
    1.1092303560547243E+00 
    1.0657345681450316E+00 
    1.0213821545164818E+00 
    9.7509415201108907E-01 
    9.2424524230836058E-01 
    8.6677212184257701E-01 
    7.9355533569614745E-01 
    7.1310818740014870E-01 
    6.4266367604537089E-01 
    5.7515286301071977E-01 
    5.1092174313638650E-01 
    4.5141868508878502E-01 
    3.9928566037679247E-01 
    3.5815806809636186E-01 
    3.3155178690649384E-01 
    3.2056411860991368E-01 
    1.0979501038865334E+00 
    1.0651404354802081E+00 
    1.0236205901224031E+00 
    9.7832419323286146E-01 
    9.2835088693173562E-01 
    8.7150068622937105E-01 
    7.9927878366527372E-01 
    7.1978850899439806E-01 
    6.4911009237328166E-01 
    5.8119792163188289E-01 
    5.1629659595022992E-01 
    4.5572603843034454E-01 
    4.0205338115543166E-01 
    3.5904339884096848E-01 
    3.3071023884849932E-01 
    3.1895978589783069E-01 
    1.0880921578137035E+00 
    1.0627672206011165E+00 
    1.0245992521635747E+00 
    9.8070808305483637E-01 
    9.3176011554551796E-01 
    8.7534787286015248E-01 
    8.0406052833751629E-01 
    7.2608693943272506E-01 
    6.5535239741465223E-01 
    5.8705889047761728E-01 
    5.2141562524285534E-01 
    4.5960921287684181E-01 
    4.0411397592839360E-01 
    3.5885130776535173E-01 
    3.2848299733202552E-01 
    3.1597028608862177E-01 
    1.0791365181216714E+00 
    1.0591808179802626E+00 
    1.0244789829249563E+00 
    9.8234966354063269E-01 
    9.3454474841842894E-01 
    8.7837047662684220E-01 
    8.0800016069982972E-01 
    7.3204787664415050E-01 
    6.6140232232606022E-01 
    5.9277388723069346E-01 
    5.2634976878924244E-01 
    4.6317099526976957E-01 
    4.0557853584692311E-01 
    3.5763729864975874E-01 
    3.2478738225485521E-01 
    3.1136555306854946E-01 
    1.0710748101556464E+00 
    1.0549743572103243E+00 
    1.0235614285042511E+00 
    9.8338986104569248E-01 
    9.3673702700739570E-01 
    8.8061889814267957E-01 
    8.1125625220162723E-01 
    7.3769342903649848E-01 
    6.6728042446185465E-01 
    5.9838375012221712E-01 
    5.3117280528891408E-01 
    4.6652323036106502E-01 
    4.0657750141088483E-01 
    3.5547933958670419E-01 
    3.1954154198456947E-01 
    3.0488984215181913E-01 
    1.0639146814043874E+00 
    1.0505862836824895E+00 
    1.0221261800887698E+00 
    9.8394759832530754E-01 
    9.3824089401033395E-01 
    8.8209798987184096E-01 
    8.1411124298522630E-01 
    7.4301853990649136E-01 
    6.7301220439173648E-01 
    6.0393136106632772E-01 
    5.3596072836344044E-01 
    4.6978674278626437E-01 
    4.0726589614290132E-01 
    3.5249068245924858E-01 
    3.1267282729581813E-01 
    2.9624644445716491E-01 
    1.0576915779447686E+00 
    1.0463482247457325E+00 
    1.0204222938061567E+00 
    9.8408890847976993E-01 
    9.3892686601318931E-01 
    8.8290560473574031E-01 
    8.1695369786120609E-01 
    7.4805182927335390E-01 
    6.7862872882872971E-01 
    6.0946047138679060E-01 
    5.4078914127501931E-01 
    4.7308994873766103E-01 
    4.0782719666695555E-01 
    3.4883466470994684E-01 
    3.0413011235181181E-01 
    2.8507476356609335E-01 
    1.0523605793867394E+00 
    1.0424387658591918E+00 
    1.0185774021825766E+00 
    9.8363411192067796E-01 
    9.3875043365020072E-01 
    8.8352452279003479E-01 
    8.2006998476169646E-01 
    7.5289921119141490E-01 
    6.8417146609417712E-01 
    6.1501475884752854E-01 
    5.4573083472106820E-01 
    4.7656534923793481E-01 
    4.0847546723494044E-01 
    3.4474398153094959E-01 
    2.9390749879711381E-01 
    2.7092133000911334E-01 
    1.0474723492617166E+00 
    1.0385614212793552E+00 
    1.0161734662262201E+00 
    9.8226849513116310E-01 
    9.3810240816155543E-01 
    8.8456136116019624E-01 
    8.2341095566489431E-01 
    7.5768238060838278E-01 
    6.8969023998894696E-01 
    6.2063655668069906E-01 
    5.5085252886229796E-01 
    4.8034391083421774E-01 
    4.0945373580288447E-01 
    3.4054288925813231E-01 
    2.8208457891228250E-01 
    2.5319851207253063E-01 
    1.0423803652233390E+00 
    1.0342042070526436E+00 
    1.0131457759916764E+00 
    9.8059900804220268E-01 
    9.3794128794923071E-01 
    8.8624303438465235E-01 
    8.2689268655982273E-01 
    7.6248834102466234E-01 
    6.9523645589114291E-01 
    6.2636505924487529E-01 
    5.5621150257497176E-01 
    4.8454704004269916E-01 
    4.1102636811574578E-01 
    3.3667062786494645E-01 
    2.6889571081219049E-01 
    2.3112839508216843E-01 
    1.0381332188901093E+00 
    1.0303697484883927E+00 
    1.0106659973126724E+00 
    9.7972792452360358E-01 
    9.3862083464101453E-01 
    8.8842071748977269E-01 
    8.3059004843727247E-01 
    7.6738708321451887E-01 
    7.0085828928434024E-01 
    6.3223429370831941E-01 
    5.6185174696758922E-01 
    4.8927627821618819E-01 
    4.1346170079817163E-01 
    3.3369876803214271E-01 
    2.5484569496326670E-01 
    2.0365822000251110E-01 
    1.0352760927839750E+00 
    1.0278695462360785E+00 
    1.0092817195542303E+00 
    9.7967972801243086E-01 
    9.3992171824955206E-01 
    8.9107365090167878E-01 
    8.3457059429853397E-01 
    7.7244071497275102E-01 
    7.0659932353614863E-01 
    6.3827177637292765E-01 
    5.6780124126625442E-01 
    4.9460190150479266E-01 
    4.1700270094700875E-01 
    3.3233049592043751E-01 
    2.4090614164465632E-01 
    1.6933526373635846E-01 
    1.0334150208115900E+00 
    1.0263487359027399E+00 
    1.0087633697038596E+00 
    9.8038499103071974E-01 
    9.4186832542022692E-01 
    8.9423684183751118E-01 
    8.3889051579798224E-01 
    7.7770430554182857E-01 
    7.1249823584307770E-01 
    6.4449806987884362E-01 
    5.7407073964860555E-01 
    5.0055292929070705E-01 
    4.2182387650324887E-01 
    3.3335196928311656E-01 
    2.2884489561958357E-01 
    1.2611812452610904E-01 
    1.0324138776965190E+00 
    1.0257473602001477E+00 
    1.0091076197507138E+00 
    9.8186281743179182E-01 
    9.4448709718195645E-01 
    8.9794600716593342E-01 
    8.4360024623331786E-01 
    7.8322702752529694E-01 
    7.1858899102252860E-01 
    6.5092716551000229E-01 
    5.8065468483056659E-01 
    5.0711216487103961E-01 
    4.2797967158143468E-01 
    3.3747859704443472E-01 
    2.2177898626670844E-01 
    7.1088662387048362E-02 
    1.0321366830346510E+00 
    1.0260040733030924E+00 
    1.0103066456561858E+00 
    9.8413014154638234E-01 
    9.4780512592463695E-01 
    9.0223757190875986E-01 
    8.4874662278662250E-01 
    7.8905351580442662E-01 
    7.2490138186314756E-01 
    6.5756748979283042E-01 
    5.8753424929661224E-01 
    5.1422030480739622E-01 
    4.3536666247924682E-01 
    3.4498574320983300E-01 
    2.2510262907940351E-01 
    0.0000000000000000E+00 

SCALARS Saturarion double 1 
LOOKUP_TABLE default 

    9.9999999999513800E-01 
    9.2154228645477743E-01 
    8.1750409209006603E-01 
    6.9088047963865917E-01 
    6.0839930905073947E-01 
    5.1493221186732330E-01 
    2.4176431544750307E-01 
    5.6369512461390265E-04 
    1.0000000041774472E-06 
    9.9999999999999995E-07 
    9.9999999999999995E-07 
    9.9999999999999995E-07 
    9.9999999999999995E-07 
    9.9999999999999995E-07 
    9.9999999999999995E-07 
    9.9999999999999995E-07 
    9.5994903492937034E-01 
    8.8932263803488276E-01 
    7.8850781977609119E-01 
    6.8040115228837894E-01 
    5.9854878385974264E-01 
    5.0734102875313303E-01 
    2.2600189270959536E-01 
    3.0824012368476067E-04 
    1.0001117032252749E-06 
    1.0000000000106086E-06 
    9.9999999999999995E-07 
    9.9999999999999995E-07 
    9.9999999999999995E-07 
    9.9999999999999995E-07 
    9.9999999999999995E-07 
    9.9999999999999995E-07 
    8.9245920018070557E-01 
    8.3824152000371110E-01 
    7.4604584912826055E-01 
    6.6029150233024192E-01 
    5.8361435667852957E-01 
    4.9396524850555301E-01 
    2.0182288282123742E-01 
    1.0181730327974850E-04 
    1.0001294630694703E-06 
    1.0000000000842696E-06 
    9.9999999999999974E-07 
    9.9999999999999995E-07 
    9.9999999999999995E-07 
    9.9999999999999995E-07 
    9.9999999999999995E-07 
    9.9999999999999995E-07 
    8.0252169337127677E-01 
    7.6301534101874335E-01 
    6.9377755673750929E-01 
    6.3274144292015611E-01 
    5.7004556156305330E-01 
    4.8025258927358971E-01 
    1.7266881870968054E-01 
    2.7918739167742055E-05 
    1.0002802462367056E-06 
    1.0000000000162435E-06 
    9.9999999999999995E-07 
    9.9999999999999995E-07 
    9.9999999999999995E-07 
    9.9999999999999995E-07 
    9.9999999999999995E-07 
    9.9999999999999995E-07 
    7.2779269978301575E-01 
    6.9980648325615502E-01 
    6.4928095030080746E-01 
    6.0329269459917090E-01 
    5.5243649674237660E-01 
    4.5857782568402111E-01 
    1.2891468208072554E-01 
    4.7528354506805370E-05 
    1.0004031321507896E-06 
    1.0000000001840608E-06 
    9.9999999999999995E-07 
    9.9999999999999995E-07 
    9.9999999999999995E-07 
    9.9999999999999995E-07 
    9.9999999999999995E-07 
    9.9999999999999995E-07 
    6.6372603284262766E-01 
    6.4578080584900932E-01 
    6.0954768900869305E-01 
    5.7233794617185973E-01 
    5.2794547039338768E-01 
    4.1417547777975039E-01 
    6.5039157051657415E-02 
    6.8662280130301592E-05 
    1.0005128465012089E-06 
    1.0000000000213202E-06 
    9.9999999999999995E-07 
    9.9999999999999995E-07 
    9.9999999999999995E-07 
    9.9999999999999995E-07 
    9.9999999999999995E-07 
    9.9999999999999995E-07 
    6.0931225999314231E-01 
    5.9978194028941889E-01 
    5.7335931306316534E-01 
    5.4043240967436179E-01 
    4.9545894126636209E-01 
    3.2178001005856938E-01 
    1.3267380931861280E-02 
    8.0231733443342777E-06 
    1.0000055959712548E-06 
    1.0000000000000002E-06 
    9.9999999999999995E-07 
    9.9999999999999995E-07 
    9.9999999999999995E-07 
    9.9999999999999995E-07 
    9.9999999999999995E-07 
    9.9999999999999995E-07 
    5.6481913774499726E-01 
    5.6034108090924095E-01 
    5.3972313108972503E-01 
    5.0923759873909002E-01 
    4.4214208622711826E-01 
    1.7038974589834854E-01 
    4.2373541810084464E-04 
    1.0283483893751490E-06 
    1.0000000016808500E-06 
    9.9999999999999995E-07 
    9.9999999999999995E-07 
    9.9999999999999995E-07 
    9.9999999999999995E-07 
    9.9999999999999995E-07 
    9.9999999999999995E-07 
    9.9999999999999995E-07 
    5.2210420341159858E-01 
    5.1887730110736618E-01 
    5.0188377254256511E-01 
    4.5943865004914630E-01 
    2.9694707537860143E-01 
    2.5152638973371680E-02 
    2.7770245811521400E-05 
    1.0000635159697886E-06 
    1.0000000000000031E-06 
    9.9999999999999995E-07 
    9.9999999999999995E-07 
    9.9999999999999995E-07 
    9.9999999999999995E-07 
    9.9999999999999995E-07 
    9.9999999999999995E-07 
    9.9999999999999995E-07 
    4.3695325970653837E-01 
    4.3942176903699492E-01 
    4.0634414177172756E-01 
    2.6422187385794393E-01 
    5.3902608133279052E-02 
    1.5791476494924473E-04 
    1.0024790678186761E-06 
    1.0000000000076201E-06 
    9.9999999999999995E-07 
    9.9999999999999995E-07 
    9.9999999999999995E-07 
    9.9999999999999995E-07 
    9.9999999999999995E-07 
    9.9999999999999995E-07 
    9.9999999999999995E-07 
    9.9999999999999995E-07 
    1.1683617117824073E-01 
    1.3941000903069423E-01 
    8.2768735069585680E-02 
    7.9717793089072557E-03 
    1.1761964339549628E-04 
    1.0028413323171172E-06 
    1.0000000004684130E-06 
    9.9999999999999974E-07 
    9.9999999999999995E-07 
    9.9999999999999995E-07 
    9.9999999999999995E-07 
    9.9999999999999995E-07 
    9.9999999999999995E-07 
    9.9999999999999995E-07 
    9.9999999999999995E-07 
    9.9999999999999995E-07 
    1.0000060290971448E-06 
    1.9130987845210851E-06 
    9.5976644306968825E-05 
    2.8519487899734683E-06 
    1.0009608176941830E-06 
    1.0000000002625922E-06 
    9.9999999999999974E-07 
    9.9999999999999995E-07 
    9.9999999999999995E-07 
    9.9999999999999995E-07 
    9.9999999999999995E-07 
    9.9999999999999995E-07 
    9.9999999999999995E-07 
    9.9999999999999995E-07 
    9.9999999999999995E-07 
    9.9999999999999995E-07 
    1.0000000000049102E-06 
    1.0000003659833188E-06 
    1.0004702153251525E-06 
    1.0000004063758983E-06 
    1.0000000000001003E-06 
    9.9999999999999995E-07 
    9.9999999999999995E-07 
    9.9999999999999995E-07 
    9.9999999999999995E-07 
    9.9999999999999995E-07 
    9.9999999999999995E-07 
    9.9999999999999995E-07 
    9.9999999999999995E-07 
    9.9999999999999995E-07 
    9.9999999999999995E-07 
    9.9999999999999995E-07 
    9.9999999999999995E-07 
    1.0000000000001931E-06 
    1.0000000000343461E-06 
    1.0000000000000004E-06 
    9.9999999999999995E-07 
    9.9999999999999995E-07 
    9.9999999999999995E-07 
    9.9999999999999995E-07 
    9.9999999999999995E-07 
    9.9999999999999995E-07 
    9.9999999999999995E-07 
    9.9999999999999995E-07 
    9.9999999999999995E-07 
    9.9999999999999995E-07 
    9.9999999999999995E-07 
    9.9999999999999995E-07 
    9.9999999999999995E-07 
    9.9999999999999995E-07 
    9.9999999999999995E-07 
    9.9999999999999995E-07 
    9.9999999999999995E-07 
    9.9999999999999995E-07 
    9.9999999999999995E-07 
    9.9999999999999995E-07 
    9.9999999999999995E-07 
    9.9999999999999995E-07 
    9.9999999999999995E-07 
    9.9999999999999995E-07 
    9.9999999999999995E-07 
    9.9999999999999995E-07 
    9.9999999999999995E-07 
    9.9999999999999995E-07 
    9.9999999999999995E-07 
    9.9999999999999995E-07 
    9.9999999999999995E-07 
    9.9999999999999995E-07 
    9.9999999999999995E-07 
    9.9999999999999995E-07 
    9.9999999999999995E-07 
    9.9999999999999995E-07 
    9.9999999999999995E-07 
    9.9999999999999995E-07 
    9.9999999999999995E-07 
    9.9999999999999995E-07 
    9.9999999999999995E-07 
    9.9999999999999995E-07 
    9.9999999999999995E-07 
    1.0000001691654548E-06 
