# vtk DataFile Version 2.0
Pressure Field Data 
ASCII 
DATASET UNSTRUCTURED_GRID 

POINTS 289 double 

    0.0000000000000000E+00     0.0000000000000000E+00     0.0000000000000000E+00 
    1.0000000000000000E+00     0.0000000000000000E+00     0.0000000000000000E+00 
    1.0000000000000000E+00     1.0000000000000000E+00     0.0000000000000000E+00 
    0.0000000000000000E+00     1.0000000000000000E+00     0.0000000000000000E+00 
    6.2499999999872928E-02     0.0000000000000000E+00     0.0000000000000000E+00 
    1.2499999999977310E-01     0.0000000000000000E+00     0.0000000000000000E+00 
    1.8749999999959341E-01     0.0000000000000000E+00     0.0000000000000000E+00 
    2.4999999999941089E-01     0.0000000000000000E+00     0.0000000000000000E+00 
    3.1249999999922851E-01     0.0000000000000000E+00     0.0000000000000000E+00 
    3.7499999999904610E-01     0.0000000000000000E+00     0.0000000000000000E+00 
    4.3749999999886358E-01     0.0000000000000000E+00     0.0000000000000000E+00 
    4.9999999999869210E-01     0.0000000000000000E+00     0.0000000000000000E+00 
    5.6249999999884603E-01     0.0000000000000000E+00     0.0000000000000000E+00 
    6.2499999999901090E-01     0.0000000000000000E+00     0.0000000000000000E+00 
    6.8749999999917577E-01     0.0000000000000000E+00     0.0000000000000000E+00 
    7.4999999999934064E-01     0.0000000000000000E+00     0.0000000000000000E+00 
    8.1249999999950551E-01     0.0000000000000000E+00     0.0000000000000000E+00 
    8.7499999999967026E-01     0.0000000000000000E+00     0.0000000000000000E+00 
    9.3749999999983513E-01     0.0000000000000000E+00     0.0000000000000000E+00 
    1.0000000000000000E+00     6.2499999999872928E-02     0.0000000000000000E+00 
    1.0000000000000000E+00     1.2499999999977310E-01     0.0000000000000000E+00 
    1.0000000000000000E+00     1.8749999999959341E-01     0.0000000000000000E+00 
    1.0000000000000000E+00     2.4999999999941089E-01     0.0000000000000000E+00 
    1.0000000000000000E+00     3.1249999999922851E-01     0.0000000000000000E+00 
    1.0000000000000000E+00     3.7499999999904610E-01     0.0000000000000000E+00 
    1.0000000000000000E+00     4.3749999999886358E-01     0.0000000000000000E+00 
    1.0000000000000000E+00     4.9999999999869210E-01     0.0000000000000000E+00 
    1.0000000000000000E+00     5.6249999999884603E-01     0.0000000000000000E+00 
    1.0000000000000000E+00     6.2499999999901090E-01     0.0000000000000000E+00 
    1.0000000000000000E+00     6.8749999999917577E-01     0.0000000000000000E+00 
    1.0000000000000000E+00     7.4999999999934064E-01     0.0000000000000000E+00 
    1.0000000000000000E+00     8.1249999999950551E-01     0.0000000000000000E+00 
    1.0000000000000000E+00     8.7499999999967026E-01     0.0000000000000000E+00 
    1.0000000000000000E+00     9.3749999999983513E-01     0.0000000000000000E+00 
    9.3749999999973976E-01     1.0000000000000000E+00     0.0000000000000000E+00 
    8.7499999999950118E-01     1.0000000000000000E+00     0.0000000000000000E+00 
    8.1249999999991318E-01     1.0000000000000000E+00     0.0000000000000000E+00 
    7.5000000000034706E-01     1.0000000000000000E+00     0.0000000000000000E+00 
    6.8750000000078049E-01     1.0000000000000000E+00     0.0000000000000000E+00 
    6.2500000000121403E-01     1.0000000000000000E+00     0.0000000000000000E+00 
    5.6250000000164757E-01     1.0000000000000000E+00     0.0000000000000000E+00 
    5.0000000000205946E-01     1.0000000000000000E+00     0.0000000000000000E+00 
    4.3750000000182099E-01     1.0000000000000000E+00     0.0000000000000000E+00 
    3.7500000000156092E-01     1.0000000000000000E+00     0.0000000000000000E+00 
    3.1250000000130068E-01     1.0000000000000000E+00     0.0000000000000000E+00 
    2.5000000000104050E-01     1.0000000000000000E+00     0.0000000000000000E+00 
    1.8750000000078040E-01     1.0000000000000000E+00     0.0000000000000000E+00 
    1.2500000000052031E-01     1.0000000000000000E+00     0.0000000000000000E+00 
    6.2500000000260125E-02     1.0000000000000000E+00     0.0000000000000000E+00 
    0.0000000000000000E+00     9.3749999999973976E-01     0.0000000000000000E+00 
    0.0000000000000000E+00     8.7499999999950118E-01     0.0000000000000000E+00 
    0.0000000000000000E+00     8.1249999999991318E-01     0.0000000000000000E+00 
    0.0000000000000000E+00     7.5000000000034706E-01     0.0000000000000000E+00 
    0.0000000000000000E+00     6.8750000000078049E-01     0.0000000000000000E+00 
    0.0000000000000000E+00     6.2500000000121403E-01     0.0000000000000000E+00 
    0.0000000000000000E+00     5.6250000000164757E-01     0.0000000000000000E+00 
    0.0000000000000000E+00     5.0000000000205946E-01     0.0000000000000000E+00 
    0.0000000000000000E+00     4.3750000000182099E-01     0.0000000000000000E+00 
    0.0000000000000000E+00     3.7500000000156092E-01     0.0000000000000000E+00 
    0.0000000000000000E+00     3.1250000000130068E-01     0.0000000000000000E+00 
    0.0000000000000000E+00     2.5000000000104050E-01     0.0000000000000000E+00 
    0.0000000000000000E+00     1.8750000000078040E-01     0.0000000000000000E+00 
    0.0000000000000000E+00     1.2500000000052031E-01     0.0000000000000000E+00 
    0.0000000000000000E+00     6.2500000000260125E-02     0.0000000000000000E+00 
    6.2499999999897131E-02     6.2500000000235922E-02     0.0000000000000000E+00 
    6.2499999999921327E-02     1.2500000000047351E-01     0.0000000000000000E+00 
    6.2499999999945530E-02     1.8750000000070621E-01     0.0000000000000000E+00 
    6.2499999999969733E-02     2.5000000000093858E-01     0.0000000000000000E+00 
    6.2499999999993928E-02     3.1250000000117117E-01     0.0000000000000000E+00 
    6.2500000000018124E-02     3.7500000000140382E-01     0.0000000000000000E+00 
    6.2500000000042327E-02     4.3750000000163619E-01     0.0000000000000000E+00 
    6.2500000000066530E-02     5.0000000000184897E-01     0.0000000000000000E+00 
    6.2500000000090733E-02     5.6250000000147260E-01     0.0000000000000000E+00 
    6.2500000000114922E-02     6.2500000000107636E-01     0.0000000000000000E+00 
    6.2500000000139125E-02     6.8750000000068034E-01     0.0000000000000000E+00 
    6.2500000000163328E-02     7.5000000000028411E-01     0.0000000000000000E+00 
    6.2500000000187531E-02     8.1249999999988787E-01     0.0000000000000000E+00 
    6.2500000000211720E-02     8.7499999999951172E-01     0.0000000000000000E+00 
    6.2500000000235922E-02     9.3749999999974565E-01     0.0000000000000000E+00 
    1.2499999999981980E-01     6.2500000000211733E-02     0.0000000000000000E+00 
    1.2499999999986650E-01     1.2500000000042691E-01     0.0000000000000000E+00 
    1.2499999999991319E-01     1.8750000000063199E-01     0.0000000000000000E+00 
    1.2499999999995989E-01     2.5000000000083678E-01     0.0000000000000000E+00 
    1.2500000000000661E-01     3.1250000000104172E-01     0.0000000000000000E+00 
    1.2500000000005329E-01     3.7500000000124661E-01     0.0000000000000000E+00 
    1.2500000000010000E-01     4.3750000000145117E-01     0.0000000000000000E+00 
    1.2500000000014669E-01     5.0000000000163858E-01     0.0000000000000000E+00 
    1.2500000000019340E-01     5.6250000000129741E-01     0.0000000000000000E+00 
    1.2500000000024011E-01     6.2500000000093847E-01     0.0000000000000000E+00 
    1.2500000000028680E-01     6.8750000000057998E-01     0.0000000000000000E+00 
    1.2500000000033351E-01     7.5000000000022127E-01     0.0000000000000000E+00 
    1.2500000000038020E-01     8.1249999999986211E-01     0.0000000000000000E+00 
    1.2500000000042691E-01     8.7499999999952238E-01     0.0000000000000000E+00 
    1.2500000000047359E-01     9.3749999999975164E-01     0.0000000000000000E+00 
    1.8749999999966760E-01     6.2500000000187531E-02     0.0000000000000000E+00 
    1.8749999999974179E-01     1.2500000000038020E-01     0.0000000000000000E+00 
    1.8749999999981601E-01     1.8750000000055780E-01     0.0000000000000000E+00 
    1.8749999999989009E-01     2.5000000000073502E-01     0.0000000000000000E+00 
    1.8749999999996431E-01     3.1250000000091221E-01     0.0000000000000000E+00 
    1.8750000000003850E-01     3.7500000000108941E-01     0.0000000000000000E+00 
    1.8750000000011269E-01     4.3750000000126649E-01     0.0000000000000000E+00 
    1.8750000000018691E-01     5.0000000000142808E-01     0.0000000000000000E+00 
    1.8750000000026110E-01     5.6250000000112244E-01     0.0000000000000000E+00 
    1.8750000000033529E-01     6.2500000000080080E-01     0.0000000000000000E+00 
    1.8750000000040951E-01     6.8750000000047962E-01     0.0000000000000000E+00 
    1.8750000000048361E-01     7.5000000000015843E-01     0.0000000000000000E+00 
    1.8750000000055780E-01     8.1249999999983680E-01     0.0000000000000000E+00 
    1.8750000000063199E-01     8.7499999999953304E-01     0.0000000000000000E+00 
    1.8750000000070621E-01     9.3749999999975764E-01     0.0000000000000000E+00 
    2.4999999999951281E-01     6.2500000000163314E-02     0.0000000000000000E+00 
    2.4999999999961461E-01     1.2500000000033351E-01     0.0000000000000000E+00 
    2.4999999999971650E-01     1.8750000000048361E-01     0.0000000000000000E+00 
    2.4999999999981831E-01     2.5000000000063310E-01     0.0000000000000000E+00 
    2.4999999999992020E-01     3.1250000000078260E-01     0.0000000000000000E+00 
    2.5000000000002198E-01     3.7500000000093209E-01     0.0000000000000000E+00 
    2.5000000000012390E-01     4.3750000000108180E-01     0.0000000000000000E+00 
    2.5000000000022571E-01     5.0000000000121769E-01     0.0000000000000000E+00 
    2.5000000000032763E-01     5.6250000000094724E-01     0.0000000000000000E+00 
    2.5000000000042938E-01     6.2500000000066314E-01     0.0000000000000000E+00 
    2.5000000000053119E-01     6.8750000000037925E-01     0.0000000000000000E+00 
[...]
CELL_DATA 256 
SCALARS Pressure double 1 
LOOKUP_TABLE default 

    7.0202554453169042E-01 
    6.5202613156549172E-01 
    6.1998924440617564E-01 
    5.9088292828103139E-01 
    5.6128038055030682E-01 
    5.3033711845706855E-01 
    4.9783259197209373E-01 
    4.6388187674527431E-01 
    4.2880922603592198E-01 
    3.9316356821478471E-01 
    3.5782935307566177E-01 
    3.2422119656933240E-01 
    2.9442585497016444E-01 
    2.7103423670410559E-01 
    2.5605424944167748E-01 
    2.4875687487966799E-01 
    6.8804652634037733E-01 
    6.5332253190457734E-01 
    6.2239715139270024E-01 
    5.9352850173160798E-01 
    5.6412530005502282E-01 
    5.3336949721373439E-01 
    5.0103219419438594E-01 
    4.6720749116476934E-01 
    4.3219227277331795E-01 
    3.9649625819483025E-01 
    3.6094771891378252E-01 
    3.2689210662442897E-01 
    2.9637177375569074E-01 
    2.7203881565444338E-01 
    2.5617596795350805E-01 
    2.4832146714077807E-01 
    6.7732023649010853E-01 
    6.5247994168022672E-01 
    6.2405112473199698E-01 
    5.9583905837240891E-01 
    5.6677125916135818E-01 
    5.3625587907775263E-01 
    5.0410719059541376E-01 
    4.7041176096499010E-01 
    4.3543742445300293E-01 
    3.9964582624607620E-01 
    3.6379546336203034E-01 
    3.2914721828345167E-01 
    2.9769603495495783E-01 
    2.7219025448459627E-01 
    2.5528978903788024E-01 
    2.4691924321575262E-01 
    6.6889100031396131E-01 
    6.5055585823780304E-01 
    6.2499185549175029E-01 
    5.9779265427487027E-01 
    5.6921215552738469E-01 
    5.3900184843007537E-01 
    5.0706779838497473E-01 
    4.7350770079879562E-01 
    4.3856402145925305E-01 
    4.0264410855116572E-01 
    3.6642254806266944E-01 
    3.3105421917052819E-01 
    2.9846760110182280E-01 
    2.7152140465390756E-01 
    2.5334736421569271E-01 
    2.4440687223043248E-01 
    6.6211482939134769E-01 
    6.4814135036730214E-01 
    6.2535263675327746E-01 
    5.9939823689934368E-01 
    5.7144564762850392E-01 
    5.4161195252865957E-01 
    5.0992551323674251E-01 
    4.7651212602469467E-01 
    4.4159591084795974E-01 
    4.0552735247270028E-01 
    3.6888376884568447E-01 
    3.3268822875031795E-01 
    2.9876677141897445E-01 
    2.7007464716300339E-01 
    2.5029839514659208E-01 
    2.4063422142852692E-01 
    6.5659427076261301E-01 
    6.4558223878807619E-01 
    6.2528519030743113E-01 
    6.0068964046254558E-01 
    5.7347732756523773E-01 
    5.4409016603932614E-01 
    5.1269052072535870E-01 
    4.7944303614005884E-01 
    4.4456024679929229E-01 
    4.0833599534412324E-01 
    3.7123893060447843E-01 
    3.3413226637289573E-01 
    2.9868747553184832E-01 
    2.6790789181700064E-01 
    2.4609084865483513E-01 
    2.3542279046427797E-01 
    6.5206825228603826E-01 
    6.4308919882996574E-01 
    6.2493845091237343E-01 
    6.0172193374592020E-01 
    5.7532713780377309E-01 
    5.4644655749782856E-01 
    5.1537285752227036E-01 
    4.8231679908860881E-01 
    4.4748404999878150E-01 
    4.1111201615604681E-01 
    3.7355215630981609E-01 
    3.3547829442038968E-01 
    2.9834078288009275E-01 
    2.6510259084275378E-01 
    2.4068051884155561E-01 
    2.2856857608055103E-01 
    6.4835266492335630E-01 
    6.4078669695648427E-01 
    6.2444350237209822E-01 
    6.0256111730244688E-01 
    5.7702608643758824E-01 
    5.4869798196673070E-01 
    5.1798483645022642E-01 
    4.8514761607293555E-01 
    4.5039022325866879E-01 
    4.1389452472174432E-01 
    3.7588847599617281E-01 
    3.3682756444399647E-01 
    2.9786019764858490E-01 
    2.6177426996260483E-01 
    2.3404314004523383E-01 
    2.1983461907154286E-01 
    6.4531364265578406E-01 
    6.3874409244166253E-01 
    6.2390716187727435E-01 
    6.0327505584358876E-01 
    5.7861045964015367E-01 
    5.5086527066133473E-01 
    5.2054102379131084E-01 
    4.8794891725708023E-01 
    4.5329704819678868E-01 
    4.1671569662967062E-01 
    3.7830782985731826E-01 
    3.3828611359667021E-01 
    2.9740469659686980E-01 
    2.5808399567308477E-01 
    2.2617985944495517E-01 
    2.0891846314019907E-01 
    6.4285380336758768E-01 
    6.3699860891321958E-01 
    6.2341237668010396E-01 
    6.0392749125515588E-01 
    5.8011927681706721E-01 
    5.5297224382069798E-01 
    5.2305810216669824E-01 
    4.9073474022260793E-01 
    4.5622020853577677E-01 
    4.1960068468141876E-01 
    3.8086101251180682E-01 
    3.3995847925759237E-01 
    2.9715770998898250E-01 
    2.5425487238201777E-01 
    2.1713899284289262E-01 
    1.9541468356973885E-01 
    6.4090085255321927E-01 
    6.3556992569804949E-01 
    6.2302410322655877E-01 
    6.0457732319853008E-01 
    5.8159409215492053E-01 
    5.5504734517011522E-01 
    5.2555615082210649E-01 
    4.9352091633565026E-01 
    4.5917556017819211E-01 
    4.2257101350886128E-01 
    3.8359009156959045E-01 
    3.4194318628695780E-01 
    2.9732478610082819E-01 
    2.5059070711986320E-01 
    2.0706370062193855E-01 
    1.7879353902311926E-01 
    6.3939879122886201E-01 
    6.3446804812378121E-01 
    6.2279511930984577E-01 
    6.0527989566346851E-01 
    5.8307930647934358E-01 
    5.5712444996059607E-01 
    5.2806056514999489E-01 
    4.9632661794885113E-01 
    4.6218094586634006E-01 
    4.2564752277546253E-01 
    3.8652929100267103E-01 
    3.4432723859114495E-01 
    2.9812818900039162E-01 
    2.4749063162963933E-01 
    1.9624404639573589E-01 
    1.5830932551164417E-01 
    6.3831093687610607E-01 
    6.3370470890456143E-01 
    6.2277443646672748E-01 
    6.0609139802488299E-01 
    5.8462361634322957E-01 
    5.5924288027359703E-01 
    5.3060232004858165E-01 
    4.9917483145293823E-01 
    4.6525523923515422E-01 
    4.2884801069726314E-01 
    3.8970097701399692E-01 
    3.4717358572617724E-01 
    2.9978396400667517E-01 
    2.4548399410339830E-01 
    1.8529383805682784E-01 
    1.3287846672526474E-01 
    6.3760416800992248E-01 
    6.3329197488374833E-01 
    6.2300869435753747E-01 
    6.0706706443706182E-01 
    5.8627492879496901E-01 
    5.6143951595192321E-01 
    5.3320918031474107E-01 
    5.0208010635226130E-01 
    4.6839261762010820E-01 
    4.3214943672836958E-01 
    3.9306975092079416E-01 
    3.5045430870467464E-01 
    3.0239832622605461E-01 
    2.4513115693715928E-01 
    1.7535280408611220E-01 
    1.0087097575129296E-01 
    6.3712146870678676E-01 
    6.3312335987363655E-01 
    6.2344855208261862E-01 
    6.0817892143015650E-01 
    5.8799556914816198E-01 
    5.6366660024227511E-01 
    5.3583208856332010E-01 
    5.0499432372044717E-01 
    4.7153187222490178E-01 
    4.3547510866636563E-01 
    3.9654056116509367E-01 
    3.5402012941094541E-01 
    3.0582225673535118E-01 
    2.4670020173486992E-01 
    1.6803806498592894E-01 
    5.9230693278196564E-02 
    6.3694842751670644E-01 
    6.3328173093034701E-01 
    6.2417059723729829E-01 
    6.0949373898130643E-01 
    5.8983869886455575E-01 
    5.6596212081888941E-01 
    5.3850905625798451E-01 
    5.0797511791793282E-01 
    4.7476294979696199E-01 
    4.3894157880220863E-01 
    4.0025254190228576E-01 
    3.5801809700819248E-01 
    3.1028499315774050E-01 
    2.5109370025903671E-01 
    1.6741175370992809E-01 
    0.0000000000000000E+00 

SCALARS Saturarion double 1 
LOOKUP_TABLE default 

    1.0000000000000007E+00 
    9.7603530816382211E-01 
    9.3239938077254736E-01 
    8.7460451274209106E-01 
    8.2608069915373694E-01 
    7.8351387191710375E-01 
    7.4666504718531523E-01 
    7.1482317632499515E-01 
    6.8684022008277468E-01 
    6.6151897990210284E-01 
    6.3763679656646599E-01 
    6.1378634337732518E-01 
    5.8788738024322673E-01 
    5.5682660824744745E-01 
    4.9835448515309932E-01 
    2.0362130887737251E-01 
    9.9093042121341413E-01 
    9.6823379059593473E-01 
    9.2251784949461002E-01 
    8.6749965937429607E-01 
    8.2073498088489538E-01 
    7.7985012122795883E-01 
    7.4407974900907881E-01 
    7.1276626824166200E-01 
    6.8510871703002474E-01 
    6.6010135635870615E-01 
    6.3676863341041656E-01 
    6.1381837354949442E-01 
    5.8906291293747093E-01 
    5.5897055183071698E-01 
    5.0364232596229308E-01 
    2.3510859486679200E-01 
    9.7661888580978606E-01 
    9.5394215742172628E-01 
    9.0808244374300739E-01 
    8.5493217273819822E-01 
    8.1024940767176346E-01 
    7.7215858233666490E-01 
    7.3864854248168099E-01 
    7.0854405457597558E-01 
    6.8141049765367179E-01 
    6.5674023156298356E-01 
    6.3398785623031406E-01 
    6.1214914920079300E-01 
    5.8927365951356980E-01 
    5.6146083602183583E-01 
    5.1062456023389124E-01 
    2.6406685623371462E-01 
    9.5163724984929310E-01 
    9.3256310207822879E-01 
    8.9050326842356908E-01 
    8.4149350398713718E-01 
    7.9765251680675364E-01 
    7.6096925758139766E-01 
    7.2940442656515603E-01 
    7.0134213479788354E-01 
    6.7577546894474316E-01 
    6.5239741939479257E-01 
    6.3067062399232909E-01 
    6.0994334375265513E-01 
    5.8874927706772673E-01 
    5.6351505542468239E-01 
    5.1747554102210447E-01 
    2.9206036965415344E-01 
    9.2116828423405850E-01 
    9.0443370929196387E-01 
    8.6705437099289007E-01 
    8.2294416440091211E-01 
    7.8141747546680684E-01 
    7.4586348904929212E-01 
    7.1584223072125341E-01 
    6.8981933090257008E-01 
    6.6664989616737791E-01 
    6.4561960816728714E-01 
    6.2616334367653226E-01 
    6.0742822213460679E-01 
    5.8800685841992306E-01 
    5.6502429971166945E-01 
    5.2386400758376062E-01 
    3.1452549186832801E-01 
    8.8733114178984285E-01 
    8.7344047463004482E-01 
    8.4101407130351935E-01 
    8.0129711058236663E-01 
    7.6308335452549758E-01 
    7.2939249329860867E-01 
    7.0033881566547773E-01 
    6.7558854885081632E-01 
    6.5431001023035884E-01 
    6.3565715525732547E-01 
    6.1891913467566873E-01 
    6.0327277814821889E-01 
    5.8679593684392461E-01 
    5.6620323398527839E-01 
    5.2953171712331737E-01 
    3.3450495890368948E-01 
    8.5088743272926115E-01 
    8.4040499671460933E-01 
    8.1328845724855992E-01 
    7.7810007577743800E-01 
    7.4346578182292589E-01 
    7.1223180937344677E-01 
    6.8487048739392353E-01 
    6.6100000264872738E-01 
    6.4066074626133851E-01 
    6.2355199552022667E-01 
    6.0917220188740528E-01 
    5.9663500982856288E-01 
    5.8408961576594864E-01 
    5.6712977561694244E-01 
    5.3464531596102982E-01 
    3.5391859329351955E-01 
    8.1165861571382003E-01 
    8.0502196222067746E-01 
    7.8395344360173280E-01 
    7.5380831391052461E-01 
    7.2244547462223330E-01 
    6.9353127100720779E-01 
    6.6778674428431606E-01 
    6.4537965009143983E-01 
    6.2613757723904706E-01 
    6.1013563728638298E-01 
    5.9733157080324983E-01 
    5.8751649662636574E-01 
    5.7905713353059496E-01 
    5.6712720225438762E-01 
    5.3970316411311703E-01 
    3.7343043742135357E-01 
    7.6986367291794422E-01 
    7.6693730310448827E-01 
    7.5172870000320224E-01 
    7.2694326826477995E-01 
    6.9938472290779097E-01 
    6.7285178347041275E-01 
    6.4891632308802549E-01 
    6.2781772061147023E-01 
    6.0961014218810161E-01 
    5.9447182096112727E-01 
    5.8294873427353877E-01 
    5.7548667915947616E-01 
    5.7118721828173269E-01 
    5.6520167612028516E-01 
    5.4397888939116679E-01 
    3.9173904449976948E-01 
    7.2551170633411943E-01 
    7.2603256715219988E-01 
    7.1625925685581993E-01 
    6.9653814492169097E-01 
    6.7307206825376698E-01 
    6.4949677129990258E-01 
    6.2749920877374765E-01 
    6.0802838018612759E-01 
    5.9109684216868830E-01 
    5.7679987995868376E-01 
    5.6588365760180215E-01 
    5.5992148465826941E-01 
    5.5953623089942750E-01 
    5.6042061302844881E-01 
    5.4710813462801589E-01 
    4.0959664016796249E-01 
    6.7824511853404001E-01 
    6.8194028190090672E-01 
    6.7719255573310766E-01 
    6.6217462326625365E-01 
    6.4286261240646347E-01 
    6.2284592373458258E-01 
    6.0382256715850269E-01 
    5.8621973198333632E-01 
    5.7067762024684288E-01 
    5.5758170756041370E-01 
    5.4752175889881216E-01 
    5.4193399266472120E-01 
    5.4348963846412612E-01 
    5.5136971345633212E-01 
    5.4794911553764425E-01 
    4.2756969289636632E-01 
    6.2696525123482472E-01 
    6.3362321495303597E-01 
    6.3396084764654259E-01 
    6.2379083287864034E-01 
    6.0854563533610240E-01 
    5.9202748736106237E-01 
    5.7598979032765529E-01 
    5.6112328779937704E-01 
    5.4778072016611934E-01 
    5.3658080214065174E-01 
    5.2798611877642887E-01 
    5.2311338186546907E-01 
    5.2465001367219488E-01 
    5.3663692335596291E-01 
    5.4342744773590890E-01 
    4.4458604109204636E-01 
    5.7419760664720187E-01 
    5.8257256750575737E-01 
    5.8694243401798485E-01 
    5.8168469267775635E-01 
    5.7095493811229547E-01 
    5.5782878248672396E-01 
    5.4473714734761725E-01 
    5.3227787372197455E-01 
    5.2083496982733202E-01 
    5.1067181880340906E-01 
    5.0320844003032894E-01 
    5.0007939605358653E-01 
    5.0311411495199709E-01 
    5.1658111754131231E-01 
    5.3534008866122174E-01 
    4.5910425145840494E-01 
    5.1127704984536981E-01 
    5.2487023560009660E-01 
    5.3286825611907884E-01 
    5.3289232379428497E-01 
    5.2478447787502169E-01 
    5.1345805264728617E-01 
    5.0038015094095178E-01 
    4.8864818337073856E-01 
    4.7436345744478808E-01 
    4.5410725643666233E-01 
    4.3896685502832539E-01 
    4.3388342486828174E-01 
    4.4275274617011989E-01 
    4.7727593935580465E-01 
    5.1854010954779706E-01 
    4.6922720552237901E-01 
    2.5561522711028167E-01 
    3.3768626987279254E-01 
    3.8226785291574328E-01 
    3.9062842010136001E-01 
    3.7399422849632208E-01 
    3.3351875084025412E-01 
    2.8797395640964946E-01 
    2.3729612200993008E-01 
    2.0966065132783848E-01 
    1.5679918474215415E-01 
    1.2004114156645698E-01 
    1.0600259070078949E-01 
    1.4297548344942693E-01 
    2.8487395301815760E-01 
    4.5754744588761814E-01 
    4.7046552660363683E-01 
    1.0734937008931311E-04 
    9.3815405812440935E-03 
    2.0803530967666642E-02 
    2.0300749321652607E-02 
    1.7057885299732532E-02 
    3.4358804786830568E-03 
    1.9156757349685707E-03 
    7.5206024657594297E-05 
    1.4804777622098221E-04 
    1.3044336484323851E-05 
    9.1852011600453414E-06 
    1.0057971484053608E-05 
    1.9182061562560729E-04 
    8.1494911986023100E-02 
    2.8477858973636061E-01 
    4.2071614498301535E-01 
