# vtk DataFile Version 2.0
Pressure Field Data 
ASCII 
DATASET UNSTRUCTURED_GRID 

POINTS 289 double 

    0.0000000000000000E+00     0.0000000000000000E+00     0.0000000000000000E+00 
    1.0000000000000000E+00     0.0000000000000000E+00     0.0000000000000000E+00 
    1.0000000000000000E+00     1.0000000000000000E+00     0.0000000000000000E+00 
    0.0000000000000000E+00     1.0000000000000000E+00     0.0000000000000000E+00 
    6.2499999999872928E-02     0.0000000000000000E+00     0.0000000000000000E+00 
    1.2499999999977310E-01     0.0000000000000000E+00     0.0000000000000000E+00 
    1.8749999999959341E-01     0.0000000000000000E+00     0.0000000000000000E+00 
    2.4999999999941089E-01     0.0000000000000000E+00     0.0000000000000000E+00 
    3.1249999999922851E-01     0.0000000000000000E+00     0.0000000000000000E+00 
    3.7499999999904610E-01     0.0000000000000000E+00     0.0000000000000000E+00 
    4.3749999999886358E-01     0.0000000000000000E+00     0.0000000000000000E+00 
    4.9999999999869210E-01     0.0000000000000000E+00     0.0000000000000000E+00 
    5.6249999999884603E-01     0.0000000000000000E+00     0.0000000000000000E+00 
    6.2499999999901090E-01     0.0000000000000000E+00     0.0000000000000000E+00 
    6.8749999999917577E-01     0.0000000000000000E+00     0.0000000000000000E+00 
    7.4999999999934064E-01     0.0000000000000000E+00     0.0000000000000000E+00 
    8.1249999999950551E-01     0.0000000000000000E+00     0.0000000000000000E+00 
    8.7499999999967026E-01     0.0000000000000000E+00     0.0000000000000000E+00 
    9.3749999999983513E-01     0.0000000000000000E+00     0.0000000000000000E+00 
    1.0000000000000000E+00     6.2499999999872928E-02     0.0000000000000000E+00 
    1.0000000000000000E+00     1.2499999999977310E-01     0.0000000000000000E+00 
    1.0000000000000000E+00     1.8749999999959341E-01     0.0000000000000000E+00 
    1.0000000000000000E+00     2.4999999999941089E-01     0.0000000000000000E+00 
    1.0000000000000000E+00     3.1249999999922851E-01     0.0000000000000000E+00 
    1.0000000000000000E+00     3.7499999999904610E-01     0.0000000000000000E+00 
    1.0000000000000000E+00     4.3749999999886358E-01     0.0000000000000000E+00 
    1.0000000000000000E+00     4.9999999999869210E-01     0.0000000000000000E+00 
    1.0000000000000000E+00     5.6249999999884603E-01     0.0000000000000000E+00 
    1.0000000000000000E+00     6.2499999999901090E-01     0.0000000000000000E+00 
    1.0000000000000000E+00     6.8749999999917577E-01     0.0000000000000000E+00 
    1.0000000000000000E+00     7.4999999999934064E-01     0.0000000000000000E+00 
    1.0000000000000000E+00     8.1249999999950551E-01     0.0000000000000000E+00 
    1.0000000000000000E+00     8.7499999999967026E-01     0.0000000000000000E+00 
    1.0000000000000000E+00     9.3749999999983513E-01     0.0000000000000000E+00 
    9.3749999999973976E-01     1.0000000000000000E+00     0.0000000000000000E+00 
    8.7499999999950118E-01     1.0000000000000000E+00     0.0000000000000000E+00 
    8.1249999999991318E-01     1.0000000000000000E+00     0.0000000000000000E+00 
    7.5000000000034706E-01     1.0000000000000000E+00     0.0000000000000000E+00 
    6.8750000000078049E-01     1.0000000000000000E+00     0.0000000000000000E+00 
    6.2500000000121403E-01     1.0000000000000000E+00     0.0000000000000000E+00 
    5.6250000000164757E-01     1.0000000000000000E+00     0.0000000000000000E+00 
    5.0000000000205946E-01     1.0000000000000000E+00     0.0000000000000000E+00 
    4.3750000000182099E-01     1.0000000000000000E+00     0.0000000000000000E+00 
    3.7500000000156092E-01     1.0000000000000000E+00     0.0000000000000000E+00 
    3.1250000000130068E-01     1.0000000000000000E+00     0.0000000000000000E+00 
    2.5000000000104050E-01     1.0000000000000000E+00     0.0000000000000000E+00 
    1.8750000000078040E-01     1.0000000000000000E+00     0.0000000000000000E+00 
    1.2500000000052031E-01     1.0000000000000000E+00     0.0000000000000000E+00 
    6.2500000000260125E-02     1.0000000000000000E+00     0.0000000000000000E+00 
    0.0000000000000000E+00     9.3749999999973976E-01     0.0000000000000000E+00 
    0.0000000000000000E+00     8.7499999999950118E-01     0.0000000000000000E+00 
    0.0000000000000000E+00     8.1249999999991318E-01     0.0000000000000000E+00 
    0.0000000000000000E+00     7.5000000000034706E-01     0.0000000000000000E+00 
    0.0000000000000000E+00     6.8750000000078049E-01     0.0000000000000000E+00 
    0.0000000000000000E+00     6.2500000000121403E-01     0.0000000000000000E+00 
    0.0000000000000000E+00     5.6250000000164757E-01     0.0000000000000000E+00 
    0.0000000000000000E+00     5.0000000000205946E-01     0.0000000000000000E+00 
    0.0000000000000000E+00     4.3750000000182099E-01     0.0000000000000000E+00 
    0.0000000000000000E+00     3.7500000000156092E-01     0.0000000000000000E+00 
    0.0000000000000000E+00     3.1250000000130068E-01     0.0000000000000000E+00 
    0.0000000000000000E+00     2.5000000000104050E-01     0.0000000000000000E+00 
    0.0000000000000000E+00     1.8750000000078040E-01     0.0000000000000000E+00 
    0.0000000000000000E+00     1.2500000000052031E-01     0.0000000000000000E+00 
    0.0000000000000000E+00     6.2500000000260125E-02     0.0000000000000000E+00 
    6.2499999999897131E-02     6.2500000000235922E-02     0.0000000000000000E+00 
    6.2499999999921327E-02     1.2500000000047351E-01     0.0000000000000000E+00 
    6.2499999999945530E-02     1.8750000000070621E-01     0.0000000000000000E+00 
    6.2499999999969733E-02     2.5000000000093858E-01     0.0000000000000000E+00 
    6.2499999999993928E-02     3.1250000000117117E-01     0.0000000000000000E+00 
    6.2500000000018124E-02     3.7500000000140382E-01     0.0000000000000000E+00 
    6.2500000000042327E-02     4.3750000000163619E-01     0.0000000000000000E+00 
    6.2500000000066530E-02     5.0000000000184897E-01     0.0000000000000000E+00 
    6.2500000000090733E-02     5.6250000000147260E-01     0.0000000000000000E+00 
    6.2500000000114922E-02     6.2500000000107636E-01     0.0000000000000000E+00 
    6.2500000000139125E-02     6.8750000000068034E-01     0.0000000000000000E+00 
    6.2500000000163328E-02     7.5000000000028411E-01     0.0000000000000000E+00 
    6.2500000000187531E-02     8.1249999999988787E-01     0.0000000000000000E+00 
    6.2500000000211720E-02     8.7499999999951172E-01     0.0000000000000000E+00 
    6.2500000000235922E-02     9.3749999999974565E-01     0.0000000000000000E+00 
    1.2499999999981980E-01     6.2500000000211733E-02     0.0000000000000000E+00 
    1.2499999999986650E-01     1.2500000000042691E-01     0.0000000000000000E+00 
    1.2499999999991319E-01     1.8750000000063199E-01     0.0000000000000000E+00 
    1.2499999999995989E-01     2.5000000000083678E-01     0.0000000000000000E+00 
    1.2500000000000661E-01     3.1250000000104172E-01     0.0000000000000000E+00 
    1.2500000000005329E-01     3.7500000000124661E-01     0.0000000000000000E+00 
    1.2500000000010000E-01     4.3750000000145117E-01     0.0000000000000000E+00 
    1.2500000000014669E-01     5.0000000000163858E-01     0.0000000000000000E+00 
    1.2500000000019340E-01     5.6250000000129741E-01     0.0000000000000000E+00 
    1.2500000000024011E-01     6.2500000000093847E-01     0.0000000000000000E+00 
    1.2500000000028680E-01     6.8750000000057998E-01     0.0000000000000000E+00 
    1.2500000000033351E-01     7.5000000000022127E-01     0.0000000000000000E+00 
    1.2500000000038020E-01     8.1249999999986211E-01     0.0000000000000000E+00 
    1.2500000000042691E-01     8.7499999999952238E-01     0.0000000000000000E+00 
    1.2500000000047359E-01     9.3749999999975164E-01     0.0000000000000000E+00 
    1.8749999999966760E-01     6.2500000000187531E-02     0.0000000000000000E+00 
    1.8749999999974179E-01     1.2500000000038020E-01     0.0000000000000000E+00 
    1.8749999999981601E-01     1.8750000000055780E-01     0.0000000000000000E+00 
    1.8749999999989009E-01     2.5000000000073502E-01     0.0000000000000000E+00 
    1.8749999999996431E-01     3.1250000000091221E-01     0.0000000000000000E+00 
    1.8750000000003850E-01     3.7500000000108941E-01     0.0000000000000000E+00 
    1.8750000000011269E-01     4.3750000000126649E-01     0.0000000000000000E+00 
    1.8750000000018691E-01     5.0000000000142808E-01     0.0000000000000000E+00 
    1.8750000000026110E-01     5.6250000000112244E-01     0.0000000000000000E+00 
    1.8750000000033529E-01     6.2500000000080080E-01     0.0000000000000000E+00 
    1.8750000000040951E-01     6.8750000000047962E-01     0.0000000000000000E+00 
    1.8750000000048361E-01     7.5000000000015843E-01     0.0000000000000000E+00 
    1.8750000000055780E-01     8.1249999999983680E-01     0.0000000000000000E+00 
    1.8750000000063199E-01     8.7499999999953304E-01     0.0000000000000000E+00 
    1.8750000000070621E-01     9.3749999999975764E-01     0.0000000000000000E+00 
    2.4999999999951281E-01     6.2500000000163314E-02     0.0000000000000000E+00 
    2.4999999999961461E-01     1.2500000000033351E-01     0.0000000000000000E+00 
    2.4999999999971650E-01     1.8750000000048361E-01     0.0000000000000000E+00 
    2.4999999999981831E-01     2.5000000000063310E-01     0.0000000000000000E+00 
    2.4999999999992020E-01     3.1250000000078260E-01     0.0000000000000000E+00 
    2.5000000000002198E-01     3.7500000000093209E-01     0.0000000000000000E+00 
    2.5000000000012390E-01     4.3750000000108180E-01     0.0000000000000000E+00 
    2.5000000000022571E-01     5.0000000000121769E-01     0.0000000000000000E+00 
    2.5000000000032763E-01     5.6250000000094724E-01     0.0000000000000000E+00 
    2.5000000000042938E-01     6.2500000000066314E-01     0.0000000000000000E+00 
    2.5000000000053119E-01     6.8750000000037925E-01     0.0000000000000000E+00 
[...]
CELL_DATA 256 
SCALARS Pressure double 1 
LOOKUP_TABLE default 

    9.7807741605158094E-01 
    9.2399063653375579E-01 
    8.8572166606432701E-01 
    8.4841719018296968E-01 
    8.0882741565066463E-01 
    7.6645233513361410E-01 
    7.2144406739205413E-01 
    6.7414416358488138E-01 
    6.2489969619118912E-01 
    5.7384791900498078E-01 
    5.1934407701959262E-01 
    4.5677941255963045E-01 
    3.9901960892025712E-01 
    3.5853748092560722E-01 
    3.3304856182828579E-01 
    3.2282857029630863E-01 
    9.6416752024864882E-01 
    9.2569529346578250E-01 
    8.8870556590319083E-01 
    8.5178524377298814E-01 
    8.1257106295024084E-01 
    7.7054218309244682E-01 
    7.2581313795528768E-01 
    6.7872447457014728E-01 
    6.2963243212257547E-01 
    5.7871354016735521E-01 
    5.2441667528011493E-01 
    4.6176288943887656E-01 
    4.0277020717228257E-01 
    3.6057221175841353E-01 
    3.3351511432450565E-01 
    3.2237995310416245E-01 
    9.5338545653923901E-01 
    9.2509503620137334E-01 
    8.9077580785137356E-01 
    8.5464404153126716E-01 
    8.1593984117177365E-01 
    7.7433084697404819E-01 
    7.2992399922652051E-01 
    6.8305889998755687E-01 
    6.3409148625199818E-01 
    5.8319168189337767E-01 
    5.2881711280041099E-01 
    4.6580438197277824E-01 
    4.0552186825585557E-01 
    3.6143407084035395E-01 
    3.3264560031406243E-01 
    3.2074934510032616E-01 
    9.4463818886251105E-01 
    9.2319981207795798E-01 
    8.9195802296710958E-01 
    8.5699447683868990E-01 
    8.1894521754323846E-01 
    7.7782353237565804E-01 
    7.3378511239980426E-01 
    6.8716661650460309E-01 
    6.3830894794615789E-01 
    5.8733610900046107E-01 
    5.3261931774565430E-01 
    4.6902287066927717E-01 
    4.0738300962108254E-01 
    3.6115024127224937E-01 
    3.3035618244519810E-01 
    3.1771190932698112E-01 
    9.3727691081058329E-01 
    9.2056707947016747E-01 
    8.9237209011421093E-01 
    8.5885918378493620E-01 
    8.2161613657249510E-01 
    7.8104971948963464E-01 
    7.3742179224329407E-01 
    6.9107467276666690E-01 
    6.4232294488715180E-01 
    5.9121353869013316E-01 
    5.3588653561053512E-01 
    4.7151784843121025E-01 
    4.0848993109821574E-01 
    3.5977063469397463E-01 
    3.2656087775369835E-01 
    3.1303519678109148E-01 
    9.3101696074053486E-01 
    9.1759856761623426E-01 
    8.9219750439674594E-01 
    8.6029533727022878E-01 
    8.2399508747426664E-01 
    7.8405272220720790E-01 
    7.4086943507591274E-01 
    6.9481323658512306E-01 
    6.4616874305053584E-01 
    5.9488324798117098E-01 
    5.3867080141336698E-01 
    4.7338816824613733E-01 
    4.0901200881782140E-01 
    3.5737584157691538E-01 
    3.2117684801087881E-01 
    3.0646234465497157E-01 
    9.2567632067955374E-01 
    9.1457105836219543E-01 
    8.9162692903014007E-01 
    8.6138487771204808E-01 
    8.2612972033659993E-01 
    7.8687764098498969E-01 
    7.4416794210228820E-01 
    6.9841658198171230E-01 
    6.4988141560793766E-01 
    5.9838660093083851E-01 
    5.4103967249090990E-01 
    4.7478005770798892E-01 
    4.0914633930777988E-01 
    3.5408733786047397E-01 
    3.1413291319469411E-01 
    2.9769680240445734E-01 
    9.2112569940137079E-01 
    9.1166466706463400E-01 
    8.9083227259951170E-01 
    8.6221949107368345E-01 
    8.2807133473659511E-01 
    7.8956781001899334E-01 
    7.4736150417174185E-01 
    7.0192570929670506E-01 
    6.5349618243612662E-01 
    6.0170149464838374E-01 
    5.4307098051993563E-01 
    4.7592596720522079E-01 
    4.0909933318848218E-01 
    3.5007855729746873E-01 
    3.0538166299500880E-01 
    2.8637967119478941E-01 
    9.1727367426507178E-01 
    9.0899676826080611E-01 
    8.8996197211585004E-01 
    8.6289748377710895E-01 
    8.2987671734691137E-01 
    7.9216690782424193E-01 
    7.5049552757091786E-01 
    7.0538311966602174E-01 
    6.5703431734036311E-01 
    6.0468408119688200E-01 
    5.4480362093183843E-01 
    4.7714191708398579E-01 
    4.0905821646533469E-01 
    3.4558974029725353E-01 
    2.9492253838310217E-01 
    2.7206070832664186E-01 
    9.1407120635020445E-01 
    9.0665848990834896E-01 
    8.8914713069301166E-01 
    8.6352030619884912E-01 
    8.3161172411385620E-01 
    7.9472202042107698E-01 
    7.5360666881530824E-01 
    7.0880379731019050E-01 
    6.6040039602105649E-01 
    6.0720242495479582E-01 
    5.4646278761531530E-01 
    4.7884848600010332E-01 
    4.0923301044589616E-01 
    3.4095083179047780E-01 
    2.8284171795447438E-01 
    2.5415715440512854E-01 
    9.1150211176780849E-01 
    9.0473199148467909E-01 
    8.8850521011222350E-01 
    8.6418969720804262E-01 
    8.3334471748212524E-01 
    7.9726606978868697E-01 
    7.5668021874833813E-01 
    7.1203012942676558E-01 
    6.6334356070304623E-01 
    6.0941146879733721E-01 
    5.4858051975815381E-01 
    4.8131080420832428E-01 
    4.0993070666442727E-01 
    3.3661208899594203E-01 
    2.6938156753771808E-01 
    2.3189729841025214E-01 
    9.0947391324215032E-01 
    9.0321775036284035E-01 
    8.8808989745377620E-01 
    8.6495359780343495E-01 
    8.3504889029215701E-01 
    7.9962766202196611E-01 
    7.5947013186169188E-01 
    7.1488422803944407E-01 
    6.6599876827648119E-01 
    6.1199284097051887E-01 
    5.5155034641848377E-01 
    4.8447928000997004E-01 
    4.1148705926513179E-01 
    3.3316351017458629E-01 
    2.5505683087133457E-01 
    2.0423601710007608E-01 
    9.0756743085897762E-01 
    9.0179060801149813E-01 
    8.8764069012280578E-01 
    8.6555963214380671E-01 
    8.3651263743009541E-01 
    8.0168166224769288E-01 
    7.6199195873782488E-01 
    7.1776074794043987E-01 
    6.6906773227153671E-01 
    6.1534857088203809E-01 
    5.5530708728170664E-01 
    4.8835968987726847E-01 
    4.1418698600212212E-01 
    3.3132981139523487E-01 
    2.4085072705468424E-01 
    1.6972960100821685E-01 
    9.0606098697290616E-01 
    9.0060872381112600E-01 
    8.8729884148585580E-01 
    8.6616677238794237E-01 
    8.3799875607779228E-01 
    8.0389469931697255E-01 
    7.6480760367698863E-01 
    7.2110177411583620E-01 
    6.7276225633583364E-01 
    6.1932714437855430E-01 
    5.5969307945067370E-01 
    4.9302752745853601E-01 
    4.1823945566215626E-01 
    3.3191894679381467E-01 
    2.2854368186798546E-01 
    1.2634690806329804E-01 
    9.0529569848531133E-01 
    9.0017308288249320E-01 
    8.8759261618009144E-01 
    8.6731884024301831E-01 
    8.3999000017562275E-01 
    8.0660135495181573E-01 
    7.6807250282316764E-01 
    7.2483121288648578E-01 
    6.7689842803486033E-01 
    6.2384953982478319E-01 
    5.6469954268774847E-01 
    4.9849598553549007E-01 
    4.2373001183434605E-01 
    3.3566744327310644E-01 
    2.2126545429349295E-01 
    7.1181119328194931E-02 
    9.0508353522913754E-01 
    9.0037795624628514E-01 
    8.8851149118678596E-01 
    8.6902487366890424E-01 
    8.4244093974239120E-01 
    8.0969858066159039E-01 
    7.7170730402502796E-01 
    7.2894188841896179E-01 
    6.8146319221189178E-01 
    6.2888851995740003E-01 
    5.7030361063471258E-01 
    5.0473034996665223E-01 
    4.3058303328571490E-01 
    3.4287063950694974E-01 
    2.2442225314611700E-01 
    0.0000000000000000E+00 

SCALARS Saturarion double 1 
LOOKUP_TABLE default 

    1.0000000000000744E+00 
    9.5412428521659831E-01 
    8.8090043816608532E-01 
    7.9229386736999430E-01 
    7.2084224841883049E-01 
    6.6675003561861756E-01 
    6.2352523531676962E-01 
    5.8573636689881858E-01 
    5.5054566044147957E-01 
    5.1305581170816139E-01 
    4.4510865512134096E-01 
    1.7088998281331780E-01 
    3.3491444398105061E-06 
    9.9999999998467438E-07 
    1.0000000000000002E-06 
    9.9999999999999995E-07 
    9.7967574991244855E-01 
    9.3652951544074803E-01 
    8.6025841631860989E-01 
    7.8217184953646635E-01 
    7.1598484274723195E-01 
    6.6252435428355450E-01 
    6.1920529730518981E-01 
    5.8207131149939384E-01 
    5.4788027550899099E-01 
    5.1108200798126135E-01 
    4.4360842814537416E-01 
    1.7060706827976724E-01 
    4.6329589760805001E-06 
    1.0000002695609651E-06 
    1.0000000000001319E-06 
    9.9999999999999995E-07 
    9.4731567927432792E-01 
    9.0787310109929265E-01 
    8.3338091141736093E-01 
    7.6430847701983606E-01 
    7.0524389088009154E-01 
    6.5372247262402616E-01 
    6.1096828545165105E-01 
    5.7513682715372305E-01 
    5.4264060484488164E-01 
    5.0718889380853815E-01 
    4.4143075193958475E-01 
    1.7030600678614793E-01 
    5.2591545502788281E-06 
    1.0000005903125026E-06 
    1.0000000000001548E-06 
    9.9999999999999995E-07 
    8.9286587972458575E-01 
    8.6292531444292542E-01 
    7.9939355794837685E-01 
    7.3797437819196399E-01 
    6.8710370462053927E-01 
    6.4225764752414183E-01 
    6.0309383665591598E-01 
    5.6935797434944169E-01 
    5.3819990152287089E-01 
    5.0432089373850952E-01 
    4.4056316116506061E-01 
    1.7525759849817629E-01 
    1.0005371378210433E-05 
    1.0000003014355131E-06 
    1.0000000000000103E-06 
    9.9999999999999995E-07 
    8.3848003384733216E-01 
    8.1348536274536487E-01 
    7.6143988239869886E-01 
    7.0897235881599774E-01 
    6.6473169800950616E-01 
    6.2668028921698338E-01 
    5.9280452367578595E-01 
    5.6194933170222305E-01 
    5.3261605394570444E-01 
    4.9978734974016753E-01 
    4.3704842083331696E-01 
    1.7195147041855180E-01 
    1.3501641351808352E-05 
    1.0000085086274396E-06 
    1.0000000000062993E-06 
    9.9999999999999995E-07 
    7.8507604160522182E-01 
    7.6608873719246651E-01 
    7.2494452244100616E-01 
    6.8013445912190329E-01 
    6.4105456703967234E-01 
    6.0809679877153588E-01 
    5.7853912071344871E-01 
    5.5088553284691488E-01 
    5.2404634903136427E-01 
    4.9238211506212454E-01 
    4.2674225197990628E-01 
    1.5036444709511271E-01 
    3.1587016705474224E-05 
    1.0001450354700681E-06 
    1.0000000000869949E-06 
    9.9999999999999995E-07 
    7.3305176641156411E-01 
    7.2027462813981358E-01 
    6.8868891185043912E-01 
    6.5079274862781578E-01 
    6.1659862502720031E-01 
    5.8761301858240789E-01 
    5.6219929356935983E-01 
    5.3786900511691049E-01 
    5.1284788293912797E-01 
    4.8193378272839160E-01 
    4.0902608572129778E-01 
    1.1022236709082683E-01 
    3.8050805466042080E-05 
    1.0003249745964956E-06 
    1.0000000000598634E-06 
    9.9999999999999995E-07 
    6.8183341358815119E-01 
    6.7481516766018701E-01 
    6.5242062211108309E-01 
    6.2175032096947536E-01 
    5.9163157751917983E-01 
    5.6527875186816257E-01 
    5.4296661471597862E-01 
    5.2283825990181199E-01 
    5.0053254923645352E-01 
    4.6813811084360518E-01 
    3.6944883021527891E-01 
    5.2947777743129358E-02 
    5.5007929632709256E-05 
    1.0003505260174458E-06 
    1.0000000000014007E-06 
    9.9999999999999995E-07 
    6.3176620085751678E-01 
    6.2951040745297859E-01 
    6.1523899543934601E-01 
    5.9191642476793827E-01 
    5.6628048983436730E-01 
    5.4257962424536588E-01 
    5.2293673421587228E-01 
    5.0508892924271553E-01 
    4.8383542824668585E-01 
    4.4329764861790499E-01 
    2.6950164007694005E-01 
    7.2154102813085557E-03 
    3.1092915103259535E-06 
    1.0000008114032582E-06 
    1.0000000000000008E-06 
    9.9999999999999995E-07 
    5.8486454129859544E-01 
    5.8626453748689322E-01 
    5.7860263253536637E-01 
    5.6117966830978794E-01 
    5.4054836225290459E-01 
    5.2060042146628560E-01 
    5.0169562899163112E-01 
    4.8239114639950625E-01 
    4.5321845624270435E-01 
    3.6837416473278822E-01 
    1.0266552956955968E-01 
    3.0914288391616069E-04 
    1.0340962131984532E-06 
    1.0000000000004764E-06 
    9.9999999999999995E-07 
    9.9999999999999995E-07 
    5.4296505578879117E-01 
    5.4669647136175359E-01 
    5.4258227614511978E-01 
    5.2922759989425150E-01 
    5.1384900677734502E-01 
    4.9475185126725596E-01 
    4.7138405122149041E-01 
    4.3773292338519576E-01 
    3.4014810641013704E-01 
    1.3181742363815299E-01 
    1.6300290577487974E-03 
    1.1290767659646448E-06 
    1.0000000578166830E-06 
    1.0000000000000084E-06 
    9.9999999999999995E-07 
    9.9999999999999995E-07 
    4.8321569566902334E-01 
    4.9297303547269772E-01 
    4.9498075829002375E-01 
    4.8511563338416136E-01 
    4.6531769201849704E-01 
    4.2098412237258953E-01 
    3.1806908625787034E-01 
    1.9910116246147741E-01 
    4.9369338573369947E-02 
    3.7466183619140749E-04 
    1.0838797454158790E-06 
    1.0000000846650537E-06 
    1.0000000000000434E-06 
    9.9999999999999995E-07 
    9.9999999999999995E-07 
    9.9999999999999995E-07 
    2.4408551604044018E-01 
    3.2810781945227102E-01 
    3.5266832686464783E-01 
    3.0474564428380285E-01 
    2.3005719871910910E-01 
    1.0448951671844914E-01 
    1.1304270708089353E-02 
    3.9150368804804987E-04 
    4.2084589502200756E-05 
    1.0160000983063018E-06 
    1.0000000158943132E-06 
    1.0000000000000133E-06 
    9.9999999999999995E-07 
    9.9999999999999995E-07 
    9.9999999999999995E-07 
    9.9999999999999995E-07 
    3.5870959448529842E-04 
    1.3332083915172684E-02 
    1.7517516746827562E-02 
    4.4441726302911887E-03 
    8.4499930866699738E-04 
    1.0103116004996828E-04 
    2.6005297393376548E-06 
    1.0109207662480818E-06 
    1.0000781078044222E-06 
    1.0000000005031905E-06 
    1.0000000000000010E-06 
    9.9999999999999995E-07 
    9.9999999999999995E-07 
    9.9999999999999995E-07 
    9.9999999999999995E-07 
    9.9999999999999995E-07 
    1.0000004599673828E-06 
    2.6779599996196290E-06 
    1.0786406471360715E-06 
    1.2533929111912532E-06 
    1.0154683736531177E-06 
    1.0010984010777342E-06 
    1.0000001889195635E-06 
    1.0000000002430249E-06 
    1.0000000000000004E-06 
    9.9999999999999995E-07 
    9.9999999999999995E-07 
    9.9999999999999995E-07 
    9.9999999999999995E-07 
    9.9999999999999995E-07 
    9.9999999999999995E-07 
    9.9999999999999995E-07 
    1.0000000000000232E-06 
    1.0000000889259835E-06 
    1.0000000086408065E-06 
    1.0000000071476883E-06 
    1.0000000012167041E-06 
    1.0000000000000010E-06 
    9.9999999999999995E-07 
    9.9999999999999995E-07 
    9.9999999999999995E-07 
    9.9999999999999995E-07 
    9.9999999999999995E-07 
    9.9999999999999995E-07 
    9.9999999999999995E-07 
    9.9999999999999995E-07 
    9.9999999999999995E-07 
    1.0000003788966215E-06 
