# vtk DataFile Version 2.0
Pressure Field Data 
ASCII 
DATASET UNSTRUCTURED_GRID 

POINTS 289 double 

    0.0000000000000000E+00     0.0000000000000000E+00     0.0000000000000000E+00 
    1.0000000000000000E+00     0.0000000000000000E+00     0.0000000000000000E+00 
    1.0000000000000000E+00     1.0000000000000000E+00     0.0000000000000000E+00 
    0.0000000000000000E+00     1.0000000000000000E+00     0.0000000000000000E+00 
    6.2499999999872928E-02     0.0000000000000000E+00     0.0000000000000000E+00 
    1.2499999999977310E-01     0.0000000000000000E+00     0.0000000000000000E+00 
    1.8749999999959341E-01     0.0000000000000000E+00     0.0000000000000000E+00 
    2.4999999999941089E-01     0.0000000000000000E+00     0.0000000000000000E+00 
    3.1249999999922851E-01     0.0000000000000000E+00     0.0000000000000000E+00 
    3.7499999999904610E-01     0.0000000000000000E+00     0.0000000000000000E+00 
    4.3749999999886358E-01     0.0000000000000000E+00     0.0000000000000000E+00 
    4.9999999999869210E-01     0.0000000000000000E+00     0.0000000000000000E+00 
    5.6249999999884603E-01     0.0000000000000000E+00     0.0000000000000000E+00 
    6.2499999999901090E-01     0.0000000000000000E+00     0.0000000000000000E+00 
    6.8749999999917577E-01     0.0000000000000000E+00     0.0000000000000000E+00 
    7.4999999999934064E-01     0.0000000000000000E+00     0.0000000000000000E+00 
    8.1249999999950551E-01     0.0000000000000000E+00     0.0000000000000000E+00 
    8.7499999999967026E-01     0.0000000000000000E+00     0.0000000000000000E+00 
    9.3749999999983513E-01     0.0000000000000000E+00     0.0000000000000000E+00 
    1.0000000000000000E+00     6.2499999999872928E-02     0.0000000000000000E+00 
    1.0000000000000000E+00     1.2499999999977310E-01     0.0000000000000000E+00 
    1.0000000000000000E+00     1.8749999999959341E-01     0.0000000000000000E+00 
    1.0000000000000000E+00     2.4999999999941089E-01     0.0000000000000000E+00 
    1.0000000000000000E+00     3.1249999999922851E-01     0.0000000000000000E+00 
    1.0000000000000000E+00     3.7499999999904610E-01     0.0000000000000000E+00 
    1.0000000000000000E+00     4.3749999999886358E-01     0.0000000000000000E+00 
    1.0000000000000000E+00     4.9999999999869210E-01     0.0000000000000000E+00 
    1.0000000000000000E+00     5.6249999999884603E-01     0.0000000000000000E+00 
    1.0000000000000000E+00     6.2499999999901090E-01     0.0000000000000000E+00 
    1.0000000000000000E+00     6.8749999999917577E-01     0.0000000000000000E+00 
    1.0000000000000000E+00     7.4999999999934064E-01     0.0000000000000000E+00 
    1.0000000000000000E+00     8.1249999999950551E-01     0.0000000000000000E+00 
    1.0000000000000000E+00     8.7499999999967026E-01     0.0000000000000000E+00 
    1.0000000000000000E+00     9.3749999999983513E-01     0.0000000000000000E+00 
    9.3749999999973976E-01     1.0000000000000000E+00     0.0000000000000000E+00 
    8.7499999999950118E-01     1.0000000000000000E+00     0.0000000000000000E+00 
    8.1249999999991318E-01     1.0000000000000000E+00     0.0000000000000000E+00 
    7.5000000000034706E-01     1.0000000000000000E+00     0.0000000000000000E+00 
    6.8750000000078049E-01     1.0000000000000000E+00     0.0000000000000000E+00 
    6.2500000000121403E-01     1.0000000000000000E+00     0.0000000000000000E+00 
    5.6250000000164757E-01     1.0000000000000000E+00     0.0000000000000000E+00 
    5.0000000000205946E-01     1.0000000000000000E+00     0.0000000000000000E+00 
    4.3750000000182099E-01     1.0000000000000000E+00     0.0000000000000000E+00 
    3.7500000000156092E-01     1.0000000000000000E+00     0.0000000000000000E+00 
    3.1250000000130068E-01     1.0000000000000000E+00     0.0000000000000000E+00 
    2.5000000000104050E-01     1.0000000000000000E+00     0.0000000000000000E+00 
    1.8750000000078040E-01     1.0000000000000000E+00     0.0000000000000000E+00 
    1.2500000000052031E-01     1.0000000000000000E+00     0.0000000000000000E+00 
    6.2500000000260125E-02     1.0000000000000000E+00     0.0000000000000000E+00 
    0.0000000000000000E+00     9.3749999999973976E-01     0.0000000000000000E+00 
    0.0000000000000000E+00     8.7499999999950118E-01     0.0000000000000000E+00 
    0.0000000000000000E+00     8.1249999999991318E-01     0.0000000000000000E+00 
    0.0000000000000000E+00     7.5000000000034706E-01     0.0000000000000000E+00 
    0.0000000000000000E+00     6.8750000000078049E-01     0.0000000000000000E+00 
    0.0000000000000000E+00     6.2500000000121403E-01     0.0000000000000000E+00 
    0.0000000000000000E+00     5.6250000000164757E-01     0.0000000000000000E+00 
    0.0000000000000000E+00     5.0000000000205946E-01     0.0000000000000000E+00 
    0.0000000000000000E+00     4.3750000000182099E-01     0.0000000000000000E+00 
    0.0000000000000000E+00     3.7500000000156092E-01     0.0000000000000000E+00 
    0.0000000000000000E+00     3.1250000000130068E-01     0.0000000000000000E+00 
    0.0000000000000000E+00     2.5000000000104050E-01     0.0000000000000000E+00 
    0.0000000000000000E+00     1.8750000000078040E-01     0.0000000000000000E+00 
    0.0000000000000000E+00     1.2500000000052031E-01     0.0000000000000000E+00 
    0.0000000000000000E+00     6.2500000000260125E-02     0.0000000000000000E+00 
    6.2499999999897131E-02     6.2500000000235922E-02     0.0000000000000000E+00 
    6.2499999999921327E-02     1.2500000000047351E-01     0.0000000000000000E+00 
    6.2499999999945530E-02     1.8750000000070621E-01     0.0000000000000000E+00 
    6.2499999999969733E-02     2.5000000000093858E-01     0.0000000000000000E+00 
    6.2499999999993928E-02     3.1250000000117117E-01     0.0000000000000000E+00 
    6.2500000000018124E-02     3.7500000000140382E-01     0.0000000000000000E+00 
    6.2500000000042327E-02     4.3750000000163619E-01     0.0000000000000000E+00 
    6.2500000000066530E-02     5.0000000000184897E-01     0.0000000000000000E+00 
    6.2500000000090733E-02     5.6250000000147260E-01     0.0000000000000000E+00 
    6.2500000000114922E-02     6.2500000000107636E-01     0.0000000000000000E+00 
    6.2500000000139125E-02     6.8750000000068034E-01     0.0000000000000000E+00 
    6.2500000000163328E-02     7.5000000000028411E-01     0.0000000000000000E+00 
    6.2500000000187531E-02     8.1249999999988787E-01     0.0000000000000000E+00 
    6.2500000000211720E-02     8.7499999999951172E-01     0.0000000000000000E+00 
    6.2500000000235922E-02     9.3749999999974565E-01     0.0000000000000000E+00 
    1.2499999999981980E-01     6.2500000000211733E-02     0.0000000000000000E+00 
    1.2499999999986650E-01     1.2500000000042691E-01     0.0000000000000000E+00 
    1.2499999999991319E-01     1.8750000000063199E-01     0.0000000000000000E+00 
    1.2499999999995989E-01     2.5000000000083678E-01     0.0000000000000000E+00 
    1.2500000000000661E-01     3.1250000000104172E-01     0.0000000000000000E+00 
    1.2500000000005329E-01     3.7500000000124661E-01     0.0000000000000000E+00 
    1.2500000000010000E-01     4.3750000000145117E-01     0.0000000000000000E+00 
    1.2500000000014669E-01     5.0000000000163858E-01     0.0000000000000000E+00 
    1.2500000000019340E-01     5.6250000000129741E-01     0.0000000000000000E+00 
    1.2500000000024011E-01     6.2500000000093847E-01     0.0000000000000000E+00 
    1.2500000000028680E-01     6.8750000000057998E-01     0.0000000000000000E+00 
    1.2500000000033351E-01     7.5000000000022127E-01     0.0000000000000000E+00 
    1.2500000000038020E-01     8.1249999999986211E-01     0.0000000000000000E+00 
    1.2500000000042691E-01     8.7499999999952238E-01     0.0000000000000000E+00 
    1.2500000000047359E-01     9.3749999999975164E-01     0.0000000000000000E+00 
    1.8749999999966760E-01     6.2500000000187531E-02     0.0000000000000000E+00 
    1.8749999999974179E-01     1.2500000000038020E-01     0.0000000000000000E+00 
    1.8749999999981601E-01     1.8750000000055780E-01     0.0000000000000000E+00 
    1.8749999999989009E-01     2.5000000000073502E-01     0.0000000000000000E+00 
    1.8749999999996431E-01     3.1250000000091221E-01     0.0000000000000000E+00 
    1.8750000000003850E-01     3.7500000000108941E-01     0.0000000000000000E+00 
    1.8750000000011269E-01     4.3750000000126649E-01     0.0000000000000000E+00 
    1.8750000000018691E-01     5.0000000000142808E-01     0.0000000000000000E+00 
    1.8750000000026110E-01     5.6250000000112244E-01     0.0000000000000000E+00 
    1.8750000000033529E-01     6.2500000000080080E-01     0.0000000000000000E+00 
    1.8750000000040951E-01     6.8750000000047962E-01     0.0000000000000000E+00 
    1.8750000000048361E-01     7.5000000000015843E-01     0.0000000000000000E+00 
    1.8750000000055780E-01     8.1249999999983680E-01     0.0000000000000000E+00 
    1.8750000000063199E-01     8.7499999999953304E-01     0.0000000000000000E+00 
    1.8750000000070621E-01     9.3749999999975764E-01     0.0000000000000000E+00 
    2.4999999999951281E-01     6.2500000000163314E-02     0.0000000000000000E+00 
    2.4999999999961461E-01     1.2500000000033351E-01     0.0000000000000000E+00 
    2.4999999999971650E-01     1.8750000000048361E-01     0.0000000000000000E+00 
    2.4999999999981831E-01     2.5000000000063310E-01     0.0000000000000000E+00 
    2.4999999999992020E-01     3.1250000000078260E-01     0.0000000000000000E+00 
    2.5000000000002198E-01     3.7500000000093209E-01     0.0000000000000000E+00 
    2.5000000000012390E-01     4.3750000000108180E-01     0.0000000000000000E+00 
    2.5000000000022571E-01     5.0000000000121769E-01     0.0000000000000000E+00 
    2.5000000000032763E-01     5.6250000000094724E-01     0.0000000000000000E+00 
    2.5000000000042938E-01     6.2500000000066314E-01     0.0000000000000000E+00 
    2.5000000000053119E-01     6.8750000000037925E-01     0.0000000000000000E+00 
[...]
CELL_DATA 256 
SCALARS Pressure double 1 
LOOKUP_TABLE default 

    6.9809198038639908E-01 
    6.4813980450282316E-01 
    6.1617767650986233E-01 
    5.8717103076181754E-01 
    5.5768992183374000E-01 
    5.2688657242917447E-01 
    4.9453728848812234E-01 
    4.6075388660946742E-01 
    4.2585734827689531E-01 
    3.9039275817862296E-01 
    3.5523940506839163E-01 
    3.2180384546235385E-01 
    2.9215985366983865E-01 
    2.6887848313766161E-01 
    2.5398099217614756E-01 
    2.4673055076720643E-01 
    6.8411156073284718E-01 
    6.4943094330905715E-01 
    6.1857796213734595E-01 
    5.8980703460289274E-01 
    5.6052347012732018E-01 
    5.2990583271209191E-01 
    4.9772220510837473E-01 
    4.6406363195245537E-01 
    4.2922390058631449E-01 
    3.9370907024529644E-01 
    3.5834253980747161E-01 
    3.2446214414643393E-01 
    2.9409762853898758E-01 
    2.6988021489641079E-01 
    2.5410245052601793E-01 
    2.4629769995812004E-01 
    6.7338446223627257E-01 
    6.4858448071323860E-01 
    6.2022569584350740E-01 
    5.9210944298753598E-01 
    5.6315960799039422E-01 
    5.3278071032262275E-01 
    5.0078405390219261E-01 
    4.6725344875213992E-01 
    4.3245394690103378E-01 
    3.9684382209597202E-01 
    3.6117710659591812E-01 
    3.2670765531142881E-01 
    2.9541820178667427E-01 
    2.7003536872520195E-01 
    2.5322375831723798E-01 
    2.4490629914982140E-01 
    6.6495637206187630E-01 
    6.4665825393726706E-01 
    6.2116174285429326E-01 
    5.9405620628614797E-01 
    5.6559194828472703E-01 
    5.3551656392758851E-01 
    5.0373299383174053E-01 
    4.7033640379468317E-01 
    4.3556686264918854E-01 
    3.9982873372103306E-01 
    3.6379270808541359E-01 
    3.2860750726469773E-01 
    2.9619001614283158E-01 
    2.6937659807340281E-01 
    2.5129741911951597E-01 
    2.4241478533995839E-01 
    6.5818380998338555E-01 
    6.4424371181488904E-01 
    6.2151952910161046E-01 
    5.9565630716316165E-01 
    5.6781800033830343E-01 
    5.3811766803128169E-01 
    5.0658027882327827E-01 
    4.7332916307406842E-01 
    4.3858639366369445E-01 
    4.0269988060673761E-01 
    3.6624375397442716E-01 
    3.3023616956512780E-01 
    2.9649267643215443E-01 
    2.6794583268418537E-01 
    2.4827346164749040E-01 
    2.3867416890792406E-01 
    6.5266853287433269E-01 
    6.4168644223528182E-01 
    6.2145071150585673E-01 
    5.9694353730648853E-01 
    5.6984324123802532E-01 
    5.4058776226783267E-01 
    5.0933577074236969E-01 
    4.7624938280387580E-01 
    4.4153939684885618E-01 
    4.0549743080241468E-01 
    3.6858967082873551E-01 
    3.3167601025389815E-01 
    2.9641928460354494E-01 
    2.6580038611953427E-01 
    2.4410011893172226E-01 
    2.3350724347658985E-01 
    6.4814868957426108E-01 
    6.3919659470115187E-01 
    6.2110389923927534E-01 
    5.9797270466309416E-01 
    5.7168742654275206E-01 
    5.4293676333246776E-01 
    5.1200928141661739E-01 
    4.7911307725544916E-01 
    4.4445248975513652E-01 
    4.0826299347554779E-01 
    3.7089418315235201E-01 
    3.3301837100792486E-01 
    2.9607999135951063E-01 
    2.6302096372609962E-01 
    2.3873355541660723E-01 
    2.2671179828178176E-01 
    6.4443967540495561E-01 
    6.3689813030402387E-01 
    6.2060976314032934E-01 
    5.9880949349229817E-01 
    5.7338136337642509E-01 
    5.4518142698895233E-01 
    5.1461301295833162E-01 
    4.8193420550997323E-01 
    4.4734821777140688E-01 
    4.1103526790905870E-01 
    3.7322183948069437E-01 
    3.3436382109311985E-01 
    2.9560726375365171E-01 
    2.5972204095008278E-01 
    2.3214949225075884E-01 
    2.1805263523787000E-01 
    6.4140721595582761E-01 
    6.3485996155704716E-01 
    6.2007474351404290E-01 
    5.9952147250011245E-01 
    5.7496111316806164E-01 
    5.4734246645855311E-01 
    5.1716146951721675E-01 
    4.8472607377804439E-01 
    4.5024466123588497E-01 
    4.1384612245064784E-01 
    3.7563205259389720E-01 
    3.3581755256755996E-01 
    2.9515880819096646E-01 
    2.5606330431616264E-01 
    2.2434885434454596E-01 
    2.0722952399021011E-01 
    6.3895360734898587E-01 
    6.3311895009883778E-01 
    6.1958148173835703E-01 
    6.0017209377048797E-01 
    5.7646539492487081E-01 
    5.4944352099755300E-01 
    5.1967127962419646E-01 
    4.8750265154717298E-01 
    4.5315743613966597E-01 
    4.1672058924858663E-01 
    3.7817515980384203E-01 
    3.3748308561665652E-01 
    2.9491642680393421E-01 
    2.5226600600796384E-01 
    2.1537945928911409E-01 
    1.9384029249076140E-01 
    6.3700630749272502E-01 
    6.3169447221925046E-01 
    6.1919465367123527E-01 
    6.0081992278354490E-01 
    5.7793532712564344E-01 
    5.5151275035129310E-01 
    5.2216244815673163E-01 
    4.9027966367136733E-01 
    4.5610230997481960E-01 
    4.1968016025628913E-01 
    3.8089286550686602E-01 
    3.3945776854796039E-01 
    2.9508347927493572E-01 
    2.4863133069024784E-01 
    2.0538312191454822E-01 
    1.7735908235114836E-01 
    6.3550898729546923E-01 
    6.3059615846049788E-01 
    6.1896668533773347E-01 
    6.0151983585761348E-01 
    5.7941462731464333E-01 
    5.5358358801599561E-01 
    5.2466028530647491E-01 
    4.9307605620586059E-01 
    4.5909682666961638E-01 
    4.2274560823934915E-01 
    3.8381923829861891E-01 
    3.4182758069400715E-01 
    2.9587946806693971E-01 
    2.4555486512901628E-01 
    1.9464746376482606E-01 
    1.5704472389573970E-01 
    6.3442412584038832E-01 
    6.2983482751961817E-01 
    6.1894583626904198E-01 
    6.0232727069141034E-01 
    5.8095101483654188E-01 
    5.5569481783592223E-01 
    5.2719581739703525E-01 
    4.9591461272483683E-01 
    4.6215965148238380E-01 
    4.2593514448351139E-01 
    3.8697724026652802E-01 
    3.4465535618839721E-01 
    2.9751780170393849E-01 
    2.4356158297888955E-01 
    1.8378214758887410E-01 
    1.3181995750835052E-01 
    6.3371994668152853E-01 
    6.2942330309554972E-01 
    6.1917912387583685E-01 
    6.0329757213065704E-01 
    5.8259192975578833E-01 
    5.5788336847582320E-01 
    5.2979784775651984E-01 
    4.9881130678693059E-01 
    4.6528793485565378E-01 
    4.2923047819515697E-01 
    3.9033815661889631E-01 
    3.4792161321162979E-01 
    3.0011208068596518E-01 
    2.4321942607191976E-01 
    1.7393254991842058E-01 
    1.0007279775791221E-01 
    6.3324319826526876E-01 
    6.2926085151283895E-01 
    6.1962313437319960E-01 
    6.0440813838590823E-01 
    5.8430477344257525E-01 
    5.6010289763799359E-01 
    5.3241741789817454E-01 
    5.0171906139081002E-01 
    4.6842107501870739E-01 
    4.3255292743473861E-01 
    3.9380249775939191E-01 
    3.5147025872112020E-01 
    3.0350986208552228E-01 
    2.4478946642412633E-01 
    1.6671172394637487E-01 
    5.8779894209741369E-02 
    6.3307248586447085E-01 
    6.2942202526445756E-01 
    6.2034653030045339E-01 
    6.0572022006556747E-01 
    5.8613981499524859E-01 
    5.6238668858455232E-01 
    5.3508386924972984E-01 
    5.0468904092906053E-01 
    4.7164030356160619E-01 
    4.3600685142280332E-01 
    3.9750031166181876E-01 
    3.5544847719141875E-01 
    3.0794591798932353E-01 
    2.4913799846341433E-01 
    1.6608272114750866E-01 
    0.0000000000000000E+00 

SCALARS Saturarion double 1 
LOOKUP_TABLE default 

    1.0000000000000007E+00 
    9.7628109771696026E-01 
    9.3305041851608106E-01 
    8.7560698784932300E-01 
    8.2740452615127003E-01 
    7.8508400146850177E-01 
    7.4839574098093442E-01 
    7.1665444634187658E-01 
    6.8873952973143304E-01 
    6.6347686901569514E-01 
    6.3966292081048759E-01 
    6.1590257431218332E-01 
    5.9011554546410450E-01 
    5.5909201470661207E-01 
    5.0215997324044215E-01 
    2.1425605284420962E-01 
    9.9104387143270356E-01 
    9.6858235742111853E-01 
    9.2328755422079689E-01 
    8.6858482337225262E-01 
    8.2207876871765995E-01 
    7.8140951488634591E-01 
    7.4580089865657573E-01 
    7.1460127262999862E-01 
    6.8702360608882473E-01 
    6.6207837787694668E-01 
    6.3880719328617419E-01 
    6.1593544663744149E-01 
    5.9128550080037445E-01 
    5.6123673802527063E-01 
    5.0734242854813227E-01 
    2.4491721989756540E-01 
    9.7690811721408266E-01 
    9.5445235977607223E-01 
    9.0899947663715197E-01 
    8.5613241333212520E-01 
    8.1163016566786961E-01 
    7.7370306970545999E-01 
    7.4035153804197740E-01 
    7.1038585359754103E-01 
    6.8336024815842322E-01 
    6.5876645726722483E-01 
    6.3606648803877630E-01 
    6.1427824980034418E-01 
    5.9148393737104510E-01 
    5.6372598753279601E-01 
    5.1415466557913536E-01 
    2.7293464398201034E-01 
    9.5223786957861667E-01 
    9.3333705033204750E-01 
    8.9158303137740835E-01 
    8.4284330539723562E-01 
    7.9916483656083048E-01 
    7.6258441790153819E-01 
    7.3112168328810123E-01 
    7.0317314729165659E-01 
    6.7771709013031689E-01 
    6.5442904010348557E-01 
    6.3276636170140610E-01 
    6.1208382029949349E-01 
    5.9094608358090417E-01 
    5.6576876471781490E-01 
    5.2082405414050303E-01 
    3.0000217902885440E-01 
    9.2210227864094918E-01 
    9.0548879457644371E-01 
    8.6834433653970688E-01 
    8.2446667509185845E-01 
    7.8307349826302231E-01 
    7.4758143601441751E-01 
    7.1760612498907728E-01 
    6.9164286809159392E-01 
    6.6854757186250979E-01 
    6.4759636779856844E-01 
    6.2821631667209821E-01 
    6.0954833922902241E-01 
    5.9018955897698833E-01 
    5.6726396506701537E-01 
    5.2699586108647534E-01 
    3.2183207533432678E-01 
    8.8855407052937219E-01 
    8.7475006474134931E-01 
    8.4250541428317893E-01 
    8.0295760019284768E-01 
    7.6484095238691907E-01 
    7.3119847145649386E-01 
    7.0217383577480341E-01 
    6.7744395333339058E-01 
    6.5618817522983008E-01 
    6.3757373607915913E-01 
    6.2089851234246318E-01 
    6.0533478642258132E-01 
    5.8894662606155435E-01 
    5.6842895005067273E-01 
    5.3249216835120627E-01 
    3.4130790749507184E-01 
    8.5237584869953897E-01 
    8.4194608005792737E-01 
    8.1494947497906545E-01 
    7.7987402470408307E-01 
    7.4530982362172660E-01 
    7.1411831017183691E-01 
    6.8678001562392010E-01 
    6.6291378657760613E-01 
    6.4256486057923112E-01 
    6.2545084619528246E-01 
    6.1109478835499476E-01 
    5.9862784643871259E-01 
    5.8618854724493119E-01 
    5.6933172922343145E-01 
    5.3745861860409783E-01 
    3.6025891490133999E-01 
    8.1338457877610004E-01 
    8.0676682529434696E-01 
    7.8575978661448354E-01 
    7.5568526018180004E-01 
    7.2437661840848666E-01 
    6.9549684299101644E-01 
    6.6976621908438150E-01 
    6.4735338288741229E-01 
    6.2809167466249216E-01 
    6.1206345313158317E-01 
    5.9924161105667206E-01 
    5.8945248152634477E-01 
    5.8109145439520093E-01 
    5.6929067810702472E-01 
    5.4237353082924766E-01 
    3.7931759192324843E-01 
    7.7178934942889832E-01 
    7.6886048227907766E-01 
    7.5367325981988287E-01 
    7.2892381520408134E-01 
    7.0139867328747740E-01 
    6.7488397689390245E-01 
    6.5095077720565597E-01 
    6.2984531432242952E-01 
    6.1162485256856647E-01 
    5.9646209778905035E-01 
    5.8489759002064678E-01 
    5.7740232085269183E-01 
    5.7315164659218643E-01 
    5.6731040108525266E-01 
    5.4652016336112730E-01 
    3.9723365824754553E-01 
    7.2760469311798570E-01 
    7.2811091912531178E-01 
    7.1833324694378853E-01 
    6.9862066242477405E-01 
    6.7516141955410347E-01 
    6.5157986538306989E-01 
    6.2956802910857801E-01 
    6.1008861688401983E-01 
    5.9315753296953222E-01 
    5.7885380643824713E-01 
    5.6789685073200991E-01 
    5.6186166045616504E-01 
    5.6144799338960405E-01 
    5.6245342359117056E-01 
    5.4952555029977979E-01 
    4.1472670206254675E-01 
    6.8047302161657908E-01 
    6.8414965388066651E-01 
    6.7938132131539763E-01 
    6.6434619071450796E-01 
    6.4500904453441521E-01 
    6.2495323026471805E-01 
    6.0589410828873524E-01 
    5.8827633225250486E-01 
    5.7273281483437444E-01 
    5.5963022958080877E-01 
    5.4953902597248794E-01 
    5.4387996291842133E-01 
    5.4536654685025410E-01 
    5.5330989115131124E-01 
    5.5023014511955304E-01 
    4.3234333399893093E-01 
    6.2924709715900662E-01 
    6.3590388884698112E-01 
    6.3621547157412084E-01 
    6.2599685859291998E-01 
    6.1068022308093495E-01 
    5.9408513452454415E-01 
    5.7800376824923849E-01 
    5.6312233129690292E-01 
    5.4974930747677697E-01 
    5.3850652385098963E-01 
    5.2989488854445643E-01 
    5.2500220968383715E-01 
    5.2648678209723099E-01 
    5.3847901595823866E-01 
    5.4557792013211415E-01 
    4.4897173043422905E-01 
    5.7623161767496667E-01 
    5.8466033528301597E-01 
    5.8903648540101372E-01 
    5.8372936594688296E-01 
    5.7293933021827070E-01 
    5.5976984831307464E-01 
    5.4666033203537245E-01 
    5.3419012080436945E-01 
    5.2275802435462726E-01 
    5.1267345096867023E-01 
    5.0526358350041611E-01 
    5.0204845518480068E-01 
    5.0497405640511195E-01 
    5.1836198799287414E-01 
    5.3738068830599439E-01 
    4.6311124194306952E-01 
    5.1427503928263241E-01 
    5.2758619094382486E-01 
    5.3540105029770613E-01 
    5.3522756139986782E-01 
    5.2713606742427266E-01 
    5.1581337220305334E-01 
    5.0282122301837262E-01 
    4.9125911796524696E-01 
    4.7782747464679470E-01 
    4.5894025741501049E-01 
    4.4461637718962332E-01 
    4.4049436799998004E-01 
    4.4884016937234805E-01 
    4.8115649121354453E-01 
    5.2100121484954121E-01 
    4.7295831480332856E-01 
    2.6688823115689397E-01 
    3.4728082462721177E-01 
    3.9000793150676100E-01 
    3.9854549560423480E-01 
    3.8301132608893818E-01 
    3.4679800596787980E-01 
    2.9697699730304467E-01 
    2.4635378877379005E-01 
    2.2095460329635791E-01 
    1.6907202737015706E-01 
    1.3833415045039468E-01 
    1.2050383819695902E-01 
    1.5585207085824612E-01 
    2.9896611155825242E-01 
    4.6041304844944364E-01 
    4.7396946616434071E-01 
    1.8969196243542695E-04 
    1.1753358906933123E-02 
    2.5023143063878445E-02 
    2.4930101763636331E-02 
    2.0373105377258525E-02 
    4.9857059456216626E-03 
    2.5609269437471007E-03 
    1.2044901181263614E-04 
    2.1258668468747402E-04 
    1.3267448673619827E-05 
    1.7011356939060388E-05 
    1.2881729374451543E-05 
    2.6742992267338324E-04 
    8.6243980278662188E-02 
    2.8727618803166916E-01 
    4.2376678814809304E-01 
