# vtk DataFile Version 2.0
Pressure Field Data 
ASCII 
DATASET UNSTRUCTURED_GRID 

POINTS 289 double 

    0.0000000000000000E+00     0.0000000000000000E+00     0.0000000000000000E+00 
    1.0000000000000000E+00     0.0000000000000000E+00     0.0000000000000000E+00 
    1.0000000000000000E+00     1.0000000000000000E+00     0.0000000000000000E+00 
    0.0000000000000000E+00     1.0000000000000000E+00     0.0000000000000000E+00 
    6.2499999999872928E-02     0.0000000000000000E+00     0.0000000000000000E+00 
    1.2499999999977310E-01     0.0000000000000000E+00     0.0000000000000000E+00 
    1.8749999999959341E-01     0.0000000000000000E+00     0.0000000000000000E+00 
    2.4999999999941089E-01     0.0000000000000000E+00     0.0000000000000000E+00 
    3.1249999999922851E-01     0.0000000000000000E+00     0.0000000000000000E+00 
    3.7499999999904610E-01     0.0000000000000000E+00     0.0000000000000000E+00 
    4.3749999999886358E-01     0.0000000000000000E+00     0.0000000000000000E+00 
    4.9999999999869210E-01     0.0000000000000000E+00     0.0000000000000000E+00 
    5.6249999999884603E-01     0.0000000000000000E+00     0.0000000000000000E+00 
    6.2499999999901090E-01     0.0000000000000000E+00     0.0000000000000000E+00 
    6.8749999999917577E-01     0.0000000000000000E+00     0.0000000000000000E+00 
    7.4999999999934064E-01     0.0000000000000000E+00     0.0000000000000000E+00 
    8.1249999999950551E-01     0.0000000000000000E+00     0.0000000000000000E+00 
    8.7499999999967026E-01     0.0000000000000000E+00     0.0000000000000000E+00 
    9.3749999999983513E-01     0.0000000000000000E+00     0.0000000000000000E+00 
    1.0000000000000000E+00     6.2499999999872928E-02     0.0000000000000000E+00 
    1.0000000000000000E+00     1.2499999999977310E-01     0.0000000000000000E+00 
    1.0000000000000000E+00     1.8749999999959341E-01     0.0000000000000000E+00 
    1.0000000000000000E+00     2.4999999999941089E-01     0.0000000000000000E+00 
    1.0000000000000000E+00     3.1249999999922851E-01     0.0000000000000000E+00 
    1.0000000000000000E+00     3.7499999999904610E-01     0.0000000000000000E+00 
    1.0000000000000000E+00     4.3749999999886358E-01     0.0000000000000000E+00 
    1.0000000000000000E+00     4.9999999999869210E-01     0.0000000000000000E+00 
    1.0000000000000000E+00     5.6249999999884603E-01     0.0000000000000000E+00 
    1.0000000000000000E+00     6.2499999999901090E-01     0.0000000000000000E+00 
    1.0000000000000000E+00     6.8749999999917577E-01     0.0000000000000000E+00 
    1.0000000000000000E+00     7.4999999999934064E-01     0.0000000000000000E+00 
    1.0000000000000000E+00     8.1249999999950551E-01     0.0000000000000000E+00 
    1.0000000000000000E+00     8.7499999999967026E-01     0.0000000000000000E+00 
    1.0000000000000000E+00     9.3749999999983513E-01     0.0000000000000000E+00 
    9.3749999999973976E-01     1.0000000000000000E+00     0.0000000000000000E+00 
    8.7499999999950118E-01     1.0000000000000000E+00     0.0000000000000000E+00 
    8.1249999999991318E-01     1.0000000000000000E+00     0.0000000000000000E+00 
    7.5000000000034706E-01     1.0000000000000000E+00     0.0000000000000000E+00 
    6.8750000000078049E-01     1.0000000000000000E+00     0.0000000000000000E+00 
    6.2500000000121403E-01     1.0000000000000000E+00     0.0000000000000000E+00 
    5.6250000000164757E-01     1.0000000000000000E+00     0.0000000000000000E+00 
    5.0000000000205946E-01     1.0000000000000000E+00     0.0000000000000000E+00 
    4.3750000000182099E-01     1.0000000000000000E+00     0.0000000000000000E+00 
    3.7500000000156092E-01     1.0000000000000000E+00     0.0000000000000000E+00 
    3.1250000000130068E-01     1.0000000000000000E+00     0.0000000000000000E+00 
    2.5000000000104050E-01     1.0000000000000000E+00     0.0000000000000000E+00 
    1.8750000000078040E-01     1.0000000000000000E+00     0.0000000000000000E+00 
    1.2500000000052031E-01     1.0000000000000000E+00     0.0000000000000000E+00 
    6.2500000000260125E-02     1.0000000000000000E+00     0.0000000000000000E+00 
    0.0000000000000000E+00     9.3749999999973976E-01     0.0000000000000000E+00 
    0.0000000000000000E+00     8.7499999999950118E-01     0.0000000000000000E+00 
    0.0000000000000000E+00     8.1249999999991318E-01     0.0000000000000000E+00 
    0.0000000000000000E+00     7.5000000000034706E-01     0.0000000000000000E+00 
    0.0000000000000000E+00     6.8750000000078049E-01     0.0000000000000000E+00 
    0.0000000000000000E+00     6.2500000000121403E-01     0.0000000000000000E+00 
    0.0000000000000000E+00     5.6250000000164757E-01     0.0000000000000000E+00 
    0.0000000000000000E+00     5.0000000000205946E-01     0.0000000000000000E+00 
    0.0000000000000000E+00     4.3750000000182099E-01     0.0000000000000000E+00 
    0.0000000000000000E+00     3.7500000000156092E-01     0.0000000000000000E+00 
    0.0000000000000000E+00     3.1250000000130068E-01     0.0000000000000000E+00 
    0.0000000000000000E+00     2.5000000000104050E-01     0.0000000000000000E+00 
    0.0000000000000000E+00     1.8750000000078040E-01     0.0000000000000000E+00 
    0.0000000000000000E+00     1.2500000000052031E-01     0.0000000000000000E+00 
    0.0000000000000000E+00     6.2500000000260125E-02     0.0000000000000000E+00 
    6.2499999999897131E-02     6.2500000000235922E-02     0.0000000000000000E+00 
    6.2499999999921327E-02     1.2500000000047351E-01     0.0000000000000000E+00 
    6.2499999999945530E-02     1.8750000000070621E-01     0.0000000000000000E+00 
    6.2499999999969733E-02     2.5000000000093858E-01     0.0000000000000000E+00 
    6.2499999999993928E-02     3.1250000000117117E-01     0.0000000000000000E+00 
    6.2500000000018124E-02     3.7500000000140382E-01     0.0000000000000000E+00 
    6.2500000000042327E-02     4.3750000000163619E-01     0.0000000000000000E+00 
    6.2500000000066530E-02     5.0000000000184897E-01     0.0000000000000000E+00 
    6.2500000000090733E-02     5.6250000000147260E-01     0.0000000000000000E+00 
    6.2500000000114922E-02     6.2500000000107636E-01     0.0000000000000000E+00 
    6.2500000000139125E-02     6.8750000000068034E-01     0.0000000000000000E+00 
    6.2500000000163328E-02     7.5000000000028411E-01     0.0000000000000000E+00 
    6.2500000000187531E-02     8.1249999999988787E-01     0.0000000000000000E+00 
    6.2500000000211720E-02     8.7499999999951172E-01     0.0000000000000000E+00 
    6.2500000000235922E-02     9.3749999999974565E-01     0.0000000000000000E+00 
    1.2499999999981980E-01     6.2500000000211733E-02     0.0000000000000000E+00 
    1.2499999999986650E-01     1.2500000000042691E-01     0.0000000000000000E+00 
    1.2499999999991319E-01     1.8750000000063199E-01     0.0000000000000000E+00 
    1.2499999999995989E-01     2.5000000000083678E-01     0.0000000000000000E+00 
    1.2500000000000661E-01     3.1250000000104172E-01     0.0000000000000000E+00 
    1.2500000000005329E-01     3.7500000000124661E-01     0.0000000000000000E+00 
    1.2500000000010000E-01     4.3750000000145117E-01     0.0000000000000000E+00 
    1.2500000000014669E-01     5.0000000000163858E-01     0.0000000000000000E+00 
    1.2500000000019340E-01     5.6250000000129741E-01     0.0000000000000000E+00 
    1.2500000000024011E-01     6.2500000000093847E-01     0.0000000000000000E+00 
    1.2500000000028680E-01     6.8750000000057998E-01     0.0000000000000000E+00 
    1.2500000000033351E-01     7.5000000000022127E-01     0.0000000000000000E+00 
    1.2500000000038020E-01     8.1249999999986211E-01     0.0000000000000000E+00 
    1.2500000000042691E-01     8.7499999999952238E-01     0.0000000000000000E+00 
    1.2500000000047359E-01     9.3749999999975164E-01     0.0000000000000000E+00 
    1.8749999999966760E-01     6.2500000000187531E-02     0.0000000000000000E+00 
    1.8749999999974179E-01     1.2500000000038020E-01     0.0000000000000000E+00 
    1.8749999999981601E-01     1.8750000000055780E-01     0.0000000000000000E+00 
    1.8749999999989009E-01     2.5000000000073502E-01     0.0000000000000000E+00 
    1.8749999999996431E-01     3.1250000000091221E-01     0.0000000000000000E+00 
    1.8750000000003850E-01     3.7500000000108941E-01     0.0000000000000000E+00 
    1.8750000000011269E-01     4.3750000000126649E-01     0.0000000000000000E+00 
    1.8750000000018691E-01     5.0000000000142808E-01     0.0000000000000000E+00 
    1.8750000000026110E-01     5.6250000000112244E-01     0.0000000000000000E+00 
    1.8750000000033529E-01     6.2500000000080080E-01     0.0000000000000000E+00 
    1.8750000000040951E-01     6.8750000000047962E-01     0.0000000000000000E+00 
    1.8750000000048361E-01     7.5000000000015843E-01     0.0000000000000000E+00 
    1.8750000000055780E-01     8.1249999999983680E-01     0.0000000000000000E+00 
    1.8750000000063199E-01     8.7499999999953304E-01     0.0000000000000000E+00 
    1.8750000000070621E-01     9.3749999999975764E-01     0.0000000000000000E+00 
    2.4999999999951281E-01     6.2500000000163314E-02     0.0000000000000000E+00 
    2.4999999999961461E-01     1.2500000000033351E-01     0.0000000000000000E+00 
    2.4999999999971650E-01     1.8750000000048361E-01     0.0000000000000000E+00 
    2.4999999999981831E-01     2.5000000000063310E-01     0.0000000000000000E+00 
    2.4999999999992020E-01     3.1250000000078260E-01     0.0000000000000000E+00 
    2.5000000000002198E-01     3.7500000000093209E-01     0.0000000000000000E+00 
    2.5000000000012390E-01     4.3750000000108180E-01     0.0000000000000000E+00 
    2.5000000000022571E-01     5.0000000000121769E-01     0.0000000000000000E+00 
    2.5000000000032763E-01     5.6250000000094724E-01     0.0000000000000000E+00 
    2.5000000000042938E-01     6.2500000000066314E-01     0.0000000000000000E+00 
    2.5000000000053119E-01     6.8750000000037925E-01     0.0000000000000000E+00 
[...]
CELL_DATA 256 
SCALARS Pressure double 1 
LOOKUP_TABLE default 

    6.3606700121957527E-01 
    5.8683653084970455E-01 
    5.5602379435382554E-01 
    5.2855786819338835E-01 
    5.0096710815653944E-01 
    4.7236225891775052E-01 
    4.4248279582723660E-01 
    4.1139429530512461E-01 
    3.7936459296419345E-01 
    3.4687263916313410E-01 
    3.1470391873078080E-01 
    2.8411986972499925E-01 
    2.5697990856634212E-01 
    2.3557039639417618E-01 
    2.2187782373675438E-01 
    2.1538760059266823E-01 
    6.2206491484018700E-01 
    5.8804651058510948E-01 
    5.5830506653397283E-01 
    5.3104227144816241E-01 
    5.0361865589709898E-01 
    4.7517018073721390E-01 
    4.4542961028237249E-01 
    4.1444484704642587E-01 
    3.8245938478881497E-01 
    3.4991688691333772E-01 
    3.1755264823183138E-01 
    2.8656646007655495E-01 
    2.5877786095238792E-01 
    2.3652312381890067E-01 
    2.2201328136061849E-01 
    2.1501712295356318E-01 
    6.1132434963334215E-01 
    5.8713951017785726E-01 
    5.5985413635754933E-01 
    5.3321300672760541E-01 
    5.0609335444190340E-01 
    4.7785489329922082E-01 
    4.4827414066411475E-01 
    4.1739554458134415E-01 
    3.8543811298622266E-01 
    3.5280314781498773E-01 
    3.2016446602721049E-01 
    2.8864737210018776E-01 
    2.6002873849325719E-01 
    2.3672851192634481E-01 
    2.2126878553541673E-01 
    2.1381690170260936E-01 
    6.0291097939463578E-01 
    5.8517833827095223E-01 
    5.6071477181768115E-01 
    5.3504723427071665E-01 
    5.0838105746806672E-01 
    4.8041781406649464E-01 
    4.5102443386603513E-01 
    4.2025912579092611E-01 
    3.8832014346530724E-01 
    3.5556154316421601E-01 
    3.2258420599392346E-01 
    2.9042176777125511E-01 
    2.6079281409099603E-01 
    2.3621503125969215E-01 
    2.1960374692535783E-01 
    2.1166272102917055E-01 
    5.9619028646904926E-01 
    5.8276045424965606E-01 
    5.6102244283547265E-01 
    5.3655486622180282E-01 
    5.1047787847747350E-01 
    4.8285939932016403E-01 
    4.5368749477481779E-01 
    4.2304907142112214E-01 
    3.9112692746498490E-01 
    3.5822524697969760E-01 
    3.2486081484826529E-01 
    2.9195497457151559E-01 
    2.6113920527817774E-01 
    2.3501838044432716E-01 
    2.1697288205528653E-01 
    2.0842139951450661E-01 
    5.9075403419045869E-01 
    5.8022910472557387E-01 
    5.6092851645708230E-01 
    5.3776975276358607E-01 
    5.1238843126424838E-01 
    4.8518041175144094E-01 
    4.5626836438569651E-01 
    4.2577758914441399E-01 
    3.9388012795344496E-01 
    3.6082930725235629E-01 
    3.2704730273667199E-01 
    2.9331974632291180E-01 
    2.6114870942632828E-01 
    2.3318674651338414E-01 
    2.1332818324558278E-01 
    2.0393598695839821E-01 
    5.8632877066112066E-01 
    5.7778726001417979E-01 
    5.6057768415561327E-01 
    5.3874364396381014E-01 
    5.1413003018278458E-01 
    4.8738839775898801E-01 
    4.5877349687443880E-01 
    4.2845578786068517E-01 
    3.9660019602275032E-01 
    3.6340849910887002E-01 
    3.2919968704841363E-01 
    2.9459744153660666E-01 
    2.6091806771947484E-01 
    2.3078889102283096E-01 
    2.0862879267261425E-01 
    1.9802749272325118E-01 
    5.8272254980499993E-01 
    5.7555187581678680E-01 
    5.6009518324854024E-01 
    5.3953806109235924E-01 
    5.1573061081876770E-01 
    4.8949805834190102E-01 
    4.6121291791606289E-01 
    4.3109444052778301E-01 
    3.9930477468670933E-01 
    3.6599464215227978E-01 
    3.3137352999919062E-01 
    2.9587724693320872E-01 
    2.6056495218701842E-01 
    2.2792397541267245E-01 
    2.0285005328486580E-01 
    1.9048592245545257E-01 
    5.7979523562182600E-01 
    5.7358567179111597E-01 
    5.5958225992912825E-01 
    5.4021673561882233E-01 
    5.1722347826422099E-01 
    4.9152772844397952E-01 
    4.6359884048339994E-01 
    4.3370470310266296E-01 
    4.0200925131767912E-01 
    3.6861485503042751E-01 
    3.3361948389684981E-01 
    2.9725091900679579E-01 
    2.6022936733683394E-01 
    2.2473282600362435E-01 
    1.9598980830690604E-01 
    1.8104405199895166E-01 
    5.7744408197974539E-01 
    5.7192028402794903E-01 
    5.5911736492955899E-01 
    5.4083981489466926E-01 
    5.1864432531309057E-01 
    4.9349776325751304E-01 
    4.6594469073269446E-01 
    4.3629838558948614E-01 
    4.0472808549821682E-01 
    3.7129231903363819E-01 
    3.3598137816155338E-01 
    2.9880744863110931E-01 
    2.6007102156112655E-01 
    2.2141114213078580E-01 
    1.8808710178398286E-01 
    1.6934724903421208E-01 
    5.7559261821716745E-01 
    5.7057089225275570E-01 
    5.5876157990220165E-01 
    5.4146254394684923E-01 
    5.2003047819604564E-01 
    4.9543160848128354E-01 
    4.6826571795555960E-01 
    4.3888803238325774E-01 
    4.0747578192784600E-01 
    3.7404809643574333E-01 
    3.3849668319473841E-01 
    3.0062959388453159E-01 
    2.6026578727759753E-01 
    2.1821857021755939E-01 
    1.7925300602254796E-01 
    1.5492406520637192E-01 
    5.7418059861093651E-01 
    5.6954317599891979E-01 
    5.5856358289648744E-01 
    5.4213569407648321E-01 
    5.2142036008039283E-01 
    4.9735575724626485E-01 
    4.7058002840063512E-01 
    4.4148739600153381E-01 
    4.1026684885436532E-01 
    3.7690179989122657E-01 
    3.4119623869895727E-01 
    3.0278961718528380E-01 
    2.6099998591710927E-01 
    2.1550919905236984E-01 
    1.6975862891343024E-01 
    1.3712160592759742E-01 
    5.7315999911835913E-01 
    5.6883842476229818E-01 
    5.5856350162763146E-01 
    5.4290681384146211E-01 
    5.2285354613359913E-01 
    4.9929973154188634E-01 
    4.7290914466084649E-01 
    4.4411231632076709E-01 
    4.1311613844159245E-01 
    3.7987226048920408E-01 
    3.4410416196752447E-01 
    3.0534315329239575E-01 
    2.6245440001792264E-01 
    2.1374731829936125E-01 
    1.6016404751925334E-01 
    1.1500072689382503E-01 
    5.7250085637553849E-01 
    5.6846726990428276E-01 
    5.5880440189151004E-01 
    5.4382712702730329E-01 
    5.2437503488908876E-01 
    5.0129791032312176E-01 
    4.7527770618683240E-01 
    4.4677816130429976E-01 
    4.1603555134882708E-01 
    3.8297506773935641E-01 
    3.4723311381335914E-01 
    3.0831780911104356E-01 
    2.6477471621512405E-01 
    2.1347360901456203E-01 
    1.5148915113361675E-01 
    8.7103987857366838E-02 
    5.7212613725082384E-01 
    5.6839840803389563E-01 
    5.5929783668746225E-01 
    5.4492530577654674E-01 
    5.2601098167807991E-01 
    5.0336286300654032E-01 
    4.7768333482831260E-01 
    4.4946492331058230E-01 
    4.1897591467796852E-01 
    3.8614598140542805E-01 
    3.5051665481590161E-01 
    3.1163212967807957E-01 
    2.6793232541463863E-01 
    2.1508238132340635E-01 
    1.4548488100177234E-01 
    5.1062886963402658E-02 
    5.7200059840488771E-01 
    5.6860019937094675E-01 
    5.6002557137901110E-01 
    5.4619903770692135E-01 
    5.2776701725666808E-01 
    5.0550594629390255E-01 
    4.8013632149101804E-01 
    4.5218214145670738E-01 
    4.2192633093913845E-01 
    3.8935567096528889E-01 
    3.5397025011102168E-01 
    3.1533838221392241E-01 
    2.7197502255524919E-01 
    2.1884263726410802E-01 
    1.4499479139607527E-01 
    0.0000000000000000E+00 

SCALARS Saturarion double 1 
LOOKUP_TABLE default 

    1.0000000000000002E+00 
    9.8005653050509201E-01 
    9.4329064251846662E-01 
    8.9142498715783891E-01 
    8.4820861938718983E-01 
    8.0994093987993621E-01 
    7.7609283538581897E-01 
    7.4624385370332436E-01 
    7.1962787052061838E-01 
    6.9537531905672190E-01 
    6.7255674478740413E-01 
    6.5002684425087986E-01 
    6.2593295931497928E-01 
    5.9657207496698195E-01 
    5.5369609858979196E-01 
    3.5578151288165533E-01 
    9.9274346306777184E-01 
    9.7390089549105641E-01 
    9.3529232474782231E-01 
    8.8577081925190981E-01 
    8.4338158879981684E-01 
    8.0619650878772275E-01 
    7.7331834651224407E-01 
    7.4414332603189781E-01 
    7.1803801997901606E-01 
    6.9420720632789568E-01 
    6.7190357361330100E-01 
    6.5011879127475725E-01 
    6.2701574475451438E-01 
    5.9865544742321597E-01 
    5.5714332327830451E-01 
    3.7379463779333411E-01 
    9.8124469602053854E-01 
    9.6223648968414621E-01 
    9.2327872730837868E-01 
    8.7524876644608907E-01 
    8.3377953873009159E-01 
    7.9841035123609816E-01 
    7.6751775103193154E-01 
    7.3980101556493094E-01 
    7.1464815687738548E-01 
    6.9149348950290390E-01 
    6.6982435026548726E-01 
    6.4886205677868791E-01 
    6.2717849184676389E-01 
    6.0099745451471720E-01 
    5.6216243552053480E-01 
    3.9081673726220628E-01 
    9.6121244095044256E-01 
    9.4512971161414994E-01 
    9.0836506786501980E-01 
    8.6415250475932415E-01 
    8.2340052497986671E-01 
    7.8865004786228099E-01 
    7.5877481842801353E-01 
    7.3252934641819245E-01 
    7.0884077721888628E-01 
    6.8715409378314019E-01 
    6.6677597050231940E-01 
    6.4700548027706561E-01 
    6.2667843362955011E-01 
    6.0278755256717576E-01 
    5.6710571025979495E-01 
    4.0759382880813971E-01 
    9.3630513192481657E-01 
    9.2173904112009897E-01 
    8.8841325193208509E-01 
    8.4849209386515057E-01 
    8.0968489345493155E-01 
    7.7552446590170199E-01 
    7.4636682005345800E-01 
    7.2126892507740004E-01 
    6.9927228319855417E-01 
    6.7959914305105329E-01 
    6.6156444188867158E-01 
    6.4416031353593539E-01 
    6.2584585211791910E-01 
    6.0404220891233418E-01 
    5.7149057835694905E-01 
    4.2194202874986647E-01 
    9.0747875991708449E-01 
    8.9510498649126502E-01 
    8.6588424607950132E-01 
    8.2938366372666561E-01 
    7.9323079193983603E-01 
    7.6064394144326630E-01 
    7.3223504617562230E-01 
    7.0792073636107944E-01 
    6.8705972057301845E-01 
    6.6900209666106669E-01 
    6.5322670498737834E-01 
    6.3897007586360444E-01 
    6.2407908227659503E-01 
    6.0495597439877358E-01 
    5.7519980838373608E-01 
    4.3513666022010827E-01 
    8.7564945885911794E-01 
    8.6612957621709041E-01 
    8.4126370884114987E-01 
    8.0833773405176201E-01 
    7.7519082719587973E-01 
    7.4487179808288961E-01 
    7.1808255406154131E-01 
    6.9450816507022439E-01 
    6.7419886554122122E-01 
    6.5703373763851769E-01 
    6.4285326510725049E-01 
    6.3119944278613405E-01 
    6.2036005735432487E-01 
    6.0539344993026867E-01 
    5.7878264659995249E-01 
    4.4820418265697959E-01 
    8.4070426715144275E-01 
    8.3445731821090663E-01 
    8.1463933475838368E-01 
    7.8596507963422169E-01 
    7.5573843307238076E-01 
    7.2758803833879315E-01 
    7.0228448917312969E-01 
    6.8000633501038055E-01 
    6.6065291534194792E-01 
    6.4436237367878713E-01 
    6.3121670892419168E-01 
    6.2145397293517546E-01 
    6.1419490140300448E-01 
    6.0456546715292592E-01 
    5.8238783048535281E-01 
    4.6145765558977481E-01 
    8.0262588850569938E-01 
    7.9968966393198948E-01 
    7.8499902001897925E-01 
    7.6103544431653392E-01 
    7.3424448992616786E-01 
    7.0823056927899297E-01 
    6.8451051620656389E-01 
    6.6341749288964480E-01 
    6.4511138409890356E-01 
    6.2974404228696335E-01 
    6.1772745050333866E-01 
    6.0961329797795627E-01 
    6.0547242132241197E-01 
    6.0155166566119778E-01 
    5.8545281636545432E-01 
    4.7425343852359891E-01 
    7.6144162017025430E-01 
    7.6171172248709529E-01 
    7.5197786196831240E-01 
    7.3259716083222992E-01 
    7.0949126061902146E-01 
    6.8606364487834526E-01 
    6.6395091194544864E-01 
    6.4428161548339802E-01 
    6.2729483280860410E-01 
    6.1303516498640953E-01 
    6.0188042537893727E-01 
    5.9505456712422855E-01 
    5.9369680424416860E-01 
    5.9559822484343528E-01 
    5.8704413799097366E-01 
    4.8702961141595674E-01 
    7.1684952507356614E-01 
    7.2017017141592743E-01 
    7.1516721884705481E-01 
    7.0010972734417065E-01 
    6.8073030867410478E-01 
    6.6039000549072235E-01 
    6.4079472920359926E-01 
    6.2267482275418751E-01 
    6.0694276516970180E-01 
    5.9394343353584045E-01 
    5.8394234192309724E-01 
    5.7790680736349398E-01 
    5.7825111444396260E-01 
    5.8568417052661959E-01 
    5.8469850499453491E-01 
    5.0034544244074552E-01 
    6.6743416489710894E-01 
    6.7379479311514168E-01 
    6.7371608626825263E-01 
    6.6311916780491653E-01 
    6.4724639800293948E-01 
    6.2976341380421863E-01 
    6.1260872549388157E-01 
    5.9687579803558888E-01 
    5.8305231395364143E-01 
    5.7163525677738525E-01 
    5.6304889691516757E-01 
    5.5830170419314651E-01 
    5.5955173603824426E-01 
    5.7065681810044155E-01 
    5.8087987387919460E-01 
    5.1217643786833067E-01 
    6.1231409554188798E-01 
    6.2127501673289620E-01 
    6.2574114204741060E-01 
    6.1977005292092147E-01 
    6.0808233090580444E-01 
    5.9397375961491838E-01 
    5.7989278003911959E-01 
    5.6645399304603572E-01 
    5.5436343213726846E-01 
    5.4444454771404649E-01 
    5.3768233267183696E-01 
    5.3461411333026021E-01 
    5.3731349713130883E-01 
    5.5031291007904992E-01 
    5.7266359448977577E-01 
    5.2189152194349042E-01 
    5.5505469613338954E-01 
    5.6537241635582036E-01 
    5.7306923196643689E-01 
    5.7137453169396946E-01 
    5.6385326345250353E-01 
    5.5308909172945575E-01 
    5.4123171556126692E-01 
    5.2940223898446970E-01 
    5.1744330219854617E-01 
    5.0796510087827307E-01 
    5.0193933745967578E-01 
    5.0011358494132541E-01 
    5.0572335725655071E-01 
    5.2327091498128175E-01 
    5.5570390701295103E-01 
    5.2743670347193161E-01 
    4.2737942545658486E-01 
    4.5358909215154963E-01 
    4.7458539151083123E-01 
    4.8158177572723332E-01 
    4.7824861419821479E-01 
    4.6727763956644097E-01 
    4.5105489719609781E-01 
    4.3190396021869082E-01 
    4.0756606591074568E-01 
    3.6188349591218794E-01 
    3.2349227764309374E-01 
    3.4248544406769743E-01 
    3.7487497995242941E-01 
    4.3437123731063654E-01 
    5.1734506328706253E-01 
    5.2786013882122562E-01 
    3.6923445421508869E-02 
    1.0024617399238367E-01 
    1.2224975400720053E-01 
    1.4829290059847158E-01 
    1.1069930450618183E-01 
    1.0686655806136917E-01 
    6.3119089908111103E-02 
    4.7728520838127231E-02 
    2.1295773937198614E-02 
    6.4405162147230643E-03 
    6.9576415576176271E-03 
    9.7859218419686349E-03 
    3.6458764464422672E-02 
    1.9014790919641020E-01 
    3.4831365699528005E-01 
    4.7743398548950972E-01 
