# vtk DataFile Version 2.0
Pressure Field Data 
ASCII 
DATASET UNSTRUCTURED_GRID 

POINTS 289 double 

    0.0000000000000000E+00     0.0000000000000000E+00     0.0000000000000000E+00 
    1.0000000000000000E+00     0.0000000000000000E+00     0.0000000000000000E+00 
    1.0000000000000000E+00     1.0000000000000000E+00     0.0000000000000000E+00 
    0.0000000000000000E+00     1.0000000000000000E+00     0.0000000000000000E+00 
    6.2499999999872928E-02     0.0000000000000000E+00     0.0000000000000000E+00 
    1.2499999999977310E-01     0.0000000000000000E+00     0.0000000000000000E+00 
    1.8749999999959341E-01     0.0000000000000000E+00     0.0000000000000000E+00 
    2.4999999999941089E-01     0.0000000000000000E+00     0.0000000000000000E+00 
    3.1249999999922851E-01     0.0000000000000000E+00     0.0000000000000000E+00 
    3.7499999999904610E-01     0.0000000000000000E+00     0.0000000000000000E+00 
    4.3749999999886358E-01     0.0000000000000000E+00     0.0000000000000000E+00 
    4.9999999999869210E-01     0.0000000000000000E+00     0.0000000000000000E+00 
    5.6249999999884603E-01     0.0000000000000000E+00     0.0000000000000000E+00 
    6.2499999999901090E-01     0.0000000000000000E+00     0.0000000000000000E+00 
    6.8749999999917577E-01     0.0000000000000000E+00     0.0000000000000000E+00 
    7.4999999999934064E-01     0.0000000000000000E+00     0.0000000000000000E+00 
    8.1249999999950551E-01     0.0000000000000000E+00     0.0000000000000000E+00 
    8.7499999999967026E-01     0.0000000000000000E+00     0.0000000000000000E+00 
    9.3749999999983513E-01     0.0000000000000000E+00     0.0000000000000000E+00 
    1.0000000000000000E+00     6.2499999999872928E-02     0.0000000000000000E+00 
    1.0000000000000000E+00     1.2499999999977310E-01     0.0000000000000000E+00 
    1.0000000000000000E+00     1.8749999999959341E-01     0.0000000000000000E+00 
    1.0000000000000000E+00     2.4999999999941089E-01     0.0000000000000000E+00 
    1.0000000000000000E+00     3.1249999999922851E-01     0.0000000000000000E+00 
    1.0000000000000000E+00     3.7499999999904610E-01     0.0000000000000000E+00 
    1.0000000000000000E+00     4.3749999999886358E-01     0.0000000000000000E+00 
    1.0000000000000000E+00     4.9999999999869210E-01     0.0000000000000000E+00 
    1.0000000000000000E+00     5.6249999999884603E-01     0.0000000000000000E+00 
    1.0000000000000000E+00     6.2499999999901090E-01     0.0000000000000000E+00 
    1.0000000000000000E+00     6.8749999999917577E-01     0.0000000000000000E+00 
    1.0000000000000000E+00     7.4999999999934064E-01     0.0000000000000000E+00 
    1.0000000000000000E+00     8.1249999999950551E-01     0.0000000000000000E+00 
    1.0000000000000000E+00     8.7499999999967026E-01     0.0000000000000000E+00 
    1.0000000000000000E+00     9.3749999999983513E-01     0.0000000000000000E+00 
    9.3749999999973976E-01     1.0000000000000000E+00     0.0000000000000000E+00 
    8.7499999999950118E-01     1.0000000000000000E+00     0.0000000000000000E+00 
    8.1249999999991318E-01     1.0000000000000000E+00     0.0000000000000000E+00 
    7.5000000000034706E-01     1.0000000000000000E+00     0.0000000000000000E+00 
    6.8750000000078049E-01     1.0000000000000000E+00     0.0000000000000000E+00 
    6.2500000000121403E-01     1.0000000000000000E+00     0.0000000000000000E+00 
    5.6250000000164757E-01     1.0000000000000000E+00     0.0000000000000000E+00 
    5.0000000000205946E-01     1.0000000000000000E+00     0.0000000000000000E+00 
    4.3750000000182099E-01     1.0000000000000000E+00     0.0000000000000000E+00 
    3.7500000000156092E-01     1.0000000000000000E+00     0.0000000000000000E+00 
    3.1250000000130068E-01     1.0000000000000000E+00     0.0000000000000000E+00 
    2.5000000000104050E-01     1.0000000000000000E+00     0.0000000000000000E+00 
    1.8750000000078040E-01     1.0000000000000000E+00     0.0000000000000000E+00 
    1.2500000000052031E-01     1.0000000000000000E+00     0.0000000000000000E+00 
    6.2500000000260125E-02     1.0000000000000000E+00     0.0000000000000000E+00 
    0.0000000000000000E+00     9.3749999999973976E-01     0.0000000000000000E+00 
    0.0000000000000000E+00     8.7499999999950118E-01     0.0000000000000000E+00 
    0.0000000000000000E+00     8.1249999999991318E-01     0.0000000000000000E+00 
    0.0000000000000000E+00     7.5000000000034706E-01     0.0000000000000000E+00 
    0.0000000000000000E+00     6.8750000000078049E-01     0.0000000000000000E+00 
    0.0000000000000000E+00     6.2500000000121403E-01     0.0000000000000000E+00 
    0.0000000000000000E+00     5.6250000000164757E-01     0.0000000000000000E+00 
    0.0000000000000000E+00     5.0000000000205946E-01     0.0000000000000000E+00 
    0.0000000000000000E+00     4.3750000000182099E-01     0.0000000000000000E+00 
    0.0000000000000000E+00     3.7500000000156092E-01     0.0000000000000000E+00 
    0.0000000000000000E+00     3.1250000000130068E-01     0.0000000000000000E+00 
    0.0000000000000000E+00     2.5000000000104050E-01     0.0000000000000000E+00 
    0.0000000000000000E+00     1.8750000000078040E-01     0.0000000000000000E+00 
    0.0000000000000000E+00     1.2500000000052031E-01     0.0000000000000000E+00 
    0.0000000000000000E+00     6.2500000000260125E-02     0.0000000000000000E+00 
    6.2499999999897131E-02     6.2500000000235922E-02     0.0000000000000000E+00 
    6.2499999999921327E-02     1.2500000000047351E-01     0.0000000000000000E+00 
    6.2499999999945530E-02     1.8750000000070621E-01     0.0000000000000000E+00 
    6.2499999999969733E-02     2.5000000000093858E-01     0.0000000000000000E+00 
    6.2499999999993928E-02     3.1250000000117117E-01     0.0000000000000000E+00 
    6.2500000000018124E-02     3.7500000000140382E-01     0.0000000000000000E+00 
    6.2500000000042327E-02     4.3750000000163619E-01     0.0000000000000000E+00 
    6.2500000000066530E-02     5.0000000000184897E-01     0.0000000000000000E+00 
    6.2500000000090733E-02     5.6250000000147260E-01     0.0000000000000000E+00 
    6.2500000000114922E-02     6.2500000000107636E-01     0.0000000000000000E+00 
    6.2500000000139125E-02     6.8750000000068034E-01     0.0000000000000000E+00 
    6.2500000000163328E-02     7.5000000000028411E-01     0.0000000000000000E+00 
    6.2500000000187531E-02     8.1249999999988787E-01     0.0000000000000000E+00 
    6.2500000000211720E-02     8.7499999999951172E-01     0.0000000000000000E+00 
    6.2500000000235922E-02     9.3749999999974565E-01     0.0000000000000000E+00 
    1.2499999999981980E-01     6.2500000000211733E-02     0.0000000000000000E+00 
    1.2499999999986650E-01     1.2500000000042691E-01     0.0000000000000000E+00 
    1.2499999999991319E-01     1.8750000000063199E-01     0.0000000000000000E+00 
    1.2499999999995989E-01     2.5000000000083678E-01     0.0000000000000000E+00 
    1.2500000000000661E-01     3.1250000000104172E-01     0.0000000000000000E+00 
    1.2500000000005329E-01     3.7500000000124661E-01     0.0000000000000000E+00 
    1.2500000000010000E-01     4.3750000000145117E-01     0.0000000000000000E+00 
    1.2500000000014669E-01     5.0000000000163858E-01     0.0000000000000000E+00 
    1.2500000000019340E-01     5.6250000000129741E-01     0.0000000000000000E+00 
    1.2500000000024011E-01     6.2500000000093847E-01     0.0000000000000000E+00 
    1.2500000000028680E-01     6.8750000000057998E-01     0.0000000000000000E+00 
    1.2500000000033351E-01     7.5000000000022127E-01     0.0000000000000000E+00 
    1.2500000000038020E-01     8.1249999999986211E-01     0.0000000000000000E+00 
    1.2500000000042691E-01     8.7499999999952238E-01     0.0000000000000000E+00 
    1.2500000000047359E-01     9.3749999999975164E-01     0.0000000000000000E+00 
    1.8749999999966760E-01     6.2500000000187531E-02     0.0000000000000000E+00 
    1.8749999999974179E-01     1.2500000000038020E-01     0.0000000000000000E+00 
    1.8749999999981601E-01     1.8750000000055780E-01     0.0000000000000000E+00 
    1.8749999999989009E-01     2.5000000000073502E-01     0.0000000000000000E+00 
    1.8749999999996431E-01     3.1250000000091221E-01     0.0000000000000000E+00 
    1.8750000000003850E-01     3.7500000000108941E-01     0.0000000000000000E+00 
    1.8750000000011269E-01     4.3750000000126649E-01     0.0000000000000000E+00 
    1.8750000000018691E-01     5.0000000000142808E-01     0.0000000000000000E+00 
    1.8750000000026110E-01     5.6250000000112244E-01     0.0000000000000000E+00 
    1.8750000000033529E-01     6.2500000000080080E-01     0.0000000000000000E+00 
    1.8750000000040951E-01     6.8750000000047962E-01     0.0000000000000000E+00 
    1.8750000000048361E-01     7.5000000000015843E-01     0.0000000000000000E+00 
    1.8750000000055780E-01     8.1249999999983680E-01     0.0000000000000000E+00 
    1.8750000000063199E-01     8.7499999999953304E-01     0.0000000000000000E+00 
    1.8750000000070621E-01     9.3749999999975764E-01     0.0000000000000000E+00 
    2.4999999999951281E-01     6.2500000000163314E-02     0.0000000000000000E+00 
    2.4999999999961461E-01     1.2500000000033351E-01     0.0000000000000000E+00 
    2.4999999999971650E-01     1.8750000000048361E-01     0.0000000000000000E+00 
    2.4999999999981831E-01     2.5000000000063310E-01     0.0000000000000000E+00 
    2.4999999999992020E-01     3.1250000000078260E-01     0.0000000000000000E+00 
    2.5000000000002198E-01     3.7500000000093209E-01     0.0000000000000000E+00 
    2.5000000000012390E-01     4.3750000000108180E-01     0.0000000000000000E+00 
    2.5000000000022571E-01     5.0000000000121769E-01     0.0000000000000000E+00 
    2.5000000000032763E-01     5.6250000000094724E-01     0.0000000000000000E+00 
    2.5000000000042938E-01     6.2500000000066314E-01     0.0000000000000000E+00 
    2.5000000000053119E-01     6.8750000000037925E-01     0.0000000000000000E+00 
[...]
CELL_DATA 256 
SCALARS Pressure double 1 
LOOKUP_TABLE default 

    1.2835383888675069E+00 
    1.1979385468472927E+00 
    1.1054338849360374E+00 
    1.0013942017894317E+00 
    9.2002201819260021E-01 
    8.4474978733843287E-01 
    7.7259777273608810E-01 
    7.0245795627450824E-01 
    6.3409147862318527E-01 
    5.6783693399724300E-01 
    5.0463001209597280E-01 
    4.4623911714226194E-01 
    3.9548777578847960E-01 
    3.5599425178198452E-01 
    3.3096282472554273E-01 
    3.2089338338237700E-01 
    1.2668300421934848E+00 
    1.2003755522739186E+00 
    1.1107428659132854E+00 
    1.0090504815104926E+00 
    9.2728543506289340E-01 
    8.5183211898222921E-01 
    7.7954435989132786E-01 
    7.0925306207912908E-01 
    6.4066978591906543E-01 
    5.7407223179532130E-01 
    5.1031342714858463E-01 
    4.5105763745200211E-01 
    3.9905580533614027E-01 
    3.5799815889840086E-01 
    3.3142721906240274E-01 
    3.2045289071568783E-01 
    1.2483375730248467E+00 
    1.1958686202470501E+00 
    1.1111540123353445E+00 
    1.0149857647525600E+00 
    9.3388863840615643E-01 
    8.5859696873734703E-01 
    7.8631774316902847E-01 
    7.1593000483954561E-01 
    6.4712724408594369E-01 
    5.8012941982089850E-01 
    5.1569573731793628E-01 
    4.5536914006905782E-01 
    4.0182584530234816E-01 
    3.5888499704639448E-01 
    3.3058702667467044E-01 
    3.1884992136259133E-01 
    1.2270320580119252E+00 
    1.1849118366463267E+00 
    1.1075072676381672E+00 
    1.0191902799759613E+00 
    9.3974501064612936E-01 
    8.6500745719866068E-01 
    7.9290539103544200E-01 
    7.2249255607651119E-01 
    6.5348462941158725E-01 
    5.8605155731854541E-01 
    5.2084763716074856E-01 
    4.5926986985398716E-01 
    4.0389589771260159E-01 
    3.5869826764277413E-01 
    3.2836329083825444E-01 
    3.1586310209411900E-01 
    1.2030417142540171E+00 
    1.1695582609319783E+00 
    1.1016889982048181E+00 
    1.0217844527299544E+00 
    9.4483518952628265E-01 
    8.7104483680641942E-01 
    7.9930138874485335E-01 
    7.2894710813788832E-01 
    6.5976368951815767E-01 
    5.9188251159931049E-01 
    5.2584254264997832E-01 
    4.6286380574130864E-01 
    4.0537765231446721E-01 
    3.5749377548702999E-01 
    3.2467349411532315E-01 
    3.1126250111907017E-01 
    1.1791310871761935E+00 
    1.1533136872403333E+00 
    1.0954144114998337E+00 
    1.0230545726821672E+00 
    9.4920607093612153E-01 
    8.7671325104104203E-01 
    8.0550868145943100E-01 
    7.3530329247526072E-01 
    6.6598658108677311E-01 
    5.9766604821235769E-01 
    5.3075568793276340E-01 
    4.6626348864139577E-01 
    4.0640188871615673E-01 
    3.5534965021811127E-01 
    3.1943586735500046E-01 
    3.0479246248104497E-01 
    1.1601178822866385E+00 
    1.1395125313219330E+00 
    1.0894080044860770E+00 
    1.0234461218907536E+00 
    9.5296427224302571E-01 
    8.8204099637796873E-01 
    8.1153877925725215E-01 
    7.4157413611420053E-01 
    6.7217654425065376E-01 
    6.0344472864274556E-01 
    5.3566315386855035E-01 
    4.6958977738825997E-01 
    4.0712362075534858E-01 
    3.5237911223523410E-01 
    3.1257773327714200E-01 
    2.9615630225323769E-01 
    1.1447116293668280E+00 
    1.1275700158400850E+00 
    1.0836863584365168E+00 
    1.0233434854106676E+00 
    9.5625368572482583E-01 
    8.8707811884137455E-01 
    8.1741337805575109E-01 
    7.4777604350126259E-01 
    6.7835612825184877E-01 
    6.0925869222029028E-01 
    5.4063906683673968E-01 
    4.7297038622560478E-01 
    4.0772595268732420E-01 
    3.4874528429566648E-01 
    3.0404783630667481E-01 
    2.8499335825223399E-01 
    1.1322763578193467E+00 
    1.1174565576459090E+00 
    1.0785255624982373E+00 
    1.0230515620564584E+00 
    9.5923147229887440E-01 
    8.9189126517721951E-01 
    8.2316323636944533E-01 
    7.5392869738752533E-01 
    6.8454718447617424E-01 
    6.1514438283606809E-01 
    5.4575305580150135E-01 
    4.7653629939738068E-01 
    4.0842216479568361E-01 
    3.4468042762468437E-01 
    2.9384001324242093E-01 
    2.7084999816870886E-01 
    1.1223777001032169E+00 
    1.1091183446272408E+00 
    1.0741209031223260E+00 
    1.0228201788239089E+00 
    9.6205419806126069E-01 
    8.9655803261166200E-01 
    8.2882692707861194E-01 
    7.6005477452193881E-01 
    6.9077030142888396E-01 
    6.2113321112720254E-01 
    5.5106695571253295E-01 
    4.8041611535887563E-01 
    4.0945406591705463E-01 
    3.4050813296195176E-01 
    2.8203345008039588E-01 
    2.5313829628474421E-01 
    1.1146684262323827E+00 
    1.1024716027308696E+00 
    1.0706055595175306E+00 
    1.0228521713765473E+00 
    9.6486989251001876E-01 
    9.0116197988942448E-01 
    8.3444822072959668E-01 
    7.6617933004055150E-01 
    6.9704485123911408E-01 
    6.2725041070380183E-01 
    5.5663157509349781E-01 
    4.8472800231186614E-01 
    4.1108434113302245E-01 
    3.3666673265817515E-01 
    2.6886196451446481E-01 
    2.3107995272581083E-01 
    1.1088632182055775E+00 
    1.0974205855965558E+00 
    1.0680679844782159E+00 
    1.0233116831387701E+00 
    9.6781539608540290E-01 
    9.0578873327378362E-01 
    8.4007494351158307E-01 
    7.7232892380639373E-01 
    7.0338804861978965E-01 
    6.3351418304129037E-01 
    5.6248306712400198E-01 
    4.8956952977781265E-01 
    4.1357926436595704E-01 
    3.3372669175530545E-01 
    2.5482970066642791E-01 
    2.0362171927889228E-01 
    1.1047195186491112E+00 
    1.0938668796719275E+00 
    1.0665652524212079E+00 
    1.0243317682107942E+00 
    9.7101469107322447E-01 
    9.1052302190167445E-01 
    8.4575712606051512E-01 
    7.7853110840809203E-01 
    7.0981504815149221E-01 
    6.3993541532334530E-01 
    5.6864056670203289E-01 
    4.9500634799275406E-01 
    4.1717937244751030E-01 
    3.3238989557731635E-01 
    2.4090750413741910E-01 
    1.6931028673377146E-01 
    1.1020223366270998E+00 
    1.0917143630157613E+00 
    1.0661337386878069E+00 
    1.0260215203213274E+00 
    9.7457933126313678E-01 
    9.1544680042830695E-01 
    8.5154552183121768E-01 
    7.8481379604701784E-01 
    7.1633892777544783E-01 
    6.4651798241136904E-01 
    5.7510534539376401E-01 
    5.0106234701758923E-01 
    4.2205644043297530E-01 
    3.3344104053969376E-01 
    2.2886237395101500E-01 
    1.2610357852121562E-01 
    1.1005713592517972E+00 
    1.0908716062788439E+00 
    1.0667975298100818E+00 
    1.0284726400799902E+00 
    9.7860991670392516E-01 
    9.2063822551611674E-01 
    8.5749040738989857E-01 
    7.9120465752148472E-01 
    7.2297078303469942E-01 
    6.5325961734757920E-01 
    5.8186207066886031E-01 
    5.0771487338643395E-01 
    4.2826196260182930E-01 
    3.3759396015390092E-01 
    2.2181045164422611E-01 
    7.1082702034632947E-02 
    1.1001689308397553E+00 
    1.0912529676562130E+00 
    1.0685751920588962E+00 
    1.0317654329915580E+00 
    9.8319819960188892E-01 
    9.2617130111136536E-01 
    8.6364067886578699E-01 
    7.9773059534348356E-01 
    7.2971988784320818E-01 
    6.6015319235947123E-01 
    5.8888214397099869E-01 
    5.1489902382055608E-01 
    4.3568944802743953E-01 
    3.4512238327893846E-01 
    2.2514507643837420E-01 
    0.0000000000000000E+00 

SCALARS Saturarion double 1 
LOOKUP_TABLE default 

    9.7702286906704627E-01 
    7.3866161919272755E-01 
    2.4446583935331323E-01 
    4.0080413062128104E-05 
    1.0000000293682833E-06 
    1.0000000000000029E-06 
    9.9999999999999995E-07 
    9.9999999999999995E-07 
    9.9999999999999995E-07 
    9.9999999999999995E-07 
    9.9999999999999995E-07 
    9.9999999999999995E-07 
    9.9999999999999995E-07 
    9.9999999999999995E-07 
    9.9999999999999995E-07 
    9.9999999999999995E-07 
    8.1960962134804149E-01 
    6.7002684597100759E-01 
    1.9602021153493701E-01 
    8.1008412517325469E-05 
    1.0005993907664773E-06 
    1.0000000002484949E-06 
    9.9999999999999995E-07 
    9.9999999999999995E-07 
    9.9999999999999995E-07 
    9.9999999999999995E-07 
    9.9999999999999995E-07 
    9.9999999999999995E-07 
    9.9999999999999995E-07 
    9.9999999999999995E-07 
    9.9999999999999995E-07 
    9.9999999999999995E-07 
    6.0923856334430937E-01 
    5.3848010597460361E-01 
    1.1788556864731571E-01 
    7.1138481572239872E-05 
    1.0012586488662337E-06 
    1.0000000000005759E-06 
    9.9999999999999995E-07 
    9.9999999999999995E-07 
    9.9999999999999995E-07 
    9.9999999999999995E-07 
    9.9999999999999995E-07 
    9.9999999999999995E-07 
    9.9999999999999995E-07 
    9.9999999999999995E-07 
    9.9999999999999995E-07 
    9.9999999999999995E-07 
    5.3148988213908854E-01 
    3.9251834173483874E-01 
    2.8519441261567191E-02 
    1.7474170999223976E-05 
    1.0000161480826288E-06 
    9.9999999999999974E-07 
    9.9999999999999995E-07 
    9.9999999999999995E-07 
    9.9999999999999995E-07 
    9.9999999999999995E-07 
    9.9999999999999995E-07 
    9.9999999999999995E-07 
    9.9999999999999995E-07 
    9.9999999999999995E-07 
    9.9999999999999995E-07 
    9.9999999999999995E-07 
    3.6992871567139840E-01 
    1.3043166650175608E-01 
    7.3179100159090956E-04 
    1.0012250830889388E-06 
    1.0000000001029208E-06 
    9.9999999999999995E-07 
    9.9999999999999995E-07 
    9.9999999999999995E-07 
    9.9999999999999995E-07 
    9.9999999999999995E-07 
    9.9999999999999995E-07 
    9.9999999999999995E-07 
    9.9999999999999995E-07 
    9.9999999999999995E-07 
    9.9999999999999995E-07 
    9.9999999999999995E-07 
    2.0445371506960859E-02 
    8.1713107367697513E-04 
    1.1915634949936189E-06 
    1.0000000017389696E-06 
    1.0000000000000004E-06 
    9.9999999999999995E-07 
    9.9999999999999995E-07 
    9.9999999999999995E-07 
    9.9999999999999995E-07 
    9.9999999999999995E-07 
    9.9999999999999995E-07 
    9.9999999999999995E-07 
    9.9999999999999995E-07 
    9.9999999999999995E-07 
    9.9999999999999995E-07 
    9.9999999999999995E-07 
    1.0675207150501698E-06 
    1.1469451002118053E-06 
    1.0000000323068471E-06 
    1.0000000000000014E-06 
    9.9999999999999995E-07 
    9.9999999999999995E-07 
    9.9999999999999995E-07 
    9.9999999999999995E-07 
    9.9999999999999995E-07 
    9.9999999999999995E-07 
    9.9999999999999995E-07 
    9.9999999999999995E-07 
    9.9999999999999995E-07 
    9.9999999999999995E-07 
    9.9999999999999995E-07 
    9.9999999999999995E-07 
    1.0000000165611390E-06 
    1.0000000022188205E-06 
    1.0000000000000052E-06 
    9.9999999999999995E-07 
    9.9999999999999995E-07 
    9.9999999999999995E-07 
    9.9999999999999995E-07 
    9.9999999999999995E-07 
    9.9999999999999995E-07 
    9.9999999999999995E-07 
    9.9999999999999995E-07 
    9.9999999999999995E-07 
    9.9999999999999995E-07 
    9.9999999999999995E-07 
    9.9999999999999995E-07 
    9.9999999999999995E-07 
    9.9999999999999974E-07 
    9.9999999999999995E-07 
    9.9999999999999995E-07 
    9.9999999999999995E-07 
    9.9999999999999995E-07 
    9.9999999999999995E-07 
    9.9999999999999995E-07 
    9.9999999999999995E-07 
    9.9999999999999995E-07 
    9.9999999999999995E-07 
    9.9999999999999995E-07 
    9.9999999999999995E-07 
    9.9999999999999995E-07 
    9.9999999999999995E-07 
    9.9999999999999995E-07 
    9.9999999999999995E-07 
    9.9999999999999995E-07 
    9.9999999999999995E-07 
    9.9999999999999995E-07 
    9.9999999999999995E-07 
    9.9999999999999995E-07 
    9.9999999999999995E-07 
    9.9999999999999995E-07 
    9.9999999999999995E-07 
    9.9999999999999995E-07 
    9.9999999999999995E-07 
    9.9999999999999995E-07 
    9.9999999999999995E-07 
    9.9999999999999995E-07 
    9.9999999999999995E-07 
    9.9999999999999995E-07 
    9.9999999999999995E-07 
    9.9999999999999995E-07 
    9.9999999999999995E-07 
    9.9999999999999995E-07 
    9.9999999999999995E-07 
    9.9999999999999995E-07 
    9.9999999999999995E-07 
    9.9999999999999995E-07 
    9.9999999999999995E-07 
    9.9999999999999995E-07 
    9.9999999999999995E-07 
    9.9999999999999995E-07 
    9.9999999999999995E-07 
    9.9999999999999995E-07 
    9.9999999999999995E-07 
    9.9999999999999995E-07 
    9.9999999999999995E-07 
    9.9999999999999995E-07 
    9.9999999999999995E-07 
    9.9999999999999995E-07 
    9.9999999999999995E-07 
    9.9999999999999995E-07 
    9.9999999999999995E-07 
    9.9999999999999995E-07 
    9.9999999999999995E-07 
    9.9999999999999995E-07 
    9.9999999999999995E-07 
    9.9999999999999995E-07 
    9.9999999999999995E-07 
    9.9999999999999995E-07 
    9.9999999999999995E-07 
    9.9999999999999995E-07 
    9.9999999999999995E-07 
    9.9999999999999995E-07 
    9.9999999999999995E-07 
    9.9999999999999995E-07 
    9.9999999999999995E-07 
    9.9999999999999995E-07 
    9.9999999999999995E-07 
    9.9999999999999995E-07 
    9.9999999999999995E-07 
    9.9999999999999995E-07 
    9.9999999999999995E-07 
    9.9999999999999995E-07 
    9.9999999999999995E-07 
    9.9999999999999995E-07 
    9.9999999999999995E-07 
    9.9999999999999995E-07 
    9.9999999999999995E-07 
    9.9999999999999995E-07 
    9.9999999999999995E-07 
    9.9999999999999995E-07 
    9.9999999999999995E-07 
    9.9999999999999995E-07 
    9.9999999999999995E-07 
    9.9999999999999995E-07 
    9.9999999999999995E-07 
    9.9999999999999995E-07 
    9.9999999999999995E-07 
    9.9999999999999995E-07 
    9.9999999999999995E-07 
    9.9999999999999995E-07 
    9.9999999999999995E-07 
    9.9999999999999995E-07 
    9.9999999999999995E-07 
    9.9999999999999995E-07 
    9.9999999999999995E-07 
    9.9999999999999995E-07 
    9.9999999999999995E-07 
    9.9999999999999995E-07 
    9.9999999999999995E-07 
    9.9999999999999995E-07 
    9.9999999999999995E-07 
    9.9999999999999995E-07 
    9.9999999999999995E-07 
    9.9999999999999995E-07 
    9.9999999999999995E-07 
    9.9999999999999995E-07 
    9.9999999999999995E-07 
    9.9999999999999995E-07 
    9.9999999999999995E-07 
    9.9999999999999995E-07 
    9.9999999999999995E-07 
    9.9999999999999995E-07 
    9.9999999999999995E-07 
    9.9999999999999995E-07 
    9.9999999999999995E-07 
    9.9999999999999995E-07 
    9.9999999999999995E-07 
    9.9999999999999995E-07 
    9.9999999999999995E-07 
    9.9999999999999995E-07 
    9.9999999999999995E-07 
    9.9999999999999995E-07 
    9.9999999999999995E-07 
    9.9999999999999995E-07 
    1.0000000271082681E-06 
