# vtk DataFile Version 2.0
Pressure Field Data 
ASCII 
DATASET UNSTRUCTURED_GRID 

POINTS 289 double 

    0.0000000000000000E+00     0.0000000000000000E+00     0.0000000000000000E+00 
    1.0000000000000000E+00     0.0000000000000000E+00     0.0000000000000000E+00 
    1.0000000000000000E+00     1.0000000000000000E+00     0.0000000000000000E+00 
    0.0000000000000000E+00     1.0000000000000000E+00     0.0000000000000000E+00 
    6.2499999999872928E-02     0.0000000000000000E+00     0.0000000000000000E+00 
    1.2499999999977310E-01     0.0000000000000000E+00     0.0000000000000000E+00 
    1.8749999999959341E-01     0.0000000000000000E+00     0.0000000000000000E+00 
    2.4999999999941089E-01     0.0000000000000000E+00     0.0000000000000000E+00 
    3.1249999999922851E-01     0.0000000000000000E+00     0.0000000000000000E+00 
    3.7499999999904610E-01     0.0000000000000000E+00     0.0000000000000000E+00 
    4.3749999999886358E-01     0.0000000000000000E+00     0.0000000000000000E+00 
    4.9999999999869210E-01     0.0000000000000000E+00     0.0000000000000000E+00 
    5.6249999999884603E-01     0.0000000000000000E+00     0.0000000000000000E+00 
    6.2499999999901090E-01     0.0000000000000000E+00     0.0000000000000000E+00 
    6.8749999999917577E-01     0.0000000000000000E+00     0.0000000000000000E+00 
    7.4999999999934064E-01     0.0000000000000000E+00     0.0000000000000000E+00 
    8.1249999999950551E-01     0.0000000000000000E+00     0.0000000000000000E+00 
    8.7499999999967026E-01     0.0000000000000000E+00     0.0000000000000000E+00 
    9.3749999999983513E-01     0.0000000000000000E+00     0.0000000000000000E+00 
    1.0000000000000000E+00     6.2499999999872928E-02     0.0000000000000000E+00 
    1.0000000000000000E+00     1.2499999999977310E-01     0.0000000000000000E+00 
    1.0000000000000000E+00     1.8749999999959341E-01     0.0000000000000000E+00 
    1.0000000000000000E+00     2.4999999999941089E-01     0.0000000000000000E+00 
    1.0000000000000000E+00     3.1249999999922851E-01     0.0000000000000000E+00 
    1.0000000000000000E+00     3.7499999999904610E-01     0.0000000000000000E+00 
    1.0000000000000000E+00     4.3749999999886358E-01     0.0000000000000000E+00 
    1.0000000000000000E+00     4.9999999999869210E-01     0.0000000000000000E+00 
    1.0000000000000000E+00     5.6249999999884603E-01     0.0000000000000000E+00 
    1.0000000000000000E+00     6.2499999999901090E-01     0.0000000000000000E+00 
    1.0000000000000000E+00     6.8749999999917577E-01     0.0000000000000000E+00 
    1.0000000000000000E+00     7.4999999999934064E-01     0.0000000000000000E+00 
    1.0000000000000000E+00     8.1249999999950551E-01     0.0000000000000000E+00 
    1.0000000000000000E+00     8.7499999999967026E-01     0.0000000000000000E+00 
    1.0000000000000000E+00     9.3749999999983513E-01     0.0000000000000000E+00 
    9.3749999999973976E-01     1.0000000000000000E+00     0.0000000000000000E+00 
    8.7499999999950118E-01     1.0000000000000000E+00     0.0000000000000000E+00 
    8.1249999999991318E-01     1.0000000000000000E+00     0.0000000000000000E+00 
    7.5000000000034706E-01     1.0000000000000000E+00     0.0000000000000000E+00 
    6.8750000000078049E-01     1.0000000000000000E+00     0.0000000000000000E+00 
    6.2500000000121403E-01     1.0000000000000000E+00     0.0000000000000000E+00 
    5.6250000000164757E-01     1.0000000000000000E+00     0.0000000000000000E+00 
    5.0000000000205946E-01     1.0000000000000000E+00     0.0000000000000000E+00 
    4.3750000000182099E-01     1.0000000000000000E+00     0.0000000000000000E+00 
    3.7500000000156092E-01     1.0000000000000000E+00     0.0000000000000000E+00 
    3.1250000000130068E-01     1.0000000000000000E+00     0.0000000000000000E+00 
    2.5000000000104050E-01     1.0000000000000000E+00     0.0000000000000000E+00 
    1.8750000000078040E-01     1.0000000000000000E+00     0.0000000000000000E+00 
    1.2500000000052031E-01     1.0000000000000000E+00     0.0000000000000000E+00 
    6.2500000000260125E-02     1.0000000000000000E+00     0.0000000000000000E+00 
    0.0000000000000000E+00     9.3749999999973976E-01     0.0000000000000000E+00 
    0.0000000000000000E+00     8.7499999999950118E-01     0.0000000000000000E+00 
    0.0000000000000000E+00     8.1249999999991318E-01     0.0000000000000000E+00 
    0.0000000000000000E+00     7.5000000000034706E-01     0.0000000000000000E+00 
    0.0000000000000000E+00     6.8750000000078049E-01     0.0000000000000000E+00 
    0.0000000000000000E+00     6.2500000000121403E-01     0.0000000000000000E+00 
    0.0000000000000000E+00     5.6250000000164757E-01     0.0000000000000000E+00 
    0.0000000000000000E+00     5.0000000000205946E-01     0.0000000000000000E+00 
    0.0000000000000000E+00     4.3750000000182099E-01     0.0000000000000000E+00 
    0.0000000000000000E+00     3.7500000000156092E-01     0.0000000000000000E+00 
    0.0000000000000000E+00     3.1250000000130068E-01     0.0000000000000000E+00 
    0.0000000000000000E+00     2.5000000000104050E-01     0.0000000000000000E+00 
    0.0000000000000000E+00     1.8750000000078040E-01     0.0000000000000000E+00 
    0.0000000000000000E+00     1.2500000000052031E-01     0.0000000000000000E+00 
    0.0000000000000000E+00     6.2500000000260125E-02     0.0000000000000000E+00 
    6.2499999999897131E-02     6.2500000000235922E-02     0.0000000000000000E+00 
    6.2499999999921327E-02     1.2500000000047351E-01     0.0000000000000000E+00 
    6.2499999999945530E-02     1.8750000000070621E-01     0.0000000000000000E+00 
    6.2499999999969733E-02     2.5000000000093858E-01     0.0000000000000000E+00 
    6.2499999999993928E-02     3.1250000000117117E-01     0.0000000000000000E+00 
    6.2500000000018124E-02     3.7500000000140382E-01     0.0000000000000000E+00 
    6.2500000000042327E-02     4.3750000000163619E-01     0.0000000000000000E+00 
    6.2500000000066530E-02     5.0000000000184897E-01     0.0000000000000000E+00 
    6.2500000000090733E-02     5.6250000000147260E-01     0.0000000000000000E+00 
    6.2500000000114922E-02     6.2500000000107636E-01     0.0000000000000000E+00 
    6.2500000000139125E-02     6.8750000000068034E-01     0.0000000000000000E+00 
    6.2500000000163328E-02     7.5000000000028411E-01     0.0000000000000000E+00 
    6.2500000000187531E-02     8.1249999999988787E-01     0.0000000000000000E+00 
    6.2500000000211720E-02     8.7499999999951172E-01     0.0000000000000000E+00 
    6.2500000000235922E-02     9.3749999999974565E-01     0.0000000000000000E+00 
    1.2499999999981980E-01     6.2500000000211733E-02     0.0000000000000000E+00 
    1.2499999999986650E-01     1.2500000000042691E-01     0.0000000000000000E+00 
    1.2499999999991319E-01     1.8750000000063199E-01     0.0000000000000000E+00 
    1.2499999999995989E-01     2.5000000000083678E-01     0.0000000000000000E+00 
    1.2500000000000661E-01     3.1250000000104172E-01     0.0000000000000000E+00 
    1.2500000000005329E-01     3.7500000000124661E-01     0.0000000000000000E+00 
    1.2500000000010000E-01     4.3750000000145117E-01     0.0000000000000000E+00 
    1.2500000000014669E-01     5.0000000000163858E-01     0.0000000000000000E+00 
    1.2500000000019340E-01     5.6250000000129741E-01     0.0000000000000000E+00 
    1.2500000000024011E-01     6.2500000000093847E-01     0.0000000000000000E+00 
    1.2500000000028680E-01     6.8750000000057998E-01     0.0000000000000000E+00 
    1.2500000000033351E-01     7.5000000000022127E-01     0.0000000000000000E+00 
    1.2500000000038020E-01     8.1249999999986211E-01     0.0000000000000000E+00 
    1.2500000000042691E-01     8.7499999999952238E-01     0.0000000000000000E+00 
    1.2500000000047359E-01     9.3749999999975164E-01     0.0000000000000000E+00 
    1.8749999999966760E-01     6.2500000000187531E-02     0.0000000000000000E+00 
    1.8749999999974179E-01     1.2500000000038020E-01     0.0000000000000000E+00 
    1.8749999999981601E-01     1.8750000000055780E-01     0.0000000000000000E+00 
    1.8749999999989009E-01     2.5000000000073502E-01     0.0000000000000000E+00 
    1.8749999999996431E-01     3.1250000000091221E-01     0.0000000000000000E+00 
    1.8750000000003850E-01     3.7500000000108941E-01     0.0000000000000000E+00 
    1.8750000000011269E-01     4.3750000000126649E-01     0.0000000000000000E+00 
    1.8750000000018691E-01     5.0000000000142808E-01     0.0000000000000000E+00 
    1.8750000000026110E-01     5.6250000000112244E-01     0.0000000000000000E+00 
    1.8750000000033529E-01     6.2500000000080080E-01     0.0000000000000000E+00 
    1.8750000000040951E-01     6.8750000000047962E-01     0.0000000000000000E+00 
    1.8750000000048361E-01     7.5000000000015843E-01     0.0000000000000000E+00 
    1.8750000000055780E-01     8.1249999999983680E-01     0.0000000000000000E+00 
    1.8750000000063199E-01     8.7499999999953304E-01     0.0000000000000000E+00 
    1.8750000000070621E-01     9.3749999999975764E-01     0.0000000000000000E+00 
    2.4999999999951281E-01     6.2500000000163314E-02     0.0000000000000000E+00 
    2.4999999999961461E-01     1.2500000000033351E-01     0.0000000000000000E+00 
    2.4999999999971650E-01     1.8750000000048361E-01     0.0000000000000000E+00 
    2.4999999999981831E-01     2.5000000000063310E-01     0.0000000000000000E+00 
    2.4999999999992020E-01     3.1250000000078260E-01     0.0000000000000000E+00 
    2.5000000000002198E-01     3.7500000000093209E-01     0.0000000000000000E+00 
    2.5000000000012390E-01     4.3750000000108180E-01     0.0000000000000000E+00 
    2.5000000000022571E-01     5.0000000000121769E-01     0.0000000000000000E+00 
    2.5000000000032763E-01     5.6250000000094724E-01     0.0000000000000000E+00 
    2.5000000000042938E-01     6.2500000000066314E-01     0.0000000000000000E+00 
    2.5000000000053119E-01     6.8750000000037925E-01     0.0000000000000000E+00 
[...]
CELL_DATA 256 
SCALARS Pressure double 1 
LOOKUP_TABLE default 

    1.1446457081371915E+00 
    1.0836666425937711E+00 
    1.0360367274866489E+00 
    9.8674394584022285E-01 
    9.3109077146583807E-01 
    8.6059068155585050E-01 
    7.7856327603692865E-01 
    7.0519104483574668E-01 
    6.3550724278330772E-01 
    5.6859701245994454E-01 
    5.0505578162829567E-01 
    4.4649136099210296E-01 
    3.9564848079024917E-01 
    3.5610649050536108E-01 
    3.3105083825104592E-01 
    3.2097241276064747E-01 
    1.1306342109038188E+00 
    1.0858171384012258E+00 
    1.0396529650060626E+00 
    9.9106260176943906E-01 
    9.3642367588030373E-01 
    8.6706111764364802E-01 
    7.8556783916938799E-01 
    7.1207778133977351E-01 
    6.4212561265645773E-01 
    5.7485264253144097E-01 
    5.1074967002096128E-01 
    4.5131533079235292E-01 
    3.9921934671298942E-01 
    3.5811176547922985E-01 
    3.3151564748582996E-01 
    3.2053176612301348E-01 
    1.1191340838396879E+00 
    1.0851553364026014E+00 
    1.0418770838771840E+00 
    9.9436498405267848E-01 
    9.4075548183600155E-01 
    8.7237193256311829E-01 
    7.9184540812980375E-01 
    7.1867849828816066E-01 
    6.4855513255725183E-01 
    5.8089734896933953E-01 
    5.1612580115934681E-01 
    4.5562361486313296E-01 
    4.0198762563416757E-01 
    3.5899749038502854E-01 
    3.3067450059219522E-01 
    3.1892786153060410E-01 
    1.1088423258020004E+00 
    1.0825491865998000E+00 
    1.0427157517305752E+00 
    9.9668923278156929E-01 
    9.4406829065539566E-01 
    8.7660063575351921E-01 
    7.9752239218278298E-01 
    7.2497766726102941E-01 
    6.5480576413376002E-01 
    5.8676954441968820E-01 
    5.2125263148591472E-01 
    4.5951133039981595E-01 
    4.0405074431673632E-01 
    3.5880687072033746E-01 
    3.2844827388347209E-01 
    3.1593917667892291E-01 
    1.0993132727326715E+00 
    1.0785946728834150E+00 
    1.0423593586313400E+00 
    9.9816823905052365E-01 
    9.4637379708370239E-01 
    8.7980230414911909E-01 
    8.0275467625070696E-01 
    7.3099320279324931E-01 
    6.6089503666385463E-01 
    5.9251010848994479E-01 
    5.2620200236192705E-01 
    4.6308163627154675E-01 
    4.0551997013410152E-01 
    3.5759549547603020E-01 
    3.2475433078580890E-01 
    3.1133567852659666E-01 
    1.0906488405630792E+00 
    1.0739603645369906E+00 
    1.0411462725791880E+00 
    9.9894392758191397E-01 
    9.4769941395057400E-01 
    8.8206781331425843E-01 
    8.0768956997045216E-01 
    7.3676648558150015E-01 
    6.6684812338166732E-01 
    5.9816209807726206E-01 
    5.3104846398999872E-01 
    4.6644665656156475E-01 
    4.0652585889008896E-01 
    3.5544138207733189E-01 
    3.1951084258395462E-01 
    3.0486164996690029E-01 
    1.0829411862742109E+00 
    1.0691448957177556E+00 
    1.0393694321399007E+00 
    9.9901600384093181E-01 
    9.4809090326668499E-01 
    8.8368740386833633E-01 
    8.1240129889879453E-01 
    7.4234604732636389E-01 
    6.7269686413525964E-01 
    6.0376999464387882E-01 
    5.3586849408789139E-01 
    4.6972735654270614E-01 
    4.0722347085822208E-01 
    3.5245778536491418E-01 
    3.1264515333152004E-01 
    2.9622038540842910E-01 
    1.0762392967998056E+00 
    1.0644909847191579E+00 
    1.0372229249236880E+00 
    9.9822295910583603E-01 
    9.4759212852051977E-01 
    8.8511889282875422E-01 
    8.1686840429399499E-01 
    7.4777518642404572E-01 
    6.7847592290851122E-01 
    6.0937817114354331E-01 
    5.4073776516979710E-01 
    4.7305209496715583E-01 
    4.0779621739194100E-01 
    3.4880799214212255E-01 
    3.0410610075345912E-01 
    2.8505126654813118E-01 
    1.0703069249171684E+00 
    1.0599828093991617E+00 
    1.0344600102488255E+00 
    9.9638287059016029E-01 
    9.4668215389169630E-01 
    8.8682847209760740E-01 
    8.2110604185413671E-01 
    7.5309490895482967E-01 
    6.8422092950175395E-01 
    6.1502917055042028E-01 
    5.4572856485425913E-01 
    4.7655307559377408E-01 
    4.0845798178807863E-01 
    3.4472458618681057E-01 
    2.9388771326000673E-01 
    2.7090077414078689E-01 
    1.0639212008767025E+00 
    1.0546736342864549E+00 
    1.0306691057027368E+00 
    9.9397613977831334E-01 
    9.4621839551323006E-01 
    8.8894913302534673E-01 
    8.2524039856003062E-01 
    7.5835451699054934E-01 
    6.8996773879698270E-01 
    6.2076203106632322E-01 
    5.5090641223918702E-01 
    4.8036068671821852E-01 
    4.0945148073848586E-01 
    3.4053164603950681E-01 
    2.8206947100847007E-01 
    2.5318119671566164E-01 
    1.0579536115385944E+00 
    1.0492953639182689E+00 
    1.0269348967876459E+00 
    9.9220671797817572E-01 
    9.4653119656582507E-01 
    8.9134201933717294E-01 
    8.2939531150460821E-01 
    7.6361056714760944E-01 
    6.9575237391622125E-01 
    6.2661094071557533E-01 
    5.5632668655380457E-01 
    4.8459546404431797E-01 
    4.1104063387842027E-01 
    3.3666816389555432E-01 
    2.6888557537661967E-01 
    2.3111450337634065E-01 
    1.0537073421132823E+00 
    1.0455032905831745E+00 
    1.0245179829886739E+00 
    9.9142273509842038E-01 
    9.4744340749036227E-01 
    8.9404742131164827E-01 
    8.3366305451929346E-01 
    7.6892037855422346E-01 
    7.0160973036222496E-01 
    6.3260403780273422E-01 
    5.6203087044185196E-01 
    4.8935778438073230E-01 
    4.1349319423611858E-01 
    3.3370539773343089E-01 
    2.5484063592913070E-01 
    2.0364778846516926E-01 
    1.0506730439225529E+00 
    1.0428260704686860E+00 
    1.0230291736270714E+00 
    9.9140569476286333E-01 
    9.4896175774917779E-01 
    8.9713395424745179E-01 
    8.3812182739583085E-01 
    7.7433874564341598E-01 
    7.0757268633630643E-01 
    6.3876273312748888E-01 
    5.6804400444762926E-01 
    4.9471650506515075E-01 
    4.1705141797850742E-01 
    3.3234615998684530E-01 
    2.4090604028340667E-01 
    1.6932815344251159E-01 
    1.0486961514519506E+00 
    1.0411977962942609E+00 
    1.0224682876683266E+00 
    9.9217969130504546E-01 
    9.5112036542684864E-01 
    9.0066140399831773E-01 
    8.4284028840328207E-01 
    7.7991685288239976E-01 
    7.1367142734769928E-01 
    6.4510168580069893E-01 
    5.7437366030666392E-01 
    5.0069903151114381E-01 
    4.2188899483782916E-01 
    3.3337618317357320E-01 
    2.2884938666547344E-01 
    1.2611399458836059E-01 
    1.0476326149247945E+00 
    1.0405524715621906E+00 
    1.0228301561480999E+00 
    9.9376692412471135E-01 
    9.5395465332478668E-01 
    9.0468461918655707E-01 
    8.4787984316510445E-01 
    7.8570206126168551E-01 
    7.1993316388078210E-01 
    6.5162938747319088E-01 
    5.8101101590871118E-01 
    5.0728642796929702E-01 
    4.2805947208257572E-01 
    3.3751041348812588E-01 
    2.2178744588353758E-01 
    7.1086946469559306E-02 
    1.0473380744764698E+00 
    1.0408233744321513E+00 
    1.0241057346133648E+00 
    9.9618801685921332E-01 
    9.5750094466925306E-01 
    9.0925552537883503E-01 
    8.5329665090363660E-01 
    7.9173817880862130E-01 
    7.2638215919001403E-01 
    6.5834922227266690E-01 
    5.8793401921001009E-01 
    5.1441759901262896E-01 
    4.3545848513631324E-01 
    3.4502373192050961E-01 
    2.2511417963604397E-01 
    0.0000000000000000E+00 

SCALARS Saturarion double 1 
LOOKUP_TABLE default 

    9.9999999960746255E-01 
    9.1245612230606066E-01 
    8.0040730707971086E-01 
    6.6654562023315744E-01 
    5.7024366101388257E-01 
    3.7839117761444108E-01 
    2.2307135998306239E-02 
    1.0000001647500614E-06 
    1.0000000000000897E-06 
    9.9999999999999995E-07 
    9.9999999999999995E-07 
    9.9999999999999995E-07 
    9.9999999999999995E-07 
    9.9999999999999995E-07 
    9.9999999999999995E-07 
    9.9999999999999995E-07 
    9.5398623825578166E-01 
    8.7644293829593445E-01 
    7.7108794377165568E-01 
    6.5419746970211312E-01 
    5.5916923843037292E-01 
    3.6164574782649556E-01 
    1.7510667012663211E-02 
    1.2719921859503847E-06 
    1.0000000356211976E-06 
    1.0000000000000088E-06 
    9.9999999999999995E-07 
    9.9999999999999995E-07 
    9.9999999999999995E-07 
    9.9999999999999995E-07 
    9.9999999999999995E-07 
    9.9999999999999995E-07 
    8.7571182916281609E-01 
    8.1822935733433588E-01 
    7.2562759488225814E-01 
    6.3323589243941347E-01 
    5.4335295333915379E-01 
    3.3297047368602972E-01 
    9.7570833302322805E-03 
    1.5230043095752810E-06 
    1.0000000634813357E-06 
    1.0000000000000052E-06 
    9.9999999999999995E-07 
    9.9999999999999995E-07 
    9.9999999999999995E-07 
    9.9999999999999995E-07 
    9.9999999999999995E-07 
    9.9999999999999995E-07 
    7.7812134291854151E-01 
    7.3829190168705627E-01 
    6.7113801483180979E-01 
    6.0799342432178505E-01 
    5.2759443517138005E-01 
    2.9828993749779881E-01 
    4.2657494008309519E-03 
    1.1670050002286645E-06 
    1.0000000376423521E-06 
    9.9999999999999974E-07 
    9.9999999999999995E-07 
    9.9999999999999995E-07 
    9.9999999999999995E-07 
    9.9999999999999995E-07 
    9.9999999999999995E-07 
    9.9999999999999995E-07 
    7.0064961562778327E-01 
    6.7378567254689214E-01 
    6.2635774769812658E-01 
    5.7956300884709566E-01 
    5.0614619165024277E-01 
    2.4173365524193804E-01 
    9.0089316855419507E-04 
    1.0214323121922244E-06 
    1.0000000046550537E-06 
    9.9999999999999974E-07 
    9.9999999999999995E-07 
    9.9999999999999995E-07 
    9.9999999999999995E-07 
    9.9999999999999995E-07 
    9.9999999999999995E-07 
    9.9999999999999995E-07 
    6.3691831513256625E-01 
    6.2091325138388453E-01 
    5.8675532398649466E-01 
    5.4698560184187273E-01 
    4.6811135114598801E-01 
    1.5797826184905328E-01 
    1.4598675379885447E-04 
    1.0056219146223395E-06 
    1.0000000003582502E-06 
    9.9999999999999995E-07 
    9.9999999999999995E-07 
    9.9999999999999995E-07 
    9.9999999999999995E-07 
    9.9999999999999995E-07 
    9.9999999999999995E-07 
    9.9999999999999995E-07 
    5.8600628527980525E-01 
    5.7746631334102294E-01 
    5.4998356602887433E-01 
    5.1134383886489920E-01 
    3.9464711090103999E-01 
    5.4498358858723492E-02 
    8.8890718541165842E-05 
    1.0010838765520224E-06 
    1.0000000000000002E-06 
    9.9999999999999995E-07 
    9.9999999999999995E-07 
    9.9999999999999995E-07 
    9.9999999999999995E-07 
    9.9999999999999995E-07 
    9.9999999999999995E-07 
    9.9999999999999995E-07 
    5.4415746752255578E-01 
    5.3795546955906659E-01 
    5.1395966632980072E-01 
    4.6134648032768660E-01 
    2.3725063482502418E-01 
    3.2632194596576157E-03 
    1.3403649760721068E-06 
    1.0000000796371487E-06 
    1.0000000000000012E-06 
    9.9999999999999995E-07 
    9.9999999999999995E-07 
    9.9999999999999995E-07 
    9.9999999999999995E-07 
    9.9999999999999995E-07 
    9.9999999999999995E-07 
    9.9999999999999995E-07 
    4.8833933280633163E-01 
    4.8236156165265559E-01 
    4.5092061946380918E-01 
    3.0647824812803326E-01 
    4.6349404923536189E-02 
    8.4568055051215344E-05 
    1.0006891537756157E-06 
    1.0000000000000139E-06 
    9.9999999999999995E-07 
    9.9999999999999995E-07 
    9.9999999999999995E-07 
    9.9999999999999995E-07 
    9.9999999999999995E-07 
    9.9999999999999995E-07 
    9.9999999999999995E-07 
    9.9999999999999995E-07 
    2.9598059366283952E-01 
    2.9816209482213057E-01 
    1.9347793442316111E-01 
    3.5331687420429497E-02 
    1.4388280518794341E-04 
    1.0022140778757292E-06 
    1.0000000001906910E-06 
    9.9999999999999995E-07 
    9.9999999999999995E-07 
    9.9999999999999995E-07 
    9.9999999999999995E-07 
    9.9999999999999995E-07 
    9.9999999999999995E-07 
    9.9999999999999995E-07 
    9.9999999999999995E-07 
    9.9999999999999995E-07 
    3.6225919338905683E-03 
    4.5974816276110365E-03 
    4.7674055102681101E-04 
    5.1515277553721181E-05 
    1.0015892742873175E-06 
    1.0000000003450621E-06 
    9.9999999999999995E-07 
    9.9999999999999995E-07 
    9.9999999999999995E-07 
    9.9999999999999995E-07 
    9.9999999999999995E-07 
    9.9999999999999995E-07 
    9.9999999999999995E-07 
    9.9999999999999995E-07 
    9.9999999999999995E-07 
    9.9999999999999995E-07 
    1.0000002094719849E-06 
    1.0263764550597841E-06 
    1.0235997345463542E-06 
    1.0001674601261337E-06 
    1.0000000000572139E-06 
    9.9999999999999995E-07 
    9.9999999999999995E-07 
    9.9999999999999995E-07 
    9.9999999999999995E-07 
    9.9999999999999995E-07 
    9.9999999999999995E-07 
    9.9999999999999995E-07 
    9.9999999999999995E-07 
    9.9999999999999995E-07 
    9.9999999999999995E-07 
    9.9999999999999995E-07 
    1.0000000000000353E-06 
    1.0000000017118781E-06 
    1.0000000021042953E-06 
    1.0000000000000040E-06 
    9.9999999999999995E-07 
    9.9999999999999995E-07 
    9.9999999999999995E-07 
    9.9999999999999995E-07 
    9.9999999999999995E-07 
    9.9999999999999995E-07 
    9.9999999999999995E-07 
    9.9999999999999995E-07 
    9.9999999999999995E-07 
    9.9999999999999995E-07 
    9.9999999999999995E-07 
    9.9999999999999995E-07 
    9.9999999999999995E-07 
    1.0000000000000002E-06 
    9.9999999999999995E-07 
    9.9999999999999995E-07 
    9.9999999999999995E-07 
    9.9999999999999995E-07 
    9.9999999999999995E-07 
    9.9999999999999995E-07 
    9.9999999999999995E-07 
    9.9999999999999995E-07 
    9.9999999999999995E-07 
    9.9999999999999995E-07 
    9.9999999999999995E-07 
    9.9999999999999995E-07 
    9.9999999999999995E-07 
    9.9999999999999995E-07 
    9.9999999999999995E-07 
    9.9999999999999995E-07 
    9.9999999999999995E-07 
    9.9999999999999995E-07 
    9.9999999999999995E-07 
    9.9999999999999995E-07 
    9.9999999999999995E-07 
    9.9999999999999995E-07 
    9.9999999999999995E-07 
    9.9999999999999995E-07 
    9.9999999999999995E-07 
    9.9999999999999995E-07 
    9.9999999999999995E-07 
    9.9999999999999995E-07 
    9.9999999999999995E-07 
    9.9999999999999995E-07 
    9.9999999999999995E-07 
    9.9999999999999995E-07 
    9.9999999999999995E-07 
    9.9999999999999995E-07 
    9.9999999999999995E-07 
    9.9999999999999995E-07 
    9.9999999999999995E-07 
    9.9999999999999995E-07 
    9.9999999999999995E-07 
    9.9999999999999995E-07 
    9.9999999999999995E-07 
    9.9999999999999995E-07 
    9.9999999999999995E-07 
    9.9999999999999995E-07 
    9.9999999999999995E-07 
    1.0000001424402871E-06 
