# vtk DataFile Version 2.0
Pressure Field Data 
ASCII 
DATASET UNSTRUCTURED_GRID 

POINTS 289 double 

    0.0000000000000000E+00     0.0000000000000000E+00     0.0000000000000000E+00 
    1.0000000000000000E+00     0.0000000000000000E+00     0.0000000000000000E+00 
    1.0000000000000000E+00     1.0000000000000000E+00     0.0000000000000000E+00 
    0.0000000000000000E+00     1.0000000000000000E+00     0.0000000000000000E+00 
    6.2499999999872928E-02     0.0000000000000000E+00     0.0000000000000000E+00 
    1.2499999999977310E-01     0.0000000000000000E+00     0.0000000000000000E+00 
    1.8749999999959341E-01     0.0000000000000000E+00     0.0000000000000000E+00 
    2.4999999999941089E-01     0.0000000000000000E+00     0.0000000000000000E+00 
    3.1249999999922851E-01     0.0000000000000000E+00     0.0000000000000000E+00 
    3.7499999999904610E-01     0.0000000000000000E+00     0.0000000000000000E+00 
    4.3749999999886358E-01     0.0000000000000000E+00     0.0000000000000000E+00 
    4.9999999999869210E-01     0.0000000000000000E+00     0.0000000000000000E+00 
    5.6249999999884603E-01     0.0000000000000000E+00     0.0000000000000000E+00 
    6.2499999999901090E-01     0.0000000000000000E+00     0.0000000000000000E+00 
    6.8749999999917577E-01     0.0000000000000000E+00     0.0000000000000000E+00 
    7.4999999999934064E-01     0.0000000000000000E+00     0.0000000000000000E+00 
    8.1249999999950551E-01     0.0000000000000000E+00     0.0000000000000000E+00 
    8.7499999999967026E-01     0.0000000000000000E+00     0.0000000000000000E+00 
    9.3749999999983513E-01     0.0000000000000000E+00     0.0000000000000000E+00 
    1.0000000000000000E+00     6.2499999999872928E-02     0.0000000000000000E+00 
    1.0000000000000000E+00     1.2499999999977310E-01     0.0000000000000000E+00 
    1.0000000000000000E+00     1.8749999999959341E-01     0.0000000000000000E+00 
    1.0000000000000000E+00     2.4999999999941089E-01     0.0000000000000000E+00 
    1.0000000000000000E+00     3.1249999999922851E-01     0.0000000000000000E+00 
    1.0000000000000000E+00     3.7499999999904610E-01     0.0000000000000000E+00 
    1.0000000000000000E+00     4.3749999999886358E-01     0.0000000000000000E+00 
    1.0000000000000000E+00     4.9999999999869210E-01     0.0000000000000000E+00 
    1.0000000000000000E+00     5.6249999999884603E-01     0.0000000000000000E+00 
    1.0000000000000000E+00     6.2499999999901090E-01     0.0000000000000000E+00 
    1.0000000000000000E+00     6.8749999999917577E-01     0.0000000000000000E+00 
    1.0000000000000000E+00     7.4999999999934064E-01     0.0000000000000000E+00 
    1.0000000000000000E+00     8.1249999999950551E-01     0.0000000000000000E+00 
    1.0000000000000000E+00     8.7499999999967026E-01     0.0000000000000000E+00 
    1.0000000000000000E+00     9.3749999999983513E-01     0.0000000000000000E+00 
    9.3749999999973976E-01     1.0000000000000000E+00     0.0000000000000000E+00 
    8.7499999999950118E-01     1.0000000000000000E+00     0.0000000000000000E+00 
    8.1249999999991318E-01     1.0000000000000000E+00     0.0000000000000000E+00 
    7.5000000000034706E-01     1.0000000000000000E+00     0.0000000000000000E+00 
    6.8750000000078049E-01     1.0000000000000000E+00     0.0000000000000000E+00 
    6.2500000000121403E-01     1.0000000000000000E+00     0.0000000000000000E+00 
    5.6250000000164757E-01     1.0000000000000000E+00     0.0000000000000000E+00 
    5.0000000000205946E-01     1.0000000000000000E+00     0.0000000000000000E+00 
    4.3750000000182099E-01     1.0000000000000000E+00     0.0000000000000000E+00 
    3.7500000000156092E-01     1.0000000000000000E+00     0.0000000000000000E+00 
    3.1250000000130068E-01     1.0000000000000000E+00     0.0000000000000000E+00 
    2.5000000000104050E-01     1.0000000000000000E+00     0.0000000000000000E+00 
    1.8750000000078040E-01     1.0000000000000000E+00     0.0000000000000000E+00 
    1.2500000000052031E-01     1.0000000000000000E+00     0.0000000000000000E+00 
    6.2500000000260125E-02     1.0000000000000000E+00     0.0000000000000000E+00 
    0.0000000000000000E+00     9.3749999999973976E-01     0.0000000000000000E+00 
    0.0000000000000000E+00     8.7499999999950118E-01     0.0000000000000000E+00 
    0.0000000000000000E+00     8.1249999999991318E-01     0.0000000000000000E+00 
    0.0000000000000000E+00     7.5000000000034706E-01     0.0000000000000000E+00 
    0.0000000000000000E+00     6.8750000000078049E-01     0.0000000000000000E+00 
    0.0000000000000000E+00     6.2500000000121403E-01     0.0000000000000000E+00 
    0.0000000000000000E+00     5.6250000000164757E-01     0.0000000000000000E+00 
    0.0000000000000000E+00     5.0000000000205946E-01     0.0000000000000000E+00 
    0.0000000000000000E+00     4.3750000000182099E-01     0.0000000000000000E+00 
    0.0000000000000000E+00     3.7500000000156092E-01     0.0000000000000000E+00 
    0.0000000000000000E+00     3.1250000000130068E-01     0.0000000000000000E+00 
    0.0000000000000000E+00     2.5000000000104050E-01     0.0000000000000000E+00 
    0.0000000000000000E+00     1.8750000000078040E-01     0.0000000000000000E+00 
    0.0000000000000000E+00     1.2500000000052031E-01     0.0000000000000000E+00 
    0.0000000000000000E+00     6.2500000000260125E-02     0.0000000000000000E+00 
    6.2499999999897131E-02     6.2500000000235922E-02     0.0000000000000000E+00 
    6.2499999999921327E-02     1.2500000000047351E-01     0.0000000000000000E+00 
    6.2499999999945530E-02     1.8750000000070621E-01     0.0000000000000000E+00 
    6.2499999999969733E-02     2.5000000000093858E-01     0.0000000000000000E+00 
    6.2499999999993928E-02     3.1250000000117117E-01     0.0000000000000000E+00 
    6.2500000000018124E-02     3.7500000000140382E-01     0.0000000000000000E+00 
    6.2500000000042327E-02     4.3750000000163619E-01     0.0000000000000000E+00 
    6.2500000000066530E-02     5.0000000000184897E-01     0.0000000000000000E+00 
    6.2500000000090733E-02     5.6250000000147260E-01     0.0000000000000000E+00 
    6.2500000000114922E-02     6.2500000000107636E-01     0.0000000000000000E+00 
    6.2500000000139125E-02     6.8750000000068034E-01     0.0000000000000000E+00 
    6.2500000000163328E-02     7.5000000000028411E-01     0.0000000000000000E+00 
    6.2500000000187531E-02     8.1249999999988787E-01     0.0000000000000000E+00 
    6.2500000000211720E-02     8.7499999999951172E-01     0.0000000000000000E+00 
    6.2500000000235922E-02     9.3749999999974565E-01     0.0000000000000000E+00 
    1.2499999999981980E-01     6.2500000000211733E-02     0.0000000000000000E+00 
    1.2499999999986650E-01     1.2500000000042691E-01     0.0000000000000000E+00 
    1.2499999999991319E-01     1.8750000000063199E-01     0.0000000000000000E+00 
    1.2499999999995989E-01     2.5000000000083678E-01     0.0000000000000000E+00 
    1.2500000000000661E-01     3.1250000000104172E-01     0.0000000000000000E+00 
    1.2500000000005329E-01     3.7500000000124661E-01     0.0000000000000000E+00 
    1.2500000000010000E-01     4.3750000000145117E-01     0.0000000000000000E+00 
    1.2500000000014669E-01     5.0000000000163858E-01     0.0000000000000000E+00 
    1.2500000000019340E-01     5.6250000000129741E-01     0.0000000000000000E+00 
    1.2500000000024011E-01     6.2500000000093847E-01     0.0000000000000000E+00 
    1.2500000000028680E-01     6.8750000000057998E-01     0.0000000000000000E+00 
    1.2500000000033351E-01     7.5000000000022127E-01     0.0000000000000000E+00 
    1.2500000000038020E-01     8.1249999999986211E-01     0.0000000000000000E+00 
    1.2500000000042691E-01     8.7499999999952238E-01     0.0000000000000000E+00 
    1.2500000000047359E-01     9.3749999999975164E-01     0.0000000000000000E+00 
    1.8749999999966760E-01     6.2500000000187531E-02     0.0000000000000000E+00 
    1.8749999999974179E-01     1.2500000000038020E-01     0.0000000000000000E+00 
    1.8749999999981601E-01     1.8750000000055780E-01     0.0000000000000000E+00 
    1.8749999999989009E-01     2.5000000000073502E-01     0.0000000000000000E+00 
    1.8749999999996431E-01     3.1250000000091221E-01     0.0000000000000000E+00 
    1.8750000000003850E-01     3.7500000000108941E-01     0.0000000000000000E+00 
    1.8750000000011269E-01     4.3750000000126649E-01     0.0000000000000000E+00 
    1.8750000000018691E-01     5.0000000000142808E-01     0.0000000000000000E+00 
    1.8750000000026110E-01     5.6250000000112244E-01     0.0000000000000000E+00 
    1.8750000000033529E-01     6.2500000000080080E-01     0.0000000000000000E+00 
    1.8750000000040951E-01     6.8750000000047962E-01     0.0000000000000000E+00 
    1.8750000000048361E-01     7.5000000000015843E-01     0.0000000000000000E+00 
    1.8750000000055780E-01     8.1249999999983680E-01     0.0000000000000000E+00 
    1.8750000000063199E-01     8.7499999999953304E-01     0.0000000000000000E+00 
    1.8750000000070621E-01     9.3749999999975764E-01     0.0000000000000000E+00 
    2.4999999999951281E-01     6.2500000000163314E-02     0.0000000000000000E+00 
    2.4999999999961461E-01     1.2500000000033351E-01     0.0000000000000000E+00 
    2.4999999999971650E-01     1.8750000000048361E-01     0.0000000000000000E+00 
    2.4999999999981831E-01     2.5000000000063310E-01     0.0000000000000000E+00 
    2.4999999999992020E-01     3.1250000000078260E-01     0.0000000000000000E+00 
    2.5000000000002198E-01     3.7500000000093209E-01     0.0000000000000000E+00 
    2.5000000000012390E-01     4.3750000000108180E-01     0.0000000000000000E+00 
    2.5000000000022571E-01     5.0000000000121769E-01     0.0000000000000000E+00 
    2.5000000000032763E-01     5.6250000000094724E-01     0.0000000000000000E+00 
    2.5000000000042938E-01     6.2500000000066314E-01     0.0000000000000000E+00 
    2.5000000000053119E-01     6.8750000000037925E-01     0.0000000000000000E+00 
[...]
CELL_DATA 256 
SCALARS Pressure double 1 
LOOKUP_TABLE default 

    8.7805402684162892E-01 
    8.2628032725706291E-01 
    7.9147703704239269E-01 
    7.5869660287372187E-01 
    7.2459994689159779E-01 
    6.8844409160486097E-01 
    6.5013978301239250E-01 
    6.0995365840758897E-01 
    5.6835538324987345E-01 
    5.2604110531786163E-01 
    4.8407954968091466E-01 
    4.4419037171853198E-01 
    4.0882632251181483E-01 
    3.7957709759554381E-01 
    3.5649124172632396E-01 
    3.4594484518328078E-01 
    8.6411534835429593E-01 
    8.2776440466484635E-01 
    7.9415517261675106E-01 
    7.6168151851477528E-01 
    7.2785843747291590E-01 
    6.9196590967433347E-01 
    6.5389087906466636E-01 
    6.1386996420290096E-01 
    5.7234308125589017E-01 
    5.2996539310087998E-01 
    4.8774259021807187E-01 
    4.4731492298145537E-01 
    4.1113496627284402E-01 
    3.8102372788669053E-01 
    3.5691001762885805E-01 
    3.4551575587286748E-01 
    8.5339209023050588E-01 
    8.2704667581129521E-01 
    7.9601875776978659E-01 
    7.6426739627846496E-01 
    7.3084975448883138E-01 
    6.9527677415483180E-01 
    6.5746052118304688E-01 
    6.1761426017938226E-01 
    5.7614112659571970E-01 
    5.3364343733850073E-01 
    4.9104843010559429E-01 
    4.4989575219138805E-01 
    4.1261902580166554E-01 
    3.8135074373888933E-01 
    3.5602113869749774E-01 
    3.4392068836214068E-01 
    8.4487044011648427E-01 
    8.2516817162322553E-01 
    7.9710147546496246E-01 
    7.6643945277067282E-01 
    7.3357903837501870E-01 
    6.9838656646420694E-01 
    6.6085668296825861E-01 
    6.2119741595755495E-01 
    5.7977273689873521E-01 
    5.3711858584037109E-01 
    4.9406372389491582E-01 
    4.5201859587861937E-01 
    4.1336289450552843E-01 
    3.8056898552027224E-01 
    3.5374826765631012E-01 
    3.4095656279381675E-01 
    8.3789523212396655E-01 
    8.2270469243003475E-01 
    7.9752986680529803E-01 
    7.6820724045082012E-01 
    7.3605401328655262E-01 
    7.0131167906847625E-01 
    6.6409854391980727E-01 
    6.2464080099606822E-01 
    5.8326762662284115E-01 
    5.4043843414046067E-01 
    4.9686162502831593E-01 
    4.5378280498567181E-01 
    4.1347150233194102E-01 
    3.7870728102864482E-01 
    3.5001637521220508E-01 
    3.3642100003182995E-01 
    8.3210884722642298E-01 
    8.2001729150319325E-01 
    7.9746137470798972E-01 
    7.6960901134223547E-01 
    7.3828950798492321E-01 
    7.0407066137586871E-01 
    6.6721181569139021E-01 
    6.2797456467119939E-01 
    5.8666126475274627E-01 
    5.4365216260651361E-01 
    4.9951685467617046E-01 
    4.5529628790947657E-01 
    4.1306850390522443E-01 
    3.7582531167686417E-01 
    3.4477127028977739E-01 
    3.3010006763525856E-01 
    8.2728139155548686E-01 
    8.1734070647751877E-01 
    7.9706104831073621E-01 
    7.7071032857332544E-01 
    7.4031294606002140E-01 
    7.0668419688562478E-01 
    6.7022130751660380E-01 
    6.3123049953427468E-01 
    5.8999294662885549E-01 
    5.4681113950321425E-01 
    5.0210618315317468E-01 
    4.5667395201442729E-01 
    4.1229957300251091E-01 
    3.7203714431702806E-01 
    3.3799491357774125E-01 
    3.2174057676128387E-01 
    8.2325052889228589E-01 
    8.1482158457537035E-01 
    7.9647663520307910E-01 
    7.7158728639730212E-01 
    7.4216150960742844E-01 
    7.0917596755390866E-01 
    6.7314957768410510E-01 
    6.3443683047863386E-01 
    5.9330134934828349E-01 
    5.4996952931195553E-01 
    5.0471089832986027E-01 
    4.5804248972623807E-01 
    4.1134212998870540E-01 
    3.6751840844575678E-01 
    3.2965587931347617E-01 
    3.1092294374834578E-01 
    8.1989868591066395E-01 
    8.1254706354168671E-01 
    7.9582910175052524E-01 
    7.7231792440605951E-01 
    7.4387921857996453E-01 
    7.1157248545332707E-01 
    6.7601652373254484E-01 
    6.3761653235721893E-01 
    5.9662130137927816E-01 
    5.5318039865397250E-01 
    5.0741333232758556E-01 
    4.5953727300613817E-01 
    4.1040732328063512E-01 
    3.6249765620101176E-01 
    3.1966353101991440E-01 
    2.9692701867507237E-01 
    8.1714116113585222E-01 
    8.1056898684547285E-01 
    7.9521452605324439E-01 
    7.7297801889676521E-01 
    7.4551614461583560E-01 
    7.1390460091858687E-01 
    6.7884228464530516E-01 
    6.4079048542791384E-01 
    5.9998485100490584E-01 
    5.5649332819479636E-01 
    5.1029276450353256E-01 
    4.6129763880852154E-01 
    4.0973899322856266E-01 
    3.5727932475977603E-01 
    3.0797902997592325E-01 
    2.7884923739164619E-01 
    8.1492085436816286E-01 
    8.0892432006491521E-01 
    7.9471478567981690E-01 
    7.7364295949803141E-01 
    7.4712968584437900E-01 
    7.1621261962903859E-01 
    6.8165332670932988E-01 
    6.4398084338321526E-01 
    6.0342004043253916E-01 
    5.5994756416987379E-01 
    5.1341498574402633E-01 
    4.6345528282148224E-01 
    4.0960562330333455E-01 
    3.5229167452382681E-01 
    2.9479949752135021E-01 
    2.5583169271418849E-01 
    8.1320938231505446E-01 
    8.0765309697351984E-01 
    7.9440927408165962E-01 
    7.7438994982895482E-01 
    7.4878420768825438E-01 
    7.1854740430083885E-01 
    6.8448340701093513E-01 
    6.4720391405715405E-01 
    6.0693338780868022E-01 
    5.6354463774103858E-01 
    5.1679279257613964E-01 
    4.6608386273901897E-01 
    4.1024619010750063E-01 
    3.4806497989665280E-01 
    2.8060581892626807E-01 
    2.2696723780541639E-01 
    8.1196470424663214E-01 
    8.0677588451827231E-01 
    7.9435963633711582E-01 
    7.7528286111681555E-01 
    7.5053219618742684E-01 
    7.2094695975753365E-01 
    6.8733970175754733E-01 
    6.5038314231995897E-01 
    6.1036030870811664E-01 
    5.6708805366749238E-01 
    5.2019579257487747E-01 
    4.6897636150611072E-01 
    4.1164952358077528E-01 
    3.4497599331402568E-01 
    2.6594752074492234E-01 
    1.9075581254924301E-01 
    8.1094837956839794E-01 
    8.0614276287485542E-01 
    7.9449524658723669E-01 
    7.7625617864331331E-01 
    7.5226689112669554E-01 
    7.2329462800246969E-01 
    6.9011855344356421E-01 
    6.5343107077601703E-01 
    6.1361306454422271E-01 
    5.7056083673905567E-01 
    5.2375202891402350E-01 
    4.7235828701937665E-01 
    4.1406908890687089E-01 
    3.4350526023697270E-01 
    2.5154981311368246E-01 
    1.4427100603817697E-01 
    8.1026240760735735E-01 
    8.0578103254619171E-01 
    7.9482361559831227E-01 
    7.7732909679463835E-01 
    7.5401162887188977E-01 
    7.2563002258458620E-01 
    6.9293131173461575E-01 
    6.5659605624412842E-01 
    6.1705726026335250E-01 
    5.7430720576268823E-01 
    5.2777530910777393E-01 
    4.7652606578247531E-01 
    4.1803976291084316E-01 
    3.4549200369621885E-01 
    2.4101745517519774E-01 
    8.2745822462417934E-02 
    8.1007684905063637E-01 
    8.0596275067763190E-01 
    7.9562370699363705E-01 
    7.7879283877612326E-01 
    7.5608473486403260E-01 
    7.2825147767103382E-01 
    6.9602708586374940E-01 
    6.6007876653895659E-01 
    6.2086415844317711E-01 
    5.7841534130718619E-01 
    5.3221937573050748E-01 
    4.8133533892026376E-01 
    4.2331159611966962E-01 
    3.5142382034386094E-01 
    2.4247440015683672E-01 
    0.0000000000000000E+00 

SCALARS Saturarion double 1 
LOOKUP_TABLE default 

    1.0000000000000016E+00 
    9.6644906473171022E-01 
    9.0840355879301016E-01 
    8.3725964189457436E-01 
    7.7689927270930070E-01 
    7.2680013488898365E-01 
    6.8581170130185998E-01 
    6.5146316785214753E-01 
    6.2121309916450596E-01 
    5.9317454305284212E-01 
    5.6616277743739374E-01 
    5.3937618245210617E-01 
    5.0873331577568282E-01 
    4.3024205680772576E-01 
    9.9961618749543332E-02 
    1.0000007963756562E-06 
    9.8626488805076118E-01 
    9.5447605326653628E-01 
    8.9370465335875204E-01 
    8.2777207726469892E-01 
    7.7158999779782178E-01 
    7.2352492425217341E-01 
    6.8301323769299815E-01 
    6.4862983300877364E-01 
    6.1862107966677748E-01 
    5.9123239666099325E-01 
    5.6515434859166058E-01 
    5.3933723372050613E-01 
    5.0979887611928154E-01 
    4.3649163714815903E-01 
    1.2236850431195220E-01 
    3.9518577741089612E-06 
    9.6469384803955693E-01 
    9.3384120812814220E-01 
    8.7366209844403964E-01 
    8.1178742437605178E-01 
    7.6076716892570562E-01 
    7.1631320277738675E-01 
    6.7716840880373119E-01 
    6.4289932955775431E-01 
    6.1313294939234253E-01 
    5.8672224220937630E-01 
    5.6223319066208521E-01 
    5.3806143274055285E-01 
    5.1052433617763771E-01 
    4.4545263533968166E-01 
    1.4942855064799132E-01 
    1.0920012936229421E-05 
    9.2685969260031287E-01 
    9.0213649666867057E-01 
    8.4940053576631447E-01 
    7.9213809533632351E-01 
    7.4409407785424220E-01 
    7.0391300440927762E-01 
    6.6817357509116071E-01 
    6.3616769980121179E-01 
    6.0767541554724691E-01 
    5.8234763708793114E-01 
    5.5900216583965190E-01 
    5.3631523719600427E-01 
    5.1137172370244555E-01 
    4.5424381587823015E-01 
    1.8264964261381150E-01 
    8.7999353311928741E-05 
    8.8460337018228963E-01 
    8.6379060745941583E-01 
    8.1828744519926144E-01 
    7.6770632243183512E-01 
    7.2355083989361368E-01 
    6.8663290635584073E-01 
    6.5481162110437996E-01 
    6.2646153708900698E-01 
    6.0085011292429424E-01 
    5.7750616369490249E-01 
    5.5580645392731554E-01 
    5.3478525445580427E-01 
    5.1194254313462029E-01 
    4.6227820176820922E-01 
    2.1883187714028504E-01 
    3.1980427050208251E-04 
    8.4080495143820588E-01 
    8.2401871128450299E-01 
    7.8599116741936270E-01 
    7.4208193199288919E-01 
    7.0200009230572391E-01 
    6.6762198817695639E-01 
    6.3831008430653713E-01 
    6.1312842320732819E-01 
    5.9063897710449154E-01 
    5.6986327856633190E-01 
    5.5039259754545888E-01 
    5.3177977825741618E-01 
    5.1190862628565048E-01 
    4.6875353395299035E-01 
    2.6024694999517844E-01 
    1.3707437519614740E-03 
    7.9568737810811008E-01 
    7.8368555905182724E-01 
    7.5333228171407940E-01 
    7.1546537365880070E-01 
    6.7943326551666916E-01 
    6.4790717543303933E-01 
    6.2109065987139511E-01 
    5.9797311428738675E-01 
    5.7781798585332322E-01 
    5.5964183053475847E-01 
    5.4282793816717334E-01 
    5.2682538631309750E-01 
    5.1025005826737124E-01 
    4.7447049778503181E-01 
    3.0511154482644171E-01 
    6.5220963141669657E-03 
    7.4935035595400934E-01 
    7.4227012723694685E-01 
    7.1973324797738580E-01 
    6.8796577819890581E-01 
    6.5572839410785810E-01 
    6.2694758739291967E-01 
    6.0205142987629445E-01 
    5.8083476392076983E-01 
    5.6278104373001447E-01 
    5.4724461125056256E-01 
    5.3319695180415405E-01 
    5.2010094899064141E-01 
    5.0692150333771646E-01 
    4.7920382116850840E-01 
    3.4419406378517919E-01 
    2.6508138487153013E-02 
    7.0186783133891295E-01 
    6.9911927601979929E-01 
    6.8355333712446964E-01 
    6.5821376938468057E-01 
    6.3062431248742534E-01 
    6.0463725187777062E-01 
    5.8138791570297343E-01 
    5.6124302100484380E-01 
    5.4481686288083098E-01 
    5.3167633557165039E-01 
    5.2080861014977275E-01 
    5.1107902460173915E-01 
    5.0161618327992419E-01 
    4.8182518520753193E-01 
    3.7422814761199752E-01 
    6.4546809529157548E-02 
    6.5326202795583643E-01 
    6.5425210940168854E-01 
    6.4486623502266438E-01 
    6.2559853716191560E-01 
    6.0311075975340089E-01 
    5.8070073327151672E-01 
    5.5943194511540217E-01 
    5.4073244066925874E-01 
    5.2587066428412177E-01 
    5.1442148645888242E-01 
    5.0542104006493038E-01 
    4.9895545808896219E-01 
    4.9397958361897204E-01 
    4.8191200887293068E-01 
    3.9677982979414711E-01 
    1.1294043399194000E-01 
    6.0432575715568693E-01 
    6.0831438562092444E-01 
    6.0442113962596533E-01 
    5.9086128811616911E-01 
    5.7330697179543499E-01 
    5.5505000012728334E-01 
    5.3742246278467831E-01 
    5.2088770509444260E-01 
    5.0666000398082744E-01 
    4.9504162393624368E-01 
    4.8621549881116388E-01 
    4.8167355169113346E-01 
    4.8186734652755803E-01 
    4.7845977525270095E-01 
    4.1621719834411097E-01 
    1.6034313514329065E-01 
    5.5795407569714062E-01 
    5.6384794342443167E-01 
    5.6445698749400053E-01 
    5.5553732420104684E-01 
    5.4149516668091191E-01 
    5.2696586170169413E-01 
    5.1307483721007474E-01 
    4.9808146910046730E-01 
    4.8156531472404368E-01 
    4.6537454895245717E-01 
    4.5174909028313404E-01 
    4.4674403058395745E-01 
    4.5429954014222812E-01 
    4.6642026326803715E-01 
    4.2987675578931767E-01 
    2.0403703544784144E-01 
    5.0133458366453854E-01 
    5.1259211595042264E-01 
    5.1768089844907073E-01 
    5.1375782104182732E-01 
    5.0118071597859248E-01 
    4.8644732656295886E-01 
    4.7063118723535419E-01 
    4.4576235448957846E-01 
    3.8152195669871958E-01 
    2.9619105502082332E-01 
    2.4871012571772472E-01 
    2.4529311457436520E-01 
    3.3334355039199587E-01 
    4.1647749381779242E-01 
    4.2161161506974476E-01 
    2.4404595973200027E-01 
    2.8284422388583197E-01 
    3.6451376150833931E-01 
    4.0113089501820165E-01 
    4.0140148891396638E-01 
    3.6284207525671014E-01 
    2.8290623615850585E-01 
    2.2655746765814688E-01 
    1.4029269803031819E-01 
    3.5856012009027861E-02 
    4.7902857333723551E-03 
    8.4668353233353423E-04 
    7.8741379614390887E-04 
    5.6241965042140039E-02 
    2.2451198438493394E-01 
    3.7526068289800013E-01 
    2.6685458811657420E-01 
    1.0964324517736984E-03 
    2.7925764522716699E-02 
    4.7803130920751419E-02 
    4.1731547837463731E-02 
    1.9567021917389581E-02 
    2.1427864383776756E-03 
    3.4293098862618669E-04 
    3.8875503496489791E-05 
    1.1027364060779454E-05 
    1.2984741939691785E-06 
    1.0097156759416667E-06 
    1.0242982532652706E-06 
    2.4627876095461670E-04 
    3.8481879648988589E-02 
    2.7298851831653392E-01 
    2.7486794638062545E-01 
    1.0000024868423595E-06 
    7.9249108667351742E-06 
    2.2950924069719369E-06 
    2.7489093378867346E-06 
    3.7859718668248352E-06 
    1.0450584338626550E-06 
    1.0015262517443744E-06 
    1.0001189674137255E-06 
    1.0000027068297368E-06 
    1.0000000177349784E-06 
    1.0000000005969538E-06 
    1.0000000002109558E-06 
    1.0064225596070996E-06 
    0.0000000000000000E+00 
    1.2559866102553860E-01 
    2.4239673134654749E-01 
