# vtk DataFile Version 2.0
Pressure Field Data 
ASCII 
DATASET UNSTRUCTURED_GRID 

POINTS 289 double 

    0.0000000000000000E+00     0.0000000000000000E+00     0.0000000000000000E+00 
    1.0000000000000000E+00     0.0000000000000000E+00     0.0000000000000000E+00 
    1.0000000000000000E+00     1.0000000000000000E+00     0.0000000000000000E+00 
    0.0000000000000000E+00     1.0000000000000000E+00     0.0000000000000000E+00 
    6.2499999999872928E-02     0.0000000000000000E+00     0.0000000000000000E+00 
    1.2499999999977310E-01     0.0000000000000000E+00     0.0000000000000000E+00 
    1.8749999999959341E-01     0.0000000000000000E+00     0.0000000000000000E+00 
    2.4999999999941089E-01     0.0000000000000000E+00     0.0000000000000000E+00 
    3.1249999999922851E-01     0.0000000000000000E+00     0.0000000000000000E+00 
    3.7499999999904610E-01     0.0000000000000000E+00     0.0000000000000000E+00 
    4.3749999999886358E-01     0.0000000000000000E+00     0.0000000000000000E+00 
    4.9999999999869210E-01     0.0000000000000000E+00     0.0000000000000000E+00 
    5.6249999999884603E-01     0.0000000000000000E+00     0.0000000000000000E+00 
    6.2499999999901090E-01     0.0000000000000000E+00     0.0000000000000000E+00 
    6.8749999999917577E-01     0.0000000000000000E+00     0.0000000000000000E+00 
    7.4999999999934064E-01     0.0000000000000000E+00     0.0000000000000000E+00 
    8.1249999999950551E-01     0.0000000000000000E+00     0.0000000000000000E+00 
    8.7499999999967026E-01     0.0000000000000000E+00     0.0000000000000000E+00 
    9.3749999999983513E-01     0.0000000000000000E+00     0.0000000000000000E+00 
    1.0000000000000000E+00     6.2499999999872928E-02     0.0000000000000000E+00 
    1.0000000000000000E+00     1.2499999999977310E-01     0.0000000000000000E+00 
    1.0000000000000000E+00     1.8749999999959341E-01     0.0000000000000000E+00 
    1.0000000000000000E+00     2.4999999999941089E-01     0.0000000000000000E+00 
    1.0000000000000000E+00     3.1249999999922851E-01     0.0000000000000000E+00 
    1.0000000000000000E+00     3.7499999999904610E-01     0.0000000000000000E+00 
    1.0000000000000000E+00     4.3749999999886358E-01     0.0000000000000000E+00 
    1.0000000000000000E+00     4.9999999999869210E-01     0.0000000000000000E+00 
    1.0000000000000000E+00     5.6249999999884603E-01     0.0000000000000000E+00 
    1.0000000000000000E+00     6.2499999999901090E-01     0.0000000000000000E+00 
    1.0000000000000000E+00     6.8749999999917577E-01     0.0000000000000000E+00 
    1.0000000000000000E+00     7.4999999999934064E-01     0.0000000000000000E+00 
    1.0000000000000000E+00     8.1249999999950551E-01     0.0000000000000000E+00 
    1.0000000000000000E+00     8.7499999999967026E-01     0.0000000000000000E+00 
    1.0000000000000000E+00     9.3749999999983513E-01     0.0000000000000000E+00 
    9.3749999999973976E-01     1.0000000000000000E+00     0.0000000000000000E+00 
    8.7499999999950118E-01     1.0000000000000000E+00     0.0000000000000000E+00 
    8.1249999999991318E-01     1.0000000000000000E+00     0.0000000000000000E+00 
    7.5000000000034706E-01     1.0000000000000000E+00     0.0000000000000000E+00 
    6.8750000000078049E-01     1.0000000000000000E+00     0.0000000000000000E+00 
    6.2500000000121403E-01     1.0000000000000000E+00     0.0000000000000000E+00 
    5.6250000000164757E-01     1.0000000000000000E+00     0.0000000000000000E+00 
    5.0000000000205946E-01     1.0000000000000000E+00     0.0000000000000000E+00 
    4.3750000000182099E-01     1.0000000000000000E+00     0.0000000000000000E+00 
    3.7500000000156092E-01     1.0000000000000000E+00     0.0000000000000000E+00 
    3.1250000000130068E-01     1.0000000000000000E+00     0.0000000000000000E+00 
    2.5000000000104050E-01     1.0000000000000000E+00     0.0000000000000000E+00 
    1.8750000000078040E-01     1.0000000000000000E+00     0.0000000000000000E+00 
    1.2500000000052031E-01     1.0000000000000000E+00     0.0000000000000000E+00 
    6.2500000000260125E-02     1.0000000000000000E+00     0.0000000000000000E+00 
    0.0000000000000000E+00     9.3749999999973976E-01     0.0000000000000000E+00 
    0.0000000000000000E+00     8.7499999999950118E-01     0.0000000000000000E+00 
    0.0000000000000000E+00     8.1249999999991318E-01     0.0000000000000000E+00 
    0.0000000000000000E+00     7.5000000000034706E-01     0.0000000000000000E+00 
    0.0000000000000000E+00     6.8750000000078049E-01     0.0000000000000000E+00 
    0.0000000000000000E+00     6.2500000000121403E-01     0.0000000000000000E+00 
    0.0000000000000000E+00     5.6250000000164757E-01     0.0000000000000000E+00 
    0.0000000000000000E+00     5.0000000000205946E-01     0.0000000000000000E+00 
    0.0000000000000000E+00     4.3750000000182099E-01     0.0000000000000000E+00 
    0.0000000000000000E+00     3.7500000000156092E-01     0.0000000000000000E+00 
    0.0000000000000000E+00     3.1250000000130068E-01     0.0000000000000000E+00 
    0.0000000000000000E+00     2.5000000000104050E-01     0.0000000000000000E+00 
    0.0000000000000000E+00     1.8750000000078040E-01     0.0000000000000000E+00 
    0.0000000000000000E+00     1.2500000000052031E-01     0.0000000000000000E+00 
    0.0000000000000000E+00     6.2500000000260125E-02     0.0000000000000000E+00 
    6.2499999999897131E-02     6.2500000000235922E-02     0.0000000000000000E+00 
    6.2499999999921327E-02     1.2500000000047351E-01     0.0000000000000000E+00 
    6.2499999999945530E-02     1.8750000000070621E-01     0.0000000000000000E+00 
    6.2499999999969733E-02     2.5000000000093858E-01     0.0000000000000000E+00 
    6.2499999999993928E-02     3.1250000000117117E-01     0.0000000000000000E+00 
    6.2500000000018124E-02     3.7500000000140382E-01     0.0000000000000000E+00 
    6.2500000000042327E-02     4.3750000000163619E-01     0.0000000000000000E+00 
    6.2500000000066530E-02     5.0000000000184897E-01     0.0000000000000000E+00 
    6.2500000000090733E-02     5.6250000000147260E-01     0.0000000000000000E+00 
    6.2500000000114922E-02     6.2500000000107636E-01     0.0000000000000000E+00 
    6.2500000000139125E-02     6.8750000000068034E-01     0.0000000000000000E+00 
    6.2500000000163328E-02     7.5000000000028411E-01     0.0000000000000000E+00 
    6.2500000000187531E-02     8.1249999999988787E-01     0.0000000000000000E+00 
    6.2500000000211720E-02     8.7499999999951172E-01     0.0000000000000000E+00 
    6.2500000000235922E-02     9.3749999999974565E-01     0.0000000000000000E+00 
    1.2499999999981980E-01     6.2500000000211733E-02     0.0000000000000000E+00 
    1.2499999999986650E-01     1.2500000000042691E-01     0.0000000000000000E+00 
    1.2499999999991319E-01     1.8750000000063199E-01     0.0000000000000000E+00 
    1.2499999999995989E-01     2.5000000000083678E-01     0.0000000000000000E+00 
    1.2500000000000661E-01     3.1250000000104172E-01     0.0000000000000000E+00 
    1.2500000000005329E-01     3.7500000000124661E-01     0.0000000000000000E+00 
    1.2500000000010000E-01     4.3750000000145117E-01     0.0000000000000000E+00 
    1.2500000000014669E-01     5.0000000000163858E-01     0.0000000000000000E+00 
    1.2500000000019340E-01     5.6250000000129741E-01     0.0000000000000000E+00 
    1.2500000000024011E-01     6.2500000000093847E-01     0.0000000000000000E+00 
    1.2500000000028680E-01     6.8750000000057998E-01     0.0000000000000000E+00 
    1.2500000000033351E-01     7.5000000000022127E-01     0.0000000000000000E+00 
    1.2500000000038020E-01     8.1249999999986211E-01     0.0000000000000000E+00 
    1.2500000000042691E-01     8.7499999999952238E-01     0.0000000000000000E+00 
    1.2500000000047359E-01     9.3749999999975164E-01     0.0000000000000000E+00 
    1.8749999999966760E-01     6.2500000000187531E-02     0.0000000000000000E+00 
    1.8749999999974179E-01     1.2500000000038020E-01     0.0000000000000000E+00 
    1.8749999999981601E-01     1.8750000000055780E-01     0.0000000000000000E+00 
    1.8749999999989009E-01     2.5000000000073502E-01     0.0000000000000000E+00 
    1.8749999999996431E-01     3.1250000000091221E-01     0.0000000000000000E+00 
    1.8750000000003850E-01     3.7500000000108941E-01     0.0000000000000000E+00 
    1.8750000000011269E-01     4.3750000000126649E-01     0.0000000000000000E+00 
    1.8750000000018691E-01     5.0000000000142808E-01     0.0000000000000000E+00 
    1.8750000000026110E-01     5.6250000000112244E-01     0.0000000000000000E+00 
    1.8750000000033529E-01     6.2500000000080080E-01     0.0000000000000000E+00 
    1.8750000000040951E-01     6.8750000000047962E-01     0.0000000000000000E+00 
    1.8750000000048361E-01     7.5000000000015843E-01     0.0000000000000000E+00 
    1.8750000000055780E-01     8.1249999999983680E-01     0.0000000000000000E+00 
    1.8750000000063199E-01     8.7499999999953304E-01     0.0000000000000000E+00 
    1.8750000000070621E-01     9.3749999999975764E-01     0.0000000000000000E+00 
    2.4999999999951281E-01     6.2500000000163314E-02     0.0000000000000000E+00 
    2.4999999999961461E-01     1.2500000000033351E-01     0.0000000000000000E+00 
    2.4999999999971650E-01     1.8750000000048361E-01     0.0000000000000000E+00 
    2.4999999999981831E-01     2.5000000000063310E-01     0.0000000000000000E+00 
    2.4999999999992020E-01     3.1250000000078260E-01     0.0000000000000000E+00 
    2.5000000000002198E-01     3.7500000000093209E-01     0.0000000000000000E+00 
    2.5000000000012390E-01     4.3750000000108180E-01     0.0000000000000000E+00 
    2.5000000000022571E-01     5.0000000000121769E-01     0.0000000000000000E+00 
    2.5000000000032763E-01     5.6250000000094724E-01     0.0000000000000000E+00 
    2.5000000000042938E-01     6.2500000000066314E-01     0.0000000000000000E+00 
    2.5000000000053119E-01     6.8750000000037925E-01     0.0000000000000000E+00 
[...]
CELL_DATA 256 
SCALARS Pressure double 1 
LOOKUP_TABLE default 

    9.6324539558264399E-01 
    9.0949532853783110E-01 
    8.7172143004412006E-01 
    8.3506105309293688E-01 
    7.9625405214391554E-01 
    7.5475225246262079E-01 
    7.1067161394247003E-01 
    6.6436379111849009E-01 
    6.1625113053280067E-01 
    5.6676420428673557E-01 
    5.1565642784444121E-01 
    4.5822994501869735E-01 
    4.0143642207174601E-01 
    3.5994922470182689E-01 
    3.3416010904513183E-01 
    3.2384731208836259E-01 
    9.4933265563168079E-01 
    9.1116949559002880E-01 
    8.7466392656963343E-01 
    8.3837667491468126E-01 
    7.9992988836141876E-01 
    7.5876396422858461E-01 
    7.1495618238371705E-01 
    6.6884818079291053E-01 
    6.2086141284339780E-01 
    5.7143668768943257E-01 
    5.2042837833374822E-01 
    4.6297079632490934E-01 
    4.0514899384587544E-01 
    3.6199524947316863E-01 
    3.3462701927590138E-01 
    3.2339354747591631E-01 
    9.3856346390937284E-01 
    9.1055513057026904E-01 
    8.7670879327342566E-01 
    8.4120121506083700E-01 
    8.0324779731861295E-01 
    7.6248798974950605E-01 
    7.1899406746701700E-01 
    6.7309802901563376E-01 
    6.2521452746264883E-01 
    5.7577045340938771E-01 
    5.2464460728871498E-01 
    4.6684086418761883E-01 
    4.0780864685418494E-01 
    3.6281669207880779E-01 
    3.3373582413620784E-01 
    3.2174551194928525E-01 
    9.2985551067267380E-01 
    9.0866731095246822E-01 
    8.7788265828192036E-01 
    8.4353313389414986E-01 
    8.0621916320792542E-01 
    7.6593018874164664E-01 
    7.2279271786479815E-01 
    6.7713115068092267E-01 
    6.2934074160703879E-01 
    5.7981211129047294E-01 
    5.2839260840485225E-01 
    4.6996037367771060E-01 
    4.0951436861392443E-01 
    3.6244423111245522E-01 
    3.3140045663831674E-01 
    3.1867633819308266E-01 
    9.2255793413670750E-01 
    9.0606570085482430E-01 
    8.7830578068798504E-01 
    8.4539216191533184E-01 
    8.0886964135386097E-01 
    7.6911849475344718E-01 
    7.2637685688134090E-01 
    6.8097390650693290E-01 
    6.3327551733879639E-01 
    5.8361579732192903E-01 
    5.3176468874003424E-01 
    4.7243627435157937E-01 
    4.1036641915405758E-01 
    3.6093040856727104E-01 
    3.2753457294927113E-01 
    3.1395245574465624E-01 
    9.1637424106623699E-01 
    9.0314464222833535E-01 
    8.7815323187086636E-01 
    8.4683162206884488E-01 
    8.1123691697015621E-01 
    7.7209337243630072E-01 
    7.2978216513553096E-01 
    6.8465724721047438E-01 
    6.3705382892441675E-01 
    5.8722949328895857E-01 
    5.3481929745277434E-01 
    4.7434991832406925E-01 
    4.1048214690470830E-01 
    3.5836077058800331E-01 
    3.2205659710381812E-01 
    3.0731699440059801E-01 
    9.1111455275424014E-01 
    9.0017403917299033E-01 
    8.7761327220392782E-01 
    8.4793063231941379E-01 
    8.1336508360782767E-01 
    7.7489661883088756E-01 
    7.3304803952105424E-01 
    6.8821693464855749E-01 
    6.4071439748375503E-01 
    5.9070104706592264E-01 
    5.3756841109897580E-01 
    4.7577213890397529E-01 
    4.1004180192084949E-01 
    3.5486187858728596E-01 
    3.1489797582108858E-01 
    2.9847444323271954E-01 
    9.0664446798632647E-01 
    8.9732857903718555E-01 
    8.7685350717570754E-01 
    8.4877806563331926E-01 
    8.1530321511627424E-01 
    7.7756797139229239E-01 
    7.3621595434291098E-01 
    6.9169509570834975E-01 
    6.4430054869637365E-01 
    5.9408346521867794E-01 
    5.3998554739886140E-01 
    4.7678034809307618E-01 
    4.0931888438746905E-01 
    3.5061219112726072E-01 
    3.0601517830748992E-01 
    2.8706795546361524E-01 
    9.0286744184831080E-01 
    8.9471960943475914E-01 
    8.7601679285514533E-01 
    8.4946879392792296E-01 
    8.1710635236388196E-01 
    7.8014689905564927E-01 
    7.3932760916477824E-01 
    6.9513687984992012E-01 
    6.4785249759181063E-01 
    5.9739183315210354E-01 
    5.4204026417229567E-01 
    4.7753479182738712E-01 
    4.0868879475516062E-01 
    3.4586746632992821E-01 
    2.9541320594880333E-01 
    2.7265031142381319E-01 
    8.9972689504908210E-01 
    8.9243013030140017E-01 
    8.7522748195284561E-01 
    8.5010006704311813E-01 
    8.1883851227091597E-01 
    7.8267773891162751E-01 
    7.4242106585457079E-01 
    6.9857516298903743E-01 
    6.5137353376876783E-01 
    6.0046453490294782E-01 
    5.4374651382748074E-01 
    4.7843542966369673E-01 
    4.0854446262988114E-01 
    3.4098825803459559E-01 
    2.8318592311720747E-01 
    2.5464266151013426E-01 
    8.9720357548984131E-01 
    8.9053816647479533E-01 
    8.7459944984486171E-01 
    8.5077070202129834E-01 
    8.2057203202447426E-01 
    7.8520285661424616E-01 
    7.4550886006796002E-01 
    7.0196102437439112E-01 
    6.5465755212139498E-01 
    6.0308838574848034E-01 
    5.4542460058097553E-01 
    4.8002033816560730E-01 
    4.0908268659132213E-01 
    3.3644257274097289E-01 
    2.6958360081384047E-01 
    2.3227780731439640E-01 
    8.9523613729155460E-01 
    8.8906829303905943E-01 
    8.7420230903111085E-01 
    8.5154758787412010E-01 
    8.2233514198742585E-01 
    7.8764130423417344E-01 
    7.4838863758867435E-01 
    7.0505611147961800E-01 
    6.5757584852346507E-01 
    6.0561512053118494E-01 
    5.4781547359521476E-01 
    4.8259988500131729E-01 
    4.1045009880214045E-01 
    3.3281428835575094E-01 
    2.5512664416603786E-01 
    2.0451530097411505E-01 
    8.9347338131178022E-01 
    8.8779038027237722E-01 
    8.7387626325189005E-01 
    8.5224717423209395E-01 
    8.2391573347087455E-01 
    7.8982375774308033E-01 
    7.5096988488193173E-01 
    7.0796535373695901E-01 
    6.6065704991536689E-01 
    6.0877079433853798E-01 
    5.5116264087199562E-01 
    4.8608884916371908E-01 
    4.1294558367977352E-01 
    3.3082084981028131E-01 
    2.4080169604565260E-01 
    1.6991593365483215E-01 
    8.9204798578242639E-01 
    8.8670554681031399E-01 
    8.7362257991779191E-01 
    8.5291319147148204E-01 
    8.2542234425180072E-01 
    7.9203746269208675E-01 
    7.5374404845193133E-01 
    7.1120534845412808E-01 
    6.6428534256892602E-01 
    6.1263868002124833E-01 
    5.5524080900670747E-01 
    4.9043453066947473E-01 
    4.1680325937190160E-01 
    3.3126885137072609E-01 
    2.2839158957910619E-01 
    1.2645283193258516E-01 
    8.9129316983815821E-01 
    8.8626450502616005E-01 
    8.7389450128689983E-01 
    8.5402571324295506E-01 
    8.2734353057815435E-01 
    7.9468135894096437E-01 
    7.5696801815073911E-01 
    7.1485661965916969E-01 
    6.6832545203161098E-01 
    6.1702544994140540E-01 
    5.5999417399100648E-01 
    4.9564197814305266E-01 
    4.2212061890296143E-01 
    3.3489627456555981E-01 
    2.2102811982267812E-01 
    7.1223336946189902E-02 
    8.9108486870215953E-01 
    8.8646514223390183E-01 
    8.7480023057043410E-01 
    8.5570104342486519E-01 
    8.2973524376654073E-01 
    7.9771058771760550E-01 
    7.6053277630243132E-01 
    7.1886705644413884E-01 
    6.7276478104330117E-01 
    6.2190406053886771E-01 
    5.6538068744633219E-01 
    5.0166888076673066E-01 
    4.2882921623237330E-01 
    3.4200075637093630E-01 
    2.2411919206627415E-01 
    0.0000000000000000E+00 

SCALARS Saturarion double 1 
LOOKUP_TABLE default 

    1.0000000000000595E+00 
    9.5595805049987725E-01 
    8.8479969597358221E-01 
    7.9880934280644289E-01 
    7.2860938339072623E-01 
    6.7480625950030915E-01 
    6.3194620939169188E-01 
    5.9488601561475785E-01 
    5.6084460558697724E-01 
    5.2731956947880487E-01 
    4.8155460670225542E-01 
    3.3751555426186608E-01 
    1.4070853238716716E-02 
    1.0000000017777472E-06 
    1.0000000000000006E-06 
    9.9999999999999995E-07 
    9.8069261338549674E-01 
    9.3920728716696544E-01 
    8.6497916385654061E-01 
    7.8865097454974997E-01 
    7.2376108264834871E-01 
    6.7084016507066757E-01 
    6.2782941937608305E-01 
    5.9122473817706955E-01 
    5.5813947876506986E-01 
    5.2538144564847655E-01 
    4.8033589858089032E-01 
    3.3907161287906568E-01 
    1.5736877586990734E-02 
    1.0004848164177462E-06 
    1.0000000000561479E-06 
    9.9999999999999995E-07 
    9.5007447747537321E-01 
    9.1172564867010730E-01 
    8.3910094407638192E-01 
    7.7094567767780187E-01 
    7.1309886297755010E-01 
    6.6241718281944240E-01 
    6.1986596074710310E-01 
    5.8423564978363740E-01 
    5.5279197648323186E-01 
    5.2148405665207453E-01 
    4.7822210939710214E-01 
    3.4160795963776536E-01 
    1.7731911927969014E-02 
    1.0007326265480000E-06 
    1.0000000000965160E-06 
    9.9999999999999995E-07 
    8.9795232457587704E-01 
    8.6875978290731437E-01 
    8.0658350449066551E-01 
    7.4539031038595283E-01 
    6.9495367288558940E-01 
    6.5072112930435000E-01 
    6.1178824980593660E-01 
    5.7826723583271478E-01 
    5.4813558830201059E-01 
    5.1836847861959212E-01 
    4.7723445744738296E-01 
    3.4837290257629400E-01 
    2.2647960567449301E-02 
    1.1861981279681295E-06 
    1.0000000340959645E-06 
    9.9999999999999995E-07 
    8.4524871190101014E-01 
    8.2078380128871231E-01 
    7.6938422993587563E-01 
    7.1689674668627468E-01 
    6.7259271288821931E-01 
    6.3467711484075828E-01 
    6.0110301211518269E-01 
    5.7071607084883880E-01 
    5.4251833187401399E-01 
    5.1397556515768295E-01 
    4.7434699363599730E-01 
    3.5006429798711797E-01 
    2.4663435769947013E-02 
    1.1521525142502316E-06 
    1.0000000352165342E-06 
    1.0000000000000021E-06 
    7.9303134638175632E-01 
    7.7426929605103956E-01 
    7.3335620417995317E-01 
    6.8847056178219790E-01 
    6.4902580844157320E-01 
    6.1582550524847579E-01 
    5.8649073040072175E-01 
    5.5943672854366422E-01 
    5.3379943126196328E-01 
    5.0714576780526022E-01 
    4.6779783038674227E-01 
    3.3892401186330989E-01 
    2.0096014266551672E-02 
    2.6094126025647183E-06 
    1.0000002433713262E-06 
    1.0000000000000249E-06 
    7.4180243273534174E-01 
    7.2907339140482874E-01 
    6.9751490280910211E-01 
    6.5938206124616616E-01 
    6.2470862866642751E-01 
    5.9532553178595404E-01 
    5.6986564858030442E-01 
    5.4611960330518516E-01 
    5.2280254286791150E-01 
    4.9778552388210034E-01 
    4.5855615299274932E-01 
    3.1080956624202433E-01 
    1.0290078893427434E-02 
    2.3038188645147035E-06 
    1.0000003919271301E-06 
    9.9999999999999995E-07 
    6.9107062866834934E-01 
    6.8400183609826004E-01 
    6.6142168919700062E-01 
    6.3037609624526580E-01 
    5.9987377069532499E-01 
    5.7311204343594113E-01 
    5.5036971517983524E-01 
    5.3055171314378557E-01 
    5.1050694174573497E-01 
    4.8675370531969175E-01 
    4.4446681319513826E-01 
    2.5780095236873879E-01 
    2.8860995085251721E-03 
    1.2292217521192997E-06 
    1.0000000476967039E-06 
    9.9999999999999995E-07 
    6.4103383764121213E-01 
    6.3867082528783714E-01 
    6.2404675513723751E-01 
    6.0036123614984627E-01 
    5.7449056554042355E-01 
    5.5021714591341664E-01 
    5.2997566869387680E-01 
    5.1271390660827998E-01 
    4.9503768736563641E-01 
    4.7096939006577843E-01 
    4.1265871898222389E-01 
    1.5858952561700868E-01 
    2.5417286815793095E-04 
    1.0123423670807954E-06 
    1.0000000004659460E-06 
    9.9999999999999995E-07 
    5.9330999045321375E-01 
    5.9464826717302532E-01 
    5.8675109527991864E-01 
    5.6921239639979737E-01 
    5.4830837996909543E-01 
    5.2784769461492631E-01 
    5.0929524605944920E-01 
    4.9201488547118111E-01 
    4.7235798022252912E-01 
    4.3678144267055363E-01 
    3.0787244891383397E-01 
    3.4384357649636953E-02 
    5.8885228120292400E-05 
    1.0003739589815926E-06 
    1.0000000000000040E-06 
    9.9999999999999995E-07 
    5.5055707146386246E-01 
    5.5429133735831004E-01 
    5.5056824175151020E-01 
    5.3708326029569320E-01 
    5.2141030932031873E-01 
    5.0390378541454195E-01 
    4.8387340098052478E-01 
    4.5960794178044262E-01 
    4.1407691390864915E-01 
    2.9377243042505174E-01 
    7.9570486766354948E-02 
    3.7103644886903080E-04 
    1.0277247501262438E-06 
    1.0000000001972352E-06 
    9.9999999999999974E-07 
    9.9999999999999995E-07 
    4.9774825195559230E-01 
    5.0605880852233631E-01 
    5.0667531224270479E-01 
    4.9729547583065908E-01 
    4.8173978499046910E-01 
    4.5307185103773234E-01 
    3.8833265630151009E-01 
    2.8745725395679028E-01 
    1.5744047750769793E-01 
    2.2806393423347754E-02 
    2.1878871849376503E-04 
    1.0253679412604870E-06 
    1.0000000134343743E-06 
    1.0000000000000019E-06 
    9.9999999999999995E-07 
    9.9999999999999995E-07 
    3.1031114704622004E-01 
    3.7552968506359180E-01 
    3.9831870042706785E-01 
    3.7069602553649056E-01 
    3.0522966304653265E-01 
    1.8566035346275470E-01 
    5.4953361819420045E-02 
    4.9486742158045818E-03 
    1.3262179654401448E-04 
    1.3310002333636705E-05 
    1.0040413633038477E-06 
    1.0000000027133514E-06 
    1.0000000000000012E-06 
    9.9999999999999995E-07 
    9.9999999999999995E-07 
    9.9999999999999995E-07 
    3.8155811991812511E-03 
    4.1196406706540130E-02 
    5.3767644113235202E-02 
    2.4282298769736626E-02 
    6.8827006504672585E-03 
    2.4588044565162050E-04 
    2.4102217070113699E-05 
    1.4081304280435159E-06 
    1.0018754148319516E-06 
    1.0000062482080035E-06 
    1.0000000000031649E-06 
    1.0000000000000002E-06 
    9.9999999999999995E-07 
    9.9999999999999995E-07 
    9.9999999999999995E-07 
    9.9999999999999995E-07 
    1.0000187409739229E-06 
    1.5098802982145459E-05 
    1.2564755095030551E-06 
    6.2820836782914418E-06 
    1.7062352767071532E-06 
    1.0030413014699815E-06 
    1.0000257547245384E-06 
    1.0000000362326116E-06 
    1.0000000000119440E-06 
    1.0000000000000002E-06 
    9.9999999999999995E-07 
    9.9999999999999995E-07 
    9.9999999999999995E-07 
    9.9999999999999995E-07 
    9.9999999999999995E-07 
    9.9999999999999995E-07 
    1.0000000000011064E-06 
    1.0000035604675998E-06 
    1.0000000695507104E-06 
    1.0000004569405932E-06 
    1.0000000658383175E-06 
    1.0000000000486753E-06 
    9.9999999999999995E-07 
    9.9999999999999995E-07 
    9.9999999999999995E-07 
    9.9999999999999995E-07 
    9.9999999999999995E-07 
    9.9999999999999995E-07 
    9.9999999999999995E-07 
    9.9999999999999995E-07 
    9.9999999999999995E-07 
    1.0000004018276808E-06 
