# vtk DataFile Version 2.0
Pressure Field Data 
ASCII 
DATASET UNSTRUCTURED_GRID 

POINTS 289 double 

    0.0000000000000000E+00     0.0000000000000000E+00     0.0000000000000000E+00 
    1.0000000000000000E+00     0.0000000000000000E+00     0.0000000000000000E+00 
    1.0000000000000000E+00     1.0000000000000000E+00     0.0000000000000000E+00 
    0.0000000000000000E+00     1.0000000000000000E+00     0.0000000000000000E+00 
    6.2499999999872928E-02     0.0000000000000000E+00     0.0000000000000000E+00 
    1.2499999999977310E-01     0.0000000000000000E+00     0.0000000000000000E+00 
    1.8749999999959341E-01     0.0000000000000000E+00     0.0000000000000000E+00 
    2.4999999999941089E-01     0.0000000000000000E+00     0.0000000000000000E+00 
    3.1249999999922851E-01     0.0000000000000000E+00     0.0000000000000000E+00 
    3.7499999999904610E-01     0.0000000000000000E+00     0.0000000000000000E+00 
    4.3749999999886358E-01     0.0000000000000000E+00     0.0000000000000000E+00 
    4.9999999999869210E-01     0.0000000000000000E+00     0.0000000000000000E+00 
    5.6249999999884603E-01     0.0000000000000000E+00     0.0000000000000000E+00 
    6.2499999999901090E-01     0.0000000000000000E+00     0.0000000000000000E+00 
    6.8749999999917577E-01     0.0000000000000000E+00     0.0000000000000000E+00 
    7.4999999999934064E-01     0.0000000000000000E+00     0.0000000000000000E+00 
    8.1249999999950551E-01     0.0000000000000000E+00     0.0000000000000000E+00 
    8.7499999999967026E-01     0.0000000000000000E+00     0.0000000000000000E+00 
    9.3749999999983513E-01     0.0000000000000000E+00     0.0000000000000000E+00 
    1.0000000000000000E+00     6.2499999999872928E-02     0.0000000000000000E+00 
    1.0000000000000000E+00     1.2499999999977310E-01     0.0000000000000000E+00 
    1.0000000000000000E+00     1.8749999999959341E-01     0.0000000000000000E+00 
    1.0000000000000000E+00     2.4999999999941089E-01     0.0000000000000000E+00 
    1.0000000000000000E+00     3.1249999999922851E-01     0.0000000000000000E+00 
    1.0000000000000000E+00     3.7499999999904610E-01     0.0000000000000000E+00 
    1.0000000000000000E+00     4.3749999999886358E-01     0.0000000000000000E+00 
    1.0000000000000000E+00     4.9999999999869210E-01     0.0000000000000000E+00 
    1.0000000000000000E+00     5.6249999999884603E-01     0.0000000000000000E+00 
    1.0000000000000000E+00     6.2499999999901090E-01     0.0000000000000000E+00 
    1.0000000000000000E+00     6.8749999999917577E-01     0.0000000000000000E+00 
    1.0000000000000000E+00     7.4999999999934064E-01     0.0000000000000000E+00 
    1.0000000000000000E+00     8.1249999999950551E-01     0.0000000000000000E+00 
    1.0000000000000000E+00     8.7499999999967026E-01     0.0000000000000000E+00 
    1.0000000000000000E+00     9.3749999999983513E-01     0.0000000000000000E+00 
    9.3749999999973976E-01     1.0000000000000000E+00     0.0000000000000000E+00 
    8.7499999999950118E-01     1.0000000000000000E+00     0.0000000000000000E+00 
    8.1249999999991318E-01     1.0000000000000000E+00     0.0000000000000000E+00 
    7.5000000000034706E-01     1.0000000000000000E+00     0.0000000000000000E+00 
    6.8750000000078049E-01     1.0000000000000000E+00     0.0000000000000000E+00 
    6.2500000000121403E-01     1.0000000000000000E+00     0.0000000000000000E+00 
    5.6250000000164757E-01     1.0000000000000000E+00     0.0000000000000000E+00 
    5.0000000000205946E-01     1.0000000000000000E+00     0.0000000000000000E+00 
    4.3750000000182099E-01     1.0000000000000000E+00     0.0000000000000000E+00 
    3.7500000000156092E-01     1.0000000000000000E+00     0.0000000000000000E+00 
    3.1250000000130068E-01     1.0000000000000000E+00     0.0000000000000000E+00 
    2.5000000000104050E-01     1.0000000000000000E+00     0.0000000000000000E+00 
    1.8750000000078040E-01     1.0000000000000000E+00     0.0000000000000000E+00 
    1.2500000000052031E-01     1.0000000000000000E+00     0.0000000000000000E+00 
    6.2500000000260125E-02     1.0000000000000000E+00     0.0000000000000000E+00 
    0.0000000000000000E+00     9.3749999999973976E-01     0.0000000000000000E+00 
    0.0000000000000000E+00     8.7499999999950118E-01     0.0000000000000000E+00 
    0.0000000000000000E+00     8.1249999999991318E-01     0.0000000000000000E+00 
    0.0000000000000000E+00     7.5000000000034706E-01     0.0000000000000000E+00 
    0.0000000000000000E+00     6.8750000000078049E-01     0.0000000000000000E+00 
    0.0000000000000000E+00     6.2500000000121403E-01     0.0000000000000000E+00 
    0.0000000000000000E+00     5.6250000000164757E-01     0.0000000000000000E+00 
    0.0000000000000000E+00     5.0000000000205946E-01     0.0000000000000000E+00 
    0.0000000000000000E+00     4.3750000000182099E-01     0.0000000000000000E+00 
    0.0000000000000000E+00     3.7500000000156092E-01     0.0000000000000000E+00 
    0.0000000000000000E+00     3.1250000000130068E-01     0.0000000000000000E+00 
    0.0000000000000000E+00     2.5000000000104050E-01     0.0000000000000000E+00 
    0.0000000000000000E+00     1.8750000000078040E-01     0.0000000000000000E+00 
    0.0000000000000000E+00     1.2500000000052031E-01     0.0000000000000000E+00 
    0.0000000000000000E+00     6.2500000000260125E-02     0.0000000000000000E+00 
    6.2499999999897131E-02     6.2500000000235922E-02     0.0000000000000000E+00 
    6.2499999999921327E-02     1.2500000000047351E-01     0.0000000000000000E+00 
    6.2499999999945530E-02     1.8750000000070621E-01     0.0000000000000000E+00 
    6.2499999999969733E-02     2.5000000000093858E-01     0.0000000000000000E+00 
    6.2499999999993928E-02     3.1250000000117117E-01     0.0000000000000000E+00 
    6.2500000000018124E-02     3.7500000000140382E-01     0.0000000000000000E+00 
    6.2500000000042327E-02     4.3750000000163619E-01     0.0000000000000000E+00 
    6.2500000000066530E-02     5.0000000000184897E-01     0.0000000000000000E+00 
    6.2500000000090733E-02     5.6250000000147260E-01     0.0000000000000000E+00 
    6.2500000000114922E-02     6.2500000000107636E-01     0.0000000000000000E+00 
    6.2500000000139125E-02     6.8750000000068034E-01     0.0000000000000000E+00 
    6.2500000000163328E-02     7.5000000000028411E-01     0.0000000000000000E+00 
    6.2500000000187531E-02     8.1249999999988787E-01     0.0000000000000000E+00 
    6.2500000000211720E-02     8.7499999999951172E-01     0.0000000000000000E+00 
    6.2500000000235922E-02     9.3749999999974565E-01     0.0000000000000000E+00 
    1.2499999999981980E-01     6.2500000000211733E-02     0.0000000000000000E+00 
    1.2499999999986650E-01     1.2500000000042691E-01     0.0000000000000000E+00 
    1.2499999999991319E-01     1.8750000000063199E-01     0.0000000000000000E+00 
    1.2499999999995989E-01     2.5000000000083678E-01     0.0000000000000000E+00 
    1.2500000000000661E-01     3.1250000000104172E-01     0.0000000000000000E+00 
    1.2500000000005329E-01     3.7500000000124661E-01     0.0000000000000000E+00 
    1.2500000000010000E-01     4.3750000000145117E-01     0.0000000000000000E+00 
    1.2500000000014669E-01     5.0000000000163858E-01     0.0000000000000000E+00 
    1.2500000000019340E-01     5.6250000000129741E-01     0.0000000000000000E+00 
    1.2500000000024011E-01     6.2500000000093847E-01     0.0000000000000000E+00 
    1.2500000000028680E-01     6.8750000000057998E-01     0.0000000000000000E+00 
    1.2500000000033351E-01     7.5000000000022127E-01     0.0000000000000000E+00 
    1.2500000000038020E-01     8.1249999999986211E-01     0.0000000000000000E+00 
    1.2500000000042691E-01     8.7499999999952238E-01     0.0000000000000000E+00 
    1.2500000000047359E-01     9.3749999999975164E-01     0.0000000000000000E+00 
    1.8749999999966760E-01     6.2500000000187531E-02     0.0000000000000000E+00 
    1.8749999999974179E-01     1.2500000000038020E-01     0.0000000000000000E+00 
    1.8749999999981601E-01     1.8750000000055780E-01     0.0000000000000000E+00 
    1.8749999999989009E-01     2.5000000000073502E-01     0.0000000000000000E+00 
    1.8749999999996431E-01     3.1250000000091221E-01     0.0000000000000000E+00 
    1.8750000000003850E-01     3.7500000000108941E-01     0.0000000000000000E+00 
    1.8750000000011269E-01     4.3750000000126649E-01     0.0000000000000000E+00 
    1.8750000000018691E-01     5.0000000000142808E-01     0.0000000000000000E+00 
    1.8750000000026110E-01     5.6250000000112244E-01     0.0000000000000000E+00 
    1.8750000000033529E-01     6.2500000000080080E-01     0.0000000000000000E+00 
    1.8750000000040951E-01     6.8750000000047962E-01     0.0000000000000000E+00 
    1.8750000000048361E-01     7.5000000000015843E-01     0.0000000000000000E+00 
    1.8750000000055780E-01     8.1249999999983680E-01     0.0000000000000000E+00 
    1.8750000000063199E-01     8.7499999999953304E-01     0.0000000000000000E+00 
    1.8750000000070621E-01     9.3749999999975764E-01     0.0000000000000000E+00 
    2.4999999999951281E-01     6.2500000000163314E-02     0.0000000000000000E+00 
    2.4999999999961461E-01     1.2500000000033351E-01     0.0000000000000000E+00 
    2.4999999999971650E-01     1.8750000000048361E-01     0.0000000000000000E+00 
    2.4999999999981831E-01     2.5000000000063310E-01     0.0000000000000000E+00 
    2.4999999999992020E-01     3.1250000000078260E-01     0.0000000000000000E+00 
    2.5000000000002198E-01     3.7500000000093209E-01     0.0000000000000000E+00 
    2.5000000000012390E-01     4.3750000000108180E-01     0.0000000000000000E+00 
    2.5000000000022571E-01     5.0000000000121769E-01     0.0000000000000000E+00 
    2.5000000000032763E-01     5.6250000000094724E-01     0.0000000000000000E+00 
    2.5000000000042938E-01     6.2500000000066314E-01     0.0000000000000000E+00 
    2.5000000000053119E-01     6.8750000000037925E-01     0.0000000000000000E+00 
[...]
CELL_DATA 256 
SCALARS Pressure double 1 
LOOKUP_TABLE default 

    1.1152464916988909E+00 
    1.0561685958913243E+00 
    1.0110126563028898E+00 
    9.6492492534228447E-01 
    9.1450527221949640E-01 
    8.5851132297920107E-01 
    7.8783851497732316E-01 
    7.0762198962009804E-01 
    6.3662083405271608E-01 
    5.6918716405175929E-01 
    5.0538317635572250E-01 
    4.4668416416271439E-01 
    3.9577124194847202E-01 
    3.5619292072100256E-01 
    3.3111978825685151E-01 
    3.2103527258011072E-01 
    1.1012916510446384E+00 
    1.0582285999765026E+00 
    1.0144810682297323E+00 
    9.6896482112235605E-01 
    9.1921361613865249E-01 
    8.6405615652660972E-01 
    7.9443010086443400E-01 
    7.1456028096691782E-01 
    6.4327881726928882E-01 
    5.7545894837201328E-01 
    5.1108527733756826E-01 
    4.5151242604278313E-01 
    3.9934431186040192E-01 
    3.5819918096139680E-01 
    3.3158479108359679E-01 
    3.2059439198494233E-01 
    1.0900783420414253E+00 
    1.0576507384939118E+00 
    1.0167169154847071E+00 
    9.7216233333207414E-01 
    9.2324188917122063E-01 
    8.6882241620411071E-01 
    8.0005932662347246E-01 
    7.2092206424192751E-01 
    6.4967739921155232E-01 
    5.8149247802445247E-01 
    5.1645646382525567E-01 
    4.5581835677697341E-01 
    4.0211133972710661E-01 
    3.5908402745403617E-01 
    3.3074277004515101E-01 
    3.1898959498603913E-01 
    1.0803545429535466E+00 
    1.0553454767669983E+00 
    1.0177308429110465E+00 
    9.7454729646132188E-01 
    9.2660602994619901E-01 
    8.7280860844895680E-01 
    8.0479983268267563E-01 
    7.2680450961979326E-01 
    6.5581752722461084E-01 
    5.8732140540551458E-01 
    5.2156327721152884E-01 
    4.5969616364567545E-01 
    4.0416930075715185E-01 
    3.5889044331508307E-01 
    3.2851448593231919E-01 
    3.1599926012707980E-01 
    1.0715808415044450E+00 
    1.0518725557503805E+00 
    1.0176757068576368E+00 
    9.7621737565045574E-01 
    9.2938270972028147E-01 
    8.7601402092264025E-01 
    8.0869947287416322E-01 
    7.3232798937289412E-01 
    6.6172557016891431E-01 
    5.9298504218096904E-01 
    5.2647635647842284E-01 
    4.6324836601528846E-01 
    4.0562913476379664E-01 
    3.5767385658435669E-01 
    3.2481722119782269E-01 
    3.1139329135668131E-01 
    1.0637178799171068E+00 
    1.0478036968226876E+00 
    1.0168402195222350E+00 
    9.7730999130000173E-01 
    9.3165349868547132E-01 
    8.7843726291547330E-01 
    8.1181740059802077E-01 
    7.3761216217671244E-01 
    6.6744431044614549E-01 
    5.9852825168373613E-01 
    5.3127003928112726E-01 
    4.6658681587668388E-01 
    4.0662123382970211E-01 
    3.5551220440467385E-01 
    3.1956910973018365E-01 
    3.0491592595020345E-01 
    1.0567485039015752E+00 
    1.0435583549351310E+00 
    1.0154961565488321E+00 
    9.7794607239250420E-01 
    9.3341507917994582E-01 
    8.8011448175611817E-01 
    8.1435786916301589E-01 
    7.4272091668156015E-01 
    6.7302183622725187E-01 
    6.0399960424264121E-01 
    5.3602165176218386E-01 
    4.6983263721824159E-01 
    4.0730068967232208E-01 
    3.5251876004379490E-01 
    3.1269751675548868E-01 
    2.9627046166101911E-01 
    1.0506927228240446E+00 
    1.0394567537666197E+00 
    1.0138913155137266E+00 
    9.7822712471225903E-01 
    9.3451651474682840E-01 
    8.8107089172961717E-01 
    8.1668935170549639E-01 
    7.4763451842204964E-01 
    6.7850032497321400E-01 
    6.0944833883333227E-01 
    5.4080860440711520E-01 
    4.7311481955266221E-01 
    4.0785117695233553E-01 
    3.4885694448997573E-01 
    3.0415136373073393E-01 
    2.8509633207439555E-01 
    1.0455337498211095E+00 
    1.0357005107780566E+00 
    1.0121977590664446E+00 
    9.7808873936935625E-01 
    9.3480615960695690E-01 
    8.8157991018516624E-01 
    8.1923545470612236E-01 
    7.5235253643551958E-01 
    6.8391804660576216E-01 
    6.1492189972021793E-01 
    5.4570560729352380E-01 
    4.7656663525717130E-01 
    4.0848707380750632E-01 
    3.4475959668024397E-01 
    2.9392483329634056E-01 
    2.7094012308902721E-01 
    1.0409678225106622E+00 
    1.0321606601785094E+00 
    1.0101723598600700E+00 
    9.7716146486465316E-01 
    9.3439634956346151E-01 
    8.8229335796061603E-01 
    8.2218310171439679E-01 
    7.5697462672787197E-01 
    6.8931859023900521E-01 
    6.2046467774111103E-01 
    5.5078115396018679E-01 
    4.8031993824416341E-01 
    4.0945181877227743E-01 
    3.4055117341977459E-01 
    2.8209763199863730E-01 
    2.5321428116870359E-01 
    1.0361012724271010E+00 
    1.0280813146712506E+00 
    1.0074385104552306E+00 
    9.7566690937670431E-01 
    9.3414262280369953E-01 
    8.8367024779663261E-01 
    8.2540968391529712E-01 
    7.6161737483798930E-01 
    6.9475179108713314E-01 
    6.2611716724104161E-01 
    5.5609407567128843E-01 
    4.8449706453718244E-01 
    4.1101025797590834E-01 
    3.3667116518483547E-01 
    2.6890426689951524E-01 
    2.3114100003523644E-01 
    1.0318671041249046E+00 
    1.0242466918133060E+00 
    1.0049348078233151E+00 
    9.7472329600251428E-01 
    9.3470223861075075E-01 
    8.8568017455290904E-01 
    8.2889300323857451E-01 
    7.6636303497599001E-01 
    7.0026719219820832E-01 
    6.3191460189715942E-01 
    5.6168974067204069E-01 
    4.8920049367892343E-01 
    4.1343125952415771E-01 
    3.3369143320568628E-01 
    2.5484971351418639E-01 
    2.0366765353133787E-01 
    1.0290679156318576E+00 
    1.0218046825163523E+00 
    1.0035988773621187E+00 
    9.7468444281524125E-01 
    9.3592714002076716E-01 
    8.8818928335791170E-01 
    8.3269557174549325E-01 
    7.7127826004381694E-01 
    7.0591034367950334E-01 
    6.3788578023344356E-01 
    5.6759739066251524E-01 
    4.9450142335076208E-01 
    4.1695835027692557E-01 
    3.3231548239386349E-01 
    2.4090577738209157E-01 
    1.6934167384074439E-01 
    1.0272447621890237E+00 
    1.0203194770296276E+00 
    1.0031031839814573E+00 
    9.7537888789401095E-01 
    9.3780019704070927E-01 
    8.9122755097841089E-01 
    8.3686677071229454E-01 
    7.7642035028031664E-01 
    7.1172179304861249E-01 
    6.4405258967633094E-01 
    5.7382896749767165E-01 
    5.0042976824236762E-01 
    4.2176660977645652E-01 
    3.3332980623550051E-01 
    2.2884051041765727E-01 
    1.2612183419412468E-01 
    1.0262640541804153E+00 
    1.0197327541334043E+00 
    1.0034461739233138E+00 
    9.7682604104051152E-01 
    9.4034305750580882E-01 
    8.9482526438056098E-01 
    8.4145181127349755E-01 
    7.8183934377610698E-01 
    7.1773711258468920E-01 
    6.5043033555122876E-01 
    5.8038004676283006E-01 
    5.0696919694775366E-01 
    4.2791105296343768E-01 
    3.3745015560741898E-01 
    2.2177115059948516E-01 
    7.1090186469426928E-02 
    1.0259925374405341E+00 
    1.0199848965713603E+00 
    1.0046213674276212E+00 
    9.7904253332331193E-01 
    9.4357873938721959E-01 
    8.9901397225900881E-01 
    8.4649341903384656E-01 
    7.8758007005536612E-01 
    7.2398744541345117E-01 
    6.5702871460226075E-01 
    5.8723288802692630E-01 
    5.1406123965393724E-01 
    4.3528881657023294E-01 
    3.4495223322736612E-01 
    2.2509211026299408E-01 
    0.0000000000000000E+00 

SCALARS Saturarion double 1 
LOOKUP_TABLE default 

    9.9999999999954259E-01 
    9.2456074857345061E-01 
    8.2315808251000611E-01 
    6.9911187535213548E-01 
    6.1868776524806468E-01 
    5.3862115562679003E-01 
    3.4958005004410819E-01 
    1.4071623526043712E-02 
    1.0000000830079872E-06 
    1.0000000000000406E-06 
    9.9999999999999995E-07 
    9.9999999999999995E-07 
    9.9999999999999995E-07 
    9.9999999999999995E-07 
    9.9999999999999995E-07 
    9.9999999999999995E-07 
    9.6189054353222669E-01 
    8.9363718819906457E-01 
    7.9443010904223810E-01 
    6.8906984032538543E-01 
    6.0933882708052989E-01 
    5.3192928184082033E-01 
    3.3480008756518503E-01 
    1.0852295395833706E-02 
    1.0898871395104034E-06 
    1.0000000097637002E-06 
    1.0000000000000019E-06 
    9.9999999999999995E-07 
    9.9999999999999995E-07 
    9.9999999999999995E-07 
    9.9999999999999995E-07 
    9.9999999999999995E-07 
    8.9790928379237089E-01 
    8.4494366597934545E-01 
    7.5306843987726824E-01 
    6.6927010885031224E-01 
    5.9462240446776482E-01 
    5.1985898694375987E-01 
    3.1269092153930234E-01 
    6.4619037683904292E-03 
    1.1399518256448650E-06 
    1.0000000151077236E-06 
    1.0000000000000008E-06 
    9.9999999999999995E-07 
    9.9999999999999995E-07 
    9.9999999999999995E-07 
    9.9999999999999995E-07 
    9.9999999999999995E-07 
    8.1074845976107468E-01 
    7.7156616863029148E-01 
    7.0183872068484221E-01 
    6.4102300107400301E-01 
    5.8106059235785346E-01 
    5.0851001940076856E-01 
    2.8360016820065942E-01 
    3.0227245052996060E-03 
    1.0532137091922824E-06 
    1.0000000104721556E-06 
    9.9999999999999974E-07 
    9.9999999999999995E-07 
    9.9999999999999995E-07 
    9.9999999999999995E-07 
    9.9999999999999995E-07 
    9.9999999999999995E-07 
    7.3719666657835836E-01 
    7.0902859193877321E-01 
    6.5759947637473115E-01 
    6.1113322469359888E-01 
    5.6355837405399600E-01 
    4.9230360759768965E-01 
    2.3736214963217023E-01 
    7.4332702381515840E-04 
    1.0103806434823523E-06 
    1.0000000023373404E-06 
    9.9999999999999953E-07 
    9.9999999999999995E-07 
    9.9999999999999995E-07 
    9.9999999999999995E-07 
    9.9999999999999995E-07 
    9.9999999999999995E-07 
    6.7335619329771590E-01 
    6.5489778856525049E-01 
    6.1776433192936475E-01 
    5.8038159271711676E-01 
    5.4030739221781665E-01 
    4.6265466335215810E-01 
    1.6208735685431944E-01 
    1.3394693887612810E-04 
    1.0037491926309527E-06 
    1.0000000004406610E-06 
    9.9999999999999995E-07 
    9.9999999999999995E-07 
    9.9999999999999995E-07 
    9.9999999999999995E-07 
    9.9999999999999995E-07 
    9.9999999999999995E-07 
    6.1813702351194688E-01 
    6.0807425445142960E-01 
    5.8150435415586621E-01 
    5.4903791946440517E-01 
    5.1142734290739567E-01 
    4.0647646881463156E-01 
    7.0440972460951740E-02 
    1.1440787072918053E-04 
    1.0024609367167005E-06 
    1.0000000000000002E-06 
    9.9999999999999995E-07 
    9.9999999999999995E-07 
    9.9999999999999995E-07 
    9.9999999999999995E-07 
    9.9999999999999995E-07 
    9.9999999999999995E-07 
    5.7221645067349591E-01 
    5.6788113238360216E-01 
    5.4794811704915358E-01 
    5.1935439062201283E-01 
    4.7249289244021553E-01 
    2.7884203818169367E-01 
    7.7720477711191683E-03 
    3.4219322823692147E-06 
    1.0000009579661217E-06 
    1.0000000000000019E-06 
    9.9999999999999995E-07 
    9.9999999999999995E-07 
    9.9999999999999995E-07 
    9.9999999999999995E-07 
    9.9999999999999995E-07 
    9.9999999999999995E-07 
    5.3095754682816476E-01 
    5.2846328124714592E-01 
    5.1257051255488273E-01 
    4.8124656676357724E-01 
    3.8031205589695727E-01 
    9.2090501347929288E-02 
    2.6137966204423010E-04 
    1.0162779139332509E-06 
    1.0000000000001156E-06 
    9.9999999999999995E-07 
    9.9999999999999995E-07 
    9.9999999999999995E-07 
    9.9999999999999995E-07 
    9.9999999999999995E-07 
    9.9999999999999995E-07 
    9.9999999999999995E-07 
    4.6168074743029580E-01 
    4.6309540166876767E-01 
    4.4382180452774433E-01 
    3.5145827689816417E-01 
    1.3146652690877217E-01 
    1.2070674142171920E-03 
    1.0870894232487748E-06 
    1.0000000184968329E-06 
    1.0000000000000027E-06 
    9.9999999999999995E-07 
    9.9999999999999995E-07 
    9.9999999999999995E-07 
    9.9999999999999995E-07 
    9.9999999999999995E-07 
    9.9999999999999995E-07 
    9.9999999999999995E-07 
    1.8581311535498599E-01 
    2.1648449403014425E-01 
    1.5963552633160480E-01 
    4.2309999149878312E-02 
    5.4445819867137346E-04 
    1.1725808660792398E-06 
    1.0000000572585903E-06 
    1.0000000000000093E-06 
    9.9999999999999995E-07 
    9.9999999999999995E-07 
    9.9999999999999995E-07 
    9.9999999999999995E-07 
    9.9999999999999995E-07 
    9.9999999999999995E-07 
    9.9999999999999995E-07 
    9.9999999999999995E-07 
    1.0475458257757906E-05 
    1.9123916968027943E-04 
    1.2794572304323021E-04 
    6.2689336984315583E-05 
    1.0376268472415623E-06 
    1.0000000273974941E-06 
    1.0000000000000105E-06 
    9.9999999999999995E-07 
    9.9999999999999995E-07 
    9.9999999999999995E-07 
    9.9999999999999995E-07 
    9.9999999999999995E-07 
    9.9999999999999995E-07 
    9.9999999999999995E-07 
    9.9999999999999995E-07 
    9.9999999999999995E-07 
    1.0000000006676663E-06 
    1.0001077586234403E-06 
    1.0019076034270414E-06 
    1.0002871014513211E-06 
    1.0000000020914802E-06 
    1.0000000000000021E-06 
    9.9999999999999995E-07 
    9.9999999999999995E-07 
    9.9999999999999995E-07 
    9.9999999999999995E-07 
    9.9999999999999995E-07 
    9.9999999999999995E-07 
    9.9999999999999995E-07 
    9.9999999999999995E-07 
    9.9999999999999995E-07 
    9.9999999999999995E-07 
    9.9999999999999995E-07 
    1.0000000000069295E-06 
    1.0000000003382507E-06 
    1.0000000000000006E-06 
    9.9999999999999995E-07 
    9.9999999999999995E-07 
    9.9999999999999995E-07 
    9.9999999999999995E-07 
    9.9999999999999995E-07 
    9.9999999999999995E-07 
    9.9999999999999995E-07 
    9.9999999999999995E-07 
    9.9999999999999995E-07 
    9.9999999999999995E-07 
    9.9999999999999995E-07 
    9.9999999999999995E-07 
    9.9999999999999995E-07 
    9.9999999999999995E-07 
    9.9999999999999995E-07 
    9.9999999999999995E-07 
    9.9999999999999995E-07 
    9.9999999999999995E-07 
    9.9999999999999995E-07 
    9.9999999999999995E-07 
    9.9999999999999995E-07 
    9.9999999999999995E-07 
    9.9999999999999995E-07 
    9.9999999999999995E-07 
    9.9999999999999995E-07 
    9.9999999999999995E-07 
    9.9999999999999995E-07 
    9.9999999999999995E-07 
    9.9999999999999995E-07 
    9.9999999999999995E-07 
    9.9999999999999995E-07 
    9.9999999999999995E-07 
    9.9999999999999995E-07 
    9.9999999999999995E-07 
    9.9999999999999995E-07 
    9.9999999999999995E-07 
    9.9999999999999995E-07 
    9.9999999999999995E-07 
    9.9999999999999995E-07 
    9.9999999999999995E-07 
    9.9999999999999995E-07 
    9.9999999999999995E-07 
    9.9999999999999995E-07 
    1.0000001798085815E-06 
