# vtk DataFile Version 2.0
Pressure Field Data 
ASCII 
DATASET UNSTRUCTURED_GRID 

POINTS 289 double 

    0.0000000000000000E+00     0.0000000000000000E+00     0.0000000000000000E+00 
    1.0000000000000000E+00     0.0000000000000000E+00     0.0000000000000000E+00 
    1.0000000000000000E+00     1.0000000000000000E+00     0.0000000000000000E+00 
    0.0000000000000000E+00     1.0000000000000000E+00     0.0000000000000000E+00 
    6.2499999999872928E-02     0.0000000000000000E+00     0.0000000000000000E+00 
    1.2499999999977310E-01     0.0000000000000000E+00     0.0000000000000000E+00 
    1.8749999999959341E-01     0.0000000000000000E+00     0.0000000000000000E+00 
    2.4999999999941089E-01     0.0000000000000000E+00     0.0000000000000000E+00 
    3.1249999999922851E-01     0.0000000000000000E+00     0.0000000000000000E+00 
    3.7499999999904610E-01     0.0000000000000000E+00     0.0000000000000000E+00 
    4.3749999999886358E-01     0.0000000000000000E+00     0.0000000000000000E+00 
    4.9999999999869210E-01     0.0000000000000000E+00     0.0000000000000000E+00 
    5.6249999999884603E-01     0.0000000000000000E+00     0.0000000000000000E+00 
    6.2499999999901090E-01     0.0000000000000000E+00     0.0000000000000000E+00 
    6.8749999999917577E-01     0.0000000000000000E+00     0.0000000000000000E+00 
    7.4999999999934064E-01     0.0000000000000000E+00     0.0000000000000000E+00 
    8.1249999999950551E-01     0.0000000000000000E+00     0.0000000000000000E+00 
    8.7499999999967026E-01     0.0000000000000000E+00     0.0000000000000000E+00 
    9.3749999999983513E-01     0.0000000000000000E+00     0.0000000000000000E+00 
    1.0000000000000000E+00     6.2499999999872928E-02     0.0000000000000000E+00 
    1.0000000000000000E+00     1.2499999999977310E-01     0.0000000000000000E+00 
    1.0000000000000000E+00     1.8749999999959341E-01     0.0000000000000000E+00 
    1.0000000000000000E+00     2.4999999999941089E-01     0.0000000000000000E+00 
    1.0000000000000000E+00     3.1249999999922851E-01     0.0000000000000000E+00 
    1.0000000000000000E+00     3.7499999999904610E-01     0.0000000000000000E+00 
    1.0000000000000000E+00     4.3749999999886358E-01     0.0000000000000000E+00 
    1.0000000000000000E+00     4.9999999999869210E-01     0.0000000000000000E+00 
    1.0000000000000000E+00     5.6249999999884603E-01     0.0000000000000000E+00 
    1.0000000000000000E+00     6.2499999999901090E-01     0.0000000000000000E+00 
    1.0000000000000000E+00     6.8749999999917577E-01     0.0000000000000000E+00 
    1.0000000000000000E+00     7.4999999999934064E-01     0.0000000000000000E+00 
    1.0000000000000000E+00     8.1249999999950551E-01     0.0000000000000000E+00 
    1.0000000000000000E+00     8.7499999999967026E-01     0.0000000000000000E+00 
    1.0000000000000000E+00     9.3749999999983513E-01     0.0000000000000000E+00 
    9.3749999999973976E-01     1.0000000000000000E+00     0.0000000000000000E+00 
    8.7499999999950118E-01     1.0000000000000000E+00     0.0000000000000000E+00 
    8.1249999999991318E-01     1.0000000000000000E+00     0.0000000000000000E+00 
    7.5000000000034706E-01     1.0000000000000000E+00     0.0000000000000000E+00 
    6.8750000000078049E-01     1.0000000000000000E+00     0.0000000000000000E+00 
    6.2500000000121403E-01     1.0000000000000000E+00     0.0000000000000000E+00 
    5.6250000000164757E-01     1.0000000000000000E+00     0.0000000000000000E+00 
    5.0000000000205946E-01     1.0000000000000000E+00     0.0000000000000000E+00 
    4.3750000000182099E-01     1.0000000000000000E+00     0.0000000000000000E+00 
    3.7500000000156092E-01     1.0000000000000000E+00     0.0000000000000000E+00 
    3.1250000000130068E-01     1.0000000000000000E+00     0.0000000000000000E+00 
    2.5000000000104050E-01     1.0000000000000000E+00     0.0000000000000000E+00 
    1.8750000000078040E-01     1.0000000000000000E+00     0.0000000000000000E+00 
    1.2500000000052031E-01     1.0000000000000000E+00     0.0000000000000000E+00 
    6.2500000000260125E-02     1.0000000000000000E+00     0.0000000000000000E+00 
    0.0000000000000000E+00     9.3749999999973976E-01     0.0000000000000000E+00 
    0.0000000000000000E+00     8.7499999999950118E-01     0.0000000000000000E+00 
    0.0000000000000000E+00     8.1249999999991318E-01     0.0000000000000000E+00 
    0.0000000000000000E+00     7.5000000000034706E-01     0.0000000000000000E+00 
    0.0000000000000000E+00     6.8750000000078049E-01     0.0000000000000000E+00 
    0.0000000000000000E+00     6.2500000000121403E-01     0.0000000000000000E+00 
    0.0000000000000000E+00     5.6250000000164757E-01     0.0000000000000000E+00 
    0.0000000000000000E+00     5.0000000000205946E-01     0.0000000000000000E+00 
    0.0000000000000000E+00     4.3750000000182099E-01     0.0000000000000000E+00 
    0.0000000000000000E+00     3.7500000000156092E-01     0.0000000000000000E+00 
    0.0000000000000000E+00     3.1250000000130068E-01     0.0000000000000000E+00 
    0.0000000000000000E+00     2.5000000000104050E-01     0.0000000000000000E+00 
    0.0000000000000000E+00     1.8750000000078040E-01     0.0000000000000000E+00 
    0.0000000000000000E+00     1.2500000000052031E-01     0.0000000000000000E+00 
    0.0000000000000000E+00     6.2500000000260125E-02     0.0000000000000000E+00 
    6.2499999999897131E-02     6.2500000000235922E-02     0.0000000000000000E+00 
    6.2499999999921327E-02     1.2500000000047351E-01     0.0000000000000000E+00 
    6.2499999999945530E-02     1.8750000000070621E-01     0.0000000000000000E+00 
    6.2499999999969733E-02     2.5000000000093858E-01     0.0000000000000000E+00 
    6.2499999999993928E-02     3.1250000000117117E-01     0.0000000000000000E+00 
    6.2500000000018124E-02     3.7500000000140382E-01     0.0000000000000000E+00 
    6.2500000000042327E-02     4.3750000000163619E-01     0.0000000000000000E+00 
    6.2500000000066530E-02     5.0000000000184897E-01     0.0000000000000000E+00 
    6.2500000000090733E-02     5.6250000000147260E-01     0.0000000000000000E+00 
    6.2500000000114922E-02     6.2500000000107636E-01     0.0000000000000000E+00 
    6.2500000000139125E-02     6.8750000000068034E-01     0.0000000000000000E+00 
    6.2500000000163328E-02     7.5000000000028411E-01     0.0000000000000000E+00 
    6.2500000000187531E-02     8.1249999999988787E-01     0.0000000000000000E+00 
    6.2500000000211720E-02     8.7499999999951172E-01     0.0000000000000000E+00 
    6.2500000000235922E-02     9.3749999999974565E-01     0.0000000000000000E+00 
    1.2499999999981980E-01     6.2500000000211733E-02     0.0000000000000000E+00 
    1.2499999999986650E-01     1.2500000000042691E-01     0.0000000000000000E+00 
    1.2499999999991319E-01     1.8750000000063199E-01     0.0000000000000000E+00 
    1.2499999999995989E-01     2.5000000000083678E-01     0.0000000000000000E+00 
    1.2500000000000661E-01     3.1250000000104172E-01     0.0000000000000000E+00 
    1.2500000000005329E-01     3.7500000000124661E-01     0.0000000000000000E+00 
    1.2500000000010000E-01     4.3750000000145117E-01     0.0000000000000000E+00 
    1.2500000000014669E-01     5.0000000000163858E-01     0.0000000000000000E+00 
    1.2500000000019340E-01     5.6250000000129741E-01     0.0000000000000000E+00 
    1.2500000000024011E-01     6.2500000000093847E-01     0.0000000000000000E+00 
    1.2500000000028680E-01     6.8750000000057998E-01     0.0000000000000000E+00 
    1.2500000000033351E-01     7.5000000000022127E-01     0.0000000000000000E+00 
    1.2500000000038020E-01     8.1249999999986211E-01     0.0000000000000000E+00 
    1.2500000000042691E-01     8.7499999999952238E-01     0.0000000000000000E+00 
    1.2500000000047359E-01     9.3749999999975164E-01     0.0000000000000000E+00 
    1.8749999999966760E-01     6.2500000000187531E-02     0.0000000000000000E+00 
    1.8749999999974179E-01     1.2500000000038020E-01     0.0000000000000000E+00 
    1.8749999999981601E-01     1.8750000000055780E-01     0.0000000000000000E+00 
    1.8749999999989009E-01     2.5000000000073502E-01     0.0000000000000000E+00 
    1.8749999999996431E-01     3.1250000000091221E-01     0.0000000000000000E+00 
    1.8750000000003850E-01     3.7500000000108941E-01     0.0000000000000000E+00 
    1.8750000000011269E-01     4.3750000000126649E-01     0.0000000000000000E+00 
    1.8750000000018691E-01     5.0000000000142808E-01     0.0000000000000000E+00 
    1.8750000000026110E-01     5.6250000000112244E-01     0.0000000000000000E+00 
    1.8750000000033529E-01     6.2500000000080080E-01     0.0000000000000000E+00 
    1.8750000000040951E-01     6.8750000000047962E-01     0.0000000000000000E+00 
    1.8750000000048361E-01     7.5000000000015843E-01     0.0000000000000000E+00 
    1.8750000000055780E-01     8.1249999999983680E-01     0.0000000000000000E+00 
    1.8750000000063199E-01     8.7499999999953304E-01     0.0000000000000000E+00 
    1.8750000000070621E-01     9.3749999999975764E-01     0.0000000000000000E+00 
    2.4999999999951281E-01     6.2500000000163314E-02     0.0000000000000000E+00 
    2.4999999999961461E-01     1.2500000000033351E-01     0.0000000000000000E+00 
    2.4999999999971650E-01     1.8750000000048361E-01     0.0000000000000000E+00 
    2.4999999999981831E-01     2.5000000000063310E-01     0.0000000000000000E+00 
    2.4999999999992020E-01     3.1250000000078260E-01     0.0000000000000000E+00 
    2.5000000000002198E-01     3.7500000000093209E-01     0.0000000000000000E+00 
    2.5000000000012390E-01     4.3750000000108180E-01     0.0000000000000000E+00 
    2.5000000000022571E-01     5.0000000000121769E-01     0.0000000000000000E+00 
    2.5000000000032763E-01     5.6250000000094724E-01     0.0000000000000000E+00 
    2.5000000000042938E-01     6.2500000000066314E-01     0.0000000000000000E+00 
    2.5000000000053119E-01     6.8750000000037925E-01     0.0000000000000000E+00 
[...]
CELL_DATA 256 
SCALARS Pressure double 1 
LOOKUP_TABLE default 

    1.1351469386483006E+00 
    1.0747710629825420E+00 
    1.0279093942010635E+00 
    9.7959044921191663E-01 
    9.2563942896141216E-01 
    8.6069110056035825E-01 
    7.8208010395835226E-01 
    7.0575851790909261E-01 
    6.3583943550252531E-01 
    5.6878157725414691E-01 
    5.0516057153138694E-01 
    4.4655396617961463E-01 
    3.9568861093671082E-01 
    3.5613461081342945E-01 
    3.3107295355642363E-01 
    3.2099235190784964E-01 
    1.1211553701061239E+00 
    1.0768968006721185E+00 
    1.0314857295603514E+00 
    9.8383523945790086E-01 
    9.3080108324576238E-01 
    8.6676045794204515E-01 
    7.8888972719303530E-01 
    7.1275587113933314E-01 
    6.4247398087369645E-01 
    5.7504281904324750E-01 
    5.1085714170941343E-01 
    4.5137931595340480E-01 
    3.9926019971930859E-01 
    3.5814023348921314E-01 
    3.3153785808858338E-01 
    3.2055165168459648E-01 
    1.1097521404539457E+00 
    1.0762689821915341E+00 
    1.0337246336473125E+00 
    9.8713031489929481E-01 
    9.3513448252805143E-01 
    8.7178081491235038E-01 
    7.9476693132305898E-01 
    7.1941463123066673E-01 
    6.4891085069561072E-01 
    5.8108669724881412E-01 
    5.1623217915800768E-01 
    4.5568692715633458E-01 
    4.0202809651470350E-01 
    3.5902570239403769E-01 
    3.3069646468887470E-01 
    3.1894748981250121E-01 
    1.0996497385367627E+00 
    1.0737689038854765E+00 
    1.0346333771236000E+00 
    9.8950530892184141E-01 
    9.3863128692923281E-01 
    8.7584601929496109E-01 
    7.9985309595863141E-01 
    7.2570559125584178E-01 
    6.5515056699940122E-01 
    5.8694988279354654E-01 
    5.2135355964154384E-01 
    4.5957164066809830E-01 
    4.0408958785445492E-01 
    3.5883415175287409E-01 
    3.2846961060456836E-01 
    3.1595830956627152E-01 
    1.0903676736081231E+00 
    1.0699777441247340E+00 
    1.0343891538358327E+00 
    9.9107647625698014E-01 
    9.4128996321960368E-01 
    8.7901017606242382E-01 
    8.0432404635241750E-01 
    7.3163039699041199E-01 
    6.6120368255395878E-01 
    5.9267137202401310E-01 
    5.2629256813132186E-01 
    4.6313638961034070E-01 
    4.0555583394309447E-01 
    3.5762111796342222E-01 
    3.2477463125400569E-01 
    3.1135405519391096E-01 
    1.0819575481016381E+00 
    1.0655304141933610E+00 
    1.0333160141301321E+00 
    9.9199525910708952E-01 
    9.4306680755158034E-01 
    8.8126992573327456E-01 
    8.0840710562259277E-01 
    7.3722632480135386E-01 
    6.6709171671598710E-01 
    5.9829285851736302E-01 
    5.3112333493248920E-01 
    4.6649314836273864E-01 
    4.0655732705532605E-01 
    3.5546459014535048E-01 
    3.1952968377410629E-01 
    3.0487899211699182E-01 
    1.0744740750854058E+00 
    1.0609003754426476E+00 
    1.0317035869346325E+00 
    9.9235009707259914E-01 
    9.4393067522201857E-01 
    8.8273133592686248E-01 
    8.1236058139375844E-01 
    7.4256522936185232E-01 
    6.7284791375424025E-01 
    6.0385852658556671E-01 
    5.3592219610683445E-01 
    4.6976284160326864E-01 
    4.0724911907413441E-01 
    3.5247782574164832E-01 
    3.1266211783140696E-01 
    2.9623641383392335E-01 
    1.0679675389640637E+00 
    1.0564321931101417E+00 
    1.0297866388574370E+00 
    9.9205143609232871E-01 
    9.4389732491421385E-01 
    8.8379598980706431E-01 
    8.1631728711703766E-01 
    7.4773532556659017E-01 
    6.7851374835785061E-01 
    6.0941381319021926E-01 
    5.4076507008304120E-01 
    4.7307393495541672E-01 
    4.0781468148154187E-01 
    3.4882414865192174E-01 
    3.0412079579843926E-01 
    2.8506571706345279E-01 
    1.0623034345456774E+00 
    1.0522264011232323E+00 
    1.0275144937879659E+00 
    9.9084727120400851E-01 
    9.4316284769742387E-01 
    8.8499637198375691E-01 
    8.2022685112423510E-01 
    7.5280980657781804E-01 
    6.8413411527737189E-01 
    6.1500353727991319E-01 
    5.4572492319217669E-01 
    4.7655890745415874E-01 
    4.0846803410622784E-01 
    3.4473621849633690E-01 
    2.9389979355454415E-01 
    2.7091341510468020E-01 
    1.0566061647758580E+00 
    1.0475566688235343E+00 
    1.0243302883901479E+00 
    9.8879975703325074E-01 
    9.4251200837832749E-01 
    8.8669354925957966E-01 
    8.2407740652130523E-01 
    7.5784590427461052E-01 
    6.8975303786741138E-01 
    6.2066971119277137E-01 
    5.5086834436489795E-01 
    4.8034859744878694E-01 
    4.0945211176462371E-01 
    3.4053823087949642E-01 
    2.8207866246040819E-01 
    2.5319184584879034E-01 
    1.0510957622546038E+00 
    1.0426544031852059E+00 
    1.0208563482510338E+00 
    9.8700495993603543E-01 
    9.4260814218644040E-01 
    8.8883979260842727E-01 
    8.2798071154372821E-01 
    7.6290042900825528E-01 
    6.9541252768056938E-01 
    6.2644967139699514E-01 
    5.5625206733206856E-01 
    4.8456414893384481E-01 
    4.1103113185326806E-01 
    3.3666933711538022E-01 
    2.6889170121819461E-01 
    2.3112304909812961E-01 
    1.0469128139663999E+00 
    1.0389109609812575E+00 
    1.0184666553951187E+00 
    9.8622841646288650E-01 
    9.4342815782445677E-01 
    8.9134114883629534E-01 
    8.3203169141021682E-01 
    7.6803093211655471E-01 
    7.0115178480737428E-01 
    6.3237455591556357E-01 
    5.6191910114760679E-01 
    4.8930668117234410E-01 
    4.1347321934136638E-01 
    3.3370099202562087E-01 
    2.5484363732658233E-01 
    2.0365420836999393E-01 
    1.0439546647904003E+00 
    1.0363034389557375E+00 
    1.0170144675604638E+00 
    9.8620369745051528E-01 
    9.4486040645749592E-01 
    8.9425818974823224E-01 
    8.3630516023634183E-01 
    7.7329228663677574E-01 
    7.0700683610152615E-01 
    6.3846849649196491E-01 
    5.6789608173475303E-01 
    4.9464589042921547E-01 
    4.1702106445542020E-01 
    3.3233623836242498E-01 
    2.4090599501374627E-01 
    1.6933253174669335E-01 
    1.0420274212033207E+00 
    1.0347174399112729E+00 
    1.0164669525537904E+00 
    9.8695220359331659E-01 
    9.4693440162610742E-01 
    8.9764135544880130E-01 
    8.4086613491658835E-01 
    7.7873542230340875E-01 
    7.1301021568102396E-01 
    6.4474856251483892E-01 
    5.7419217092651531E-01 
    5.0061008006757746E-01 
    4.2184883779301563E-01 
    3.3336106532960269E-01 
    2.2884652259144031E-01 
    1.2611653803810022E-01 
    1.0409906104926538E+00 
    1.0340889832111284E+00 
    1.0168191038478251E+00 
    9.8849590252639752E-01 
    9.4968168697015520E-01 
    9.0153820004435847E-01 
    8.4577242012027742E-01 
    7.8440724676640994E-01 
    7.1919094073173651E-01 
    6.5122536886247173E-01 
    5.8080008464932209E-01 
    5.0718123717666985E-01 
    4.2801059699366095E-01 
    3.3749069316246855E-01 
    2.2178214702912519E-01 
    7.1087998297386351E-02 
    1.0407035040595223E+00 
    1.0343532282290471E+00 
    1.0180620207035089E+00 
    9.9085452361719439E-01 
    9.5313485193781156E-01 
    9.0599472206510023E-01 
    8.5107685285267065E-01 
    7.9035106429353319E-01 
    7.2557474834431124E-01 
    6.5790418843563236E-01 
    5.8769923282787440E-01 
    5.1429918542623343E-01 
    4.3540249960970762E-01 
    3.4500028431484292E-01 
    2.2510698216997263E-01 
    0.0000000000000000E+00 

SCALARS Saturarion double 1 
LOOKUP_TABLE default 

    9.9999999992699495E-01 
    9.1647821355577574E-01 
    8.0799866398497278E-01 
    6.7729952838448115E-01 
    5.8892841651139760E-01 
    4.5633623962962733E-01 
    9.0096788265342176E-02 
    1.0000005612756323E-06 
    1.0000000000006005E-06 
    9.9999999999999995E-07 
    9.9999999999999995E-07 
    9.9999999999999995E-07 
    9.9999999999999995E-07 
    9.9999999999999995E-07 
    9.9999999999999995E-07 
    9.9999999999999995E-07 
    9.5664685466507060E-01 
    8.8212354935748449E-01 
    7.7874236773073979E-01 
    6.6587029561145550E-01 
    5.7834389806369602E-01 
    4.4401881377226909E-01 
    7.8867249965841907E-02 
    3.7416537300739724E-06 
    1.0000013036906998E-06 
    1.0000000000005795E-06 
    9.9999999999999995E-07 
    9.9999999999999995E-07 
    9.9999999999999995E-07 
    9.9999999999999995E-07 
    9.9999999999999995E-07 
    9.9999999999999995E-07 
    8.8318361215640007E-01 
    8.2703139320621344E-01 
    7.3456257601521513E-01 
    6.4526985242886503E-01 
    5.6302342187679111E-01 
    4.2453565544875105E-01 
    5.9408901897189628E-02 
    1.0862133033927230E-05 
    1.0000078380064766E-06 
    1.0000000000024081E-06 
    9.9999999999999995E-07 
    9.9999999999999995E-07 
    9.9999999999999995E-07 
    9.9999999999999995E-07 
    9.9999999999999995E-07 
    9.9999999999999995E-07 
    7.8884683124524657E-01 
    7.4905686627176538E-01 
    6.8087998942040917E-01 
    6.1901561454294440E-01 
    5.4871029313723940E-01 
    4.0118182976886058E-01 
    3.9860102977272292E-02 
    8.2707227274754856E-06 
    1.0000107537721543E-06 
    9.9999999999999974E-07 
    9.9999999999999995E-07 
    9.9999999999999995E-07 
    9.9999999999999995E-07 
    9.9999999999999995E-07 
    9.9999999999999995E-07 
    9.9999999999999995E-07 
    7.1243919560429425E-01 
    6.8497693026751127E-01 
    6.3615179460956262E-01 
    5.9023510186963013E-01 
    5.2996671346643420E-01 
    3.5734488865049197E-01 
    1.7539836888471064E-02 
    6.0501620908847128E-06 
    1.0000037609970845E-06 
    9.9999999999999974E-07 
    9.9999999999999995E-07 
    9.9999999999999995E-07 
    9.9999999999999995E-07 
    9.9999999999999995E-07 
    9.9999999999999995E-07 
    9.9999999999999995E-07 
    6.4836379855965220E-01 
    6.3145499579976239E-01 
    5.9655510523009181E-01 
    5.5862275354827107E-01 
    5.0081770991314689E-01 
    2.7563310977784011E-01 
    3.5897999334472516E-03 
    1.4144831586973955E-06 
    1.0000001076089409E-06 
    1.0000000000000002E-06 
    9.9999999999999995E-07 
    9.9999999999999995E-07 
    9.9999999999999995E-07 
    9.9999999999999995E-07 
    9.9999999999999995E-07 
    9.9999999999999995E-07 
    5.9573718565271228E-01 
    5.8692950273390254E-01 
    5.6020399464283333E-01 
    5.2521644918469057E-01 
    4.5380399857326126E-01 
    1.5769052775971482E-01 
    2.1335645757619736E-04 
    1.0135755050965257E-06 
    1.0000000000664399E-06 
    9.9999999999999995E-07 
    9.9999999999999995E-07 
    9.9999999999999995E-07 
    9.9999999999999995E-07 
    9.9999999999999995E-07 
    9.9999999999999995E-07 
    9.9999999999999995E-07 
    5.5315558366253970E-01 
    5.4796050973097599E-01 
    5.2583062723554519E-01 
    4.8749094510700386E-01 
    3.4837050674685760E-01 
    3.5183738595761613E-02 
    5.3377485289538996E-05 
    1.0002779847953565E-06 
    1.0000000000000010E-06 
    9.9999999999999995E-07 
    9.9999999999999995E-07 
    9.9999999999999995E-07 
    9.9999999999999995E-07 
    9.9999999999999995E-07 
    9.9999999999999995E-07 
    9.9999999999999995E-07 
    5.0500100252929947E-01 
    5.0036341713548738E-01 
    4.7891120798254283E-01 
    3.9539294330065716E-01 
    1.3639293336655461E-01 
    4.3415247223532543E-04 
    1.0387862187603532E-06 
    1.0000000009942169E-06 
    9.9999999999999995E-07 
    9.9999999999999995E-07 
    9.9999999999999995E-07 
    9.9999999999999995E-07 
    9.9999999999999995E-07 
    9.9999999999999995E-07 
    9.9999999999999995E-07 
    9.9999999999999995E-07 
    3.7577158333554528E-01 
    3.7979859292913415E-01 
    3.0278538708654890E-01 
    1.1396538090902932E-01 
    1.9247828650397977E-03 
    1.0949168055209475E-06 
    1.0000000256208728E-06 
    1.0000000000000040E-06 
    9.9999999999999995E-07 
    9.9999999999999995E-07 
    9.9999999999999995E-07 
    9.9999999999999995E-07 
    9.9999999999999995E-07 
    9.9999999999999995E-07 
    9.9999999999999995E-07 
    9.9999999999999995E-07 
    3.0137282678036593E-02 
    3.9134305982437202E-02 
    9.4302412025735263E-03 
    3.3593905616134158E-04 
    1.1351272721371945E-06 
    1.0000000616252444E-06 
    1.0000000000000112E-06 
    9.9999999999999995E-07 
    9.9999999999999995E-07 
    9.9999999999999995E-07 
    9.9999999999999995E-07 
    9.9999999999999995E-07 
    9.9999999999999995E-07 
    9.9999999999999995E-07 
    9.9999999999999995E-07 
    9.9999999999999995E-07 
    1.0000022377734545E-06 
    1.3423769613587534E-06 
    3.4661972796558139E-06 
    1.0258783913956375E-06 
    1.0000000262653920E-06 
    1.0000000000000144E-06 
    9.9999999999999995E-07 
    9.9999999999999995E-07 
    9.9999999999999995E-07 
    9.9999999999999995E-07 
    9.9999999999999995E-07 
    9.9999999999999995E-07 
    9.9999999999999995E-07 
    9.9999999999999995E-07 
    9.9999999999999995E-07 
    9.9999999999999995E-07 
    1.0000000000007739E-06 
    1.0000000675940751E-06 
    1.0000002699510916E-06 
    1.0000000000000499E-06 
    1.0000000000000012E-06 
    9.9999999999999995E-07 
    9.9999999999999995E-07 
    9.9999999999999995E-07 
    9.9999999999999995E-07 
    9.9999999999999995E-07 
    9.9999999999999995E-07 
    9.9999999999999995E-07 
    9.9999999999999995E-07 
    9.9999999999999995E-07 
    9.9999999999999995E-07 
    9.9999999999999995E-07 
    9.9999999999999995E-07 
    1.0000000000000154E-06 
    1.0000000000000099E-06 
    9.9999999999999995E-07 
    9.9999999999999995E-07 
    9.9999999999999995E-07 
    9.9999999999999995E-07 
    9.9999999999999995E-07 
    9.9999999999999995E-07 
    9.9999999999999995E-07 
    9.9999999999999995E-07 
    9.9999999999999995E-07 
    9.9999999999999995E-07 
    9.9999999999999995E-07 
    9.9999999999999995E-07 
    9.9999999999999995E-07 
    9.9999999999999995E-07 
    9.9999999999999995E-07 
    9.9999999999999995E-07 
    9.9999999999999995E-07 
    9.9999999999999995E-07 
    9.9999999999999995E-07 
    9.9999999999999995E-07 
    9.9999999999999995E-07 
    9.9999999999999995E-07 
    9.9999999999999995E-07 
    9.9999999999999995E-07 
    9.9999999999999995E-07 
    9.9999999999999995E-07 
    9.9999999999999995E-07 
    9.9999999999999995E-07 
    9.9999999999999995E-07 
    9.9999999999999995E-07 
    9.9999999999999995E-07 
    9.9999999999999995E-07 
    9.9999999999999995E-07 
    9.9999999999999995E-07 
    9.9999999999999995E-07 
    9.9999999999999995E-07 
    9.9999999999999995E-07 
    9.9999999999999995E-07 
    9.9999999999999995E-07 
    9.9999999999999995E-07 
    9.9999999999999995E-07 
    9.9999999999999995E-07 
    9.9999999999999995E-07 
    9.9999999999999995E-07 
    1.0000001533908174E-06 
