# vtk DataFile Version 2.0
Pressure Field Data 
ASCII 
DATASET UNSTRUCTURED_GRID 

POINTS 289 double 

    0.0000000000000000E+00     0.0000000000000000E+00     0.0000000000000000E+00 
    1.0000000000000000E+00     0.0000000000000000E+00     0.0000000000000000E+00 
    1.0000000000000000E+00     1.0000000000000000E+00     0.0000000000000000E+00 
    0.0000000000000000E+00     1.0000000000000000E+00     0.0000000000000000E+00 
    6.2499999999872928E-02     0.0000000000000000E+00     0.0000000000000000E+00 
    1.2499999999977310E-01     0.0000000000000000E+00     0.0000000000000000E+00 
    1.8749999999959341E-01     0.0000000000000000E+00     0.0000000000000000E+00 
    2.4999999999941089E-01     0.0000000000000000E+00     0.0000000000000000E+00 
    3.1249999999922851E-01     0.0000000000000000E+00     0.0000000000000000E+00 
    3.7499999999904610E-01     0.0000000000000000E+00     0.0000000000000000E+00 
    4.3749999999886358E-01     0.0000000000000000E+00     0.0000000000000000E+00 
    4.9999999999869210E-01     0.0000000000000000E+00     0.0000000000000000E+00 
    5.6249999999884603E-01     0.0000000000000000E+00     0.0000000000000000E+00 
    6.2499999999901090E-01     0.0000000000000000E+00     0.0000000000000000E+00 
    6.8749999999917577E-01     0.0000000000000000E+00     0.0000000000000000E+00 
    7.4999999999934064E-01     0.0000000000000000E+00     0.0000000000000000E+00 
    8.1249999999950551E-01     0.0000000000000000E+00     0.0000000000000000E+00 
    8.7499999999967026E-01     0.0000000000000000E+00     0.0000000000000000E+00 
    9.3749999999983513E-01     0.0000000000000000E+00     0.0000000000000000E+00 
    1.0000000000000000E+00     6.2499999999872928E-02     0.0000000000000000E+00 
    1.0000000000000000E+00     1.2499999999977310E-01     0.0000000000000000E+00 
    1.0000000000000000E+00     1.8749999999959341E-01     0.0000000000000000E+00 
    1.0000000000000000E+00     2.4999999999941089E-01     0.0000000000000000E+00 
    1.0000000000000000E+00     3.1249999999922851E-01     0.0000000000000000E+00 
    1.0000000000000000E+00     3.7499999999904610E-01     0.0000000000000000E+00 
    1.0000000000000000E+00     4.3749999999886358E-01     0.0000000000000000E+00 
    1.0000000000000000E+00     4.9999999999869210E-01     0.0000000000000000E+00 
    1.0000000000000000E+00     5.6249999999884603E-01     0.0000000000000000E+00 
    1.0000000000000000E+00     6.2499999999901090E-01     0.0000000000000000E+00 
    1.0000000000000000E+00     6.8749999999917577E-01     0.0000000000000000E+00 
    1.0000000000000000E+00     7.4999999999934064E-01     0.0000000000000000E+00 
    1.0000000000000000E+00     8.1249999999950551E-01     0.0000000000000000E+00 
    1.0000000000000000E+00     8.7499999999967026E-01     0.0000000000000000E+00 
    1.0000000000000000E+00     9.3749999999983513E-01     0.0000000000000000E+00 
    9.3749999999973976E-01     1.0000000000000000E+00     0.0000000000000000E+00 
    8.7499999999950118E-01     1.0000000000000000E+00     0.0000000000000000E+00 
    8.1249999999991318E-01     1.0000000000000000E+00     0.0000000000000000E+00 
    7.5000000000034706E-01     1.0000000000000000E+00     0.0000000000000000E+00 
    6.8750000000078049E-01     1.0000000000000000E+00     0.0000000000000000E+00 
    6.2500000000121403E-01     1.0000000000000000E+00     0.0000000000000000E+00 
    5.6250000000164757E-01     1.0000000000000000E+00     0.0000000000000000E+00 
    5.0000000000205946E-01     1.0000000000000000E+00     0.0000000000000000E+00 
    4.3750000000182099E-01     1.0000000000000000E+00     0.0000000000000000E+00 
    3.7500000000156092E-01     1.0000000000000000E+00     0.0000000000000000E+00 
    3.1250000000130068E-01     1.0000000000000000E+00     0.0000000000000000E+00 
    2.5000000000104050E-01     1.0000000000000000E+00     0.0000000000000000E+00 
    1.8750000000078040E-01     1.0000000000000000E+00     0.0000000000000000E+00 
    1.2500000000052031E-01     1.0000000000000000E+00     0.0000000000000000E+00 
    6.2500000000260125E-02     1.0000000000000000E+00     0.0000000000000000E+00 
    0.0000000000000000E+00     9.3749999999973976E-01     0.0000000000000000E+00 
    0.0000000000000000E+00     8.7499999999950118E-01     0.0000000000000000E+00 
    0.0000000000000000E+00     8.1249999999991318E-01     0.0000000000000000E+00 
    0.0000000000000000E+00     7.5000000000034706E-01     0.0000000000000000E+00 
    0.0000000000000000E+00     6.8750000000078049E-01     0.0000000000000000E+00 
    0.0000000000000000E+00     6.2500000000121403E-01     0.0000000000000000E+00 
    0.0000000000000000E+00     5.6250000000164757E-01     0.0000000000000000E+00 
    0.0000000000000000E+00     5.0000000000205946E-01     0.0000000000000000E+00 
    0.0000000000000000E+00     4.3750000000182099E-01     0.0000000000000000E+00 
    0.0000000000000000E+00     3.7500000000156092E-01     0.0000000000000000E+00 
    0.0000000000000000E+00     3.1250000000130068E-01     0.0000000000000000E+00 
    0.0000000000000000E+00     2.5000000000104050E-01     0.0000000000000000E+00 
    0.0000000000000000E+00     1.8750000000078040E-01     0.0000000000000000E+00 
    0.0000000000000000E+00     1.2500000000052031E-01     0.0000000000000000E+00 
    0.0000000000000000E+00     6.2500000000260125E-02     0.0000000000000000E+00 
    6.2499999999897131E-02     6.2500000000235922E-02     0.0000000000000000E+00 
    6.2499999999921327E-02     1.2500000000047351E-01     0.0000000000000000E+00 
    6.2499999999945530E-02     1.8750000000070621E-01     0.0000000000000000E+00 
    6.2499999999969733E-02     2.5000000000093858E-01     0.0000000000000000E+00 
    6.2499999999993928E-02     3.1250000000117117E-01     0.0000000000000000E+00 
    6.2500000000018124E-02     3.7500000000140382E-01     0.0000000000000000E+00 
    6.2500000000042327E-02     4.3750000000163619E-01     0.0000000000000000E+00 
    6.2500000000066530E-02     5.0000000000184897E-01     0.0000000000000000E+00 
    6.2500000000090733E-02     5.6250000000147260E-01     0.0000000000000000E+00 
    6.2500000000114922E-02     6.2500000000107636E-01     0.0000000000000000E+00 
    6.2500000000139125E-02     6.8750000000068034E-01     0.0000000000000000E+00 
    6.2500000000163328E-02     7.5000000000028411E-01     0.0000000000000000E+00 
    6.2500000000187531E-02     8.1249999999988787E-01     0.0000000000000000E+00 
    6.2500000000211720E-02     8.7499999999951172E-01     0.0000000000000000E+00 
    6.2500000000235922E-02     9.3749999999974565E-01     0.0000000000000000E+00 
    1.2499999999981980E-01     6.2500000000211733E-02     0.0000000000000000E+00 
    1.2499999999986650E-01     1.2500000000042691E-01     0.0000000000000000E+00 
    1.2499999999991319E-01     1.8750000000063199E-01     0.0000000000000000E+00 
    1.2499999999995989E-01     2.5000000000083678E-01     0.0000000000000000E+00 
    1.2500000000000661E-01     3.1250000000104172E-01     0.0000000000000000E+00 
    1.2500000000005329E-01     3.7500000000124661E-01     0.0000000000000000E+00 
    1.2500000000010000E-01     4.3750000000145117E-01     0.0000000000000000E+00 
    1.2500000000014669E-01     5.0000000000163858E-01     0.0000000000000000E+00 
    1.2500000000019340E-01     5.6250000000129741E-01     0.0000000000000000E+00 
    1.2500000000024011E-01     6.2500000000093847E-01     0.0000000000000000E+00 
    1.2500000000028680E-01     6.8750000000057998E-01     0.0000000000000000E+00 
    1.2500000000033351E-01     7.5000000000022127E-01     0.0000000000000000E+00 
    1.2500000000038020E-01     8.1249999999986211E-01     0.0000000000000000E+00 
    1.2500000000042691E-01     8.7499999999952238E-01     0.0000000000000000E+00 
    1.2500000000047359E-01     9.3749999999975164E-01     0.0000000000000000E+00 
    1.8749999999966760E-01     6.2500000000187531E-02     0.0000000000000000E+00 
    1.8749999999974179E-01     1.2500000000038020E-01     0.0000000000000000E+00 
    1.8749999999981601E-01     1.8750000000055780E-01     0.0000000000000000E+00 
    1.8749999999989009E-01     2.5000000000073502E-01     0.0000000000000000E+00 
    1.8749999999996431E-01     3.1250000000091221E-01     0.0000000000000000E+00 
    1.8750000000003850E-01     3.7500000000108941E-01     0.0000000000000000E+00 
    1.8750000000011269E-01     4.3750000000126649E-01     0.0000000000000000E+00 
    1.8750000000018691E-01     5.0000000000142808E-01     0.0000000000000000E+00 
    1.8750000000026110E-01     5.6250000000112244E-01     0.0000000000000000E+00 
    1.8750000000033529E-01     6.2500000000080080E-01     0.0000000000000000E+00 
    1.8750000000040951E-01     6.8750000000047962E-01     0.0000000000000000E+00 
    1.8750000000048361E-01     7.5000000000015843E-01     0.0000000000000000E+00 
    1.8750000000055780E-01     8.1249999999983680E-01     0.0000000000000000E+00 
    1.8750000000063199E-01     8.7499999999953304E-01     0.0000000000000000E+00 
    1.8750000000070621E-01     9.3749999999975764E-01     0.0000000000000000E+00 
    2.4999999999951281E-01     6.2500000000163314E-02     0.0000000000000000E+00 
    2.4999999999961461E-01     1.2500000000033351E-01     0.0000000000000000E+00 
    2.4999999999971650E-01     1.8750000000048361E-01     0.0000000000000000E+00 
    2.4999999999981831E-01     2.5000000000063310E-01     0.0000000000000000E+00 
    2.4999999999992020E-01     3.1250000000078260E-01     0.0000000000000000E+00 
    2.5000000000002198E-01     3.7500000000093209E-01     0.0000000000000000E+00 
    2.5000000000012390E-01     4.3750000000108180E-01     0.0000000000000000E+00 
    2.5000000000022571E-01     5.0000000000121769E-01     0.0000000000000000E+00 
    2.5000000000032763E-01     5.6250000000094724E-01     0.0000000000000000E+00 
    2.5000000000042938E-01     6.2500000000066314E-01     0.0000000000000000E+00 
    2.5000000000053119E-01     6.8750000000037925E-01     0.0000000000000000E+00 
[...]
CELL_DATA 256 
SCALARS Pressure double 1 
LOOKUP_TABLE default 

    9.4630597026705776E-01 
    8.9293103782673577E-01 
    8.5571277897000775E-01 
    8.1977672696993065E-01 
    7.8185050302288028E-01 
    7.4133793779566615E-01 
    6.9831532391699302E-01 
    6.5313712766270227E-01 
    6.0627759305316364E-01 
    5.5835397510339013E-01 
    5.0998822680734368E-01 
    4.6027170375669318E-01 
    4.0612829760895564E-01 
    3.6076243761555654E-01 
    3.3482069637747663E-01 
    3.2445738422656833E-01 
    9.3239001521347309E-01 
    8.9457073936624398E-01 
    8.5860780523236735E-01 
    8.2303234648982837E-01 
    7.8544922122455274E-01 
    7.4525997663382648E-01 
    7.0250257965225882E-01 
    6.5751346264687927E-01 
    6.1075518632338033E-01 
    5.6282622003433713E-01 
    5.1437041912189296E-01 
    4.6458357604784856E-01 
    4.0988446893266423E-01 
    3.6288721151970010E-01 
    3.3529149365172917E-01 
    3.2400030101827304E-01 
    9.2163430214616504E-01 
    8.9393988102334454E-01 
    8.6062238610664643E-01 
    8.2581609604019135E-01 
    7.8870827318437842E-01 
    7.4890906130527868E-01 
    7.0645542905890557E-01 
    6.6166712405131956E-01 
    6.1498931465487294E-01 
    5.6698652418320705E-01 
    5.1828119065467326E-01 
    4.6813592421301287E-01 
    4.1253249423043459E-01 
    3.6369588768677452E-01 
    3.3439055301104531E-01 
    3.2234139576919213E-01 
    9.1296911048777385E-01 
    8.9205915512416700E-01 
    8.6178437697529653E-01 
    8.2812367787521024E-01 
    7.9163863819495328E-01 
    7.5229202424684027E-01 
    7.1018052723199820E-01 
    6.6561447940510887E-01 
    6.1901059260660807E-01 
    5.7088214421425076E-01 
    5.2178894799625819E-01 
    4.7101442474335337E-01 
    4.1418416485339987E-01 
    3.6324263292319925E-01 
    3.3202511690139691E-01 
    3.1925186370290010E-01 
    9.0574186200379536E-01 
    8.8949109465384724E-01 
    8.6221480043106713E-01 
    8.2997189924650550E-01 
    7.9426230636728179E-01 
    7.5543498567180978E-01 
    7.1370170212108419E-01 
    6.6938115235910878E-01 
    6.2285424111663212E-01 
    5.7456746192035324E-01 
    5.2497641260469408E-01 
    4.7330503158130144E-01 
    4.1494136434201856E-01 
    3.6159847394452266E-01 
    3.2810810472520197E-01 
    3.1449694830797920E-01 
    8.9964324592607581E-01 
    8.8662247472814526E-01 
    8.6208433623187153E-01 
    8.3141010820398642E-01 
    7.9661174483142705E-01 
    7.5837485214383715E-01 
    7.1705408805065884E-01 
    6.7299865549007820E-01 
    6.2655562889204552E-01 
    5.7809373507883299E-01 
    5.2792655770141939E-01 
    4.7508631870563156E-01 
    4.1490188185015120E-01 
    3.5886304792297691E-01 
    3.2256071034433154E-01 
    3.0781993481495246E-01 
    8.9447504545181022E-01 
    8.8371602049968623E-01 
    8.6157658680541183E-01 
    8.3251428540802674E-01 
    7.9872713122315009E-01 
    7.6114976087367903E-01 
    7.2027545731382170E-01 
    6.7650306437934238E-01 
    6.3015403868166331E-01 
    5.8151264024485771E-01 
    5.3072204442177329E-01 
    4.7643241410212994E-01 
    4.1417637473821617E-01 
    3.5517832829896967E-01 
    3.1531946483135948E-01 
    2.9892671420345707E-01 
    8.9009736718656152E-01 
    8.8094101973624728E-01 
    8.6085496590403843E-01 
    8.3337004081795252E-01 
    8.0065487671089797E-01 
    7.6379636604840606E-01 
    7.2340333280544034E-01 
    6.7993513224195534E-01 
    6.3369396975028680E-01 
    5.8487946319681250E-01 
    5.3344347814522908E-01 
    4.7742191764400699E-01 
    4.1292283482640590E-01 
    3.5075524794814478E-01 
    3.0634845955295997E-01 
    2.8746294379235826E-01 
    8.8640863407465087E-01 
    8.7840342997964160E-01 
    8.6005713010845330E-01 
    8.3406801061518787E-01 
    8.0244766363166542E-01 
    7.6635119880404801E-01 
    7.2647377938530588E-01 
    6.8333786424555287E-01 
    6.3722222541861373E-01 
    5.8824355947534013E-01 
    5.3612056658503315E-01 
    4.7814286968981529E-01 
    4.1141661434816973E-01 
    3.4591028407100100E-01 
    2.9566298536670899E-01 
    2.7298473771266901E-01 
    8.8334449244549329E-01 
    8.7617868462844417E-01 
    8.5930097367859004E-01 
    8.3470016180699380E-01 
    8.0416622491950862E-01 
    7.6885673536212884E-01 
    7.2952193185514635E-01 
    6.8674888847602200E-01 
    6.4077271075547659E-01 
    5.9161008592703368E-01 
    5.3859347740853392E-01 
    4.7863047364906558E-01 
    4.1007559603134747E-01 
    3.4103036692334210E-01 
    2.8336539390123611E-01 
    2.5491669173589293E-01 
    8.8087872964887304E-01 
    8.7433842510177329E-01 
    8.5869614121120985E-01 
    8.3536014967899019E-01 
    8.0588149535722153E-01 
    7.7136268082864190E-01 
    7.3257036408956588E-01 
    6.9017108178332232E-01 
    6.4429878390091622E-01 
    5.9476958643733757E-01 
    5.4067105899141610E-01 
    4.7924537537962536E-01 
    4.0949798898454998E-01 
    3.3647489596577224E-01 
    2.6970257655671515E-01 
    2.3249392401971442E-01 
    8.7897281834505370E-01 
    8.7292618070028616E-01 
    8.5832549777509171E-01 
    8.3612392937981717E-01 
    8.0764649099019015E-01 
    7.7386842408996215E-01 
    7.3551494141174578E-01 
    6.9339251104469513E-01 
    6.4756849120382265E-01 
    5.9761379908428547E-01 
    5.4279041270505812E-01 
    4.8082801854981033E-01 
    4.1019008396509171E-01 
    3.3273988786134817E-01 
    2.5518360744157847E-01 
    2.0467674616087425E-01 
    8.7737330554215065E-01 
    8.7180080758276657E-01 
    8.5812274482704254E-01 
    8.3690529864837704E-01 
    8.0929528245957894E-01 
    7.7617715772777451E-01 
    7.3821583262017809E-01 
    6.9634577779133111E-01 
    6.5071345180104412E-01 
    6.0073436418527149E-01 
    5.4573863955839608E-01 
    4.8366915535473343E-01 
    4.1222298238222355E-01 
    3.3059541291013567E-01 
    2.4079147109539389E-01 
    1.7002641190231049E-01 
    8.7604189113715869E-01 
    8.7081360019820686E-01 
    8.5795028744820245E-01 
    8.3763365409091195E-01 
    8.1081708607924263E-01 
    7.7837228331481312E-01 
    7.4097860682472616E-01 
    6.9951702910683788E-01 
    6.5422007342861066E-01 
    6.0450819444385262E-01 
    5.4958994482314794E-01 
    4.8754065109887423E-01 
    4.1569811592387979E-01 
    3.3088530735120392E-01 
    2.2831277834989316E-01 
    1.2651744324975048E-01 
    8.7528939256543270E-01 
    8.7035553435313362E-01 
    8.5819199455406159E-01 
    8.3870555366389765E-01 
    8.1266358525772531E-01 
    7.8090566516133086E-01 
    7.4413083697980331E-01 
    7.0311753426009727E-01 
    6.5814830394026225E-01 
    6.0876078934694766E-01 
    5.5411969103602710E-01 
    4.9238282909884656E-01 
    4.2071319964369025E-01 
    3.3436887956308325E-01 
    2.2088574802840588E-01 
    7.1249790098971283E-02 
    8.7508495901340022E-01 
    8.7055166850766319E-01 
    8.5908443030044002E-01 
    8.4035320465417218E-01 
    8.1500239323163026E-01 
    7.8384902285320168E-01 
    7.4760851887253121E-01 
    7.0703520198164493E-01 
    6.6244850893572771E-01 
    6.1346737183371636E-01 
    5.5927736638982795E-01 
    4.9812487621306456E-01 
    4.2719752719101972E-01 
    3.4135866049242763E-01 
    2.2392502121712018E-01 
    0.0000000000000000E+00 

SCALARS Saturarion double 1 
LOOKUP_TABLE default 

    1.0000000000000475E+00 
    9.5801748072108406E-01 
    8.8925097011149701E-01 
    8.0620158587041335E-01 
    7.3758247839419333E-01 
    6.8420105392898889E-01 
    6.4169035325696577E-01 
    6.0533400232450563E-01 
    5.7224228930478194E-01 
    5.4088461585671987E-01 
    5.0631583266703151E-01 
    4.3743431309621450E-01 
    1.5032373984881969E-01 
    1.0000000465013272E-06 
    1.0000000000000146E-06 
    9.9999999999999995E-07 
    9.8182027487103862E-01 
    9.4221298651993013E-01 
    8.7038573120996254E-01 
    7.9604498885562969E-01 
    7.3269947582449846E-01 
    6.8048568694542055E-01 
    6.3783749434232195E-01 
    6.0172530188396078E-01 
    5.6948720910391248E-01 
    5.3896211043222331E-01 
    5.0513681460405968E-01 
    4.3808804051554251E-01 
    1.5853122660453203E-01 
    1.2999292712740112E-06 
    1.0000000153060081E-06 
    1.0000000000000006E-06 
    9.5309329268562937E-01 
    9.1605869514824501E-01 
    8.4563590206797212E-01 
    7.7855628470810079E-01 
    7.2207440002897083E-01 
    6.7245072120617255E-01 
    6.3025469350788643E-01 
    5.9476043353950447E-01 
    5.6397858780875454E-01 
    5.3499925065610798E-01 
    5.0275609238342234E-01 
    4.3895104827710285E-01 
    1.6775781564792625E-01 
    4.1057370174026645E-06 
    1.0000001787737161E-06 
    1.0000000000000091E-06 
    9.0367112950350736E-01 
    8.7531204450154676E-01 
    8.1477699979929519E-01 
    7.5397672658414949E-01 
    7.0400267910069325E-01 
    6.6052769808606548E-01 
    6.2196052237417288E-01 
    5.8859708624213192E-01 
    5.5909271561104890E-01 
    5.3150518399542068E-01 
    5.0116748882249451E-01 
    4.4096999330559650E-01 
    1.8234610117742878E-01 
    2.8771546698284719E-05 
    1.0000071334946748E-06 
    1.0000000000004415E-06 
    8.5289693659283972E-01 
    8.2906905376262952E-01 
    7.7853227602714381E-01 
    7.2611378146740690E-01 
    6.8176436153879549E-01 
    6.4401459604527389E-01 
    6.1075973807980055E-01 
    5.8079953044765553E-01 
    5.5338631555775264E-01 
    5.2718201242854046E-01 
    4.9831368692942468E-01 
    4.4216765638588845E-01 
    1.9723659568166424E-01 
    7.9151671357970236E-05 
    1.0000253544048792E-06 
    1.0000000000010647E-06 
    8.0210966422719376E-01 
    7.8364271506538263E-01 
    7.4307160928550631E-01 
    6.9818339495485893E-01 
    6.5841175297713195E-01 
    6.2491538561921078E-01 
    5.9573196256293615E-01 
    5.6922902119047647E-01 
    5.4444260225784880E-01 
    5.2037009903074882E-01 
    4.9282630251482840E-01 
    4.3970148384301089E-01 
    2.0232408888198541E-01 
    1.1390255624218944E-04 
    1.0000246765090421E-06 
    1.0000000000109481E-06 
    7.5186231477368970E-01 
    7.3921256544024905E-01 
    7.0774950791467628E-01 
    6.6945198051911059E-01 
    6.3429255584562694E-01 
    6.0444075966854227E-01 
    5.7883963100470393E-01 
    5.5549623046891494E-01 
    5.3331758691325415E-01 
    5.1135684525192071E-01 
    4.8564019418500143E-01 
    4.3278202441647884E-01 
    1.9226506750159647E-01 
    1.1773189564703581E-04 
    1.0002491006844102E-06 
    1.0000000000482186E-06 
    7.0177495545498503E-01 
    6.9466859397432712E-01 
    6.7195861974724547E-01 
    6.4055337578607696E-01 
    6.0960341088211578E-01 
    5.8241992067422355E-01 
    5.5919161304231502E-01 
    5.3931287740381573E-01 
    5.2059287538217569E-01 
    5.0084022659840322E-01 
    4.7637690416891937E-01 
    4.2079697526493087E-01 
    1.6325488275046574E-01 
    6.6351107841354284E-05 
    1.0003110103129385E-06 
    1.0000000001431409E-06 
    6.5193518633479497E-01 
    6.4946950509328982E-01 
    6.3451437838868741E-01 
    6.1039138702681450E-01 
    5.8421355003613462E-01 
    5.5943096495912115E-01 
    5.3837373378167108E-01 
    5.2101694834203993E-01 
    5.0514468340134344E-01 
    4.8773167389144495E-01 
    4.6267627015491802E-01 
    3.9205286697296077E-01 
    1.0373967953281543E-01 
    1.0029488586085808E-04 
    1.0011688341028335E-06 
    1.0000000001182570E-06 
    6.0350875750671340E-01 
    6.0477452466806958E-01 
    5.9655849219646062E-01 
    5.7880336201722105E-01 
    5.5763224041407666E-01 
    5.3653334851752454E-01 
    5.1770291878556041E-01 
    5.0126236898584986E-01 
    4.8565363714272630E-01 
    4.6619514661931727E-01 
    4.3014676098084514E-01 
    2.9446778340908225E-01 
    2.2017925036215587E-02 
    2.2247884105765806E-05 
    1.0000399647652954E-06 
    1.0000000000000008E-06 
    5.5942109626278647E-01 
    5.6316551957946481E-01 
    5.5975304880373189E-01 
    5.4640662159053754E-01 
    5.3011611132474179E-01 
    5.1334686684282882E-01 
    4.9523545282086517E-01 
    4.7505176907589347E-01 
    4.5190431118937829E-01 
    4.1128892219784990E-01 
    3.0024441507142718E-01 
    7.8996572864560730E-02 
    2.8935838341481246E-04 
    1.0146422570175542E-06 
    1.0000000000290081E-06 
    9.9999999999999995E-07 
    5.1180480458001354E-01 
    5.1899057502206936E-01 
    5.1882374420168220E-01 
    5.0946399230756145E-01 
    4.9567565364680066E-01 
    4.7553053179331300E-01 
    4.3954111094239207E-01 
    3.7977965149769055E-01 
    2.7090101089663671E-01 
    1.4238222983975629E-01 
    2.5660225243842514E-02 
    2.2970783644442474E-04 
    1.0301599997173744E-06 
    1.0000000131988856E-06 
    1.0000000000000021E-06 
    9.9999999999999995E-07 
    3.7516469684043641E-01 
    4.1546669306694201E-01 
    4.3388585739912583E-01 
    4.2200716997099047E-01 
    3.8024595804225869E-01 
    2.7892323322542256E-01 
    1.4767420497142031E-01 
    3.7885638358418218E-02 
    3.9916999432916787E-03 
    1.6218481602966979E-04 
    1.6996064558831718E-05 
    1.0049528264934741E-06 
    1.0000000039429593E-06 
    1.0000000000000019E-06 
    9.9999999999999995E-07 
    9.9999999999999995E-07 
    2.3421224351781636E-02 
    8.8248174497489257E-02 
    1.1097906622626708E-01 
    7.9819904062977828E-02 
    3.8329899997212223E-02 
    4.8016355616865014E-03 
    5.3314144482565436E-05 
    1.7191101740648819E-05 
    1.1944577570367817E-06 
    1.0055112920855508E-06 
    1.0000115635654894E-06 
    1.0000000000059046E-06 
    1.0000000000000002E-06 
    9.9999999999999995E-07 
    9.9999999999999995E-07 
    9.9999999999999995E-07 
    1.0003424107515066E-06 
    5.4324486548256725E-05 
    1.5675663116322147E-06 
    2.3617234188993872E-05 
    1.3662298724801777E-05 
    1.3528109404081719E-06 
    1.0002360078438450E-06 
    1.0000108278998422E-06 
    1.0000000147458754E-06 
    1.0000000000013700E-06 
    1.0000000000000006E-06 
    9.9999999999999995E-07 
    9.9999999999999995E-07 
    9.9999999999999995E-07 
    9.9999999999999995E-07 
    9.9999999999999995E-07 
    1.0000000000366221E-06 
    1.0000816516261291E-06 
    1.0000002283579480E-06 
    1.0000147932792536E-06 
    1.0000078770019501E-06 
    1.0000000194274951E-06 
    1.0000000000006632E-06 
    9.9999999999999995E-07 
    9.9999999999999995E-07 
    9.9999999999999995E-07 
    9.9999999999999995E-07 
    9.9999999999999995E-07 
    9.9999999999999995E-07 
    9.9999999999999995E-07 
    9.9999999999999995E-07 
    1.0000004303279367E-06 
