# vtk DataFile Version 2.0
Pressure Field Data 
ASCII 
DATASET UNSTRUCTURED_GRID 

POINTS 289 double 

    0.0000000000000000E+00     0.0000000000000000E+00     0.0000000000000000E+00 
    1.0000000000000000E+00     0.0000000000000000E+00     0.0000000000000000E+00 
    1.0000000000000000E+00     1.0000000000000000E+00     0.0000000000000000E+00 
    0.0000000000000000E+00     1.0000000000000000E+00     0.0000000000000000E+00 
    6.2499999999872928E-02     0.0000000000000000E+00     0.0000000000000000E+00 
    1.2499999999977310E-01     0.0000000000000000E+00     0.0000000000000000E+00 
    1.8749999999959341E-01     0.0000000000000000E+00     0.0000000000000000E+00 
    2.4999999999941089E-01     0.0000000000000000E+00     0.0000000000000000E+00 
    3.1249999999922851E-01     0.0000000000000000E+00     0.0000000000000000E+00 
    3.7499999999904610E-01     0.0000000000000000E+00     0.0000000000000000E+00 
    4.3749999999886358E-01     0.0000000000000000E+00     0.0000000000000000E+00 
    4.9999999999869210E-01     0.0000000000000000E+00     0.0000000000000000E+00 
    5.6249999999884603E-01     0.0000000000000000E+00     0.0000000000000000E+00 
    6.2499999999901090E-01     0.0000000000000000E+00     0.0000000000000000E+00 
    6.8749999999917577E-01     0.0000000000000000E+00     0.0000000000000000E+00 
    7.4999999999934064E-01     0.0000000000000000E+00     0.0000000000000000E+00 
    8.1249999999950551E-01     0.0000000000000000E+00     0.0000000000000000E+00 
    8.7499999999967026E-01     0.0000000000000000E+00     0.0000000000000000E+00 
    9.3749999999983513E-01     0.0000000000000000E+00     0.0000000000000000E+00 
    1.0000000000000000E+00     6.2499999999872928E-02     0.0000000000000000E+00 
    1.0000000000000000E+00     1.2499999999977310E-01     0.0000000000000000E+00 
    1.0000000000000000E+00     1.8749999999959341E-01     0.0000000000000000E+00 
    1.0000000000000000E+00     2.4999999999941089E-01     0.0000000000000000E+00 
    1.0000000000000000E+00     3.1249999999922851E-01     0.0000000000000000E+00 
    1.0000000000000000E+00     3.7499999999904610E-01     0.0000000000000000E+00 
    1.0000000000000000E+00     4.3749999999886358E-01     0.0000000000000000E+00 
    1.0000000000000000E+00     4.9999999999869210E-01     0.0000000000000000E+00 
    1.0000000000000000E+00     5.6249999999884603E-01     0.0000000000000000E+00 
    1.0000000000000000E+00     6.2499999999901090E-01     0.0000000000000000E+00 
    1.0000000000000000E+00     6.8749999999917577E-01     0.0000000000000000E+00 
    1.0000000000000000E+00     7.4999999999934064E-01     0.0000000000000000E+00 
    1.0000000000000000E+00     8.1249999999950551E-01     0.0000000000000000E+00 
    1.0000000000000000E+00     8.7499999999967026E-01     0.0000000000000000E+00 
    1.0000000000000000E+00     9.3749999999983513E-01     0.0000000000000000E+00 
    9.3749999999973976E-01     1.0000000000000000E+00     0.0000000000000000E+00 
    8.7499999999950118E-01     1.0000000000000000E+00     0.0000000000000000E+00 
    8.1249999999991318E-01     1.0000000000000000E+00     0.0000000000000000E+00 
    7.5000000000034706E-01     1.0000000000000000E+00     0.0000000000000000E+00 
    6.8750000000078049E-01     1.0000000000000000E+00     0.0000000000000000E+00 
    6.2500000000121403E-01     1.0000000000000000E+00     0.0000000000000000E+00 
    5.6250000000164757E-01     1.0000000000000000E+00     0.0000000000000000E+00 
    5.0000000000205946E-01     1.0000000000000000E+00     0.0000000000000000E+00 
    4.3750000000182099E-01     1.0000000000000000E+00     0.0000000000000000E+00 
    3.7500000000156092E-01     1.0000000000000000E+00     0.0000000000000000E+00 
    3.1250000000130068E-01     1.0000000000000000E+00     0.0000000000000000E+00 
    2.5000000000104050E-01     1.0000000000000000E+00     0.0000000000000000E+00 
    1.8750000000078040E-01     1.0000000000000000E+00     0.0000000000000000E+00 
    1.2500000000052031E-01     1.0000000000000000E+00     0.0000000000000000E+00 
    6.2500000000260125E-02     1.0000000000000000E+00     0.0000000000000000E+00 
    0.0000000000000000E+00     9.3749999999973976E-01     0.0000000000000000E+00 
    0.0000000000000000E+00     8.7499999999950118E-01     0.0000000000000000E+00 
    0.0000000000000000E+00     8.1249999999991318E-01     0.0000000000000000E+00 
    0.0000000000000000E+00     7.5000000000034706E-01     0.0000000000000000E+00 
    0.0000000000000000E+00     6.8750000000078049E-01     0.0000000000000000E+00 
    0.0000000000000000E+00     6.2500000000121403E-01     0.0000000000000000E+00 
    0.0000000000000000E+00     5.6250000000164757E-01     0.0000000000000000E+00 
    0.0000000000000000E+00     5.0000000000205946E-01     0.0000000000000000E+00 
    0.0000000000000000E+00     4.3750000000182099E-01     0.0000000000000000E+00 
    0.0000000000000000E+00     3.7500000000156092E-01     0.0000000000000000E+00 
    0.0000000000000000E+00     3.1250000000130068E-01     0.0000000000000000E+00 
    0.0000000000000000E+00     2.5000000000104050E-01     0.0000000000000000E+00 
    0.0000000000000000E+00     1.8750000000078040E-01     0.0000000000000000E+00 
    0.0000000000000000E+00     1.2500000000052031E-01     0.0000000000000000E+00 
    0.0000000000000000E+00     6.2500000000260125E-02     0.0000000000000000E+00 
    6.2499999999897131E-02     6.2500000000235922E-02     0.0000000000000000E+00 
    6.2499999999921327E-02     1.2500000000047351E-01     0.0000000000000000E+00 
    6.2499999999945530E-02     1.8750000000070621E-01     0.0000000000000000E+00 
    6.2499999999969733E-02     2.5000000000093858E-01     0.0000000000000000E+00 
    6.2499999999993928E-02     3.1250000000117117E-01     0.0000000000000000E+00 
    6.2500000000018124E-02     3.7500000000140382E-01     0.0000000000000000E+00 
    6.2500000000042327E-02     4.3750000000163619E-01     0.0000000000000000E+00 
    6.2500000000066530E-02     5.0000000000184897E-01     0.0000000000000000E+00 
    6.2500000000090733E-02     5.6250000000147260E-01     0.0000000000000000E+00 
    6.2500000000114922E-02     6.2500000000107636E-01     0.0000000000000000E+00 
    6.2500000000139125E-02     6.8750000000068034E-01     0.0000000000000000E+00 
    6.2500000000163328E-02     7.5000000000028411E-01     0.0000000000000000E+00 
    6.2500000000187531E-02     8.1249999999988787E-01     0.0000000000000000E+00 
    6.2500000000211720E-02     8.7499999999951172E-01     0.0000000000000000E+00 
    6.2500000000235922E-02     9.3749999999974565E-01     0.0000000000000000E+00 
    1.2499999999981980E-01     6.2500000000211733E-02     0.0000000000000000E+00 
    1.2499999999986650E-01     1.2500000000042691E-01     0.0000000000000000E+00 
    1.2499999999991319E-01     1.8750000000063199E-01     0.0000000000000000E+00 
    1.2499999999995989E-01     2.5000000000083678E-01     0.0000000000000000E+00 
    1.2500000000000661E-01     3.1250000000104172E-01     0.0000000000000000E+00 
    1.2500000000005329E-01     3.7500000000124661E-01     0.0000000000000000E+00 
    1.2500000000010000E-01     4.3750000000145117E-01     0.0000000000000000E+00 
    1.2500000000014669E-01     5.0000000000163858E-01     0.0000000000000000E+00 
    1.2500000000019340E-01     5.6250000000129741E-01     0.0000000000000000E+00 
    1.2500000000024011E-01     6.2500000000093847E-01     0.0000000000000000E+00 
    1.2500000000028680E-01     6.8750000000057998E-01     0.0000000000000000E+00 
    1.2500000000033351E-01     7.5000000000022127E-01     0.0000000000000000E+00 
    1.2500000000038020E-01     8.1249999999986211E-01     0.0000000000000000E+00 
    1.2500000000042691E-01     8.7499999999952238E-01     0.0000000000000000E+00 
    1.2500000000047359E-01     9.3749999999975164E-01     0.0000000000000000E+00 
    1.8749999999966760E-01     6.2500000000187531E-02     0.0000000000000000E+00 
    1.8749999999974179E-01     1.2500000000038020E-01     0.0000000000000000E+00 
    1.8749999999981601E-01     1.8750000000055780E-01     0.0000000000000000E+00 
    1.8749999999989009E-01     2.5000000000073502E-01     0.0000000000000000E+00 
    1.8749999999996431E-01     3.1250000000091221E-01     0.0000000000000000E+00 
    1.8750000000003850E-01     3.7500000000108941E-01     0.0000000000000000E+00 
    1.8750000000011269E-01     4.3750000000126649E-01     0.0000000000000000E+00 
    1.8750000000018691E-01     5.0000000000142808E-01     0.0000000000000000E+00 
    1.8750000000026110E-01     5.6250000000112244E-01     0.0000000000000000E+00 
    1.8750000000033529E-01     6.2500000000080080E-01     0.0000000000000000E+00 
    1.8750000000040951E-01     6.8750000000047962E-01     0.0000000000000000E+00 
    1.8750000000048361E-01     7.5000000000015843E-01     0.0000000000000000E+00 
    1.8750000000055780E-01     8.1249999999983680E-01     0.0000000000000000E+00 
    1.8750000000063199E-01     8.7499999999953304E-01     0.0000000000000000E+00 
    1.8750000000070621E-01     9.3749999999975764E-01     0.0000000000000000E+00 
    2.4999999999951281E-01     6.2500000000163314E-02     0.0000000000000000E+00 
    2.4999999999961461E-01     1.2500000000033351E-01     0.0000000000000000E+00 
    2.4999999999971650E-01     1.8750000000048361E-01     0.0000000000000000E+00 
    2.4999999999981831E-01     2.5000000000063310E-01     0.0000000000000000E+00 
    2.4999999999992020E-01     3.1250000000078260E-01     0.0000000000000000E+00 
    2.5000000000002198E-01     3.7500000000093209E-01     0.0000000000000000E+00 
    2.5000000000012390E-01     4.3750000000108180E-01     0.0000000000000000E+00 
    2.5000000000022571E-01     5.0000000000121769E-01     0.0000000000000000E+00 
    2.5000000000032763E-01     5.6250000000094724E-01     0.0000000000000000E+00 
    2.5000000000042938E-01     6.2500000000066314E-01     0.0000000000000000E+00 
    2.5000000000053119E-01     6.8750000000037925E-01     0.0000000000000000E+00 
[...]
CELL_DATA 256 
SCALARS Pressure double 1 
LOOKUP_TABLE default 

    1.0277251959125189E+00 
    9.7233738366312283E-01 
    9.3219354050136360E-01 
    8.9244225017106071E-01 
    8.4984564609008795E-01 
    8.0412747870795809E-01 
    7.5551139395796330E-01 
    7.0399608090000054E-01 
    6.4826743731019376E-01 
    5.8078120562803504E-01 
    5.0892550873173614E-01 
    4.4865982188404846E-01 
    3.9701123457726978E-01 
    3.5705946575849079E-01 
    3.3180799720932863E-01 
    3.2166021041808113E-01 
    1.0138160539611007E+00 
    9.7415048427755357E-01 
    9.3532468319771633E-01 
    8.9600383430603170E-01 
    8.5384687083911226E-01 
    8.0851446411546868E-01 
    7.6022303488286869E-01 
    7.0904803900932756E-01 
    6.5385915063145195E-01 
    5.8695631623776090E-01 
    5.1478306098298876E-01 
    4.5353903150443609E-01 
    4.0060598125604252E-01 
    3.5907533062367569E-01 
    3.3227542872918198E-01 
    3.2121781423221746E-01 
    1.0029590706852569E+00 
    9.7358592096069452E-01 
    9.3747124646592062E-01 
    8.9897759173801728E-01 
    8.5740405690084942E-01 
    8.1254555452947963E-01 
    7.6462273260805369E-01 
    7.1376509799289611E-01 
    6.5892696034026155E-01 
    5.9237601323556843E-01 
    5.2001056356928888E-01 
    4.5781282488989600E-01 
    4.0335637185702033E-01 
    3.5994990058929566E-01 
    3.3142505843192788E-01 
    3.1960534475410146E-01 
    9.9401775203536602E-01 
    9.7163035697816724E-01 
    9.3865476671092718E-01 
    9.0137375084797944E-01 
    8.6052802242338966E-01 
    8.1622665671280537E-01 
    7.6872538582446925E-01 
    7.1816832992690627E-01 
    6.6349338220776710E-01 
    5.9713248275319408E-01 
    5.2472356618485150E-01 
    4.6155918816388403E-01 
    4.0535343228342374E-01 
    3.5972362659824092E-01 
    3.2917622924084816E-01 
    3.1659989595565485E-01 
    9.8635671829797988E-01 
    9.6883397147362926E-01 
    9.3899563546919995E-01 
    9.0322995580167431E-01 
    8.6326154095100205E-01 
    8.1959254570246887E-01 
    7.7256091136888205E-01 
    7.2229502304805848E-01 
    6.6757186436704330E-01 
    6.0128834750326432E-01 
    5.2904961136901019E-01 
    4.6488017160158029E-01 
    4.0670489026227619E-01 
    3.5845025477705328E-01 
    3.2544525706484995E-01 
    3.1197044700893700E-01 
    9.7974388933270762E-01 
    9.6563252391689425E-01 
    9.3869413594083229E-01 
    9.0462259507188270E-01 
    8.6566732288502279E-01 
    8.2269260571496816E-01 
    7.7616377542748738E-01 
    7.2618479409135284E-01 
    6.7115099208717699E-01 
    6.0487887130595197E-01 
    5.3313434683896732E-01 
    4.6789840702145008E-01 
    4.0754147262020524E-01 
    3.5620723285634520E-01 
    3.2014989543757144E-01 
    3.0546078746884520E-01 
    9.7403031027697329E-01 
    9.6233144492868561E-01 
    9.3796061859086488E-01 
    9.0564665420034030E-01 
    8.6780880478480960E-01 
    8.2558045307416383E-01 
    7.7956950413819259E-01 
    7.2985949985207621E-01 
    6.7423547538635842E-01 
    6.0798623643427729E-01 
    5.3713552440656076E-01 
    4.7075281797401020E-01 
    4.0802201549659073E-01 
    3.5310874894287808E-01 
    3.1321779963781593E-01 
    2.9677414116967699E-01 
    9.6911063757067473E-01 
    9.5913648089019943E-01 
    9.3698554095338682E-01 
    9.0640576772754089E-01 
    8.6974984493577179E-01 
    8.2831218547748198E-01 
    7.8281711916131003E-01 
    7.3326060542960647E-01 
    6.7687759796438229E-01 
    6.1082835661440138E-01 
    5.4115349462457230E-01 
    4.7359000292386483E-01 
    4.0833626287136010E-01 
    3.4932043489492753E-01 
    3.0459889149306757E-01 
    2.8555040499534617E-01 
    9.6492223032053548E-01 
    9.5619666886863564E-01 
    9.3593984502411298E-01 
    9.0701150078463899E-01 
    8.7155994910725942E-01 
    8.3094080701964401E-01 
    7.8592617921301866E-01 
    7.3620888329081258E-01 
    6.7912581470941980E-01 
    6.1373661107029931E-01 
    5.4520178133487562E-01 
    4.7655331268671902E-01 
    4.0870579551591790E-01 
    3.4507854439976066E-01 
    2.9428913192160161E-01 
    2.7133718648972138E-01 
    9.6144667098256453E-01 
    9.5363567050641085E-01 
    9.3497445247336053E-01 
    9.0757786579487210E-01 
    8.7330728998914986E-01 
    8.3347703886706781E-01 
    7.8874583160438638E-01 
    7.3857636015655148E-01 
    6.8125364481757933E-01 
    6.1705877356811156E-01 
    5.4931984562630831E-01 
    4.7978156686642737E-01 
    4.0938183546278911E-01 
    3.4071194681349404E-01 
    2.8237074958369834E-01 
    2.5354866258129538E-01 
    9.5863035206718350E-01 
    9.5151242814615700E-01 
    9.3418832216880965E-01 
    9.0817603441766359E-01 
    8.7496906718243528E-01 
    8.3570280559399956E-01 
    7.9103275933580897E-01 
    7.4062085827667246E-01 
    6.8380388823913618E-01 
    6.2087058281916907E-01 
    5.5363109730657045E-01 
    4.8341094701742993E-01 
    4.1063807058018081E-01 
    3.3666537345604403E-01 
    2.6908140663558228E-01 
    2.3140928856465348E-01 
    9.5611700304480340E-01 
    9.4961285091183867E-01 
    9.3342175289975404E-01 
    9.0855977973398627E-01 
    8.7625375742053335E-01 
    8.3746100491130360E-01 
    7.9306342840647814E-01 
    7.4306022897192681E-01 
    6.8703279007670837E-01 
    6.2503733792090665E-01 
    5.5824745595297209E-01 
    4.8756457116729152E-01 
    4.1275372673429112E-01 
    3.3351668210956475E-01 
    2.5492978707065711E-01 
    2.0386922955791623E-01 
    9.5382372936801130E-01 
    9.4772522952967686E-01 
    9.3252419368040385E-01 
    9.0871739994381751E-01 
    8.7734236818648970E-01 
    8.3931455163588975E-01 
    7.9554737892899963E-01 
    7.4617007248672662E-01 
    6.9080331928919647E-01 
    6.2955705601640832E-01 
    5.6323871121664004E-01 
    4.9233615298925926E-01 
    4.1598400314366651E-01 
    3.3197602223289724E-01 
    2.4089182996475314E-01 
    1.6947918751222912E-01 
    9.5225708294076339E-01 
    9.4643164825098702E-01 
    9.3207526065735447E-01 
    9.0929847651440643E-01 
    8.7891025479229468E-01 
    8.4174687303218199E-01 
    7.9861848393998025E-01 
    7.4977963203538700E-01 
    6.9503277535754238E-01 
    6.3446724303863922E-01 
    5.6864712341718160E-01 
    4.9777737470585626E-01 
    4.2051638617588594E-01 
    3.3283699194671884E-01 
    2.2873998730945985E-01 
    1.2620162745901217E-01 
    9.5143625710166535E-01 
    9.4595681147397492E-01 
    9.3240193655530668E-01 
    9.1054348887447734E-01 
    8.8102142931604133E-01 
    8.4463275449198139E-01 
    8.0214320164718078E-01 
    7.5386866640145822E-01 
    6.9972325791757639E-01 
    6.3978921596385463E-01 
    5.7449249073015141E-01 
    5.0389214831665285E-01 
    4.2641847932240495E-01 
    3.3682267450351311E-01 
    2.2159595566068560E-01 
    7.1122655282150490E-02 
    9.5120890468930053E-01 
    9.4617274280766706E-01 
    9.3339107220727247E-01 
    9.1238022204869396E-01 
    8.8365733097674881E-01 
    8.4798834960524594E-01 
    8.0612691833814820E-01 
    7.5843241401619121E-01 
    7.0487725064472018E-01 
    6.4553610086246715E-01 
    5.8077697504726478E-01 
    5.1064057859788226E-01 
    4.3359978159247436E-01 
    3.4421609899142402E-01 
    2.2485839161841917E-01 
    0.0000000000000000E+00 

SCALARS Saturarion double 1 
LOOKUP_TABLE default 

    1.0000000000001370E+00 
    9.4654087214823879E-01 
    8.6532461320824072E-01 
    7.6611246025575308E-01 
    6.9099497680110034E-01 
    6.3603401817005001E-01 
    5.9011653717076518E-01 
    5.4635173652943858E-01 
    4.9011201029038975E-01 
    3.2123582403207590E-01 
    9.1434327752784872E-03 
    1.0000000259032013E-06 
    1.0000000000000091E-06 
    9.9999999999999995E-07 
    9.9999999999999995E-07 
    9.9999999999999995E-07 
    9.7535167478344154E-01 
    9.2545675140267902E-01 
    8.4163505717498821E-01 
    7.5636006931777866E-01 
    6.8563939198133050E-01 
    6.3059819268664064E-01 
    5.8546141224605364E-01 
    5.4284286065026954E-01 
    4.8680152880084526E-01 
    3.1005002565598394E-01 
    7.3681651996671295E-03 
    1.0227676403340024E-06 
    1.0000000019052130E-06 
    1.0000000000000004E-06 
    9.9999999999999995E-07 
    9.9999999999999995E-07 
    9.3544306984719283E-01 
    8.9195279521642135E-01 
    8.1068077681281125E-01 
    7.3806239109106087E-01 
    6.7410691951890922E-01 
    6.2027758622583307E-01 
    5.7686357289497514E-01 
    5.3628592495574756E-01 
    4.8068303846469418E-01 
    2.9513406905836204E-01 
    5.1182371671909073E-03 
    1.0349367350834723E-06 
    1.0000000029172418E-06 
    1.0000000000000002E-06 
    9.9999999999999995E-07 
    9.9999999999999995E-07 
    8.7175134526232889E-01 
    8.3883119282950303E-01 
    7.7090439390667098E-01 
    7.0941078042869410E-01 
    6.5659625278359790E-01 
    6.0998887156658144E-01 
    5.6983292855957901E-01 
    5.3118689513272654E-01 
    4.7565872152251598E-01 
    2.8531118050336957E-01 
    3.9699874873926656E-03 
    1.0156609480123695E-06 
    1.0000000031354271E-06 
    9.9999999999999974E-07 
    9.9999999999999995E-07 
    9.9999999999999995E-07 
    8.1102819565281548E-01 
    7.8422044406668090E-01 
    7.3060510865836648E-01 
    6.7881087435997678E-01 
    6.3508576555969320E-01 
    5.9632600271712555E-01 
    5.6039546191607281E-01 
    5.2376348724770239E-01 
    4.6833988916710262E-01 
    2.6125507531705089E-01 
    1.9251922960152657E-03 
    1.0259103513014423E-06 
    1.0000000020812768E-06 
    9.9999999999999995E-07 
    9.9999999999999995E-07 
    9.9999999999999995E-07 
    7.5347527356525712E-01 
    7.3390101694561682E-01 
    6.9240560251931227E-01 
    6.4872350275891466E-01 
    6.1160420683250649E-01 
    5.7900855373963578E-01 
    5.4712249926650602E-01 
    5.1270096735441040E-01 
    4.5403668297985089E-01 
    2.1418194401723487E-01 
    4.8860743967809879E-04 
    1.0056360153319669E-06 
    1.0000000014286773E-06 
    9.9999999999999974E-07 
    9.9999999999999995E-07 
    9.9999999999999995E-07 
    6.9889963117940046E-01 
    6.8613391685856417E-01 
    6.5504048372700940E-01 
    6.1886419247833468E-01 
    5.8676906360491621E-01 
    5.5894866853934666E-01 
    5.3182724447656193E-01 
    4.9753411202998660E-01 
    4.2730700533922694E-01 
    1.3729191787023554E-01 
    1.0074721522864350E-04 
    1.0037247070749806E-06 
    1.0000000003111418E-06 
    1.0000000000000002E-06 
    9.9999999999999995E-07 
    9.9999999999999995E-07 
    6.4661136045276579E-01 
    6.4002877025998905E-01 
    6.1893996436438581E-01 
    5.8991087678433907E-01 
    5.6132797365728537E-01 
    5.3690554360543874E-01 
    5.1363426148129321E-01 
    4.7911534993856258E-01 
    3.7085770484008262E-01 
    5.0413417665309247E-02 
    6.5171373769141563E-05 
    1.0006486731382545E-06 
    1.0000000000000004E-06 
    9.9999999999999995E-07 
    9.9999999999999995E-07 
    9.9999999999999995E-07 
    5.9799747072232146E-01 
    5.9636018027784898E-01 
    5.8346242921716895E-01 
    5.6097078910243203E-01 
    5.3670814675360257E-01 
    5.1489196183526542E-01 
    4.9121886035226603E-01 
    4.4474520419617097E-01 
    2.4258528930004394E-01 
    4.3058888902215830E-03 
    1.7731520049622201E-06 
    1.0000002536730589E-06 
    1.0000000000000008E-06 
    9.9999999999999995E-07 
    9.9999999999999995E-07 
    9.9999999999999995E-07 
    5.5538811902116914E-01 
    5.5694522066157537E-01 
    5.4898004289236568E-01 
    5.3197804540575522E-01 
    5.1230608815280254E-01 
    4.8853740487775532E-01 
    4.5028674733567292E-01 
    3.3038013277302430E-01 
    6.1634404391314256E-02 
    2.0592004057927527E-04 
    1.0066383673869505E-06 
    1.0000000000000707E-06 
    9.9999999999999995E-07 
    9.9999999999999995E-07 
    9.9999999999999995E-07 
    9.9999999999999995E-07 
    5.0945689559947882E-01 
    5.1353265466448106E-01 
    5.0874684233833689E-01 
    4.9717900510118979E-01 
    4.7209679119174275E-01 
    4.2459781904010507E-01 
    2.9207172084488636E-01 
    7.2095670216210009E-02 
    4.0594721023995341E-04 
    1.0301234471770946E-06 
    1.0000000015022224E-06 
    9.9999999999999995E-07 
    9.9999999999999995E-07 
    9.9999999999999995E-07 
    9.9999999999999995E-07 
    9.9999999999999995E-07 
    3.8393212877104294E-01 
    4.1519857529954496E-01 
    4.2107680892377525E-01 
    3.9056399805099462E-01 
    2.8557890243657680E-01 
    1.4029389509414283E-01 
    1.8660000272487792E-02 
    1.4951714746762893E-04 
    1.0171649877759789E-06 
    1.0000000069305735E-06 
    1.0000000000000004E-06 
    9.9999999999999995E-07 
    9.9999999999999995E-07 
    9.9999999999999995E-07 
    9.9999999999999995E-07 
    9.9999999999999995E-07 
    3.3057861320788050E-02 
    9.0160323966965703E-02 
    9.4164601342164519E-02 
    4.8019354240669256E-02 
    6.7621788934650743E-03 
    1.6798146258725815E-04 
    8.6269548350035663E-06 
    1.0015029518802158E-06 
    1.0000000007981358E-06 
    1.0000000000000002E-06 
    9.9999999999999995E-07 
    9.9999999999999995E-07 
    9.9999999999999995E-07 
    9.9999999999999995E-07 
    9.9999999999999995E-07 
    9.9999999999999995E-07 
    1.0001505975445300E-06 
    3.1770812856244699E-05 
    1.0559751336825895E-05 
    2.6094001835856944E-05 
    1.9972732035191306E-06 
    1.0066331176972356E-06 
    1.0000025890979330E-06 
    1.0000000000010439E-06 
    9.9999999999999995E-07 
    9.9999999999999995E-07 
    9.9999999999999995E-07 
    9.9999999999999995E-07 
    9.9999999999999995E-07 
    9.9999999999999995E-07 
    9.9999999999999995E-07 
    9.9999999999999995E-07 
    1.0000000000280069E-06 
    1.0000421414560252E-06 
    1.0000199074591059E-06 
    1.0000179022921195E-06 
    1.0000001221788290E-06 
    1.0000000000068855E-06 
    1.0000000000000004E-06 
    9.9999999999999995E-07 
    9.9999999999999995E-07 
    9.9999999999999995E-07 
    9.9999999999999995E-07 
    9.9999999999999995E-07 
    9.9999999999999995E-07 
    9.9999999999999995E-07 
    9.9999999999999995E-07 
    9.9999999999999995E-07 
    9.9999999999999995E-07 
    1.0000000000016601E-06 
    9.9999999999999995E-07 
    1.0000000000004648E-06 
    9.9999999999999995E-07 
    9.9999999999999995E-07 
    9.9999999999999995E-07 
    9.9999999999999995E-07 
    9.9999999999999995E-07 
    9.9999999999999995E-07 
    9.9999999999999995E-07 
    9.9999999999999995E-07 
    9.9999999999999995E-07 
    9.9999999999999995E-07 
    9.9999999999999995E-07 
    1.0000003029954746E-06 
