# vtk DataFile Version 2.0
Pressure Field Data 
ASCII 
DATASET UNSTRUCTURED_GRID 

POINTS 289 double 

    0.0000000000000000E+00     0.0000000000000000E+00     0.0000000000000000E+00 
    1.0000000000000000E+00     0.0000000000000000E+00     0.0000000000000000E+00 
    1.0000000000000000E+00     1.0000000000000000E+00     0.0000000000000000E+00 
    0.0000000000000000E+00     1.0000000000000000E+00     0.0000000000000000E+00 
    6.2499999999872928E-02     0.0000000000000000E+00     0.0000000000000000E+00 
    1.2499999999977310E-01     0.0000000000000000E+00     0.0000000000000000E+00 
    1.8749999999959341E-01     0.0000000000000000E+00     0.0000000000000000E+00 
    2.4999999999941089E-01     0.0000000000000000E+00     0.0000000000000000E+00 
    3.1249999999922851E-01     0.0000000000000000E+00     0.0000000000000000E+00 
    3.7499999999904610E-01     0.0000000000000000E+00     0.0000000000000000E+00 
    4.3749999999886358E-01     0.0000000000000000E+00     0.0000000000000000E+00 
    4.9999999999869210E-01     0.0000000000000000E+00     0.0000000000000000E+00 
    5.6249999999884603E-01     0.0000000000000000E+00     0.0000000000000000E+00 
    6.2499999999901090E-01     0.0000000000000000E+00     0.0000000000000000E+00 
    6.8749999999917577E-01     0.0000000000000000E+00     0.0000000000000000E+00 
    7.4999999999934064E-01     0.0000000000000000E+00     0.0000000000000000E+00 
    8.1249999999950551E-01     0.0000000000000000E+00     0.0000000000000000E+00 
    8.7499999999967026E-01     0.0000000000000000E+00     0.0000000000000000E+00 
    9.3749999999983513E-01     0.0000000000000000E+00     0.0000000000000000E+00 
    1.0000000000000000E+00     6.2499999999872928E-02     0.0000000000000000E+00 
    1.0000000000000000E+00     1.2499999999977310E-01     0.0000000000000000E+00 
    1.0000000000000000E+00     1.8749999999959341E-01     0.0000000000000000E+00 
    1.0000000000000000E+00     2.4999999999941089E-01     0.0000000000000000E+00 
    1.0000000000000000E+00     3.1249999999922851E-01     0.0000000000000000E+00 
    1.0000000000000000E+00     3.7499999999904610E-01     0.0000000000000000E+00 
    1.0000000000000000E+00     4.3749999999886358E-01     0.0000000000000000E+00 
    1.0000000000000000E+00     4.9999999999869210E-01     0.0000000000000000E+00 
    1.0000000000000000E+00     5.6249999999884603E-01     0.0000000000000000E+00 
    1.0000000000000000E+00     6.2499999999901090E-01     0.0000000000000000E+00 
    1.0000000000000000E+00     6.8749999999917577E-01     0.0000000000000000E+00 
    1.0000000000000000E+00     7.4999999999934064E-01     0.0000000000000000E+00 
    1.0000000000000000E+00     8.1249999999950551E-01     0.0000000000000000E+00 
    1.0000000000000000E+00     8.7499999999967026E-01     0.0000000000000000E+00 
    1.0000000000000000E+00     9.3749999999983513E-01     0.0000000000000000E+00 
    9.3749999999973976E-01     1.0000000000000000E+00     0.0000000000000000E+00 
    8.7499999999950118E-01     1.0000000000000000E+00     0.0000000000000000E+00 
    8.1249999999991318E-01     1.0000000000000000E+00     0.0000000000000000E+00 
    7.5000000000034706E-01     1.0000000000000000E+00     0.0000000000000000E+00 
    6.8750000000078049E-01     1.0000000000000000E+00     0.0000000000000000E+00 
    6.2500000000121403E-01     1.0000000000000000E+00     0.0000000000000000E+00 
    5.6250000000164757E-01     1.0000000000000000E+00     0.0000000000000000E+00 
    5.0000000000205946E-01     1.0000000000000000E+00     0.0000000000000000E+00 
    4.3750000000182099E-01     1.0000000000000000E+00     0.0000000000000000E+00 
    3.7500000000156092E-01     1.0000000000000000E+00     0.0000000000000000E+00 
    3.1250000000130068E-01     1.0000000000000000E+00     0.0000000000000000E+00 
    2.5000000000104050E-01     1.0000000000000000E+00     0.0000000000000000E+00 
    1.8750000000078040E-01     1.0000000000000000E+00     0.0000000000000000E+00 
    1.2500000000052031E-01     1.0000000000000000E+00     0.0000000000000000E+00 
    6.2500000000260125E-02     1.0000000000000000E+00     0.0000000000000000E+00 
    0.0000000000000000E+00     9.3749999999973976E-01     0.0000000000000000E+00 
    0.0000000000000000E+00     8.7499999999950118E-01     0.0000000000000000E+00 
    0.0000000000000000E+00     8.1249999999991318E-01     0.0000000000000000E+00 
    0.0000000000000000E+00     7.5000000000034706E-01     0.0000000000000000E+00 
    0.0000000000000000E+00     6.8750000000078049E-01     0.0000000000000000E+00 
    0.0000000000000000E+00     6.2500000000121403E-01     0.0000000000000000E+00 
    0.0000000000000000E+00     5.6250000000164757E-01     0.0000000000000000E+00 
    0.0000000000000000E+00     5.0000000000205946E-01     0.0000000000000000E+00 
    0.0000000000000000E+00     4.3750000000182099E-01     0.0000000000000000E+00 
    0.0000000000000000E+00     3.7500000000156092E-01     0.0000000000000000E+00 
    0.0000000000000000E+00     3.1250000000130068E-01     0.0000000000000000E+00 
    0.0000000000000000E+00     2.5000000000104050E-01     0.0000000000000000E+00 
    0.0000000000000000E+00     1.8750000000078040E-01     0.0000000000000000E+00 
    0.0000000000000000E+00     1.2500000000052031E-01     0.0000000000000000E+00 
    0.0000000000000000E+00     6.2500000000260125E-02     0.0000000000000000E+00 
    6.2499999999897131E-02     6.2500000000235922E-02     0.0000000000000000E+00 
    6.2499999999921327E-02     1.2500000000047351E-01     0.0000000000000000E+00 
    6.2499999999945530E-02     1.8750000000070621E-01     0.0000000000000000E+00 
    6.2499999999969733E-02     2.5000000000093858E-01     0.0000000000000000E+00 
    6.2499999999993928E-02     3.1250000000117117E-01     0.0000000000000000E+00 
    6.2500000000018124E-02     3.7500000000140382E-01     0.0000000000000000E+00 
    6.2500000000042327E-02     4.3750000000163619E-01     0.0000000000000000E+00 
    6.2500000000066530E-02     5.0000000000184897E-01     0.0000000000000000E+00 
    6.2500000000090733E-02     5.6250000000147260E-01     0.0000000000000000E+00 
    6.2500000000114922E-02     6.2500000000107636E-01     0.0000000000000000E+00 
    6.2500000000139125E-02     6.8750000000068034E-01     0.0000000000000000E+00 
    6.2500000000163328E-02     7.5000000000028411E-01     0.0000000000000000E+00 
    6.2500000000187531E-02     8.1249999999988787E-01     0.0000000000000000E+00 
    6.2500000000211720E-02     8.7499999999951172E-01     0.0000000000000000E+00 
    6.2500000000235922E-02     9.3749999999974565E-01     0.0000000000000000E+00 
    1.2499999999981980E-01     6.2500000000211733E-02     0.0000000000000000E+00 
    1.2499999999986650E-01     1.2500000000042691E-01     0.0000000000000000E+00 
    1.2499999999991319E-01     1.8750000000063199E-01     0.0000000000000000E+00 
    1.2499999999995989E-01     2.5000000000083678E-01     0.0000000000000000E+00 
    1.2500000000000661E-01     3.1250000000104172E-01     0.0000000000000000E+00 
    1.2500000000005329E-01     3.7500000000124661E-01     0.0000000000000000E+00 
    1.2500000000010000E-01     4.3750000000145117E-01     0.0000000000000000E+00 
    1.2500000000014669E-01     5.0000000000163858E-01     0.0000000000000000E+00 
    1.2500000000019340E-01     5.6250000000129741E-01     0.0000000000000000E+00 
    1.2500000000024011E-01     6.2500000000093847E-01     0.0000000000000000E+00 
    1.2500000000028680E-01     6.8750000000057998E-01     0.0000000000000000E+00 
    1.2500000000033351E-01     7.5000000000022127E-01     0.0000000000000000E+00 
    1.2500000000038020E-01     8.1249999999986211E-01     0.0000000000000000E+00 
    1.2500000000042691E-01     8.7499999999952238E-01     0.0000000000000000E+00 
    1.2500000000047359E-01     9.3749999999975164E-01     0.0000000000000000E+00 
    1.8749999999966760E-01     6.2500000000187531E-02     0.0000000000000000E+00 
    1.8749999999974179E-01     1.2500000000038020E-01     0.0000000000000000E+00 
    1.8749999999981601E-01     1.8750000000055780E-01     0.0000000000000000E+00 
    1.8749999999989009E-01     2.5000000000073502E-01     0.0000000000000000E+00 
    1.8749999999996431E-01     3.1250000000091221E-01     0.0000000000000000E+00 
    1.8750000000003850E-01     3.7500000000108941E-01     0.0000000000000000E+00 
    1.8750000000011269E-01     4.3750000000126649E-01     0.0000000000000000E+00 
    1.8750000000018691E-01     5.0000000000142808E-01     0.0000000000000000E+00 
    1.8750000000026110E-01     5.6250000000112244E-01     0.0000000000000000E+00 
    1.8750000000033529E-01     6.2500000000080080E-01     0.0000000000000000E+00 
    1.8750000000040951E-01     6.8750000000047962E-01     0.0000000000000000E+00 
    1.8750000000048361E-01     7.5000000000015843E-01     0.0000000000000000E+00 
    1.8750000000055780E-01     8.1249999999983680E-01     0.0000000000000000E+00 
    1.8750000000063199E-01     8.7499999999953304E-01     0.0000000000000000E+00 
    1.8750000000070621E-01     9.3749999999975764E-01     0.0000000000000000E+00 
    2.4999999999951281E-01     6.2500000000163314E-02     0.0000000000000000E+00 
    2.4999999999961461E-01     1.2500000000033351E-01     0.0000000000000000E+00 
    2.4999999999971650E-01     1.8750000000048361E-01     0.0000000000000000E+00 
    2.4999999999981831E-01     2.5000000000063310E-01     0.0000000000000000E+00 
    2.4999999999992020E-01     3.1250000000078260E-01     0.0000000000000000E+00 
    2.5000000000002198E-01     3.7500000000093209E-01     0.0000000000000000E+00 
    2.5000000000012390E-01     4.3750000000108180E-01     0.0000000000000000E+00 
    2.5000000000022571E-01     5.0000000000121769E-01     0.0000000000000000E+00 
    2.5000000000032763E-01     5.6250000000094724E-01     0.0000000000000000E+00 
    2.5000000000042938E-01     6.2500000000066314E-01     0.0000000000000000E+00 
    2.5000000000053119E-01     6.8750000000037925E-01     0.0000000000000000E+00 
[...]
CELL_DATA 256 
SCALARS Pressure double 1 
LOOKUP_TABLE default 

    6.5257138855377828E-01 
    6.0314289713677327E-01 
    5.7201408013494248E-01 
    5.4412425676225296E-01 
    5.1601295074912357E-01 
    4.8680089577390667E-01 
    4.5623467450719524E-01 
    4.2439075809746657E-01 
    3.9155309500825675E-01 
    3.5822326961624523E-01 
    3.2521693963370868E-01 
    2.9383733208462498E-01 
    2.6600184360290363E-01 
    2.4406789149651634E-01 
    2.3006245952349627E-01 
    2.2336828613722554E-01 
    6.3857534111514547E-01 
    6.0437523568749596E-01 
    5.7432823891429130E-01 
    5.4665074820879089E-01 
    5.1871522724743602E-01 
    4.8966797318611271E-01 
    4.5924849476886498E-01 
    4.2751446229679635E-01 
    3.9472443460772960E-01 
    3.6134379977594783E-01 
    3.2813673332827387E-01 
    2.9634298193463832E-01 
    2.6783906903555255E-01 
    2.4503448640448483E-01 
    2.3019237716191071E-01 
    2.2297909585612738E-01 
    6.2783877985908843E-01 
    6.0348506079103503E-01 
    5.7590467983163773E-01 
    5.4885826662101422E-01 
    5.2123540142343305E-01 
    4.9240659477130516E-01 
    4.6215491535174974E-01 
    4.3053317498054283E-01 
    3.9777403425187685E-01 
    3.6429944409901022E-01 
    3.3081047428433852E-01 
    2.9846979834615145E-01 
    2.6911001692737352E-01 
    2.4522738173295050E-01 
    2.2941046727811568E-01 
    2.2172617751581766E-01 
    6.1942207421914608E-01 
    6.0153388425019072E-01 
    5.7678635139598333E-01 
    5.5072403075340493E-01 
    5.2356418621726197E-01 
    4.9501926688059161E-01 
    4.6496278406719521E-01 
    4.3346004066856292E-01 
    4.0072146784531593E-01 
    3.6712072493569997E-01 
    3.3328406947133593E-01 
    3.0027885888487960E-01 
    2.6987708376126363E-01 
    2.4467628956596810E-01 
    2.2767493198817051E-01 
    2.1948164038727100E-01 
    6.1268807485913690E-01 
    5.9911751143190872E-01 
    5.7710818427688015E-01 
    5.5225763146905615E-01 
    5.2569786216548609E-01 
    4.9750732522711860E-01 
    4.6768034846986278E-01 
    4.3630970243452233E-01 
    4.0358905877834550E-01 
    3.6984161810081639E-01 
    3.3560775057972891E-01 
    3.0183767659173361E-01 
    2.7021204964628681E-01 
    2.4341831488189991E-01 
    2.2493903483279185E-01 
    2.1610822100404853E-01 
    6.0723089023633614E-01 
    5.9657963939475855E-01 
    5.7702153438008752E-01 
    5.5349277648407769E-01 
    5.2764104681229129E-01 
    4.9987210958148670E-01 
    4.7031391690930957E-01 
    4.3909605731123169E-01 
    4.0640011837123369E-01 
    3.7249863495806856E-01 
    3.3783620400810072E-01 
    3.0322139956531652E-01 
    2.7019884966157093E-01 
    2.4150371156721590E-01 
    2.2115326495995238E-01 
    2.1144335180165236E-01 
    6.0278018746257989E-01 
    5.9412508755554283E-01 
    5.7667201908315069E-01 
    5.5448187626122558E-01 
    5.2941155223982406E-01 
    5.0212166161977112E-01 
    4.7287081802636466E-01 
    4.4183171040984759E-01 
    4.0917694487013606E-01 
    3.7512843514098365E-01 
    3.4002756451040594E-01 
    3.0451401947061907E-01 
    2.6993767881714814E-01 
    2.3900469649252612E-01 
    2.1627692188799372E-01 
    2.0530285050008265E-01 
    5.9914602508044146E-01 
    5.9187266078416279E-01 
    5.7618625863507600E-01 
    5.5528747370521425E-01 
    5.3103796492959499E-01 
    5.0427110978450873E-01 
    4.7536167559405479E-01 
    4.4452857370691773E-01 
    4.1193871694590589E-01 
    3.7776459392603284E-01 
    3.4223977612556183E-01 
    3.0580779396711444E-01 
    2.6955001930296318E-01 
    2.3602441024568357E-01 
    2.1028556406501361E-01 
    1.9747057299572024E-01 
    5.9618980326295479E-01 
    5.8988672074859261E-01 
    5.7566690072900528E-01 
    5.5597427129254906E-01 
    5.3255413245239192E-01 
    5.0633918940898226E-01 
    4.7779934152677261E-01 
    4.4719894023446932E-01 
    4.1470201691331687E-01 
    3.8043529604768006E-01 
    3.4452556230319442E-01 
    3.0719797098149632E-01 
    2.6918043921379498E-01 
    2.3270805792502819E-01 
    2.0317673953440157E-01 
    1.8766979078066484E-01 
    5.9381016389333607E-01 
    5.8820036465267234E-01 
    5.7519359034023232E-01 
    5.5660321639843069E-01 
    5.3399622112593614E-01 
    5.0834671692895461E-01 
    4.8019806424718620E-01 
    4.4985610830271722E-01 
    4.1748253081641956E-01 
    3.8316397854949769E-01 
    3.4692993650957304E-01 
    3.0877698801003450E-01 
    2.6899434600812311E-01 
    2.2925746067007083E-01 
    1.9499147040289877E-01 
    1.7553405033280162E-01 
    5.9193172380501546E-01 
    5.8682997931425795E-01 
    5.7482847446584806E-01 
    5.5723031244227306E-01 
    5.3540206574366356E-01 
    5.1031773060417163E-01 
    4.8257413314193831E-01 
    4.5251474183646601E-01 
    4.2029656567212798E-01 
    3.8597148672260068E-01 
    3.4949065990834721E-01 
    3.1063054353876779E-01 
    2.6917424806865692E-01 
    2.2594656986375966E-01 
    1.8585499177536910E-01 
    1.6058006634370375E-01 
    5.9049509271236900E-01 
    5.8578222723493389E-01 
    5.7462128773291132E-01 
    5.5790719100629915E-01 
    5.3681072285945974E-01 
    5.1227953803291482E-01 
    4.8494699932419333E-01 
    4.5519173279517006E-01 
    4.2316165209323775E-01 
    3.8887708480990041E-01 
    3.5223838743878338E-01 
    3.1283341753446486E-01 
    2.6991355585611632E-01 
    2.2313973096238815E-01 
    1.7604069518460452E-01 
    1.4213286892034951E-01 
    5.8945437828087188E-01 
    5.8506033378849687E-01 
    5.7461408261910718E-01 
    5.5868313343144071E-01 
    5.3826305122521867E-01 
    5.1426287877712318E-01 
    4.8733959032568730E-01 
    4.5790729558660220E-01 
    4.2609762754675456E-01 
    3.9189900618446233E-01 
    3.5519646786393072E-01 
    3.1544325741965362E-01 
    2.7140042048913676E-01 
    2.2131510453599931E-01 
    1.6611128867202668E-01 
    1.1920880853993943E-01 
    5.8878160475277841E-01 
    5.8467767606742271E-01 
    5.7485289387480232E-01 
    5.5961174067631425E-01 
    5.3980488028050322E-01 
    5.1630180195641373E-01 
    4.8977523311357396E-01 
    4.6068101953479207E-01 
    4.2912358849629284E-01 
    3.9504755442820416E-01 
    3.5836874930291451E-01 
    3.1848312729947487E-01 
    2.7378118727077094E-01 
    2.2103079028486075E-01 
    1.5712679186088135E-01 
    9.0303233161841287E-02 
    5.8838067170332420E-01 
    5.8458857796467012E-01 
    5.7534013899088365E-01 
    5.6071339570886503E-01 
    5.4145220974258201E-01 
    5.1839648805577132E-01 
    4.9223265868181348E-01 
    4.6346713687986679E-01 
    4.3218008206661523E-01 
    3.9826162221147865E-01 
    3.6167069406269492E-01 
    3.2183676042273696E-01 
    2.7699352590427628E-01 
    2.2265561253044458E-01 
    1.5085419237577491E-01 
    5.2953410670594274E-02 
    5.8824379425452600E-01 
    5.8478363107141829E-01 
    5.7607336410187948E-01 
    5.6199856033775231E-01 
    5.4322206405346996E-01 
    5.2056691811156586E-01 
    4.9472532434289140E-01 
    4.6625642134766249E-01 
    4.3524376943070925E-01 
    4.0156177471556165E-01 
    3.6517750230701096E-01 
    3.2559525301709175E-01 
    2.8115135657689933E-01 
    2.2658632395566700E-01 
    1.5032650409749795E-01 
    0.0000000000000000E+00 

SCALARS Saturarion double 1 
LOOKUP_TABLE default 

    1.0000000000000002E+00 
    9.7901866623543699E-01 
    9.4043011999382298E-01 
    8.8699030127010337E-01 
    8.4239441508796953E-01 
    8.0296649118608610E-01 
    7.6826900750172378E-01 
    7.3783275534437054E-01 
    7.1080601951269351E-01 
    6.8624463546647518E-01 
    6.6315090491642015E-01 
    6.4030732211060370E-01 
    6.1577237908777427E-01 
    5.8579076574359967E-01 
    5.4057168221196739E-01 
    3.2113265080106967E-01 
    9.9228453491761548E-01 
    9.7244596764587166E-01 
    9.3195878244058628E-01 
    8.8094421472023132E-01 
    8.3739257863601657E-01 
    7.9921809393167242E-01 
    7.6554527231698166E-01 
    7.3576255801717327E-01 
    7.0920355607887042E-01 
    6.8502905790052981E-01 
    6.6244494826422573E-01 
    6.4037650989830397E-01 
    6.1687640324384774E-01 
    5.8790932855017652E-01 
    5.4447704952908715E-01 
    3.4196755858422628E-01 
    9.8007280895913829E-01 
    9.6010752804911703E-01 
    9.1931864246166195E-01 
    8.6986250250045261E-01 
    8.2750215126816484E-01 
    7.9141700474349352E-01 
    7.5984583390905713E-01 
    7.3149406815708673E-01 
    7.0579057547389079E-01 
    6.8219167707934147E-01 
    6.6019140490261530E-01 
    6.3898019202158984E-01 
    6.1701546909800487E-01 
    5.9031323446784856E-01 
    5.4986269338885796E-01 
    3.6135679768457862E-01 
    9.5879325995048936E-01 
    9.4190907510540767E-01 
    9.0371384951788392E-01 
    8.5818273912399079E-01 
    8.1654229192880745E-01 
    7.8123367055609427E-01 
    7.5091207326955833E-01 
    7.2420950916490823E-01 
    7.0003190490138989E-01 
    6.7787240935861992E-01 
    6.5708602220099921E-01 
    6.3701142585891224E-01 
    6.1645681128476137E-01 
    5.9217536933459003E-01 
    5.5518456661968674E-01 
    3.8032619096528036E-01 
    9.3243454792468139E-01 
    9.1726752470970374E-01 
    8.8284727357330406E-01 
    8.4176757267841218E-01 
    8.0214528362399362E-01 
    7.6753659080233783E-01 
    7.3812286498137458E-01 
    7.1279563645864796E-01 
    6.9051305601806778E-01 
    6.7048669492415913E-01 
    6.5205480117082881E-01 
    6.3425481647010462E-01 
    6.1561969172348496E-01 
    5.9348573006645977E-01 
    5.5976307729072894E-01 
    3.9635816274838753E-01 
    9.0225520029105466E-01 
    8.8946686672626563E-01 
    8.5937086284732755E-01 
    8.2194696140966972E-01 
    7.8515690963147877E-01 
    7.5220997652538046E-01 
    7.2359453819917829E-01 
    6.9914855913698126E-01 
    6.7817413192723774E-01 
    6.5997032082244789E-01 
    6.4396087644872446E-01 
    6.2934037334706872E-01 
    6.1400321504408262E-01 
    5.9446403089426092E-01 
    5.6374936609228343E-01 
    4.1100513019215579E-01 
    8.6917824544331845E-01 
    8.5938903149357271E-01 
    8.3388206603193626E-01 
    8.0028124804717993E-01 
    7.6666930994180704E-01 
    7.3605996067892687E-01 
    7.0908312962419362E-01 
    6.8539192757082112E-01 
    6.6503892831193090E-01 
    6.4787534126725643E-01 
    6.3367224619367113E-01 
    6.2184533604291925E-01 
    6.1057450462571217E-01 
    5.9504257236100666E-01 
    5.6771439209638863E-01 
    4.2547239310810908E-01 
    8.3304705485107333E-01 
    8.2668135544614929E-01 
    8.0648677222136878E-01 
    7.7736053479738654E-01 
    7.4677878926996344E-01 
    7.1838269221302609E-01 
    6.9292023740995734E-01 
    6.7056853653442439E-01 
    6.5120845478944001E-01 
    6.3496154540775351E-01 
    6.2190187134490826E-01 
    6.1219083789435913E-01 
    6.0470784438084657E-01 
    5.9446342853779355E-01 
    5.7152319914375249E-01 
    4.4008048681749268E-01 
    7.9391329424250578E-01 
    7.9097166488359127E-01 
    7.7610975684867478E-01 
    7.5188014339105291E-01 
    7.2483678045145072E-01 
    6.9863263709772250E-01 
    6.7481088072621154E-01 
    6.5369450307470300E-01 
    6.3540609113871249E-01 
    6.2007415978743119E-01 
    6.0814713065187687E-01 
    6.0021080643785596E-01 
    5.9614211121945493E-01 
    5.9176247148614547E-01 
    5.7472567985201950E-01 
    4.5409401083852086E-01 
    7.5181956054158050E-01 
    7.5215522923614886E-01 
    7.4238702681310687E-01 
    7.2287532051409165E-01 
    6.9961762084109458E-01 
    6.7608079499658913E-01 
    6.5394857601276657E-01 
    6.3433851205908376E-01 
    6.1740995967320544E-01 
    6.0314486787943244E-01 
    5.9198838103648366E-01 
    5.8532296556624108E-01 
    5.8427500950115707E-01 
    5.8608892258445189E-01 
    5.7657867298658061E-01 
    4.6803248431565386E-01 
    7.0644342640736146E-01 
    7.0987222625328206E-01 
    7.0491979369112712E-01 
    6.8982850917138505E-01 
    6.7039030159248847E-01 
    6.5003358064958416E-01 
    6.3052747002287013E-01 
    6.1258431761206433E-01 
    5.9700320873886348E-01 
    5.8400475691596632E-01 
    5.7390461937956594E-01 
    5.6787260176214738E-01 
    5.6850538050444421E-01 
    5.7627357896460396E-01 
    5.7595852513961643E-01 
    4.8216794252106088E-01 
    6.5637349603916328E-01 
    6.6285838667558505E-01 
    6.6288761974064692E-01 
    6.5234244743098846E-01 
    6.3651164637426361E-01 
    6.1913318864353217E-01 
    6.0222211222781374E-01 
    5.8683385489541051E-01 
    5.7330492966085267E-01 
    5.6193995189592971E-01 
    5.5322384369612421E-01 
    5.4837206811668582E-01 
    5.4962204385742031E-01 
    5.6107696385057115E-01 
    5.7141392047303019E-01 
    4.9531050918936498E-01 
    6.0144593689402248E-01 
    6.1034398140148705E-01 
    6.1480851395112357E-01 
    6.0899560071179404E-01 
    5.9751386574911092E-01 
    5.8361929168549553E-01 
    5.6977224014200889E-01 
    5.5669815546876023E-01 
    5.4509116025751969E-01 
    5.3538552541119300E-01 
    5.2844493006383109E-01 
    5.2522642979738721E-01 
    5.2779923996077505E-01 
    5.4070217994226233E-01 
    5.6281670395579986E-01 
    5.0621140198046599E-01 
    5.4447032024753628E-01 
    5.5528522487507570E-01 
    5.6278495496263292E-01 
    5.6123306850283838E-01 
    5.5362388384649197E-01 
    5.4258332757228200E-01 
    5.3016645947807906E-01 
    5.1818872409226202E-01 
    5.0693647125286656E-01 
    4.9792469480158585E-01 
    4.8980515871515157E-01 
    4.8709380122381440E-01 
    4.9439348619262785E-01 
    5.1330320359817816E-01 
    5.4494492392002081E-01 
    5.1261998188830149E-01 
    3.9205473025689230E-01 
    4.2976320219304409E-01 
    4.5554168422409647E-01 
    4.6311198493281375E-01 
    4.5847819977324616E-01 
    4.4518022131232521E-01 
    4.2364846590593175E-01 
    3.9430945509191268E-01 
    3.3939961364612098E-01 
    2.8411421465622289E-01 
    2.8465635786610277E-01 
    2.9605864108390229E-01 
    3.3339397013278088E-01 
    4.0902009910422882E-01 
    5.0440622390108847E-01 
    5.1413126946649612E-01 
    1.5733746942249056E-02 
    6.6423666598654882E-02 
    9.1858641351792683E-02 
    1.1029816059695345E-01 
    7.8426554362453479E-02 
    6.5525017978806277E-02 
    3.5887533995743355E-02 
    1.5570819564785990E-02 
    6.8818557133804529E-03 
    7.2054776281138024E-04 
    2.1519057751749776E-03 
    1.2126037953820409E-03 
    1.2285736204396096E-02 
    1.6850234138123088E-01 
    3.3189191317351679E-01 
    4.6327328405731849E-01 
