# vtk DataFile Version 2.0
Pressure Field Data 
ASCII 
DATASET UNSTRUCTURED_GRID 

POINTS 289 double 

    0.0000000000000000E+00     0.0000000000000000E+00     0.0000000000000000E+00 
    1.0000000000000000E+00     0.0000000000000000E+00     0.0000000000000000E+00 
    1.0000000000000000E+00     1.0000000000000000E+00     0.0000000000000000E+00 
    0.0000000000000000E+00     1.0000000000000000E+00     0.0000000000000000E+00 
    6.2499999999872928E-02     0.0000000000000000E+00     0.0000000000000000E+00 
    1.2499999999977310E-01     0.0000000000000000E+00     0.0000000000000000E+00 
    1.8749999999959341E-01     0.0000000000000000E+00     0.0000000000000000E+00 
    2.4999999999941089E-01     0.0000000000000000E+00     0.0000000000000000E+00 
    3.1249999999922851E-01     0.0000000000000000E+00     0.0000000000000000E+00 
    3.7499999999904610E-01     0.0000000000000000E+00     0.0000000000000000E+00 
    4.3749999999886358E-01     0.0000000000000000E+00     0.0000000000000000E+00 
    4.9999999999869210E-01     0.0000000000000000E+00     0.0000000000000000E+00 
    5.6249999999884603E-01     0.0000000000000000E+00     0.0000000000000000E+00 
    6.2499999999901090E-01     0.0000000000000000E+00     0.0000000000000000E+00 
    6.8749999999917577E-01     0.0000000000000000E+00     0.0000000000000000E+00 
    7.4999999999934064E-01     0.0000000000000000E+00     0.0000000000000000E+00 
    8.1249999999950551E-01     0.0000000000000000E+00     0.0000000000000000E+00 
    8.7499999999967026E-01     0.0000000000000000E+00     0.0000000000000000E+00 
    9.3749999999983513E-01     0.0000000000000000E+00     0.0000000000000000E+00 
    1.0000000000000000E+00     6.2499999999872928E-02     0.0000000000000000E+00 
    1.0000000000000000E+00     1.2499999999977310E-01     0.0000000000000000E+00 
    1.0000000000000000E+00     1.8749999999959341E-01     0.0000000000000000E+00 
    1.0000000000000000E+00     2.4999999999941089E-01     0.0000000000000000E+00 
    1.0000000000000000E+00     3.1249999999922851E-01     0.0000000000000000E+00 
    1.0000000000000000E+00     3.7499999999904610E-01     0.0000000000000000E+00 
    1.0000000000000000E+00     4.3749999999886358E-01     0.0000000000000000E+00 
    1.0000000000000000E+00     4.9999999999869210E-01     0.0000000000000000E+00 
    1.0000000000000000E+00     5.6249999999884603E-01     0.0000000000000000E+00 
    1.0000000000000000E+00     6.2499999999901090E-01     0.0000000000000000E+00 
    1.0000000000000000E+00     6.8749999999917577E-01     0.0000000000000000E+00 
    1.0000000000000000E+00     7.4999999999934064E-01     0.0000000000000000E+00 
    1.0000000000000000E+00     8.1249999999950551E-01     0.0000000000000000E+00 
    1.0000000000000000E+00     8.7499999999967026E-01     0.0000000000000000E+00 
    1.0000000000000000E+00     9.3749999999983513E-01     0.0000000000000000E+00 
    9.3749999999973976E-01     1.0000000000000000E+00     0.0000000000000000E+00 
    8.7499999999950118E-01     1.0000000000000000E+00     0.0000000000000000E+00 
    8.1249999999991318E-01     1.0000000000000000E+00     0.0000000000000000E+00 
    7.5000000000034706E-01     1.0000000000000000E+00     0.0000000000000000E+00 
    6.8750000000078049E-01     1.0000000000000000E+00     0.0000000000000000E+00 
    6.2500000000121403E-01     1.0000000000000000E+00     0.0000000000000000E+00 
    5.6250000000164757E-01     1.0000000000000000E+00     0.0000000000000000E+00 
    5.0000000000205946E-01     1.0000000000000000E+00     0.0000000000000000E+00 
    4.3750000000182099E-01     1.0000000000000000E+00     0.0000000000000000E+00 
    3.7500000000156092E-01     1.0000000000000000E+00     0.0000000000000000E+00 
    3.1250000000130068E-01     1.0000000000000000E+00     0.0000000000000000E+00 
    2.5000000000104050E-01     1.0000000000000000E+00     0.0000000000000000E+00 
    1.8750000000078040E-01     1.0000000000000000E+00     0.0000000000000000E+00 
    1.2500000000052031E-01     1.0000000000000000E+00     0.0000000000000000E+00 
    6.2500000000260125E-02     1.0000000000000000E+00     0.0000000000000000E+00 
    0.0000000000000000E+00     9.3749999999973976E-01     0.0000000000000000E+00 
    0.0000000000000000E+00     8.7499999999950118E-01     0.0000000000000000E+00 
    0.0000000000000000E+00     8.1249999999991318E-01     0.0000000000000000E+00 
    0.0000000000000000E+00     7.5000000000034706E-01     0.0000000000000000E+00 
    0.0000000000000000E+00     6.8750000000078049E-01     0.0000000000000000E+00 
    0.0000000000000000E+00     6.2500000000121403E-01     0.0000000000000000E+00 
    0.0000000000000000E+00     5.6250000000164757E-01     0.0000000000000000E+00 
    0.0000000000000000E+00     5.0000000000205946E-01     0.0000000000000000E+00 
    0.0000000000000000E+00     4.3750000000182099E-01     0.0000000000000000E+00 
    0.0000000000000000E+00     3.7500000000156092E-01     0.0000000000000000E+00 
    0.0000000000000000E+00     3.1250000000130068E-01     0.0000000000000000E+00 
    0.0000000000000000E+00     2.5000000000104050E-01     0.0000000000000000E+00 
    0.0000000000000000E+00     1.8750000000078040E-01     0.0000000000000000E+00 
    0.0000000000000000E+00     1.2500000000052031E-01     0.0000000000000000E+00 
    0.0000000000000000E+00     6.2500000000260125E-02     0.0000000000000000E+00 
    6.2499999999897131E-02     6.2500000000235922E-02     0.0000000000000000E+00 
    6.2499999999921327E-02     1.2500000000047351E-01     0.0000000000000000E+00 
    6.2499999999945530E-02     1.8750000000070621E-01     0.0000000000000000E+00 
    6.2499999999969733E-02     2.5000000000093858E-01     0.0000000000000000E+00 
    6.2499999999993928E-02     3.1250000000117117E-01     0.0000000000000000E+00 
    6.2500000000018124E-02     3.7500000000140382E-01     0.0000000000000000E+00 
    6.2500000000042327E-02     4.3750000000163619E-01     0.0000000000000000E+00 
    6.2500000000066530E-02     5.0000000000184897E-01     0.0000000000000000E+00 
    6.2500000000090733E-02     5.6250000000147260E-01     0.0000000000000000E+00 
    6.2500000000114922E-02     6.2500000000107636E-01     0.0000000000000000E+00 
    6.2500000000139125E-02     6.8750000000068034E-01     0.0000000000000000E+00 
    6.2500000000163328E-02     7.5000000000028411E-01     0.0000000000000000E+00 
    6.2500000000187531E-02     8.1249999999988787E-01     0.0000000000000000E+00 
    6.2500000000211720E-02     8.7499999999951172E-01     0.0000000000000000E+00 
    6.2500000000235922E-02     9.3749999999974565E-01     0.0000000000000000E+00 
    1.2499999999981980E-01     6.2500000000211733E-02     0.0000000000000000E+00 
    1.2499999999986650E-01     1.2500000000042691E-01     0.0000000000000000E+00 
    1.2499999999991319E-01     1.8750000000063199E-01     0.0000000000000000E+00 
    1.2499999999995989E-01     2.5000000000083678E-01     0.0000000000000000E+00 
    1.2500000000000661E-01     3.1250000000104172E-01     0.0000000000000000E+00 
    1.2500000000005329E-01     3.7500000000124661E-01     0.0000000000000000E+00 
    1.2500000000010000E-01     4.3750000000145117E-01     0.0000000000000000E+00 
    1.2500000000014669E-01     5.0000000000163858E-01     0.0000000000000000E+00 
    1.2500000000019340E-01     5.6250000000129741E-01     0.0000000000000000E+00 
    1.2500000000024011E-01     6.2500000000093847E-01     0.0000000000000000E+00 
    1.2500000000028680E-01     6.8750000000057998E-01     0.0000000000000000E+00 
    1.2500000000033351E-01     7.5000000000022127E-01     0.0000000000000000E+00 
    1.2500000000038020E-01     8.1249999999986211E-01     0.0000000000000000E+00 
    1.2500000000042691E-01     8.7499999999952238E-01     0.0000000000000000E+00 
    1.2500000000047359E-01     9.3749999999975164E-01     0.0000000000000000E+00 
    1.8749999999966760E-01     6.2500000000187531E-02     0.0000000000000000E+00 
    1.8749999999974179E-01     1.2500000000038020E-01     0.0000000000000000E+00 
    1.8749999999981601E-01     1.8750000000055780E-01     0.0000000000000000E+00 
    1.8749999999989009E-01     2.5000000000073502E-01     0.0000000000000000E+00 
    1.8749999999996431E-01     3.1250000000091221E-01     0.0000000000000000E+00 
    1.8750000000003850E-01     3.7500000000108941E-01     0.0000000000000000E+00 
    1.8750000000011269E-01     4.3750000000126649E-01     0.0000000000000000E+00 
    1.8750000000018691E-01     5.0000000000142808E-01     0.0000000000000000E+00 
    1.8750000000026110E-01     5.6250000000112244E-01     0.0000000000000000E+00 
    1.8750000000033529E-01     6.2500000000080080E-01     0.0000000000000000E+00 
    1.8750000000040951E-01     6.8750000000047962E-01     0.0000000000000000E+00 
    1.8750000000048361E-01     7.5000000000015843E-01     0.0000000000000000E+00 
    1.8750000000055780E-01     8.1249999999983680E-01     0.0000000000000000E+00 
    1.8750000000063199E-01     8.7499999999953304E-01     0.0000000000000000E+00 
    1.8750000000070621E-01     9.3749999999975764E-01     0.0000000000000000E+00 
    2.4999999999951281E-01     6.2500000000163314E-02     0.0000000000000000E+00 
    2.4999999999961461E-01     1.2500000000033351E-01     0.0000000000000000E+00 
    2.4999999999971650E-01     1.8750000000048361E-01     0.0000000000000000E+00 
    2.4999999999981831E-01     2.5000000000063310E-01     0.0000000000000000E+00 
    2.4999999999992020E-01     3.1250000000078260E-01     0.0000000000000000E+00 
    2.5000000000002198E-01     3.7500000000093209E-01     0.0000000000000000E+00 
    2.5000000000012390E-01     4.3750000000108180E-01     0.0000000000000000E+00 
    2.5000000000022571E-01     5.0000000000121769E-01     0.0000000000000000E+00 
    2.5000000000032763E-01     5.6250000000094724E-01     0.0000000000000000E+00 
    2.5000000000042938E-01     6.2500000000066314E-01     0.0000000000000000E+00 
    2.5000000000053119E-01     6.8750000000037925E-01     0.0000000000000000E+00 
[...]
CELL_DATA 256 
SCALARS Pressure double 1 
LOOKUP_TABLE default 

    8.3741224862330021E-01 
    7.8599109013987800E-01 
    7.5173175641551482E-01 
    7.1967332891728730E-01 
    6.8646396839697210E-01 
    6.5133957608832505E-01 
    6.1417941671434595E-01 
    5.7521797607388536E-01 
    5.3489948188754144E-01 
    4.9389476809179678E-01 
    4.5323504283562882E-01 
    4.1458091835254407E-01 
    3.8043605868831482E-01 
    3.5329677820242072E-01 
    3.3265454442743797E-01 
    3.2295571481877783E-01 
    8.2346708490781928E-01 
    7.8743908185606148E-01 
    7.5435819038803820E-01 
    7.2259315491929166E-01 
    6.8964161537747426E-01 
    6.5476463469742341E-01 
    6.1782166570836095E-01 
    5.7901844885508968E-01 
    5.3876923497932139E-01 
    4.9770382396428881E-01 
    4.5679121945120404E-01 
    4.1760936100711188E-01 
    3.8262546142869797E-01 
    3.5451697007584532E-01 
    3.3297241192454363E-01 
    3.2256009352047099E-01 
    8.1274687996403194E-01 
    7.8669903513553241E-01 
    7.5618308845182869E-01 
    7.2512797058915579E-01 
    6.9256691820012495E-01 
    6.5799227236958591E-01 
    6.2129365758586008E-01 
    5.8265648593216490E-01 
    5.4245939342575955E-01 
    5.0127972734590909E-01 
    4.6000868324529637E-01 
    4.2012289365662697E-01 
    3.8403843425974338E-01 
    3.5464157753152004E-01 
    3.3205772446138121E-01 
    3.2109807341346375E-01 
    8.0425024319120297E-01 
    7.8481585136271836E-01 
    7.5724152921012000E-01 
    7.2726099610067485E-01 
    6.9524285603366343E-01 
    6.6103235623183365E-01 
    6.2460437816103842E-01 
    5.8614290775348266E-01 
    5.4599116326552588E-01 
    5.0466270589119866E-01 
    4.6295127361659522E-01 
    4.2220513360200534E-01 
    3.8475996965328524E-01 
    3.5371700944039502E-01 
    3.2987116563617558E-01 
    3.1838620064450202E-01 
    7.9732293742630289E-01 
    7.8236849885020643E-01 
    7.5766152684832644E-01 
    7.2900104172601976E-01 
    6.9767439240201390E-01 
    6.6389896422855932E-01 
    6.2777190346993128E-01 
    5.8949817494176648E-01 
    5.4939243455595288E-01 
    5.0789738473932811E-01 
    4.6568849613785940E-01 
    4.2395106949065020E-01 
    3.8489255838312392E-01 
    3.5180937633686965E-01 
    3.2636082085820461E-01 
    3.1421013198740455E-01 
    7.9159815124641830E-01 
    7.7971399778047912E-01 
    7.5759872285776830E-01 
    7.3038473599315590E-01 
    6.9987348884083578E-01 
    6.6660705953180177E-01 
    6.3081891705244320E-01 
    5.9275056726131137E-01 
    5.5269741757358992E-01 
    5.1103116517358960E-01 
    4.6829205717590378E-01 
    4.2546397741890724E-01 
    3.8455525314983025E-01 
    3.4899101581420011E-01 
    3.2142677725921431E-01 
    3.0826518995719515E-01 
    7.8683955446981368E-01 
    7.7708177230819475E-01 
    7.5721447461650315E-01 
    7.3147529704808467E-01 
    7.0186552753762232E-01 
    6.6917441599044170E-01 
    6.3376700638458972E-01 
    5.9592920709624775E-01 
    5.5594350867579811E-01 
    5.1411378205263369E-01 
    4.7083618501667596E-01 
    4.2685420185251371E-01 
    3.8388570982506837E-01 
    3.4535882329380513E-01 
    3.1495200723022510E-01 
    3.0013864904792326E-01 
    7.8288008025038880E-01 
    7.7461385103503300E-01 
    7.5665328097662810E-01 
    7.3234673420638685E-01 
    7.0368590586892277E-01 
    6.7162285848636905E-01 
    6.3663649695968361E-01 
    5.9905922358302988E-01 
    5.5916569378098546E-01 
    5.1719614615640364E-01 
    4.7339905480129418E-01 
    4.2824319517727416E-01 
    3.8304982469826077E-01 
    3.4105540565770992E-01 
    3.0684808188143536E-01 
    2.8934993639037043E-01 
    7.7959891854829777E-01 
    7.7239402810494517E-01 
    7.5603344667130634E-01 
    7.3307457936519249E-01 
    7.0537623665976956E-01 
    6.7397781441412818E-01 
    6.3944668057528864E-01 
    6.0216073185759222E-01 
    5.6239300952943438E-01 
    5.2032553197630138E-01 
    4.7605893568007257E-01 
    4.2976132423963148E-01 
    3.8224604950449814E-01 
    3.3628631318797164E-01 
    2.9709972929304218E-01 
    2.7543350723418264E-01 
    7.7690847299860055E-01 
    7.7047119927285257E-01 
    7.5544830975515598E-01 
    7.3373125876150147E-01 
    7.0698305251232096E-01 
    6.7626900171670590E-01 
    6.4221803408117539E-01 
    6.0525204663013554E-01 
    5.6565038323179440E-01 
    5.2354385959039929E-01 
    4.7889007791900906E-01 
    4.3154324853606868E-01 
    3.8170584922934697E-01 
    3.3134743347743928E-01 
    2.8580296561169966E-01 
    2.5792649072248375E-01 
    7.7474685904625384E-01 
    7.6887778599990908E-01 
    7.5497567190225312E-01 
    7.3438758969421769E-01 
    7.0855854201544988E-01 
    6.7853412485677989E-01 
    6.4497749251245617E-01 
    6.0835487314327708E-01 
    5.6896159012162706E-01 
    5.2688541640749309E-01 
    4.8195526334055155E-01 
    4.3371947028505653E-01 
    3.8168898012444341E-01 
    3.2664511173233141E-01 
    2.7319255499175626E-01 
    2.3619263746129404E-01 
    7.7307806372919596E-01 
    7.6764628437426197E-01 
    7.5468967349209759E-01 
    7.3511647539608416E-01 
    7.1016056164826014E-01 
    6.8082001404201420E-01 
    6.4776232397037037E-01 
    6.1149442733388315E-01 
    5.7234190401236540E-01 
    5.3036242576289605E-01 
    4.8528380983188302E-01 
    4.3639005408234371E-01 
    3.8245803872527734E-01 
    3.2269809925486231E-01 
    2.5971284062513877E-01 
    2.0933918978785376E-01 
    7.7187290701536604E-01 
    7.6680671524240041E-01 
    7.5465884683243745E-01 
    7.3598671344557565E-01 
    7.1184136156177136E-01 
    6.8316858064652020E-01 
    6.5060417567531681E-01 
    6.1467479702021099E-01 
    5.7573705424261823E-01 
    5.3385888224416089E-01 
    4.8873011587844206E-01 
    4.3944935738670204E-01 
    3.8408320882009783E-01 
    3.1995875932412504E-01 
    2.4599758079839434E-01 
    1.7598660814725556E-01 
    7.7095716683099258E-01 
    7.6626819684361580E-01 
    7.5486333931499150E-01 
    7.3699199834830342E-01 
    7.1355485243499217E-01 
    6.8548557692058465E-01 
    6.5339946590732956E-01 
    6.1779335734716911E-01 
    5.7904609697318665E-01 
    5.3727893948815952E-01 
    4.9222730900498463E-01 
    4.4283578764708914E-01 
    3.8658973052361278E-01 
    3.1880165859398979E-01 
    2.3280078169947363E-01 
    1.3349646577777918E-01 
    7.7032821583201272E-01 
    7.6596413096796534E-01 
    7.5522894329233636E-01 
    7.3808566519415064E-01 
    7.1528439151088707E-01 
    6.8775733316257803E-01 
    6.5615161656794418E-01 
    6.2092245716029215E-01 
    5.8245630575673324E-01 
    5.4091253397471895E-01 
    4.9606784520926678E-01 
    4.4681119341459552E-01 
    3.9043555849354500E-01 
    3.2071808484811254E-01 
    2.2293299060351218E-01 
    7.7223689093903453E-02 
    7.7014548282542483E-01 
    7.6613597544091150E-01 
    7.5600488009736533E-01 
    7.3951551484109268E-01 
    7.1730350359787598E-01 
    6.9027899398526416E-01 
    6.5912534310734161E-01 
    6.2429081731394154E-01 
    5.8616055894810237E-01 
    5.4491698551109424E-01 
    5.0035834378493960E-01 
    4.5143261622981012E-01 
    3.9554706247467875E-01 
    3.2644281717876655E-01 
    2.2372393517250255E-01 
    0.0000000000000000E+00 

SCALARS Saturarion double 1 
LOOKUP_TABLE default 

    1.0000000000000011E+00 
    9.6838740676850532E-01 
    9.1304673389051394E-01 
    8.4459360531723993E-01 
    7.8647369750971663E-01 
    7.3755885627329520E-01 
    6.9711598481549808E-01 
    6.6314175342056181E-01 
    6.3339298395102828E-01 
    6.0600342611520108E-01 
    5.7959955212416492E-01 
    5.5319685079239067E-01 
    5.2531091173597033E-01 
    4.7467987579834314E-01 
    2.1645114613750160E-01 
    7.5027686390658820E-06 
    9.8724425187957487E-01 
    9.5727896567468251E-01 
    8.9933521675079586E-01 
    8.3544348379554323E-01 
    7.8106750280298520E-01 
    7.3425173767790086E-01 
    6.9446563229163938E-01 
    6.6053707455739907E-01 
    6.3095668809710392E-01 
    6.0409519971153003E-01 
    5.7858824641136919E-01 
    5.5323411957156932E-01 
    5.2639306367488936E-01 
    4.7808898307007258E-01 
    2.4306426723963934E-01 
    1.6742677323503948E-04 
    9.6720839197528885E-01 
    9.3792729968155752E-01 
    8.8040193663687483E-01 
    8.1998490444469951E-01 
    7.7019681846552923E-01 
    7.2702637456774633E-01 
    6.8889493784244560E-01 
    6.5523345475893147E-01 
    6.2575956418114242E-01 
    5.9959239223781502E-01 
    5.7551215238100373E-01 
    5.5188792899738970E-01 
    5.2679862667735866E-01 
    4.8329336400589923E-01 
    2.7895179696668554E-01 
    1.0841065094232783E-03 
    9.3205737019620161E-01 
    9.0830620774062143E-01 
    8.5756500424771576E-01 
    8.0160373397034956E-01 
    7.5413888775293281E-01 
    7.1466539452484135E-01 
    6.7977972541502341E-01 
    6.4840780037131029E-01 
    6.2025152689791851E-01 
    5.9514719422433693E-01 
    5.7214636487827952E-01 
    5.4998635104120108E-01 
    5.2690773443836558E-01 
    4.8853783104835730E-01 
    3.1947121034145909E-01 
    6.0578550237228596E-03 
    8.9197785629724702E-01 
    8.7192332313948562E-01 
    8.2788481582052076E-01 
    7.7819384582375928E-01 
    7.3425374646666608E-01 
    6.9754364566921578E-01 
    6.6609982508156074E-01 
    6.3817883693452493E-01 
    6.1296799746954245E-01 
    5.9000544123655785E-01 
    5.6874633422568388E-01 
    5.4820330914300930E-01 
    5.2692074612817064E-01 
    4.9324684468932184E-01 
    3.5248251660115398E-01 
    1.7698478368698138E-02 
    8.5002417923917040E-01 
    8.3373851716095082E-01 
    7.9659639510690139E-01 
    7.5319668010098950E-01 
    7.1326424173326386E-01 
    6.7886694203613118E-01 
    6.4949794263521754E-01 
    6.2441534905949447E-01 
    6.0228175187402055E-01 
    5.8203432369065666E-01 
    5.6315561471131903E-01 
    5.4514943172375441E-01 
    5.2654202932692207E-01 
    4.9722601977368924E-01 
    3.7691220419353161E-01 
    4.0173877996831052E-02 
    8.0639792983003511E-01 
    7.9462412989362929E-01 
    7.6471647221795291E-01 
    7.2716724798663379E-01 
    6.9122058967747169E-01 
    6.5952879953266386E-01 
    6.3242854281783589E-01 
    6.0913101409458792E-01 
    5.8908446884054633E-01 
    5.7136235838400495E-01 
    5.5520360158221493E-01 
    5.3997947823542103E-01 
    5.2466289969666846E-01 
    5.0039279967517858E-01 
    3.9890752562576204E-01 
    7.5170000163703787E-02 
    7.6121395875092157E-01 
    7.5417967797278751E-01 
    7.3180998041524736E-01 
    7.0019969096592949E-01 
    6.6791325982106065E-01 
    6.3888726091034931E-01 
    6.1368854101445458E-01 
    5.9216131098890679E-01 
    5.7385782963075194E-01 
    5.5841605058165189E-01 
    5.4500707239527024E-01 
    5.3287658078647993E-01 
    5.2100280407102295E-01 
    5.0271090840807142E-01 
    4.1720372096597824E-01 
    1.2205642385851169E-01 
    7.1460879245552689E-01 
    7.1180988983851023E-01 
    6.9623515976864037E-01 
    6.7083500477900748E-01 
    6.4301595078990337E-01 
    6.1679142073879090E-01 
    5.9339089418497470E-01 
    5.7290812059786689E-01 
    5.5579568808830004E-01 
    5.4220912242836439E-01 
    5.3169665421515955E-01 
    5.2315036225630085E-01 
    5.1526365308856747E-01 
    5.0284404445607866E-01 
    4.3310433759460154E-01 
    1.6388087347365901E-01 
    6.6652981478094142E-01 
    6.6744215869784196E-01 
    6.5790745185609056E-01 
    6.3835948952922017E-01 
    6.1545689537486370E-01 
    5.9277559792743861E-01 
    5.7142629587440430E-01 
    5.5234982838771329E-01 
    5.3653483466689444E-01 
    5.2444787293226891E-01 
    5.1559429400694967E-01 
    5.1002504952493055E-01 
    5.0675671347177020E-01 
    5.0104721115059614E-01 
    4.4727922475805626E-01 
    2.0195581205575985E-01 
    6.1729158242452220E-01 
    6.2130612181574840E-01 
    6.1718892937863856E-01 
    6.0319607595079794E-01 
    5.8523688947008512E-01 
    5.6663167765596978E-01 
    5.4871817795292377E-01 
    5.3198320780790564E-01 
    5.1752898153698335E-01 
    5.0596167048183915E-01 
    4.9728752717950270E-01 
    4.9290596794423774E-01 
    4.9403688316217670E-01 
    4.9596110310945024E-01 
    4.5885408994518095E-01 
    2.3827892558400254E-01 
    5.6917844906256698E-01 
    5.7525229287383595E-01 
    5.7593378401813988E-01 
    5.6709557756718021E-01 
    5.5300585799449742E-01 
    5.3775150769805302E-01 
    5.2364588978766080E-01 
    5.1014087618992077E-01 
    4.9599813032188028E-01 
    4.8285611218463170E-01 
    4.7180710888394162E-01 
    4.6740883487798368E-01 
    4.7323363658265283E-01 
    4.8460827554291530E-01 
    4.6638976633956003E-01 
    2.7285295142113425E-01 
    5.1792459289410275E-01 
    5.2768885195635096E-01 
    5.3184373997608014E-01 
    5.2735399105702752E-01 
    5.1548743105525840E-01 
    5.0120979851090008E-01 
    4.8761565595837980E-01 
    4.7311050091968265E-01 
    4.5060067514584295E-01 
    4.0913126508024766E-01 
    3.6652477364506414E-01 
    3.5214837471681115E-01 
    3.8597061691782508E-01 
    4.4453673962031515E-01 
    4.6061574574534420E-01 
    3.0481277043844718E-01 
    3.5906917369557378E-01 
    4.1173661549874008E-01 
    4.3843337573964236E-01 
    4.4153192401812241E-01 
    4.2337617060546495E-01 
    3.7490007056042979E-01 
    3.0047031115504907E-01 
    2.3972475486382047E-01 
    1.6416329948234540E-01 
    6.5437293155331963E-02 
    2.5765657859889997E-02 
    2.4824390382708190E-02 
    1.0725347961088756E-01 
    3.0161913112491773E-01 
    4.2018853511016768E-01 
    3.2467997500730417E-01 
    1.1690220413664075E-02 
    7.0066502834751659E-02 
    9.8004375373527811E-02 
    1.0238586152504649E-01 
    6.9635364337517658E-02 
    2.1713417195780040E-02 
    3.1235860615505843E-03 
    2.6450116545024074E-04 
    6.1024321679541061E-05 
    1.9856396870071875E-05 
    2.8076530862502509E-06 
    2.0372773837141824E-06 
    5.8104543553935358E-04 
    6.9338900490759872E-02 
    3.2366397650482376E-01 
    3.3171997555784610E-01 
    1.0001209490921924E-06 
    3.9597786685554014E-05 
    3.7066382740728808E-06 
    3.6061987796891187E-06 
    1.6878256445671664E-05 
    4.7243219538443260E-06 
    1.0499951121027385E-06 
    1.0008488812756984E-06 
    1.0000887742441281E-06 
    1.0000175974518844E-06 
    1.0000001983693022E-06 
    1.0000002305175189E-06 
    1.1190248461779946E-06 
    9.7468981098175619E-04 
    1.8764175152363405E-01 
    2.9854575371293401E-01 
