# vtk DataFile Version 2.0
Pressure Field Data 
ASCII 
DATASET UNSTRUCTURED_GRID 

POINTS 289 double 

    0.0000000000000000E+00     0.0000000000000000E+00     0.0000000000000000E+00 
    1.0000000000000000E+00     0.0000000000000000E+00     0.0000000000000000E+00 
    1.0000000000000000E+00     1.0000000000000000E+00     0.0000000000000000E+00 
    0.0000000000000000E+00     1.0000000000000000E+00     0.0000000000000000E+00 
    6.2499999999872928E-02     0.0000000000000000E+00     0.0000000000000000E+00 
    1.2499999999977310E-01     0.0000000000000000E+00     0.0000000000000000E+00 
    1.8749999999959341E-01     0.0000000000000000E+00     0.0000000000000000E+00 
    2.4999999999941089E-01     0.0000000000000000E+00     0.0000000000000000E+00 
    3.1249999999922851E-01     0.0000000000000000E+00     0.0000000000000000E+00 
    3.7499999999904610E-01     0.0000000000000000E+00     0.0000000000000000E+00 
    4.3749999999886358E-01     0.0000000000000000E+00     0.0000000000000000E+00 
    4.9999999999869210E-01     0.0000000000000000E+00     0.0000000000000000E+00 
    5.6249999999884603E-01     0.0000000000000000E+00     0.0000000000000000E+00 
    6.2499999999901090E-01     0.0000000000000000E+00     0.0000000000000000E+00 
    6.8749999999917577E-01     0.0000000000000000E+00     0.0000000000000000E+00 
    7.4999999999934064E-01     0.0000000000000000E+00     0.0000000000000000E+00 
    8.1249999999950551E-01     0.0000000000000000E+00     0.0000000000000000E+00 
    8.7499999999967026E-01     0.0000000000000000E+00     0.0000000000000000E+00 
    9.3749999999983513E-01     0.0000000000000000E+00     0.0000000000000000E+00 
    1.0000000000000000E+00     6.2499999999872928E-02     0.0000000000000000E+00 
    1.0000000000000000E+00     1.2499999999977310E-01     0.0000000000000000E+00 
    1.0000000000000000E+00     1.8749999999959341E-01     0.0000000000000000E+00 
    1.0000000000000000E+00     2.4999999999941089E-01     0.0000000000000000E+00 
    1.0000000000000000E+00     3.1249999999922851E-01     0.0000000000000000E+00 
    1.0000000000000000E+00     3.7499999999904610E-01     0.0000000000000000E+00 
    1.0000000000000000E+00     4.3749999999886358E-01     0.0000000000000000E+00 
    1.0000000000000000E+00     4.9999999999869210E-01     0.0000000000000000E+00 
    1.0000000000000000E+00     5.6249999999884603E-01     0.0000000000000000E+00 
    1.0000000000000000E+00     6.2499999999901090E-01     0.0000000000000000E+00 
    1.0000000000000000E+00     6.8749999999917577E-01     0.0000000000000000E+00 
    1.0000000000000000E+00     7.4999999999934064E-01     0.0000000000000000E+00 
    1.0000000000000000E+00     8.1249999999950551E-01     0.0000000000000000E+00 
    1.0000000000000000E+00     8.7499999999967026E-01     0.0000000000000000E+00 
    1.0000000000000000E+00     9.3749999999983513E-01     0.0000000000000000E+00 
    9.3749999999973976E-01     1.0000000000000000E+00     0.0000000000000000E+00 
    8.7499999999950118E-01     1.0000000000000000E+00     0.0000000000000000E+00 
    8.1249999999991318E-01     1.0000000000000000E+00     0.0000000000000000E+00 
    7.5000000000034706E-01     1.0000000000000000E+00     0.0000000000000000E+00 
    6.8750000000078049E-01     1.0000000000000000E+00     0.0000000000000000E+00 
    6.2500000000121403E-01     1.0000000000000000E+00     0.0000000000000000E+00 
    5.6250000000164757E-01     1.0000000000000000E+00     0.0000000000000000E+00 
    5.0000000000205946E-01     1.0000000000000000E+00     0.0000000000000000E+00 
    4.3750000000182099E-01     1.0000000000000000E+00     0.0000000000000000E+00 
    3.7500000000156092E-01     1.0000000000000000E+00     0.0000000000000000E+00 
    3.1250000000130068E-01     1.0000000000000000E+00     0.0000000000000000E+00 
    2.5000000000104050E-01     1.0000000000000000E+00     0.0000000000000000E+00 
    1.8750000000078040E-01     1.0000000000000000E+00     0.0000000000000000E+00 
    1.2500000000052031E-01     1.0000000000000000E+00     0.0000000000000000E+00 
    6.2500000000260125E-02     1.0000000000000000E+00     0.0000000000000000E+00 
    0.0000000000000000E+00     9.3749999999973976E-01     0.0000000000000000E+00 
    0.0000000000000000E+00     8.7499999999950118E-01     0.0000000000000000E+00 
    0.0000000000000000E+00     8.1249999999991318E-01     0.0000000000000000E+00 
    0.0000000000000000E+00     7.5000000000034706E-01     0.0000000000000000E+00 
    0.0000000000000000E+00     6.8750000000078049E-01     0.0000000000000000E+00 
    0.0000000000000000E+00     6.2500000000121403E-01     0.0000000000000000E+00 
    0.0000000000000000E+00     5.6250000000164757E-01     0.0000000000000000E+00 
    0.0000000000000000E+00     5.0000000000205946E-01     0.0000000000000000E+00 
    0.0000000000000000E+00     4.3750000000182099E-01     0.0000000000000000E+00 
    0.0000000000000000E+00     3.7500000000156092E-01     0.0000000000000000E+00 
    0.0000000000000000E+00     3.1250000000130068E-01     0.0000000000000000E+00 
    0.0000000000000000E+00     2.5000000000104050E-01     0.0000000000000000E+00 
    0.0000000000000000E+00     1.8750000000078040E-01     0.0000000000000000E+00 
    0.0000000000000000E+00     1.2500000000052031E-01     0.0000000000000000E+00 
    0.0000000000000000E+00     6.2500000000260125E-02     0.0000000000000000E+00 
    6.2499999999897131E-02     6.2500000000235922E-02     0.0000000000000000E+00 
    6.2499999999921327E-02     1.2500000000047351E-01     0.0000000000000000E+00 
    6.2499999999945530E-02     1.8750000000070621E-01     0.0000000000000000E+00 
    6.2499999999969733E-02     2.5000000000093858E-01     0.0000000000000000E+00 
    6.2499999999993928E-02     3.1250000000117117E-01     0.0000000000000000E+00 
    6.2500000000018124E-02     3.7500000000140382E-01     0.0000000000000000E+00 
    6.2500000000042327E-02     4.3750000000163619E-01     0.0000000000000000E+00 
    6.2500000000066530E-02     5.0000000000184897E-01     0.0000000000000000E+00 
    6.2500000000090733E-02     5.6250000000147260E-01     0.0000000000000000E+00 
    6.2500000000114922E-02     6.2500000000107636E-01     0.0000000000000000E+00 
    6.2500000000139125E-02     6.8750000000068034E-01     0.0000000000000000E+00 
    6.2500000000163328E-02     7.5000000000028411E-01     0.0000000000000000E+00 
    6.2500000000187531E-02     8.1249999999988787E-01     0.0000000000000000E+00 
    6.2500000000211720E-02     8.7499999999951172E-01     0.0000000000000000E+00 
    6.2500000000235922E-02     9.3749999999974565E-01     0.0000000000000000E+00 
    1.2499999999981980E-01     6.2500000000211733E-02     0.0000000000000000E+00 
    1.2499999999986650E-01     1.2500000000042691E-01     0.0000000000000000E+00 
    1.2499999999991319E-01     1.8750000000063199E-01     0.0000000000000000E+00 
    1.2499999999995989E-01     2.5000000000083678E-01     0.0000000000000000E+00 
    1.2500000000000661E-01     3.1250000000104172E-01     0.0000000000000000E+00 
    1.2500000000005329E-01     3.7500000000124661E-01     0.0000000000000000E+00 
    1.2500000000010000E-01     4.3750000000145117E-01     0.0000000000000000E+00 
    1.2500000000014669E-01     5.0000000000163858E-01     0.0000000000000000E+00 
    1.2500000000019340E-01     5.6250000000129741E-01     0.0000000000000000E+00 
    1.2500000000024011E-01     6.2500000000093847E-01     0.0000000000000000E+00 
    1.2500000000028680E-01     6.8750000000057998E-01     0.0000000000000000E+00 
    1.2500000000033351E-01     7.5000000000022127E-01     0.0000000000000000E+00 
    1.2500000000038020E-01     8.1249999999986211E-01     0.0000000000000000E+00 
    1.2500000000042691E-01     8.7499999999952238E-01     0.0000000000000000E+00 
    1.2500000000047359E-01     9.3749999999975164E-01     0.0000000000000000E+00 
    1.8749999999966760E-01     6.2500000000187531E-02     0.0000000000000000E+00 
    1.8749999999974179E-01     1.2500000000038020E-01     0.0000000000000000E+00 
    1.8749999999981601E-01     1.8750000000055780E-01     0.0000000000000000E+00 
    1.8749999999989009E-01     2.5000000000073502E-01     0.0000000000000000E+00 
    1.8749999999996431E-01     3.1250000000091221E-01     0.0000000000000000E+00 
    1.8750000000003850E-01     3.7500000000108941E-01     0.0000000000000000E+00 
    1.8750000000011269E-01     4.3750000000126649E-01     0.0000000000000000E+00 
    1.8750000000018691E-01     5.0000000000142808E-01     0.0000000000000000E+00 
    1.8750000000026110E-01     5.6250000000112244E-01     0.0000000000000000E+00 
    1.8750000000033529E-01     6.2500000000080080E-01     0.0000000000000000E+00 
    1.8750000000040951E-01     6.8750000000047962E-01     0.0000000000000000E+00 
    1.8750000000048361E-01     7.5000000000015843E-01     0.0000000000000000E+00 
    1.8750000000055780E-01     8.1249999999983680E-01     0.0000000000000000E+00 
    1.8750000000063199E-01     8.7499999999953304E-01     0.0000000000000000E+00 
    1.8750000000070621E-01     9.3749999999975764E-01     0.0000000000000000E+00 
    2.4999999999951281E-01     6.2500000000163314E-02     0.0000000000000000E+00 
    2.4999999999961461E-01     1.2500000000033351E-01     0.0000000000000000E+00 
    2.4999999999971650E-01     1.8750000000048361E-01     0.0000000000000000E+00 
    2.4999999999981831E-01     2.5000000000063310E-01     0.0000000000000000E+00 
    2.4999999999992020E-01     3.1250000000078260E-01     0.0000000000000000E+00 
    2.5000000000002198E-01     3.7500000000093209E-01     0.0000000000000000E+00 
    2.5000000000012390E-01     4.3750000000108180E-01     0.0000000000000000E+00 
    2.5000000000022571E-01     5.0000000000121769E-01     0.0000000000000000E+00 
    2.5000000000032763E-01     5.6250000000094724E-01     0.0000000000000000E+00 
    2.5000000000042938E-01     6.2500000000066314E-01     0.0000000000000000E+00 
    2.5000000000053119E-01     6.8750000000037925E-01     0.0000000000000000E+00 
[...]
CELL_DATA 256 
SCALARS Pressure double 1 
LOOKUP_TABLE default 

    7.3236775544567645E-01 
    6.8201129534365867E-01 
    6.4941187889006857E-01 
    6.1955821024849855E-01 
    5.8904761670181338E-01 
    5.5706007194392648E-01 
    5.2339905908661088E-01 
    4.8820494224852889E-01 
    4.5182747460452805E-01 
    4.1484512619058445E-01 
    3.7818207003693305E-01 
    3.4331428189901042E-01 
    3.1242604998370549E-01 
    2.8824974395095149E-01 
    2.7258235817403142E-01 
    2.6494593982832870E-01 
    7.1839898231995947E-01 
    6.8334701887487592E-01 
    6.5187639215939985E-01 
    6.2227448066573798E-01 
    5.9197661567859872E-01 
    5.6018981108803045E-01 
    5.2670776942385233E-01 
    4.9164818100461688E-01 
    4.5533214270011529E-01 
    4.1829756082714792E-01 
    3.8141054578824285E-01 
    3.4607524199980055E-01 
    3.1442925098584046E-01 
    2.8927717189020580E-01 
    2.7271795401931970E-01 
    2.6450484415787417E-01 
    7.0767801398520991E-01 
    6.8253286379563294E-01 
    6.5357606878091101E-01 
    6.2464430615769695E-01 
    5.9469418310887934E-01 
    5.6316086088317052E-01 
    5.2988007684015437E-01 
    4.9495938063942335E-01 
    4.5868842769096807E-01 
    4.2155479706787857E-01 
    3.8435214152465275E-01 
    3.4839689795528234E-01 
    3.1577707408556771E-01 
    2.8940161884764254E-01 
    2.7179067670078799E-01 
    2.6304159335282040E-01 
    6.9923862203173948E-01 
    6.8062367082863018E-01 
    6.5455029695751055E-01 
    6.2664666971155447E-01 
    5.9719640241180694E-01 
    5.6598033107427992E-01 
    5.3292637084864192E-01 
    4.9815100218323727E-01 
    4.6191551674757519E-01 
    4.2464990066634795E-01 
    3.8705979130252544E-01 
    3.5035097331214082E-01 
    3.1654196362937909E-01 
    2.8865738863212181E-01 
    2.6974212466387198E-01 
    2.6039003498919960E-01 
    6.9243334557913139E-01 
    6.7820766798939491E-01 
    6.5493131483857303E-01 
    6.2829026792184250E-01 
    5.9948219027636929E-01 
    5.6865489352237553E-01 
    5.3585987978216820E-01 
    5.0124085282384701E-01 
    4.6503805421883265E-01 
    4.2762067915988239E-01 
    3.8959143817008868E-01 
    3.5201728857315218E-01 
    3.1680895936997133E-01 
    2.8709023170398557E-01 
    2.6651754689958118E-01 
    2.5638721903343281E-01 
    6.8687125010286032E-01 
    6.7563278072420740E-01 
    6.5487149502809061E-01 
    6.2960931419424193E-01 
    6.0155810469703175E-01 
    5.7119048660078775E-01 
    5.3869337723218635E-01 
    5.0424951783362348E-01 
    4.6808539673989807E-01 
    4.3050964564644889E-01 
    3.9200974016521051E-01 
    3.5348344577424812E-01 
    3.1667766972354428E-01 
    2.8476189765042798E-01 
    2.6206140756276292E-01 
    2.5084390355280078E-01 
    6.8229726963609372E-01 
    6.7311394031747562E-01 
    6.5452249293936027E-01 
    6.3066087525490877E-01 
    6.0344536820733008E-01 
    5.7359839192709872E-01 
    5.4143884746768156E-01 
    5.0719619329523746E-01 
    4.7108764837554201E-01 
    4.3336157607602654E-01 
    3.9438165131866793E-01 
    3.5484552075810627E-01 
    3.1626544765081893E-01 
    2.8175964709255935E-01 
    2.5632735665634004E-01 
    2.4354175404598694E-01 
    6.7853120945992162E-01 
    6.7077971985280382E-01 
    6.5401872663342375E-01 
    6.3151324103794515E-01 
    6.0517621351635975E-01 
    5.7589617441884267E-01 
    5.4410965330181704E-01 
    5.1009707426905126E-01 
    4.7407059604117019E-01 
    4.3621899286621368E-01 
    3.9677584516912784E-01 
    3.5620916943223280E-01 
    3.1571274930900195E-01 
    2.7820727501477727E-01 
    2.4929240203723696E-01 
    2.3423003872163414E-01 
    6.7544240899918728E-01 
    6.6870311380419600E-01 
    6.5347004995736069E-01 
    6.3223639795872222E-01 
    6.0678828718406519E-01 
    5.7810547231295228E-01 
    5.4672093048560577E-01 
    5.1296647108204696E-01 
    4.7705422056928798E-01 
    4.3911720961894896E-01 
    3.9925688053229696E-01 
    3.5768602174619651E-01 
    3.1518678828031071E-01 
    2.7427728335637985E-01 
    2.4096145681449879E-01 
    2.2258904198297785E-01 
    6.7293591126291386E-01 
    6.6692432780826805E-01 
    6.5296202601944997E-01 
    6.3289624804164635E-01 
    6.0832245542683905E-01 
    5.8025133384338701E-01 
    5.4928982650128155E-01 
    5.1581861693040010E-01 
    4.8005473633343854E-01 
    4.4208369008704423E-01 
    4.0188075529875145E-01 
    3.5938777028325858E-01 
    3.1488097660288966E-01 
    2.7020752485354887E-01 
    2.3138933750538593E-01 
    2.0818897785019511E-01 
    6.7094132420274100E-01 
    6.6546574830334904E-01 
    6.5256232809261105E-01 
    6.3355436589914449E-01 
    6.0982296132785763E-01 
    5.8236412331862353E-01 
    5.5183718531835302E-01 
    5.1866975550474637E-01 
    4.8308850611947046E-01 
    4.4514204669442792E-01 
    4.0469523624963527E-01 
    3.6142174549438338E-01 
    3.1501345591879065E-01 
    2.6632309051007197E-01 
    2.2073471615050891E-01 
    1.9046893155311267E-01 
    6.6940557510832221E-01 
    6.6434120497503502E-01 
    6.5232766226148320E-01 
    6.3427020056430805E-01 
    6.1133837830329407E-01 
    5.8448049847361316E-01 
    5.5438959748046102E-01 
    5.2154057795589748E-01 
    4.8617493244195453E-01 
    4.4831480776365795E-01 
    4.0773870678429835E-01 
    3.6388208894808510E-01 
    3.1581976952600449E-01 
    2.6304977322237838E-01 
    2.0931523342610103E-01 
    1.6864906233578952E-01 
    6.6829800285459362E-01 
    6.6357034921903868E-01 
    6.5231430443502458E-01 
    6.3510607831477595E-01 
    6.1292249853434855E-01 
    5.8664234921579472E-01 
    5.5697833586891277E-01 
    5.2445433497491678E-01 
    4.8933121502990629E-01 
    4.5161688681237488E-01 
    4.1103282029448540E-01 
    3.6683123508434223E-01 
    3.1752272017557515E-01 
    2.6094963234100726E-01 
    1.9779590685849532E-01 
    1.4160603296507610E-01 
    6.6756893963414876E-01 
    6.6315528414839919E-01 
    6.5256456739319302E-01 
    6.3611494987871398E-01 
    6.1462146808633633E-01 
    5.8888179558776144E-01 
    5.5962021841374732E-01 
    5.2740151816633030E-01 
    4.9250856669854431E-01 
    4.5496307137129693E-01 
    4.1447525593526036E-01 
    3.7017868259818981E-01 
    3.2016466784742609E-01 
    2.6052892911862291E-01 
    1.8728417673281630E-01 
    1.0755874742869580E-01 
    6.6704859640581848E-01 
    6.6295054805585141E-01 
    6.5298181108540909E-01 
    6.3722996269356180E-01 
    6.1637284610823695E-01 
    5.9114271544511421E-01 
    5.6226462581265257E-01 
    5.3033429220870709E-01 
    4.9565545420197216E-01 
    4.5830434892668181E-01 
    4.1802551588670384E-01 
    3.7389562266176191E-01 
    3.2372833001457191E-01 
    2.6217505677376701E-01 
    1.7945365271103675E-01 
    6.3110528439916741E-02 
    6.6686455938025002E-01 
    6.6309644846168769E-01 
    6.5370115162014775E-01 
    6.3856613330204648E-01 
    6.1826824305026384E-01 
    5.9350967566919910E-01 
    5.6501111361248768E-01 
    5.3338583680949958E-01 
    4.9896015343593153E-01 
    4.6185680734846518E-01 
    4.2186023494752051E-01 
    3.7808308669058249E-01 
    3.2838907244725912E-01 
    2.6691688992615920E-01 
    1.7902108994444535E-01 
    0.0000000000000000E+00 

SCALARS Saturarion double 1 
LOOKUP_TABLE default 

    1.0000000000000007E+00 
    9.7416799875890947E-01 
    9.2751415636668144E-01 
    8.6707927244314997E-01 
    8.1613262621924343E-01 
    7.7177622026570414E-01 
    7.3380641334056795E-01 
    7.0128288303540864E-01 
    6.7283071353923296E-01 
    6.4706744042804010E-01 
    6.2263497912105858E-01 
    5.9807320905051975E-01 
    5.7141073118913710E-01 
    5.4017051292345997E-01 
    4.6615887408584195E-01 
    1.2101841644597990E-01 
    9.9005792377456714E-01 
    9.6557759538277188E-01 
    9.1671897165551075E-01 
    8.5937705882088289E-01 
    8.1067881164532729E-01 
    7.6820489265012060E-01 
    7.3127434489495058E-01 
    6.9916648534547365E-01 
    6.7095584537415243E-01 
    6.4549959843813098E-01 
    6.2168607271565846E-01 
    5.9811072337364091E-01 
    5.7261561138791861E-01 
    5.4233635320863294E-01 
    4.7214579966485881E-01 
    1.5499531418879087E-01 
    9.7439477179457201E-01 
    9.5005487535481969E-01 
    9.0116898571826265E-01 
    8.4597997659351609E-01 
    7.9997357719259454E-01 
    7.6064253431119222E-01 
    7.2594248329485944E-01 
    6.9482682326921208E-01 
    6.6693918691511400E-01 
    6.4175805173778799E-01 
    6.1865098876691427E-01 
    5.9641824449739167E-01 
    5.7293041220803553E-01 
    5.4482932245327143E-01 
    4.8102955591221963E-01 
    1.9092423817509180E-01 
    9.4701219990344165E-01 
    9.2666653613909922E-01 
    8.8234683374228284E-01 
    8.3137915200523005E-01 
    7.8640691558034215E-01 
    7.4898723052241056E-01 
    7.1664039238242339E-01 
    6.8771459422384995E-01 
    6.6135080072157582E-01 
    6.3736450248186549E-01 
    6.1522507067513355E-01 
    5.9418431764512780E-01 
    5.7254289585337437E-01 
    5.4697250539189290E-01 
    4.8996585987140678E-01 
    2.2687169047973507E-01 
    9.1405309561373105E-01 
    8.9643695927844724E-01 
    8.5731656967921066E-01 
    8.1154308339814119E-01 
    7.6912966226737778E-01 
    7.3317746500120606E-01 
    7.0281591891085482E-01 
    6.7632988251160553E-01 
    6.5260734637805884E-01 
    6.3101351878301559E-01 
    6.1103180812764712E-01 
    5.9182937470978147E-01 
    5.7192898528179514E-01 
    5.4860113426017598E-01 
    4.9833950062782217E-01 
    2.5450807051901553E-01 
    8.7808748149411120E-01 
    8.6355796321362677E-01 
    8.2980955209203133E-01 
    7.8891701102593581E-01 
    7.5006593787545961E-01 
    7.1606738461941466E-01 
    6.8683226955613408E-01 
    6.6195616185259243E-01 
    6.4051315484318172E-01 
    6.2155482410483798E-01 
    6.0432782038181954E-01 
    5.8807093069697292E-01 
    5.7094644655298710E-01 
    5.4988869086429359E-01 
    5.0546201527177781E-01 
    2.7863715032126879E-01 
    8.3969689371410838E-01 
    8.2883813281824681E-01 
    8.0087700161242559E-01 
    7.6491822770102469E-01 
    7.2981439799773662E-01 
    6.9830622395887598E-01 
    6.7083174383602961E-01 
    6.4699331484655731E-01 
    6.2675945678259559E-01 
    6.0966935338504091E-01 
    5.9504216233241791E-01 
    5.8191561738227915E-01 
    5.6857924919313796E-01 
    5.5097924089695771E-01 
    5.1209579521366011E-01 
    3.0201101038540173E-01 
    7.9876679972642739E-01 
    7.9200090631022413E-01 
    7.7051281198193355E-01 
    7.3988810379605419E-01 
    7.0815738591828492E-01 
    6.7903193405977480E-01 
    6.5324816661906582E-01 
    6.3094705033113152E-01 
    6.1189743485461512E-01 
    5.9611116702235201E-01 
    5.8339813146301911E-01 
    5.7327047668842257E-01 
    5.6399493369795650E-01 
    5.5122107423830280E-01 
    5.1845118779001498E-01 
    3.2544898863357524E-01 
    7.5556037958159494E-01 
    7.5265604730475144E-01 
    7.3731095372393418E-01 
    7.1228777041634228E-01 
    6.8451445880358686E-01 
    6.5789126833451161E-01 
    6.3398720562913735E-01 
    6.1297400160489057E-01 
    5.9489443893478855E-01 
    5.8000210374480088E-01 
    5.6884221284286729E-01 
    5.6154470152246527E-01 
    5.5669418632891665E-01 
    5.4964761748045077E-01 
    5.2407818824500652E-01 
    3.4723140571842009E-01 
    7.1004303085353471E-01 
    7.1066934935268466E-01 
    7.0093946067728330E-01 
    6.8118237941966620E-01 
    6.5770378083377501E-01 
    6.3421347814987217E-01 
    6.1234572024297218E-01 
    5.9293363108703012E-01 
    5.7601066645729249E-01 
    5.6188416695515420E-01 
    5.5146272392262341E-01 
    5.4605619822468399E-01 
    5.4562106718971859E-01 
    5.4541284049658423E-01 
    5.2824702776713961E-01 
    3.6832130834591176E-01 
    6.6188574237536379E-01 
    6.6570286228067554E-01 
    6.6111409454763193E-01 
    6.4626666919219500E-01 
    6.2719223160370574E-01 
    6.0748051966880223E-01 
    5.8870364505395767E-01 
    5.7119426134076023E-01 
    5.5570488573242405E-01 
    5.4281813207523388E-01 
    5.3324486883748623E-01 
    5.2828800877793836E-01 
    5.3013211040628316E-01 
    5.3714611514833066E-01 
    5.3044376181770914E-01 
    3.8941849100996756E-01 
    6.1052083841123850E-01 
    6.1712357697547693E-01 
    6.1763587065469849E-01 
    6.0789444997584474E-01 
    5.9320638098075529E-01 
    5.7712523584509756E-01 
    5.6129387047774482E-01 
    5.4662668929187475E-01 
    5.3364933474544063E-01 
    5.2276509661767490E-01 
    5.1432083414390062E-01 
    5.0968324085031069E-01 
    5.1159652027769398E-01 
    5.2330460376232679E-01 
    5.2710974273864175E-01 
    4.0980221208683054E-01 
    5.5974459492582151E-01 
    5.6780229988752329E-01 
    5.7211480123363101E-01 
    5.6714156064386234E-01 
    5.5670588670903920E-01 
    5.4360135242241714E-01 
    5.3048207489948906E-01 
    5.1809876262575816E-01 
    5.0611177024704601E-01 
    4.9515807617028507E-01 
    4.8800849430520582E-01 
    4.8547782713121651E-01 
    4.8894004103640210E-01 
    5.0360284519785725E-01 
    5.2081802451902148E-01 
    4.2773498026653972E-01 
    4.8642016960346168E-01 
    5.0258716706183648E-01 
    5.1320894257630556E-01 
    5.1475116137473720E-01 
    5.0666839653083184E-01 
    4.9472502134459734E-01 
    4.8012531665079539E-01 
    4.6453177407653423E-01 
    4.3737272916059200E-01 
    4.0122324634314566E-01 
    3.6675202633179138E-01 
    3.5996064436664993E-01 
    3.9393303761176585E-01 
    4.5056931092438812E-01 
    5.0047850309073905E-01 
    4.4013578481022875E-01 
    1.7724989092973809E-01 
    2.5860114020599939E-01 
    3.0839654469735917E-01 
    3.1874621924062052E-01 
    3.0073446919854097E-01 
    2.4815982447439405E-01 
    2.1964300285273700E-01 
    1.5977106173834199E-01 
    9.8769676730804279E-02 
    5.0045526209824956E-02 
    1.8089249892007688E-02 
    2.8024952297179467E-02 
    7.8821027649528516E-02 
    2.2264631085656025E-01 
    4.3098750234594241E-01 
    4.4354082536014339E-01 
    1.0082083240966444E-06 
    1.1977719066530417E-03 
    2.9523412623600333E-03 
    2.1486007789756662E-03 
    2.7557611819434727E-03 
    1.2937066039247897E-04 
    2.2614770295614688E-04 
    7.9012485325792309E-06 
    6.5479991222632272E-06 
    9.4517460690857221E-06 
    1.8050807096461715E-06 
    4.2787222465354110E-06 
    1.2083478161854741E-04 
    4.1812168449307997E-02 
    2.5498610997683602E-01 
    3.9425998350649460E-01 
