# vtk DataFile Version 2.0
Pressure Field Data 
ASCII 
DATASET UNSTRUCTURED_GRID 

POINTS 289 double 

    0.0000000000000000E+00     0.0000000000000000E+00     0.0000000000000000E+00 
    1.0000000000000000E+00     0.0000000000000000E+00     0.0000000000000000E+00 
    1.0000000000000000E+00     1.0000000000000000E+00     0.0000000000000000E+00 
    0.0000000000000000E+00     1.0000000000000000E+00     0.0000000000000000E+00 
    6.2499999999872928E-02     0.0000000000000000E+00     0.0000000000000000E+00 
    1.2499999999977310E-01     0.0000000000000000E+00     0.0000000000000000E+00 
    1.8749999999959341E-01     0.0000000000000000E+00     0.0000000000000000E+00 
    2.4999999999941089E-01     0.0000000000000000E+00     0.0000000000000000E+00 
    3.1249999999922851E-01     0.0000000000000000E+00     0.0000000000000000E+00 
    3.7499999999904610E-01     0.0000000000000000E+00     0.0000000000000000E+00 
    4.3749999999886358E-01     0.0000000000000000E+00     0.0000000000000000E+00 
    4.9999999999869210E-01     0.0000000000000000E+00     0.0000000000000000E+00 
    5.6249999999884603E-01     0.0000000000000000E+00     0.0000000000000000E+00 
    6.2499999999901090E-01     0.0000000000000000E+00     0.0000000000000000E+00 
    6.8749999999917577E-01     0.0000000000000000E+00     0.0000000000000000E+00 
    7.4999999999934064E-01     0.0000000000000000E+00     0.0000000000000000E+00 
    8.1249999999950551E-01     0.0000000000000000E+00     0.0000000000000000E+00 
    8.7499999999967026E-01     0.0000000000000000E+00     0.0000000000000000E+00 
    9.3749999999983513E-01     0.0000000000000000E+00     0.0000000000000000E+00 
    1.0000000000000000E+00     6.2499999999872928E-02     0.0000000000000000E+00 
    1.0000000000000000E+00     1.2499999999977310E-01     0.0000000000000000E+00 
    1.0000000000000000E+00     1.8749999999959341E-01     0.0000000000000000E+00 
    1.0000000000000000E+00     2.4999999999941089E-01     0.0000000000000000E+00 
    1.0000000000000000E+00     3.1249999999922851E-01     0.0000000000000000E+00 
    1.0000000000000000E+00     3.7499999999904610E-01     0.0000000000000000E+00 
    1.0000000000000000E+00     4.3749999999886358E-01     0.0000000000000000E+00 
    1.0000000000000000E+00     4.9999999999869210E-01     0.0000000000000000E+00 
    1.0000000000000000E+00     5.6249999999884603E-01     0.0000000000000000E+00 
    1.0000000000000000E+00     6.2499999999901090E-01     0.0000000000000000E+00 
    1.0000000000000000E+00     6.8749999999917577E-01     0.0000000000000000E+00 
    1.0000000000000000E+00     7.4999999999934064E-01     0.0000000000000000E+00 
    1.0000000000000000E+00     8.1249999999950551E-01     0.0000000000000000E+00 
    1.0000000000000000E+00     8.7499999999967026E-01     0.0000000000000000E+00 
    1.0000000000000000E+00     9.3749999999983513E-01     0.0000000000000000E+00 
    9.3749999999973976E-01     1.0000000000000000E+00     0.0000000000000000E+00 
    8.7499999999950118E-01     1.0000000000000000E+00     0.0000000000000000E+00 
    8.1249999999991318E-01     1.0000000000000000E+00     0.0000000000000000E+00 
    7.5000000000034706E-01     1.0000000000000000E+00     0.0000000000000000E+00 
    6.8750000000078049E-01     1.0000000000000000E+00     0.0000000000000000E+00 
    6.2500000000121403E-01     1.0000000000000000E+00     0.0000000000000000E+00 
    5.6250000000164757E-01     1.0000000000000000E+00     0.0000000000000000E+00 
    5.0000000000205946E-01     1.0000000000000000E+00     0.0000000000000000E+00 
    4.3750000000182099E-01     1.0000000000000000E+00     0.0000000000000000E+00 
    3.7500000000156092E-01     1.0000000000000000E+00     0.0000000000000000E+00 
    3.1250000000130068E-01     1.0000000000000000E+00     0.0000000000000000E+00 
    2.5000000000104050E-01     1.0000000000000000E+00     0.0000000000000000E+00 
    1.8750000000078040E-01     1.0000000000000000E+00     0.0000000000000000E+00 
    1.2500000000052031E-01     1.0000000000000000E+00     0.0000000000000000E+00 
    6.2500000000260125E-02     1.0000000000000000E+00     0.0000000000000000E+00 
    0.0000000000000000E+00     9.3749999999973976E-01     0.0000000000000000E+00 
    0.0000000000000000E+00     8.7499999999950118E-01     0.0000000000000000E+00 
    0.0000000000000000E+00     8.1249999999991318E-01     0.0000000000000000E+00 
    0.0000000000000000E+00     7.5000000000034706E-01     0.0000000000000000E+00 
    0.0000000000000000E+00     6.8750000000078049E-01     0.0000000000000000E+00 
    0.0000000000000000E+00     6.2500000000121403E-01     0.0000000000000000E+00 
    0.0000000000000000E+00     5.6250000000164757E-01     0.0000000000000000E+00 
    0.0000000000000000E+00     5.0000000000205946E-01     0.0000000000000000E+00 
    0.0000000000000000E+00     4.3750000000182099E-01     0.0000000000000000E+00 
    0.0000000000000000E+00     3.7500000000156092E-01     0.0000000000000000E+00 
    0.0000000000000000E+00     3.1250000000130068E-01     0.0000000000000000E+00 
    0.0000000000000000E+00     2.5000000000104050E-01     0.0000000000000000E+00 
    0.0000000000000000E+00     1.8750000000078040E-01     0.0000000000000000E+00 
    0.0000000000000000E+00     1.2500000000052031E-01     0.0000000000000000E+00 
    0.0000000000000000E+00     6.2500000000260125E-02     0.0000000000000000E+00 
    6.2499999999897131E-02     6.2500000000235922E-02     0.0000000000000000E+00 
    6.2499999999921327E-02     1.2500000000047351E-01     0.0000000000000000E+00 
    6.2499999999945530E-02     1.8750000000070621E-01     0.0000000000000000E+00 
    6.2499999999969733E-02     2.5000000000093858E-01     0.0000000000000000E+00 
    6.2499999999993928E-02     3.1250000000117117E-01     0.0000000000000000E+00 
    6.2500000000018124E-02     3.7500000000140382E-01     0.0000000000000000E+00 
    6.2500000000042327E-02     4.3750000000163619E-01     0.0000000000000000E+00 
    6.2500000000066530E-02     5.0000000000184897E-01     0.0000000000000000E+00 
    6.2500000000090733E-02     5.6250000000147260E-01     0.0000000000000000E+00 
    6.2500000000114922E-02     6.2500000000107636E-01     0.0000000000000000E+00 
    6.2500000000139125E-02     6.8750000000068034E-01     0.0000000000000000E+00 
    6.2500000000163328E-02     7.5000000000028411E-01     0.0000000000000000E+00 
    6.2500000000187531E-02     8.1249999999988787E-01     0.0000000000000000E+00 
    6.2500000000211720E-02     8.7499999999951172E-01     0.0000000000000000E+00 
    6.2500000000235922E-02     9.3749999999974565E-01     0.0000000000000000E+00 
    1.2499999999981980E-01     6.2500000000211733E-02     0.0000000000000000E+00 
    1.2499999999986650E-01     1.2500000000042691E-01     0.0000000000000000E+00 
    1.2499999999991319E-01     1.8750000000063199E-01     0.0000000000000000E+00 
    1.2499999999995989E-01     2.5000000000083678E-01     0.0000000000000000E+00 
    1.2500000000000661E-01     3.1250000000104172E-01     0.0000000000000000E+00 
    1.2500000000005329E-01     3.7500000000124661E-01     0.0000000000000000E+00 
    1.2500000000010000E-01     4.3750000000145117E-01     0.0000000000000000E+00 
    1.2500000000014669E-01     5.0000000000163858E-01     0.0000000000000000E+00 
    1.2500000000019340E-01     5.6250000000129741E-01     0.0000000000000000E+00 
    1.2500000000024011E-01     6.2500000000093847E-01     0.0000000000000000E+00 
    1.2500000000028680E-01     6.8750000000057998E-01     0.0000000000000000E+00 
    1.2500000000033351E-01     7.5000000000022127E-01     0.0000000000000000E+00 
    1.2500000000038020E-01     8.1249999999986211E-01     0.0000000000000000E+00 
    1.2500000000042691E-01     8.7499999999952238E-01     0.0000000000000000E+00 
    1.2500000000047359E-01     9.3749999999975164E-01     0.0000000000000000E+00 
    1.8749999999966760E-01     6.2500000000187531E-02     0.0000000000000000E+00 
    1.8749999999974179E-01     1.2500000000038020E-01     0.0000000000000000E+00 
    1.8749999999981601E-01     1.8750000000055780E-01     0.0000000000000000E+00 
    1.8749999999989009E-01     2.5000000000073502E-01     0.0000000000000000E+00 
    1.8749999999996431E-01     3.1250000000091221E-01     0.0000000000000000E+00 
    1.8750000000003850E-01     3.7500000000108941E-01     0.0000000000000000E+00 
    1.8750000000011269E-01     4.3750000000126649E-01     0.0000000000000000E+00 
    1.8750000000018691E-01     5.0000000000142808E-01     0.0000000000000000E+00 
    1.8750000000026110E-01     5.6250000000112244E-01     0.0000000000000000E+00 
    1.8750000000033529E-01     6.2500000000080080E-01     0.0000000000000000E+00 
    1.8750000000040951E-01     6.8750000000047962E-01     0.0000000000000000E+00 
    1.8750000000048361E-01     7.5000000000015843E-01     0.0000000000000000E+00 
    1.8750000000055780E-01     8.1249999999983680E-01     0.0000000000000000E+00 
    1.8750000000063199E-01     8.7499999999953304E-01     0.0000000000000000E+00 
    1.8750000000070621E-01     9.3749999999975764E-01     0.0000000000000000E+00 
    2.4999999999951281E-01     6.2500000000163314E-02     0.0000000000000000E+00 
    2.4999999999961461E-01     1.2500000000033351E-01     0.0000000000000000E+00 
    2.4999999999971650E-01     1.8750000000048361E-01     0.0000000000000000E+00 
    2.4999999999981831E-01     2.5000000000063310E-01     0.0000000000000000E+00 
    2.4999999999992020E-01     3.1250000000078260E-01     0.0000000000000000E+00 
    2.5000000000002198E-01     3.7500000000093209E-01     0.0000000000000000E+00 
    2.5000000000012390E-01     4.3750000000108180E-01     0.0000000000000000E+00 
    2.5000000000022571E-01     5.0000000000121769E-01     0.0000000000000000E+00 
    2.5000000000032763E-01     5.6250000000094724E-01     0.0000000000000000E+00 
    2.5000000000042938E-01     6.2500000000066314E-01     0.0000000000000000E+00 
    2.5000000000053119E-01     6.8750000000037925E-01     0.0000000000000000E+00 
[...]
CELL_DATA 256 
SCALARS Pressure double 1 
LOOKUP_TABLE default 

    8.9008929007884607E-01 
    8.3789930743422847E-01 
    8.0245981848841719E-01 
    7.6884220666596581E-01 
    7.3372444100978929E-01 
    6.9639144962275845E-01 
    6.5679204422799609E-01 
    6.1523267555244843E-01 
    5.7222053870889389E-01 
    5.2848507537307921E-01 
    4.8512581301698482E-01 
    4.4385109616070945E-01 
    4.0663185937859830E-01 
    3.7279287681492540E-01 
    3.4702734738646995E-01 
    3.3647893042731247E-01 
    8.7615835838873635E-01 
    8.3942550386719106E-01 
    8.0519714479655158E-01 
    7.7190089482863355E-01 
    7.3707488338033389E-01 
    7.0002301947040424E-01 
    6.6066459439419711E-01 
    6.1927476986597618E-01 
    5.7633330896561075E-01 
    5.3253123166649552E-01 
    4.8890711660891634E-01 
    4.4710785562589977E-01 
    4.0916937983630430E-01 
    3.7457772528435190E-01 
    3.4754139786052690E-01 
    3.3602281358370428E-01 
    8.6543115877888999E-01 
    8.3873352700422066E-01 
    8.0710410219424089E-01 
    7.7454300909229834E-01 
    7.4014001215630065E-01 
    7.0342781588927095E-01 
    6.6434245313571272E-01 
    6.2313191911897292E-01 
    5.8024145582103759E-01 
    5.3631318063603695E-01 
    4.9230863022662064E-01 
    4.4978568892491361E-01 
    4.1081742197616483E-01 
    3.7523299946073141E-01 
    3.4674667189695024E-01 
    3.3435501035463344E-01 
    8.5687933081794176E-01 
    8.3685971734055775E-01 
    8.0821287016029986E-01 
    7.7675627649745171E-01 
    7.4292705769302314E-01 
    7.0661537747184866E-01 
    6.6783291677358647E-01 
    6.2681598662804583E-01 
    5.8397067816817694E-01 
    5.3987666501718334E-01 
    4.9539830257666673E-01 
    4.5197226732367085E-01 
    4.1167384550196434E-01 
    3.7479223263640310E-01 
    3.4455061000150988E-01 
    3.3123707435701327E-01 
    8.4984748938272903E-01 
    8.3437639106652406E-01 
    8.0864843630172745E-01 
    7.7855146174992718E-01 
    7.4544703907356114E-01 
    7.0960479724445802E-01 
    6.7115687058569595E-01 
    6.3034986505564572E-01 
    5.8755257232172586E-01 
    5.4327160611463843E-01 
    4.9825188605083481E-01 
    4.5376923553551035E-01 
    4.1184957121332461E-01 
    3.7328199857087085E-01 
    3.4083810775945889E-01 
    3.2641437715967958E-01 
    8.4398945666964220E-01 
    8.3165020473424189E-01 
    8.0857099143425926E-01 
    7.7996902752938335E-01 
    7.4771834352264011E-01 
    7.1241919984880664E-01 
    6.7434399037001624E-01 
    6.3376571613554888E-01 
    5.9102308062673647E-01 
    5.4654794401451379E-01 
    5.0094595924020524E-01 
    4.5528594568407083E-01 
    4.1146485848661513E-01 
    3.7073721620917105E-01 
    3.3549596658978403E-01 
    3.1961398679578829E-01 
    8.3908308688616917E-01 
    8.2892267726401736E-01 
    8.0815032630040062E-01 
    7.8107718629598588E-01 
    7.4977064990353870E-01 
    7.1508314664179384E-01 
    6.7742382620783748E-01 
    6.3709856295241174E-01 
    5.9442231140709312E-01 
    5.4975739558610259E-01 
    5.0355890426004501E-01 
    4.5663955351570962E-01 
    4.1065734385822117E-01 
    3.6721679633554183E-01 
    3.2841830626903640E-01 
    3.1052788675641124E-01 
    8.3497173225057875E-01 
    8.2634624967335057E-01 
    8.0753831543325150E-01 
    7.8195442961609640E-01 
    7.5164266806647018E-01 
    7.1762261072645128E-01 
    6.8042331469164252E-01 
    6.4038172572204588E-01 
    5.9779195903029392E-01 
    5.5295543489257482E-01 
    5.0617423221761182E-01 
    4.5796078199824636E-01 
    4.0960153414251038E-01 
    3.6283362455996770E-01 
    3.1953402214790000E-01 
    2.9879582473682686E-01 
    8.3154157126942585E-01 
    8.2401245280873536E-01 
    8.0685982392964506E-01 
    7.8268204521691365E-01 
    7.5338002461360432E-01 
    7.2006475997489816E-01 
    6.8336588511135710E-01 
    6.4364510185054014E-01 
    6.0117271476336331E-01 
    5.5619805547518242E-01 
    5.0887747152189056E-01 
    4.5939152909460390E-01 
    4.0851126737128279E-01 
    3.5777209109825059E-01 
    3.0883919884957062E-01 
    2.8399419457189601E-01 
    8.2871167261610856E-01 
    8.2197769766936457E-01 
    8.0621567144818429E-01 
    7.8334046694155879E-01 
    7.5503492016898854E-01 
    7.2244031946771214E-01 
    6.8627520105835149E-01 
    6.4691796605246366E-01 
    6.0460344331685079E-01 
    5.5953750875712649E-01 
    5.1175012962726563E-01 
    4.6107741242328337E-01 
    4.0763657753622057E-01 
    3.5233469293677599E-01 
    2.9646641718535882E-01 
    2.6560229503737909E-01 
    8.2643151988524888E-01 
    8.2028634017415358E-01 
    8.0569481829283318E-01 
    7.8401158110679836E-01 
    7.5666802372501329E-01 
    7.2478969906468782E-01 
    6.8918052090153659E-01 
    6.5022829581205976E-01 
    6.0811363803905150E-01 
    5.6300964194219749E-01 
    5.1485376272539451E-01 
    4.6314704103048460E-01 
    4.0723939646727408E-01 
    3.4696055792302960E-01 
    2.8269109056446767E-01 
    2.4281124947369701E-01 
    8.2467912018700806E-01 
    8.1898674411638062E-01 
    8.0538316366426155E-01 
    7.8477849547087497E-01 
    7.5834684591347679E-01 
    7.2716042134079184E-01 
    6.9210925355011699E-01 
    6.5358343989227896E-01 
    6.1168333051730683E-01 
    5.6656692152476851E-01 
    5.1813279056095030E-01 
    4.6559831702274157E-01 
    4.0746820408147827E-01 
    3.4208054350197953E-01 
    2.6774002654846801E-01 
    2.1406395144349810E-01 
    8.2338365150395354E-01 
    8.1807833215956238E-01 
    8.0532884991929976E-01 
    7.8569744164098998E-01 
    7.6011241081521896E-01 
    7.2955553293562447E-01 
    6.9496029888694777E-01 
    6.5680407654449291E-01 
    6.1512402734344040E-01 
    5.7001998083497762E-01 
    5.2137702589541068E-01 
    4.6816198893171584E-01 
    4.0810061506344114E-01 
    3.3776772081402429E-01 
    2.5172240447123639E-01 
    1.7699492288217927E-01 
    8.2226290441970329E-01 
    8.1733334530949875E-01 
    8.0537371610401998E-01 
    7.8662672715539428E-01 
    7.6182462931931705E-01 
    7.3185644516503312E-01 
    6.9764385739749646E-01 
    6.5981605033282487E-01 
    6.1847645923546923E-01 
    5.7357474870052172E-01 
    5.2493392751060874E-01 
    4.7137256803931088E-01 
    4.1002373466166631E-01 
    3.3515793756059875E-01 
    2.3563590995751782E-01 
    1.2910015257834512E-01 
    8.2152482352632594E-01 
    8.1690496626577247E-01 
    8.0564586841871233E-01 
    7.8767664836290463E-01 
    7.6359331531890084E-01 
    7.3422811781745845E-01 
    7.0047631744980465E-01 
    6.6302903847757155E-01 
    6.2209050247471875E-01 
    5.7752655793139762E-01 
    5.2909432479206131E-01 
    4.7558431590492306E-01 
    4.1391043341798217E-01 
    3.3681912496975969E-01 
    2.2595467366397270E-01 
    7.0770629670745142E-02 
    8.2133379974488108E-01 
    8.1709331149874298E-01 
    8.0647330850402776E-01 
    7.8918982057453024E-01 
    7.6575279913578842E-01 
    7.3695655192579768E-01 
    7.0367646400038397E-01 
    6.6661276278629900E-01 
    6.2602125587819391E-01 
    5.8180768460247612E-01 
    5.3371297458323996E-01 
    4.8057768509704096E-01 
    4.1937506868038232E-01 
    3.4265594847628278E-01 
    2.2842034798727709E-01 
    0.0000000000000000E+00 

SCALARS Saturarion double 1 
LOOKUP_TABLE default 

    1.0000000000000064E+00 
    9.6424568734792104E-01 
    9.0324141195017749E-01 
    8.2901818152680928E-01 
    7.6624722436930104E-01 
    7.1500848583796917E-01 
    6.7352521766236462E-01 
    6.3874301412816725E-01 
    6.0784596959034787E-01 
    5.7906139914208388E-01 
    5.5143736707033586E-01 
    5.2360076171628633E-01 
    4.8244582417427112E-01 
    3.2209328008670890E-01 
    6.1759107440680994E-03 
    1.0000000475720558E-06 
    9.8513140691516976E-01 
    9.5128081143980014E-01 
    8.8742666585380259E-01 
    8.1923643873158702E-01 
    7.6106595425235157E-01 
    7.1171399532240387E-01 
    6.7050018725669969E-01 
    6.3564913324255323E-01 
    6.0513040639008520E-01 
    5.7711549962192599E-01 
    5.5040196588723622E-01 
    5.2345487414336256E-01 
    4.8378000743876659E-01 
    3.4095115136237752E-01 
    1.3271529524762064E-02 
    1.1532400451793155E-06 
    9.6176934687293425E-01 
    9.2919201965917553E-01 
    8.6613736833672816E-01 
    8.0274452705050658E-01 
    7.5031789244020231E-01 
    7.0442756815347130E-01 
    6.6425257066908217E-01 
    6.2945594432284280E-01 
    5.9944936618708000E-01 
    5.7271645017256823E-01 
    5.4764012115187177E-01 
    5.2225729297252410E-01 
    4.8602346363635740E-01 
    3.6126816857712085E-01 
    2.5526480548973860E-02 
    1.8933097083963862E-06 
    9.2086977887780763E-01 
    8.9512388403022702E-01 
    8.4020696570679232E-01 
    7.8169376975415550E-01 
    7.3308678654952752E-01 
    6.9206615832402441E-01 
    6.5541430718582827E-01 
    6.2284375424485783E-01 
    5.9408292135029372E-01 
    5.6847588501849267E-01 
    5.4461230373514269E-01 
    5.2087022935090843E-01 
    4.8813315268999885E-01 
    3.8112614698596520E-01 
    4.8436819355433633E-02 
    6.5907363464148071E-06 
    8.7625593019902481E-01 
    8.5460688348039071E-01 
    8.0757004970620494E-01 
    7.5621396800309149E-01 
    7.1191956478003682E-01 
    6.7476804081209141E-01 
    6.4253820483569446E-01 
    6.1374076177046200E-01 
    5.8769679085777549E-01 
    5.6389154255644991E-01 
    5.4160382824470299E-01 
    5.1968118432344823E-01 
    4.9005128928809422E-01 
    3.9867835693130160E-01 
    7.4358321524782001E-02 
    9.1196488191900370E-06 
    8.3045980056073843E-01 
    8.1316023371340251E-01 
    7.7427418236944889E-01 
    7.2993842429918543E-01 
    6.8978250556592691E-01 
    6.5552163094284688E-01 
    6.2630674504637729E-01 
    6.0093746295913641E-01 
    5.7793874252105182E-01 
    5.5651322619740728E-01 
    5.3629786301759108E-01 
    5.1661579310663019E-01 
    4.9116050569072767E-01 
    4.1245093988040654E-01 
    1.0169457054906303E-01 
    1.2472073061035361E-05 
    7.8380111276232711E-01 
    7.7157983411826958E-01 
    7.4082283336229482E-01 
    7.0269505026622625E-01 
    6.6668874674963396E-01 
    6.3547829192621341E-01 
    6.0903277744951212E-01 
    5.8605082039338829E-01 
    5.6560268446996165E-01 
    5.4677021492854527E-01 
    5.2913209707818054E-01 
    5.1184262673263969E-01 
    4.9050639936944601E-01 
    4.2456121525403273E-01 
    1.3461505652180958E-01 
    2.8874782013261904E-05 
    7.3629370250022819E-01 
    7.2918260847244609E-01 
    7.0651994135563601E-01 
    6.7468132481878307E-01 
    6.4262718337402169E-01 
    6.1420175710633129E-01 
    5.8970102453244966E-01 
    5.6888546979117127E-01 
    5.5101827894606181E-01 
    5.3506274331958581E-01 
    5.1997006083708697E-01 
    5.0539628157985828E-01 
    4.8798573032270975E-01 
    4.3541788732192171E-01 
    1.7256650026514966E-01 
    1.7919378027926702E-04 
    6.8796304019352317E-01 
    6.8527615595876701E-01 
    6.6978294036428376E-01 
    6.4463580996733527E-01 
    6.1738408436193681E-01 
    5.9163996032209443E-01 
    5.6866871375044237E-01 
    5.4921057079601188E-01 
    5.3357507684417671E-01 
    5.2048741428368450E-01 
    5.0864562150191583E-01 
    4.9710485852814418E-01 
    4.8375299650416548E-01 
    4.4250112073292197E-01 
    2.1525325685597116E-01 
    7.3995168223495774E-04 
    6.3899295165924752E-01 
    6.4005498717279019E-01 
    6.3091659788877852E-01 
    6.1208072516008716E-01 
    5.9004577333921071E-01 
    5.6782984884749388E-01 
    5.4685080696268951E-01 
    5.2901814152016191E-01 
    5.1507068676284762E-01 
    5.0362175512436391E-01 
    4.9377399393142091E-01 
    4.8556209036282699E-01 
    4.7676783871337397E-01 
    4.4647548075427884E-01 
    2.6742440122852817E-01 
    3.5981897925085708E-03 
    5.9085275897400458E-01 
    5.9475821250514727E-01 
    5.9115831877865366E-01 
    5.7803873057525623E-01 
    5.6078154648638701E-01 
    5.4289265022730160E-01 
    5.2564422932373545E-01 
    5.0921095959383700E-01 
    4.9468543318528257E-01 
    4.8237328830640391E-01 
    4.7282863679182247E-01 
    4.6657920963723898E-01 
    4.6328173240342463E-01 
    4.4470426587632095E-01 
    3.1299912428828958E-01 
    1.7562101668685486E-02 
    5.4614433992320233E-01 
    5.5195567003884050E-01 
    5.5234866212775557E-01 
    5.4319406780104273E-01 
    5.2937194936910936E-01 
    5.1542881080412761E-01 
    5.0047473504711304E-01 
    4.8211920490034371E-01 
    4.6097713692347381E-01 
    4.3631012218268772E-01 
    4.1424451248283783E-01 
    4.0440210163364082E-01 
    4.1822228311038051E-01 
    4.2712327488294666E-01 
    3.4065903108319240E-01 
    5.0638824421222882E-02 
    4.7912706029606233E-01 
    4.9269295873130908E-01 
    5.0035361201023576E-01 
    4.9689457765263795E-01 
    4.8342058955026651E-01 
    4.6595607416510137E-01 
    4.3645435777932201E-01 
    3.4850146183864184E-01 
    2.4868439936882811E-01 
    1.7548891885186119E-01 
    1.1200638442846279E-01 
    1.1307062274195566E-01 
    2.0220751588188521E-01 
    3.3744854722109019E-01 
    3.3858879653281337E-01 
    8.1028491098548025E-02 
    1.9742451609195569E-01 
    2.9104979484815757E-01 
    3.3785900700341331E-01 
    3.2772385453265052E-01 
    2.7074554481232832E-01 
    2.0087382133141471E-01 
    1.2597761335078009E-01 
    1.9536027655070717E-02 
    1.2797277848854384E-03 
    1.1572051778854926E-04 
    1.0749797504789112E-05 
    6.4834394481670048E-06 
    1.6682061436725326E-03 
    6.2239919735881326E-02 
    2.0380371462976274E-01 
    6.4024019346771238E-02 
    7.2193692450437916E-06 
    4.3437744306555988E-03 
    1.0009131459404848E-02 
    5.9654380428872337E-03 
    1.8105253888285296E-03 
    1.4814862368231569E-04 
    4.7968497349143706E-05 
    4.3831695236861665E-06 
    1.0217531421184823E-06 
    1.0011966740710907E-06 
    1.0000218462779547E-06 
    1.0000096099018427E-06 
    1.0755933388362929E-06 
    8.2950991718644946E-05 
    5.0573415755287539E-03 
    5.6278070941772817E-03 
    1.0000000091524487E-06 
    1.2303487642568153E-06 
    1.1092755902086722E-06 
    1.1376679696582893E-06 
    1.0337919270206524E-06 
    1.0009623384444342E-06 
    1.0002053806562532E-06 
    1.0000002465463528E-06 
    1.0000000014604656E-06 
    1.0000000000148643E-06 
    1.0000000000000048E-06 
    1.0000000000000749E-06 
    1.0000000056616423E-06 
    1.0004947622969914E-06 
    1.8313926338879508E-06 
    1.0000008630666071E-06 
