# vtk DataFile Version 2.0
Pressure Field Data 
ASCII 
DATASET UNSTRUCTURED_GRID 

POINTS 289 double 

    0.0000000000000000E+00     0.0000000000000000E+00     0.0000000000000000E+00 
    1.0000000000000000E+00     0.0000000000000000E+00     0.0000000000000000E+00 
    1.0000000000000000E+00     1.0000000000000000E+00     0.0000000000000000E+00 
    0.0000000000000000E+00     1.0000000000000000E+00     0.0000000000000000E+00 
    6.2499999999872928E-02     0.0000000000000000E+00     0.0000000000000000E+00 
    1.2499999999977310E-01     0.0000000000000000E+00     0.0000000000000000E+00 
    1.8749999999959341E-01     0.0000000000000000E+00     0.0000000000000000E+00 
    2.4999999999941089E-01     0.0000000000000000E+00     0.0000000000000000E+00 
    3.1249999999922851E-01     0.0000000000000000E+00     0.0000000000000000E+00 
    3.7499999999904610E-01     0.0000000000000000E+00     0.0000000000000000E+00 
    4.3749999999886358E-01     0.0000000000000000E+00     0.0000000000000000E+00 
    4.9999999999869210E-01     0.0000000000000000E+00     0.0000000000000000E+00 
    5.6249999999884603E-01     0.0000000000000000E+00     0.0000000000000000E+00 
    6.2499999999901090E-01     0.0000000000000000E+00     0.0000000000000000E+00 
    6.8749999999917577E-01     0.0000000000000000E+00     0.0000000000000000E+00 
    7.4999999999934064E-01     0.0000000000000000E+00     0.0000000000000000E+00 
    8.1249999999950551E-01     0.0000000000000000E+00     0.0000000000000000E+00 
    8.7499999999967026E-01     0.0000000000000000E+00     0.0000000000000000E+00 
    9.3749999999983513E-01     0.0000000000000000E+00     0.0000000000000000E+00 
    1.0000000000000000E+00     6.2499999999872928E-02     0.0000000000000000E+00 
    1.0000000000000000E+00     1.2499999999977310E-01     0.0000000000000000E+00 
    1.0000000000000000E+00     1.8749999999959341E-01     0.0000000000000000E+00 
    1.0000000000000000E+00     2.4999999999941089E-01     0.0000000000000000E+00 
    1.0000000000000000E+00     3.1249999999922851E-01     0.0000000000000000E+00 
    1.0000000000000000E+00     3.7499999999904610E-01     0.0000000000000000E+00 
    1.0000000000000000E+00     4.3749999999886358E-01     0.0000000000000000E+00 
    1.0000000000000000E+00     4.9999999999869210E-01     0.0000000000000000E+00 
    1.0000000000000000E+00     5.6249999999884603E-01     0.0000000000000000E+00 
    1.0000000000000000E+00     6.2499999999901090E-01     0.0000000000000000E+00 
    1.0000000000000000E+00     6.8749999999917577E-01     0.0000000000000000E+00 
    1.0000000000000000E+00     7.4999999999934064E-01     0.0000000000000000E+00 
    1.0000000000000000E+00     8.1249999999950551E-01     0.0000000000000000E+00 
    1.0000000000000000E+00     8.7499999999967026E-01     0.0000000000000000E+00 
    1.0000000000000000E+00     9.3749999999983513E-01     0.0000000000000000E+00 
    9.3749999999973976E-01     1.0000000000000000E+00     0.0000000000000000E+00 
    8.7499999999950118E-01     1.0000000000000000E+00     0.0000000000000000E+00 
    8.1249999999991318E-01     1.0000000000000000E+00     0.0000000000000000E+00 
    7.5000000000034706E-01     1.0000000000000000E+00     0.0000000000000000E+00 
    6.8750000000078049E-01     1.0000000000000000E+00     0.0000000000000000E+00 
    6.2500000000121403E-01     1.0000000000000000E+00     0.0000000000000000E+00 
    5.6250000000164757E-01     1.0000000000000000E+00     0.0000000000000000E+00 
    5.0000000000205946E-01     1.0000000000000000E+00     0.0000000000000000E+00 
    4.3750000000182099E-01     1.0000000000000000E+00     0.0000000000000000E+00 
    3.7500000000156092E-01     1.0000000000000000E+00     0.0000000000000000E+00 
    3.1250000000130068E-01     1.0000000000000000E+00     0.0000000000000000E+00 
    2.5000000000104050E-01     1.0000000000000000E+00     0.0000000000000000E+00 
    1.8750000000078040E-01     1.0000000000000000E+00     0.0000000000000000E+00 
    1.2500000000052031E-01     1.0000000000000000E+00     0.0000000000000000E+00 
    6.2500000000260125E-02     1.0000000000000000E+00     0.0000000000000000E+00 
    0.0000000000000000E+00     9.3749999999973976E-01     0.0000000000000000E+00 
    0.0000000000000000E+00     8.7499999999950118E-01     0.0000000000000000E+00 
    0.0000000000000000E+00     8.1249999999991318E-01     0.0000000000000000E+00 
    0.0000000000000000E+00     7.5000000000034706E-01     0.0000000000000000E+00 
    0.0000000000000000E+00     6.8750000000078049E-01     0.0000000000000000E+00 
    0.0000000000000000E+00     6.2500000000121403E-01     0.0000000000000000E+00 
    0.0000000000000000E+00     5.6250000000164757E-01     0.0000000000000000E+00 
    0.0000000000000000E+00     5.0000000000205946E-01     0.0000000000000000E+00 
    0.0000000000000000E+00     4.3750000000182099E-01     0.0000000000000000E+00 
    0.0000000000000000E+00     3.7500000000156092E-01     0.0000000000000000E+00 
    0.0000000000000000E+00     3.1250000000130068E-01     0.0000000000000000E+00 
    0.0000000000000000E+00     2.5000000000104050E-01     0.0000000000000000E+00 
    0.0000000000000000E+00     1.8750000000078040E-01     0.0000000000000000E+00 
    0.0000000000000000E+00     1.2500000000052031E-01     0.0000000000000000E+00 
    0.0000000000000000E+00     6.2500000000260125E-02     0.0000000000000000E+00 
    6.2499999999897131E-02     6.2500000000235922E-02     0.0000000000000000E+00 
    6.2499999999921327E-02     1.2500000000047351E-01     0.0000000000000000E+00 
    6.2499999999945530E-02     1.8750000000070621E-01     0.0000000000000000E+00 
    6.2499999999969733E-02     2.5000000000093858E-01     0.0000000000000000E+00 
    6.2499999999993928E-02     3.1250000000117117E-01     0.0000000000000000E+00 
    6.2500000000018124E-02     3.7500000000140382E-01     0.0000000000000000E+00 
    6.2500000000042327E-02     4.3750000000163619E-01     0.0000000000000000E+00 
    6.2500000000066530E-02     5.0000000000184897E-01     0.0000000000000000E+00 
    6.2500000000090733E-02     5.6250000000147260E-01     0.0000000000000000E+00 
    6.2500000000114922E-02     6.2500000000107636E-01     0.0000000000000000E+00 
    6.2500000000139125E-02     6.8750000000068034E-01     0.0000000000000000E+00 
    6.2500000000163328E-02     7.5000000000028411E-01     0.0000000000000000E+00 
    6.2500000000187531E-02     8.1249999999988787E-01     0.0000000000000000E+00 
    6.2500000000211720E-02     8.7499999999951172E-01     0.0000000000000000E+00 
    6.2500000000235922E-02     9.3749999999974565E-01     0.0000000000000000E+00 
    1.2499999999981980E-01     6.2500000000211733E-02     0.0000000000000000E+00 
    1.2499999999986650E-01     1.2500000000042691E-01     0.0000000000000000E+00 
    1.2499999999991319E-01     1.8750000000063199E-01     0.0000000000000000E+00 
    1.2499999999995989E-01     2.5000000000083678E-01     0.0000000000000000E+00 
    1.2500000000000661E-01     3.1250000000104172E-01     0.0000000000000000E+00 
    1.2500000000005329E-01     3.7500000000124661E-01     0.0000000000000000E+00 
    1.2500000000010000E-01     4.3750000000145117E-01     0.0000000000000000E+00 
    1.2500000000014669E-01     5.0000000000163858E-01     0.0000000000000000E+00 
    1.2500000000019340E-01     5.6250000000129741E-01     0.0000000000000000E+00 
    1.2500000000024011E-01     6.2500000000093847E-01     0.0000000000000000E+00 
    1.2500000000028680E-01     6.8750000000057998E-01     0.0000000000000000E+00 
    1.2500000000033351E-01     7.5000000000022127E-01     0.0000000000000000E+00 
    1.2500000000038020E-01     8.1249999999986211E-01     0.0000000000000000E+00 
    1.2500000000042691E-01     8.7499999999952238E-01     0.0000000000000000E+00 
    1.2500000000047359E-01     9.3749999999975164E-01     0.0000000000000000E+00 
    1.8749999999966760E-01     6.2500000000187531E-02     0.0000000000000000E+00 
    1.8749999999974179E-01     1.2500000000038020E-01     0.0000000000000000E+00 
    1.8749999999981601E-01     1.8750000000055780E-01     0.0000000000000000E+00 
    1.8749999999989009E-01     2.5000000000073502E-01     0.0000000000000000E+00 
    1.8749999999996431E-01     3.1250000000091221E-01     0.0000000000000000E+00 
    1.8750000000003850E-01     3.7500000000108941E-01     0.0000000000000000E+00 
    1.8750000000011269E-01     4.3750000000126649E-01     0.0000000000000000E+00 
    1.8750000000018691E-01     5.0000000000142808E-01     0.0000000000000000E+00 
    1.8750000000026110E-01     5.6250000000112244E-01     0.0000000000000000E+00 
    1.8750000000033529E-01     6.2500000000080080E-01     0.0000000000000000E+00 
    1.8750000000040951E-01     6.8750000000047962E-01     0.0000000000000000E+00 
    1.8750000000048361E-01     7.5000000000015843E-01     0.0000000000000000E+00 
    1.8750000000055780E-01     8.1249999999983680E-01     0.0000000000000000E+00 
    1.8750000000063199E-01     8.7499999999953304E-01     0.0000000000000000E+00 
    1.8750000000070621E-01     9.3749999999975764E-01     0.0000000000000000E+00 
    2.4999999999951281E-01     6.2500000000163314E-02     0.0000000000000000E+00 
    2.4999999999961461E-01     1.2500000000033351E-01     0.0000000000000000E+00 
    2.4999999999971650E-01     1.8750000000048361E-01     0.0000000000000000E+00 
    2.4999999999981831E-01     2.5000000000063310E-01     0.0000000000000000E+00 
    2.4999999999992020E-01     3.1250000000078260E-01     0.0000000000000000E+00 
    2.5000000000002198E-01     3.7500000000093209E-01     0.0000000000000000E+00 
    2.5000000000012390E-01     4.3750000000108180E-01     0.0000000000000000E+00 
    2.5000000000022571E-01     5.0000000000121769E-01     0.0000000000000000E+00 
    2.5000000000032763E-01     5.6250000000094724E-01     0.0000000000000000E+00 
    2.5000000000042938E-01     6.2500000000066314E-01     0.0000000000000000E+00 
    2.5000000000053119E-01     6.8750000000037925E-01     0.0000000000000000E+00 
[...]
CELL_DATA 256 
SCALARS Pressure double 1 
LOOKUP_TABLE default 

    7.2753764664154574E-01 
    6.7723562247175562E-01 
    6.4472168826391907E-01 
    6.1498132659358340E-01 
    5.8460824225746189E-01 
    5.5277890955309550E-01 
    5.1929340542738534E-01 
    4.8428853233148106E-01 
    4.4811038656415375E-01 
    4.1133289659309880E-01 
    3.7487370529169378E-01 
    3.4019889735220799E-01 
    3.0947752462282135E-01 
    2.8542145624099652E-01 
    2.6987324491977188E-01 
    2.6228908506260890E-01 
    7.1356736537674581E-01 
    6.7856540583061076E-01 
    6.4717767781951552E-01 
    6.1768697642645076E-01 
    5.8752456888425297E-01 
    5.5589388089779668E-01 
    5.2258547056075433E-01 
    4.8771374664861222E-01 
    4.5159637694620730E-01 
    4.1476697386298372E-01 
    3.7808536933061360E-01 
    3.4294612993411638E-01 
    3.1147195541546097E-01 
    2.8644483258704567E-01 
    2.7000506475854180E-01 
    2.6184718502895171E-01 
    7.0284570461401530E-01 
    6.7774702219996041E-01 
    6.4887054369167729E-01 
    6.2004798976374265E-01 
    5.9023142686193264E-01 
    5.5885211512555455E-01 
    5.2574289364187821E-01 
    4.9100847210157456E-01 
    4.5493549619437318E-01 
    4.1800766901445480E-01 
    3.8101269956797562E-01 
    3.4525772151776918E-01 
    3.1281620965766549E-01 
    2.8657300748788944E-01 
    2.6908200318259407E-01 
    2.6039041697316651E-01 
    6.9440807709446395E-01 
    6.7583573080120762E-01 
    6.4983987413855415E-01 
    6.2204319623275361E-01 
    5.9272456697746667E-01 
    5.6166051581322018E-01 
    5.2877607229058099E-01 
    4.9418526713866584E-01 
    4.5814692390081735E-01 
    4.2108780193535461E-01 
    3.8370814277731280E-01 
    3.4720478933015808E-01 
    3.1358221827153487E-01 
    2.8584004308770139E-01 
    2.6704778709938481E-01 
    2.5775774692516767E-01 
    6.8760751000021403E-01 
    6.7342019285143473E-01 
    6.5021807699147005E-01 
    6.2368133012717819E-01 
    5.9500270130786537E-01 
    5.6432542906694427E-01 
    5.3169798653527067E-01 
    4.9726179820304078E-01 
    4.6125515714738635E-01 
    4.2404489033963966E-01 
    3.8622913506149020E-01 
    3.4886644889041901E-01 
    3.1385430816718601E-01 
    2.8429120485056641E-01 
    2.6384880186047033E-01 
    2.5378908626140700E-01 
    6.8205201733638510E-01 
    6.7084797703368082E-01 
    6.5015740985276871E-01 
    6.2499654171719721E-01 
    5.9707223056271652E-01 
    5.6685247658661964E-01 
    5.3452100633330113E-01 
    5.0025825506455002E-01 
    4.6428919646003547E-01 
    4.2692109842385800E-01 
    3.8863790426408062E-01 
    3.5032962905752740E-01 
    3.1373122386644531E-01 
    2.8198771048216670E-01 
    2.5943023127223175E-01 
    2.4829691245881594E-01 
    6.7748560661381307E-01 
    6.6833333768983949E-01 
    6.4980908763239242E-01 
    6.2604559359668199E-01 
    5.9895419825510432E-01 
    5.6925275034604794E-01 
    5.3725680051662961E-01 
    5.0319338872931385E-01 
    4.6727864200681568E-01 
    4.2976073703893497E-01 
    3.9100100750099309E-01 
    3.5168983357220884E-01 
    3.1332934930778533E-01 
    2.7901585538339529E-01 
    2.5374594948695278E-01 
    2.4106513239817720E-01 
    6.7372746854481813E-01 
    6.6600419462550098E-01 
    6.4930700222028825E-01 
    6.2689644254504728E-01 
    6.0068068340425984E-01 
    5.7154371326640263E-01 
    5.3991856153125539E-01 
    5.0608308254123135E-01 
    4.7024878123404279E-01 
    4.3260571228323130E-01 
    3.9338659543069598E-01 
    3.5305213672949187E-01 
    3.1278805338640270E-01 
    2.7549813332830853E-01 
    2.4677279161137908E-01 
    2.3184525044028084E-01 
    6.7064644413758800E-01 
    6.6393296716857686E-01 
    6.4876053063613026E-01 
    6.2761876845279563E-01 
    6.0228916083859751E-01 
    5.7374689095209430E-01 
    5.4252134748406056E-01 
    5.0894154041611006E-01 
    4.7321925938943854E-01 
    4.3549065999241243E-01 
    3.9585851316028742E-01 
    3.5452745287761511E-01 
    3.1227326135041911E-01 
    2.7160506794546257E-01 
    2.3851480582674936E-01 
    2.2032012218818520E-01 
    6.6814720962041230E-01 
    6.6215938765937954E-01 
    6.4825481077258873E-01 
    6.2827815219741168E-01 
    6.0382025830622676E-01 
    5.7588715757184750E-01 
    5.4508225578746816E-01 
    5.1178304330276647E-01 
    4.7620613226996500E-01 
    4.3844234290111156E-01 
    3.9847186770379950E-01 
    3.5622657835634508E-01 
    3.1197686546121184E-01 
    2.6757210285715211E-01 
    2.2902553801853087E-01 
    2.0606328721029796E-01 
    6.6615907588007650E-01 
    6.6070539158778074E-01 
    6.4785704252636589E-01 
    6.2893575134173418E-01 
    6.0531787020048522E-01 
    5.7799459841721423E-01 
    5.4762202022897655E-01 
    5.1462389255688334E-01 
    4.7922562695697829E-01 
    4.4148353832624304E-01 
    4.0127338906762811E-01 
    3.5825582028145803E-01 
    3.1211517722551424E-01 
    2.6372044557876062E-01 
    2.1846033999270947E-01 
    1.8851865125884956E-01 
    6.6462846451999846E-01 
    6.5958412213983597E-01 
    6.4762319750272745E-01 
    6.2965034153998256E-01 
    6.0683004376132865E-01 
    5.8010548210250890E-01 
    5.5016700401096608E-01 
    5.1748470734554475E-01 
    4.8229696850008147E-01 
    4.4463590911741918E-01 
    4.0430073725710497E-01 
    3.6070889482350649E-01 
    3.1292207569920494E-01 
    2.6047154176361398E-01 
    2.0713210429676807E-01 
    1.6691211332501388E-01 
    6.6352385938636216E-01 
    6.5881396641344214E-01 
    6.4760831073363423E-01 
    6.3048331380852696E-01 
    6.0841006284953880E-01 
    5.8226142712447659E-01 
    5.5274837423327927E-01 
    5.2038911615844485E-01 
    4.8543800663211739E-01 
    4.4791385753780261E-01 
    4.0757568958802975E-01 
    3.6364977943403037E-01 
    3.1462030646186945E-01 
    2.5838069817153947E-01 
    1.9569332165538447E-01 
    1.4012314912686255E-01 
    6.6279882966409609E-01 
    6.5839906358400202E-01 
    6.4785556509043229E-01 
    6.3148822140790706E-01 
    6.1010498929722523E-01 
    5.8449576279797966E-01 
    5.5538526650738018E-01 
    5.2333359905593058E-01 
    4.8860945043597731E-01 
    4.5124413831630500E-01 
    4.1100532109946986E-01 
    3.6699637306857419E-01 
    3.1726199745909850E-01 
    2.5796577458925768E-01 
    1.8526810883969363E-01 
    1.0640725135718157E-01 
    6.6228351800127083E-01 
    6.5819868256480496E-01 
    6.4827511235498370E-01 
    6.3260351224506051E-01 
    6.1185480985558871E-01 
    5.8675353440388744E-01 
    5.5802692764112105E-01 
    5.2626835937231498E-01 
    4.9175733255134857E-01 
    4.5457588749317179E-01 
    4.1453635528262539E-01 
    3.7069253711487105E-01 
    3.2080869468837958E-01 
    2.5959803932903402E-01 
    1.7752472758479498E-01 
    6.2444697375659650E-02 
    6.6210045464844958E-01 
    6.5834537631832801E-01 
    6.4899379551820824E-01 
    6.3393632715041182E-01 
    6.1374351962173979E-01 
    5.8911155524103087E-01 
    5.6076342603648277E-01 
    5.2931057568270223E-01 
    4.9505286040942625E-01 
    4.5811418928037173E-01 
    4.1834564586279865E-01 
    3.7484683510541994E-01 
    3.2544294252335559E-01 
    2.6428812619328762E-01 
    1.7705562414588605E-01 
    0.0000000000000000E+00 

SCALARS Saturarion double 1 
LOOKUP_TABLE default 

    1.0000000000000007E+00 
    9.7445399907201835E-01 
    9.2825546495407985E-01 
    8.6822199420012691E-01 
    8.1764402681912352E-01 
    7.7355206683645350E-01 
    7.3574274817062757E-01 
    7.0331467646540657E-01 
    6.7492978584745467E-01 
    6.4923482432724144E-01 
    6.2489056121891995E-01 
    6.0043957507585821E-01 
    5.7387989751941315E-01 
    5.4268008761767395E-01 
    4.7158761642043595E-01 
    1.3357982929693715E-01 
    9.9019275387627104E-01 
    9.6598531034444424E-01 
    9.1760149960112580E-01 
    8.6060758056470021E-01 
    8.1220202386634610E-01 
    7.6996574592903266E-01 
    7.3320498309578030E-01 
    7.0121094834583453E-01 
    6.7307943078246490E-01 
    6.4769006850941357E-01 
    6.2395218965896382E-01 
    6.0047509084234885E-01 
    5.7508227087992525E-01 
    5.4483649011077728E-01 
    4.7745284460384513E-01 
    1.6778576123246883E-01 
    9.7473847583431339E-01 
    9.5065146003655376E-01 
    9.0222164311883279E-01 
    8.4733240042085978E-01 
    8.0152383461422871E-01 
    7.6238246647207275E-01 
    7.2786278804503557E-01 
    6.9689671011046384E-01 
    6.6911685505214791E-01 
    6.4400620420502241E-01 
    6.2094930564591910E-01 
    5.9877865645894734E-01 
    5.7538132632153816E-01 
    5.4732708268300290E-01 
    4.8593013404787233E-01 
    2.0281910682552537E-01 
    9.4772756347706077E-01 
    9.2757134472597857E-01 
    8.8359090342990243E-01 
    8.3291239700080300E-01 
    7.8810184226295743E-01 
    7.5079047299960344E-01 
    7.1856438714513182E-01 
    6.8977023493568534E-01 
    6.6352288482960076E-01 
    6.3962096147373215E-01 
    6.1753691565773605E-01 
    5.9654241437913380E-01 
    5.7497055826637566E-01 
    5.4945135883986296E-01 
    4.9447361611783475E-01 
    2.3748569914798462E-01 
    9.1514456397610822E-01 
    8.9765944503958184E-01 
    8.5880097654865228E-01 
    8.1327020244476123E-01 
    7.7097836451777357E-01 
    7.3507971669942762E-01 
    7.0476977067171642E-01 
    6.7835550731844418E-01 
    6.5471594399892208E-01 
    6.3320401908587221E-01 
    6.1329709230618668E-01 
    5.9416228572413732E-01 
    5.7433554116585539E-01 
    5.5105542638969807E-01 
    5.0251160233665770E-01 
    2.6429997038405212E-01 
    8.7949765053558626E-01 
    8.6506386087525955E-01 
    8.3151119047857325E-01 
    7.9078640555462543E-01 
    7.5202203127280398E-01 
    7.1806415116618905E-01 
    6.8885232197986834E-01 
    6.6399217534358868E-01 
    6.4257372920776623E-01 
    6.2366435150474997E-01 
    6.0651397395624695E-01 
    5.9034863045009089E-01 
    5.7331996133839636E-01 
    5.5232388116419828E-01 
    5.0938659689934196E-01 
    2.8774885635588471E-01 
    8.4139716539542664E-01 
    8.3059341983894719E-01 
    8.0275436100530129E-01 
    7.6690417333587901E-01 
    7.3186548991344069E-01 
    7.0039350935628908E-01 
    6.7292890072507539E-01 
    6.4907839015267343E-01 
    6.2882555111609628E-01 
    6.1173636763703643E-01 
    5.9715585201973986E-01 
    5.8412536143460392E-01 
    5.7090697416329594E-01 
    5.5338905983481212E-01 
    5.1573428593864334E-01 
    3.1044084108682740E-01 
    8.0071595034962106E-01 
    7.9396842630458364E-01 
    7.7253973296637624E-01 
    7.4198269397453298E-01 
    7.1030333675249835E-01 
    6.8120383184074684E-01 
    6.5541820783271987E-01 
    6.3309399962793722E-01 
    6.1401026191631614E-01 
    5.9819011169682224E-01 
    5.8547053277505268E-01 
    5.7540462689675309E-01 
    5.6625915986215469E-01 
    5.5359620019305222E-01 
    5.2188339684829910E-01 
    3.3319994850165552E-01 
    7.5771402349003936E-01 
    7.5480609966057644E-01 
    7.3947965258104698E-01 
    7.1448953153933081E-01 
    6.8674443164791554E-01 
    6.6012881478684537E-01 
    6.3621443138245970E-01 
    6.1518473761717629E-01 
    5.9708117119374016E-01 
    5.8214321471615105E-01 
    5.7092500511197763E-01 
    5.6361656645306912E-01 
    5.5886871131006366E-01 
    5.5197447638495112E-01 
    5.2724281272951656E-01 
    3.5436032978183196E-01 
    7.1236327090548179E-01 
    7.1297412321031017E-01 
    7.0323726421851840E-01 
    6.8348332421796099E-01 
    6.6000200806818943E-01 
    6.3649351538644505E-01 
    6.1460369333627063E-01 
    5.9518367402726646E-01 
    5.7825485312012426E-01 
    5.6408392103594429E-01 
    5.5356872926887868E-01 
    5.4808707312989002E-01 
    5.4769056717619935E-01 
    5.4766061095656604E-01 
    5.3125864593043570E-01 
    3.7486909179183781E-01 
    6.6432648662396854E-01 
    6.6812690101750272E-01 
    6.6351462280778384E-01 
    6.4863810729206672E-01 
    6.2952258309555809E-01 
    6.0976255637970112E-01 
    5.9095077876131408E-01 
    5.7342835567606865E-01 
    5.5792068018777596E-01 
    5.4497819068869047E-01 
    5.3530837803126119E-01 
    5.3026276403225858E-01 
    5.3209175234823514E-01 
    5.3926874654105628E-01 
    5.3313601882543604E-01 
    3.9543759385835431E-01 
    6.1293584266789269E-01 
    6.1955326260270482E-01 
    6.2004302064056094E-01 
    6.1023315996328775E-01 
    5.9546319698775685E-01 
    5.7933187112179074E-01 
    5.6347731270749390E-01 
    5.4876547249483387E-01 
    5.3571763234417313E-01 
    5.2478846033577931E-01 
    5.1632594767149564E-01 
    5.1166558499047576E-01 
    5.1352623679685727E-01 
    5.2528044121761841E-01 
    5.2962032551331972E-01 
    4.1527634356653237E-01 
    5.6185923220983214E-01 
    5.6994806071540416E-01 
    5.7427275260464683E-01 
    5.6927174574161254E-01 
    5.5881407400682515E-01 
    5.4573553617433967E-01 
    5.3263214503920120E-01 
    5.2024867419456811E-01 
    5.0840458404776201E-01 
    4.9753311930007066E-01 
    4.9026394035526050E-01 
    4.8780365262334574E-01 
    4.9124787999683867E-01 
    5.0556933178988084E-01 
    5.2267843532248837E-01 
    4.3258344037182178E-01 
    4.9049351564109789E-01 
    5.0617805063975541E-01 
    5.1627259164598382E-01 
    5.1760076946779821E-01 
    5.0951178223468174E-01 
    4.9773912135584053E-01 
    4.8351273357877017E-01 
    4.6901358525020787E-01 
    4.4465859873654801E-01 
    4.1197729567929631E-01 
    3.8319677816939873E-01 
    3.7227239807905327E-01 
    4.0089878866175815E-01 
    4.5481374080079812E-01 
    5.0372336854229716E-01 
    4.4477980780543891E-01 
    1.8848962327253058E-01 
    2.7077124128654151E-01 
    3.2115362482078474E-01 
    3.3086680416274039E-01 
    3.1198241724394415E-01 
    2.5888435912460800E-01 
    2.3130312090632035E-01 
    1.7416167912066122E-01 
    1.1753293198256995E-01 
    6.4312971781013570E-02 
    2.6712995392999924E-02 
    3.6796020672073763E-02 
    8.4616909592983167E-02 
    2.3305139225108462E-01 
    4.3616653891224183E-01 
    4.4784167845491091E-01 
    1.0571949869938636E-06 
    1.6442176454015177E-03 
    4.1500854618594400E-03 
    3.3624095160195724E-03 
    3.8485470363412034E-03 
    2.0811169944959172E-04 
    3.1406765185154639E-04 
    1.0184455269109891E-05 
    8.4591364152218190E-06 
    1.1009704597915794E-05 
    2.7086564217824609E-06 
    5.7687706041894298E-06 
    1.0965332079945918E-04 
    4.7803657879813978E-02 
    2.6063733591538801E-01 
    3.9867129547146574E-01 
