# vtk DataFile Version 2.0
Pressure Field Data 
ASCII 
DATASET UNSTRUCTURED_GRID 

POINTS 289 double 

    0.0000000000000000E+00     0.0000000000000000E+00     0.0000000000000000E+00 
    1.0000000000000000E+00     0.0000000000000000E+00     0.0000000000000000E+00 
    1.0000000000000000E+00     1.0000000000000000E+00     0.0000000000000000E+00 
    0.0000000000000000E+00     1.0000000000000000E+00     0.0000000000000000E+00 
    6.2499999999872928E-02     0.0000000000000000E+00     0.0000000000000000E+00 
    1.2499999999977310E-01     0.0000000000000000E+00     0.0000000000000000E+00 
    1.8749999999959341E-01     0.0000000000000000E+00     0.0000000000000000E+00 
    2.4999999999941089E-01     0.0000000000000000E+00     0.0000000000000000E+00 
    3.1249999999922851E-01     0.0000000000000000E+00     0.0000000000000000E+00 
    3.7499999999904610E-01     0.0000000000000000E+00     0.0000000000000000E+00 
    4.3749999999886358E-01     0.0000000000000000E+00     0.0000000000000000E+00 
    4.9999999999869210E-01     0.0000000000000000E+00     0.0000000000000000E+00 
    5.6249999999884603E-01     0.0000000000000000E+00     0.0000000000000000E+00 
    6.2499999999901090E-01     0.0000000000000000E+00     0.0000000000000000E+00 
    6.8749999999917577E-01     0.0000000000000000E+00     0.0000000000000000E+00 
    7.4999999999934064E-01     0.0000000000000000E+00     0.0000000000000000E+00 
    8.1249999999950551E-01     0.0000000000000000E+00     0.0000000000000000E+00 
    8.7499999999967026E-01     0.0000000000000000E+00     0.0000000000000000E+00 
    9.3749999999983513E-01     0.0000000000000000E+00     0.0000000000000000E+00 
    1.0000000000000000E+00     6.2499999999872928E-02     0.0000000000000000E+00 
    1.0000000000000000E+00     1.2499999999977310E-01     0.0000000000000000E+00 
    1.0000000000000000E+00     1.8749999999959341E-01     0.0000000000000000E+00 
    1.0000000000000000E+00     2.4999999999941089E-01     0.0000000000000000E+00 
    1.0000000000000000E+00     3.1249999999922851E-01     0.0000000000000000E+00 
    1.0000000000000000E+00     3.7499999999904610E-01     0.0000000000000000E+00 
    1.0000000000000000E+00     4.3749999999886358E-01     0.0000000000000000E+00 
    1.0000000000000000E+00     4.9999999999869210E-01     0.0000000000000000E+00 
    1.0000000000000000E+00     5.6249999999884603E-01     0.0000000000000000E+00 
    1.0000000000000000E+00     6.2499999999901090E-01     0.0000000000000000E+00 
    1.0000000000000000E+00     6.8749999999917577E-01     0.0000000000000000E+00 
    1.0000000000000000E+00     7.4999999999934064E-01     0.0000000000000000E+00 
    1.0000000000000000E+00     8.1249999999950551E-01     0.0000000000000000E+00 
    1.0000000000000000E+00     8.7499999999967026E-01     0.0000000000000000E+00 
    1.0000000000000000E+00     9.3749999999983513E-01     0.0000000000000000E+00 
    9.3749999999973976E-01     1.0000000000000000E+00     0.0000000000000000E+00 
    8.7499999999950118E-01     1.0000000000000000E+00     0.0000000000000000E+00 
    8.1249999999991318E-01     1.0000000000000000E+00     0.0000000000000000E+00 
    7.5000000000034706E-01     1.0000000000000000E+00     0.0000000000000000E+00 
    6.8750000000078049E-01     1.0000000000000000E+00     0.0000000000000000E+00 
    6.2500000000121403E-01     1.0000000000000000E+00     0.0000000000000000E+00 
    5.6250000000164757E-01     1.0000000000000000E+00     0.0000000000000000E+00 
    5.0000000000205946E-01     1.0000000000000000E+00     0.0000000000000000E+00 
    4.3750000000182099E-01     1.0000000000000000E+00     0.0000000000000000E+00 
    3.7500000000156092E-01     1.0000000000000000E+00     0.0000000000000000E+00 
    3.1250000000130068E-01     1.0000000000000000E+00     0.0000000000000000E+00 
    2.5000000000104050E-01     1.0000000000000000E+00     0.0000000000000000E+00 
    1.8750000000078040E-01     1.0000000000000000E+00     0.0000000000000000E+00 
    1.2500000000052031E-01     1.0000000000000000E+00     0.0000000000000000E+00 
    6.2500000000260125E-02     1.0000000000000000E+00     0.0000000000000000E+00 
    0.0000000000000000E+00     9.3749999999973976E-01     0.0000000000000000E+00 
    0.0000000000000000E+00     8.7499999999950118E-01     0.0000000000000000E+00 
    0.0000000000000000E+00     8.1249999999991318E-01     0.0000000000000000E+00 
    0.0000000000000000E+00     7.5000000000034706E-01     0.0000000000000000E+00 
    0.0000000000000000E+00     6.8750000000078049E-01     0.0000000000000000E+00 
    0.0000000000000000E+00     6.2500000000121403E-01     0.0000000000000000E+00 
    0.0000000000000000E+00     5.6250000000164757E-01     0.0000000000000000E+00 
    0.0000000000000000E+00     5.0000000000205946E-01     0.0000000000000000E+00 
    0.0000000000000000E+00     4.3750000000182099E-01     0.0000000000000000E+00 
    0.0000000000000000E+00     3.7500000000156092E-01     0.0000000000000000E+00 
    0.0000000000000000E+00     3.1250000000130068E-01     0.0000000000000000E+00 
    0.0000000000000000E+00     2.5000000000104050E-01     0.0000000000000000E+00 
    0.0000000000000000E+00     1.8750000000078040E-01     0.0000000000000000E+00 
    0.0000000000000000E+00     1.2500000000052031E-01     0.0000000000000000E+00 
    0.0000000000000000E+00     6.2500000000260125E-02     0.0000000000000000E+00 
    6.2499999999897131E-02     6.2500000000235922E-02     0.0000000000000000E+00 
    6.2499999999921327E-02     1.2500000000047351E-01     0.0000000000000000E+00 
    6.2499999999945530E-02     1.8750000000070621E-01     0.0000000000000000E+00 
    6.2499999999969733E-02     2.5000000000093858E-01     0.0000000000000000E+00 
    6.2499999999993928E-02     3.1250000000117117E-01     0.0000000000000000E+00 
    6.2500000000018124E-02     3.7500000000140382E-01     0.0000000000000000E+00 
    6.2500000000042327E-02     4.3750000000163619E-01     0.0000000000000000E+00 
    6.2500000000066530E-02     5.0000000000184897E-01     0.0000000000000000E+00 
    6.2500000000090733E-02     5.6250000000147260E-01     0.0000000000000000E+00 
    6.2500000000114922E-02     6.2500000000107636E-01     0.0000000000000000E+00 
    6.2500000000139125E-02     6.8750000000068034E-01     0.0000000000000000E+00 
    6.2500000000163328E-02     7.5000000000028411E-01     0.0000000000000000E+00 
    6.2500000000187531E-02     8.1249999999988787E-01     0.0000000000000000E+00 
    6.2500000000211720E-02     8.7499999999951172E-01     0.0000000000000000E+00 
    6.2500000000235922E-02     9.3749999999974565E-01     0.0000000000000000E+00 
    1.2499999999981980E-01     6.2500000000211733E-02     0.0000000000000000E+00 
    1.2499999999986650E-01     1.2500000000042691E-01     0.0000000000000000E+00 
    1.2499999999991319E-01     1.8750000000063199E-01     0.0000000000000000E+00 
    1.2499999999995989E-01     2.5000000000083678E-01     0.0000000000000000E+00 
    1.2500000000000661E-01     3.1250000000104172E-01     0.0000000000000000E+00 
    1.2500000000005329E-01     3.7500000000124661E-01     0.0000000000000000E+00 
    1.2500000000010000E-01     4.3750000000145117E-01     0.0000000000000000E+00 
    1.2500000000014669E-01     5.0000000000163858E-01     0.0000000000000000E+00 
    1.2500000000019340E-01     5.6250000000129741E-01     0.0000000000000000E+00 
    1.2500000000024011E-01     6.2500000000093847E-01     0.0000000000000000E+00 
    1.2500000000028680E-01     6.8750000000057998E-01     0.0000000000000000E+00 
    1.2500000000033351E-01     7.5000000000022127E-01     0.0000000000000000E+00 
    1.2500000000038020E-01     8.1249999999986211E-01     0.0000000000000000E+00 
    1.2500000000042691E-01     8.7499999999952238E-01     0.0000000000000000E+00 
    1.2500000000047359E-01     9.3749999999975164E-01     0.0000000000000000E+00 
    1.8749999999966760E-01     6.2500000000187531E-02     0.0000000000000000E+00 
    1.8749999999974179E-01     1.2500000000038020E-01     0.0000000000000000E+00 
    1.8749999999981601E-01     1.8750000000055780E-01     0.0000000000000000E+00 
    1.8749999999989009E-01     2.5000000000073502E-01     0.0000000000000000E+00 
    1.8749999999996431E-01     3.1250000000091221E-01     0.0000000000000000E+00 
    1.8750000000003850E-01     3.7500000000108941E-01     0.0000000000000000E+00 
    1.8750000000011269E-01     4.3750000000126649E-01     0.0000000000000000E+00 
    1.8750000000018691E-01     5.0000000000142808E-01     0.0000000000000000E+00 
    1.8750000000026110E-01     5.6250000000112244E-01     0.0000000000000000E+00 
    1.8750000000033529E-01     6.2500000000080080E-01     0.0000000000000000E+00 
    1.8750000000040951E-01     6.8750000000047962E-01     0.0000000000000000E+00 
    1.8750000000048361E-01     7.5000000000015843E-01     0.0000000000000000E+00 
    1.8750000000055780E-01     8.1249999999983680E-01     0.0000000000000000E+00 
    1.8750000000063199E-01     8.7499999999953304E-01     0.0000000000000000E+00 
    1.8750000000070621E-01     9.3749999999975764E-01     0.0000000000000000E+00 
    2.4999999999951281E-01     6.2500000000163314E-02     0.0000000000000000E+00 
    2.4999999999961461E-01     1.2500000000033351E-01     0.0000000000000000E+00 
    2.4999999999971650E-01     1.8750000000048361E-01     0.0000000000000000E+00 
    2.4999999999981831E-01     2.5000000000063310E-01     0.0000000000000000E+00 
    2.4999999999992020E-01     3.1250000000078260E-01     0.0000000000000000E+00 
    2.5000000000002198E-01     3.7500000000093209E-01     0.0000000000000000E+00 
    2.5000000000012390E-01     4.3750000000108180E-01     0.0000000000000000E+00 
    2.5000000000022571E-01     5.0000000000121769E-01     0.0000000000000000E+00 
    2.5000000000032763E-01     5.6250000000094724E-01     0.0000000000000000E+00 
    2.5000000000042938E-01     6.2500000000066314E-01     0.0000000000000000E+00 
    2.5000000000053119E-01     6.8750000000037925E-01     0.0000000000000000E+00 
[...]
CELL_DATA 256 
SCALARS Pressure double 1 
LOOKUP_TABLE default 

    7.7833656574355570E-01 
    7.2749790183936724E-01 
    6.9414368532860304E-01 
    6.6328814087493537E-01 
    6.3155557415455588E-01 
    5.9815142600955540E-01 
    5.6290631925284618E-01 
    5.2599221647019945E-01 
    4.8779521638224749E-01 
    4.4894001014152041E-01 
    4.1041122156549886E-01 
    3.7377502927863976E-01 
    3.4136884459462991E-01 
    3.1604829065862017E-01 
    2.9887572525075834E-01 
    2.9066808438860858E-01 
    7.6437974735669290E-01 
    7.2888533190749027E-01 
    6.9668264790755796E-01 
    6.6609766846371832E-01 
    6.3459746866736988E-01 
    6.0141491629260169E-01 
    5.6636743551486723E-01 
    5.2960105653914502E-01 
    4.9147105153121767E-01 
    4.5256013615579216E-01 
    4.1379330632512862E-01 
    3.7666107821351685E-01 
    3.4345215391398132E-01 
    3.1712453128066947E-01 
    2.9907446447893277E-01 
    2.9025823867904016E-01 
    7.5366192889620065E-01 
    7.2810660432298302E-01 
    6.9844081824460180E-01 
    6.6854396970860097E-01 
    6.3741001189390989E-01 
    6.0450264736557813E-01 
    5.6967755000873932E-01 
    5.3306529695953631E-01 
    4.9498565539996725E-01 
    4.5596864035573836E-01 
    4.1686506030795384E-01 
    3.7907382034354109E-01 
    3.4482993201055506E-01 
    3.1722259205173858E-01 
    2.9815415314530791E-01 
    2.8880810620968334E-01 
    7.4520161481350511E-01 
    7.2621246769196413E-01 
    6.9945570358694054E-01 
    6.7060760961399646E-01 
    6.3999226972725953E-01 
    6.0742320341681011E-01 
    5.7284666001994278E-01 
    5.3639664554237243E-01 
    4.9835882760141875E-01 
    4.5920149372902508E-01 
    4.1968435918325026E-01 
    3.8109055959207927E-01 
    3.4557938774577662E-01 
    3.1638054495010542E-01 
    2.9603010585386647E-01 
    2.8608481410352843E-01 
    7.3834758253610488E-01 
    7.2378712681841562E-01 
    6.9985781094722777E-01 
    6.7229704113405764E-01 
    6.4234529791420647E-01 
    6.1018627125964109E-01 
    5.7589021382598915E-01 
    5.3961434684190623E-01 
    5.0161685166798231E-01 
    4.6229950535572079E-01 
    4.2231425430777769E-01 
    3.8279774739426842E-01 
    3.4579203026761146E-01 
    3.1464642795584713E-01 
    2.9262137453475534E-01 
    2.8185891209525327E-01 
    7.3271904680933853E-01 
    7.2118211883209371E-01 
    6.9980072308765850E-01 
    6.7364721500364078E-01 
    6.4447737966863128E-01 
    6.1280101924778374E-01 
    5.7882505577732080E-01 
    5.4274293371121174E-01 
    5.0479226452532711E-01 
    4.6530801206852007E-01 
    4.2482147702665130E-01 
    3.8428962183372417E-01 
    3.4557540428734623E-01 
    3.1208573569370374E-01 
    2.8785984198531750E-01 
    2.7591320294784527E-01 
    7.2806928883717148E-01 
    7.1861866600857172E-01 
    6.9944027216594185E-01 
    6.7471792109141937E-01 
    6.4641124215490486E-01 
    6.1528066352891686E-01 
    5.8166667844982733E-01 
    5.4580641568169475E-01 
    5.0791979510166430E-01 
    4.6827515043224011E-01 
    4.2727638802858403E-01 
    3.8566820972594118E-01 
    3.4505641379647323E-01 
    3.0879388202136621E-01 
    2.8169512662423107E-01 
    2.6800539433617243E-01 
    7.2422380077819382E-01 
    7.1623132599876926E-01 
    6.9891557546213878E-01 
    6.7558020932429175E-01 
    6.4818023389686641E-01 
    6.1764368956065085E-01 
    5.8443056962338291E-01 
    5.4882500679088619E-01 
    5.1103042518384545E-01 
    4.7124824872210341E-01 
    4.2975211200476660E-01 
    3.8704550510537372E-01 
    3.4438608253426334E-01 
    3.0490605117372094E-01 
    2.7410467204653549E-01 
    2.5786148104576057E-01 
    7.2105637599057448E-01 
    7.1409814784917280E-01 
    6.9834059347335076E-01 
    6.7630665911977217E-01 
    6.4982336579482058E-01 
    6.1991249464253173E-01 
    5.8713276365702893E-01 
    5.5181542881669488E-01 
    5.1414873752356893E-01 
    4.7426843859174300E-01 
    4.3231957413046534E-01 
    3.8854100973335803E-01 
    3.4374380601433124E-01 
    3.0061107730056191E-01 
    2.6510015583722568E-01 
    2.4513917710197136E-01 
    7.1847526706827947E-01 
    7.1226339440288600E-01 
    6.9780460199170269E-01 
    6.7696609352221693E-01 
    6.5138356040167078E-01 
    6.2211315624199670E-01 
    5.8979065177871404E-01 
    5.5479330833457829E-01 
    5.1729512878457273E-01 
    4.7736967510239947E-01 
    4.3504312640106574E-01 
    3.9027658349976202E-01 
    3.4333730935997731E-01 
    2.9617096965994927E-01 
    2.5475019368337820E-01 
    2.2937344512756028E-01 
    7.1641308331554221E-01 
    7.1075358848728054E-01 
    6.9737971311809521E-01 
    6.7762416346656762E-01 
    6.5290818239841675E-01 
    6.2427775488088411E-01 
    5.9242562201887972E-01 
    5.5777697266977866E-01 
    5.2049113633210742E-01 
    4.8058214455946185E-01 
    4.3797877261981583E-01 
    3.9237106716225906E-01 
    3.4340092673304123E-01 
    2.9194292066126498E-01 
    2.4323889827485892E-01 
    2.0995300812568216E-01 
    7.1482270988480190E-01 
    7.0958974285076626E-01 
    6.9713012919123341E-01 
    6.7834697146636980E-01 
    6.5445021946099402E-01 
    6.2644517645104481E-01 
    5.9506575823900565E-01 
    5.6079100679806282E-01 
    5.2376156768901361E-01 
    4.8393053074606079E-01 
    4.4116559955707291E-01 
    3.9492451225619107E-01 
    3.4418349750165145E-01 
    2.8840132050494732E-01 
    2.3095093667223596E-01 
    1.8605108056413597E-01 
    7.1367912075706974E-01 
    7.0880102124632249E-01 
    6.9712184974420455E-01 
    6.7920393512145061E-01 
    6.5606604592491613E-01 
    6.2865641072779266E-01 
    5.9773972930240493E-01 
    5.6385796236788843E-01 
    5.2712432733261583E-01 
    4.8741709860795940E-01 
    4.4459611374177932E-01 
    3.9796790634684476E-01 
    3.4587847371584218E-01 
    2.8609719770545838E-01 
    2.1855667720609981E-01 
    1.5643117532512407E-01 
    7.1289238033279534E-01 
    7.0836149281467231E-01 
    6.9738139503590935E-01 
    6.8023612435793723E-01 
    6.5778509584004097E-01 
    6.3091361113422562E-01 
    6.0040717237422991E-01 
    5.6689155665817192E-01 
    5.3046292228388070E-01 
    4.9090776585746221E-01 
    4.4809095273068117E-01 
    4.0127136192536567E-01 
    3.4838584668761519E-01 
    2.8541575211806258E-01 
    2.0702896386968897E-01 
    1.1895490971983622E-01 
    7.1232944547558374E-01 
    7.0812054294001070E-01 
    6.9778317342721963E-01 
    6.8135087559412189E-01 
    6.5953814271351663E-01 
    6.3316927570800563E-01 
    6.0303881392126490E-01 
    5.6985102101683294E-01 
    5.3373408226728747E-01 
    4.9442959938294007E-01 
    4.5177925109252715E-01 
    4.0504238132519110E-01 
    3.5200585231649273E-01 
    2.8714584276692751E-01 
    1.9826584253057178E-01 
    6.9525456174297617E-02 
    7.1214362608384152E-01 
    7.0827193657174992E-01 
    6.9852146309810770E-01 
    6.8272499199842485E-01 
    6.6149021164410482E-01 
    6.3560305350041979E-01 
    6.0585633602299360E-01 
    5.7298613453034497E-01 
    5.3718162748655929E-01 
    4.9819870408879158E-01 
    4.5586117982394853E-01 
    4.0945802216435667E-01 
    3.5688454657119550E-01 
    2.9236986435461126E-01 
    1.9827076921717410E-01 
    0.0000000000000000E+00 

SCALARS Saturarion double 1 
LOOKUP_TABLE default 

    1.0000000000000007E+00 
    9.7158573634961765E-01 
    9.2093196922385845E-01 
    8.5690304900913072E-01 
    8.0267787949995484E-01 
    7.5609765231682469E-01 
    7.1685015269519725E-01 
    6.8358364444377362E-01 
    6.5455945643859470E-01 
    6.2813656018707054E-01 
    6.0284761065947146E-01 
    5.7731975380496392E-01 
    5.5007439816375148E-01 
    5.1645432851833839E-01 
    3.9684616459066724E-01 
    2.6449711487487353E-02 
    9.8882152045602545E-01 
    9.6188323182928648E-01 
    9.0884525488120671E-01 
    8.4847430358774700E-01 
    7.9718556807524066E-01 
    7.5266216664882468E-01 
    7.1432342220180156E-01 
    6.8129906551173303E-01 
    6.5243713525483471E-01 
    6.2637735298089448E-01 
    6.0183881877293077E-01 
    5.7738106644296394E-01 
    5.5125719994803857E-01 
    5.1889328614173003E-01 
    4.0938836268337070E-01 
    4.6295191177153937E-02 
    9.7124139354618344E-01 
    9.4465168434002578E-01 
    8.9177022413848051E-01 
    8.3406203458615058E-01 
    7.8632825335102641E-01 
    7.4528456752991301E-01 
    7.0899427141614224E-01 
    6.7662102675759850E-01 
    6.4788418181456342E-01 
    6.2217445364578716E-01 
    5.9864683269589625E-01 
    5.7581671129683720E-01 
    5.5166380774090118E-01 
    5.2164023933040071E-01 
    4.2553886045661704E-01 
    7.6612113242611246E-02 
    9.4044398252748262E-01 
    9.1847759296324483E-01 
    8.7119364308088132E-01 
    8.1779219830123118E-01 
    7.7153673639857390E-01 
    7.3318602080347839E-01 
    6.9972668017513395E-01 
    6.6964016653245917E-01 
    6.4233200567702209E-01 
    6.1771872058920640E-01 
    5.9516819276953026E-01 
    5.7369117004193249E-01 
    5.5146164134163500E-01 
    5.2445786627181656E-01 
    4.4030137870817077E-01 
    1.1783436277767179E-01 
    9.0418721612205977E-01 
    8.8543995997450997E-01 
    8.4403040595284939E-01 
    7.9627071174421737E-01 
    7.5297395233515607E-01 
    7.1662867214307069E-01 
    6.8579809084433385E-01 
    6.5866049904675150E-01 
    6.3422200771443682E-01 
    6.1195057560700072E-01 
    5.9136372305872398E-01 
    5.7157518984093292E-01 
    5.5103389142688020E-01 
    5.2655237308890224E-01 
    4.5273139372708904E-01 
    1.5252358998540713E-01 
    8.6544877350079075E-01 
    8.5008997031916478E-01 
    8.1468903258355696E-01 
    7.7247515182688031E-01 
    7.3299810755706041E-01 
    6.9872816654945702E-01 
    6.6936107256779631E-01 
    6.4438522811513077E-01 
    6.2269489411073331E-01 
    6.0322471123470023E-01 
    5.8527560617033481E-01 
    5.6822364778842593E-01 
    5.5032368916257879E-01 
    5.2832802880026475E-01 
    4.6382064275654977E-01 
    1.8489462954578792E-01 
    8.2457189197399394E-01 
    8.1325830889594730E-01 
    7.8430725278684632E-01 
    7.4750426580953633E-01 
    7.1191361038334555E-01 
    6.8018961735338013E-01 
    6.5276078132198578E-01 
    6.2912843891808656E-01 
    6.0905449307207538E-01 
    5.9182590277910185E-01 
    5.7662364580333469E-01 
    5.6258376663327647E-01 
    5.4827907370290074E-01 
    5.2998467076846401E-01 
    4.7379120861749818E-01 
    2.1677024921195909E-01 
    7.8157178474123368E-01 
    7.7466112474692861E-01 
    7.5270570859161579E-01 
    7.2155038921752934E-01 
    6.8944691717680373E-01 
    6.6021706521817469E-01 
    6.3458847816467923E-01 
    6.1259566372747720E-01 
    5.9388796033289926E-01 
    5.7833841434233646E-01 
    5.6550069651378498E-01 
    5.5463972189384025E-01 
    5.4419020290578224E-01 
    5.3057649689920527E-01 
    4.8342678792934329E-01 
    2.4848912076710053E-01 
    7.3668825559438844E-01 
    7.3382150832232163E-01 
    7.1833594383912192E-01 
    6.9306383441088082E-01 
    6.6513152673978326E-01 
    6.3856338048813088E-01 
    6.1484566770078730E-01 
    5.9404597822560545E-01 
    5.7627153026330435E-01 
    5.6186300931779487E-01 
    5.5114625154448771E-01 
    5.4368353431302374E-01 
    5.3769026937755937E-01 
    5.2937341645544744E-01 
    4.9203418323999853E-01 
    2.7680708068523385E-01 
    6.8984543189216962E-01 
    6.9060462468902806E-01 
    6.8093859809407820E-01 
    6.6119052408158696E-01 
    6.3783091026249450E-01 
    6.1460849947163632E-01 
    5.9298180457434557E-01 
    5.7368601823550347E-01 
    5.5699637819381098E-01 
    5.4353637462705162E-01 
    5.3398812394319484E-01 
    5.2896095831566103E-01 
    5.2773024916943445E-01 
    5.2580992810284632E-01 
    4.9903427939295442E-01 
    3.0356239613442426E-01 
    6.4087311418795234E-01 
    6.4481497664790888E-01 
    6.4042341519215318E-01 
    6.2587795098614762E-01 
    6.0724121357485883E-01 
    5.8799118754408963E-01 
    5.6953477417110654E-01 
    5.5229986169748391E-01 
    5.3724864888416923E-01 
    5.2502356003840445E-01 
    5.1616356754705917E-01 
    5.1169236475763957E-01 
    5.1342673547941631E-01 
    5.1869869216871101E-01 
    5.0378706630478332E-01 
    3.2995492529590953E-01 
    5.9037671983123563E-01 
    5.9678009268375798E-01 
    5.9742731599911414E-01 
    5.8825121826773685E-01 
    5.7409418148573532E-01 
    5.5825648639466718E-01 
    5.4281092817299259E-01 
    5.2898454963420827E-01 
    5.1659790228715108E-01 
    5.0545897850682520E-01 
    4.9654009699955798E-01 
    4.9186086093653064E-01 
    4.9473325593219858E-01 
    5.0632396167919524E-01 
    5.0501934229236423E-01 
    3.5559775767084523E-01 
    5.4147331953333433E-01 
    5.4971173938667262E-01 
    5.5384636452095037E-01 
    5.4893052198427850E-01 
    5.3827910341004848E-01 
    5.2463909934249009E-01 
    5.1122254523460697E-01 
    4.9874598481577770E-01 
    4.8585056892849071E-01 
    4.7389306162493960E-01 
    4.6165700329337950E-01 
    4.5417389156693816E-01 
    4.5974122662539546E-01 
    4.8208400464691958E-01 
    4.9745635307252029E-01 
    3.7861381439407193E-01 
    4.4312597686936056E-01 
    4.6734415746019431E-01 
    4.8413391174702358E-01 
    4.8663227602063280E-01 
    4.7834910582099954E-01 
    4.6148180074309797E-01 
    4.3553148022134075E-01 
    3.9414998798273998E-01 
    3.2805545020619176E-01 
    2.4534301910997847E-01 
    2.1663924152703196E-01 
    2.1697081158221759E-01 
    2.7703525681985225E-01 
    3.9759776032998972E-01 
    4.6925517719181192E-01 
    3.9401799519333280E-01 
    8.5316254476552750E-02 
    1.6324125368663561E-01 
    2.0017744910078142E-01 
    2.1330732027475499E-01 
    1.9885500988572916E-01 
    1.5141792920488506E-01 
    8.4282323783244559E-02 
    2.5486489363582054E-02 
    9.6275821157081245E-03 
    1.3188575301205012E-03 
    1.8718274439825071E-04 
    9.7469943887501496E-05 
    1.5928051597645605E-02 
    1.3261799259813078E-01 
    3.7721434809615406E-01 
    3.9776722111835722E-01 
    1.0007453849275056E-06 
    8.0212956118052295E-05 
    7.4283211290541765E-05 
    8.4498605508067409E-06 
    1.2667571519935306E-04 
    1.8041329125904660E-05 
    1.0098566443485491E-05 
    2.8346540107726384E-06 
    1.1879453315486305E-06 
    1.0152843420331927E-06 
    1.0003270669619108E-06 
    1.0003730635684906E-06 
    2.0150276970591944E-05 
    8.3920198345227709E-03 
    2.2006435826511153E-01 
    3.5408508279412376E-01 
