# vtk DataFile Version 2.0
Pressure Field Data 
ASCII 
DATASET UNSTRUCTURED_GRID 

POINTS 289 double 

    0.0000000000000000E+00     0.0000000000000000E+00     0.0000000000000000E+00 
    1.0000000000000000E+00     0.0000000000000000E+00     0.0000000000000000E+00 
    1.0000000000000000E+00     1.0000000000000000E+00     0.0000000000000000E+00 
    0.0000000000000000E+00     1.0000000000000000E+00     0.0000000000000000E+00 
    6.2499999999872928E-02     0.0000000000000000E+00     0.0000000000000000E+00 
    1.2499999999977310E-01     0.0000000000000000E+00     0.0000000000000000E+00 
    1.8749999999959341E-01     0.0000000000000000E+00     0.0000000000000000E+00 
    2.4999999999941089E-01     0.0000000000000000E+00     0.0000000000000000E+00 
    3.1249999999922851E-01     0.0000000000000000E+00     0.0000000000000000E+00 
    3.7499999999904610E-01     0.0000000000000000E+00     0.0000000000000000E+00 
    4.3749999999886358E-01     0.0000000000000000E+00     0.0000000000000000E+00 
    4.9999999999869210E-01     0.0000000000000000E+00     0.0000000000000000E+00 
    5.6249999999884603E-01     0.0000000000000000E+00     0.0000000000000000E+00 
    6.2499999999901090E-01     0.0000000000000000E+00     0.0000000000000000E+00 
    6.8749999999917577E-01     0.0000000000000000E+00     0.0000000000000000E+00 
    7.4999999999934064E-01     0.0000000000000000E+00     0.0000000000000000E+00 
    8.1249999999950551E-01     0.0000000000000000E+00     0.0000000000000000E+00 
    8.7499999999967026E-01     0.0000000000000000E+00     0.0000000000000000E+00 
    9.3749999999983513E-01     0.0000000000000000E+00     0.0000000000000000E+00 
    1.0000000000000000E+00     6.2499999999872928E-02     0.0000000000000000E+00 
    1.0000000000000000E+00     1.2499999999977310E-01     0.0000000000000000E+00 
    1.0000000000000000E+00     1.8749999999959341E-01     0.0000000000000000E+00 
    1.0000000000000000E+00     2.4999999999941089E-01     0.0000000000000000E+00 
    1.0000000000000000E+00     3.1249999999922851E-01     0.0000000000000000E+00 
    1.0000000000000000E+00     3.7499999999904610E-01     0.0000000000000000E+00 
    1.0000000000000000E+00     4.3749999999886358E-01     0.0000000000000000E+00 
    1.0000000000000000E+00     4.9999999999869210E-01     0.0000000000000000E+00 
    1.0000000000000000E+00     5.6249999999884603E-01     0.0000000000000000E+00 
    1.0000000000000000E+00     6.2499999999901090E-01     0.0000000000000000E+00 
    1.0000000000000000E+00     6.8749999999917577E-01     0.0000000000000000E+00 
    1.0000000000000000E+00     7.4999999999934064E-01     0.0000000000000000E+00 
    1.0000000000000000E+00     8.1249999999950551E-01     0.0000000000000000E+00 
    1.0000000000000000E+00     8.7499999999967026E-01     0.0000000000000000E+00 
    1.0000000000000000E+00     9.3749999999983513E-01     0.0000000000000000E+00 
    9.3749999999973976E-01     1.0000000000000000E+00     0.0000000000000000E+00 
    8.7499999999950118E-01     1.0000000000000000E+00     0.0000000000000000E+00 
    8.1249999999991318E-01     1.0000000000000000E+00     0.0000000000000000E+00 
    7.5000000000034706E-01     1.0000000000000000E+00     0.0000000000000000E+00 
    6.8750000000078049E-01     1.0000000000000000E+00     0.0000000000000000E+00 
    6.2500000000121403E-01     1.0000000000000000E+00     0.0000000000000000E+00 
    5.6250000000164757E-01     1.0000000000000000E+00     0.0000000000000000E+00 
    5.0000000000205946E-01     1.0000000000000000E+00     0.0000000000000000E+00 
    4.3750000000182099E-01     1.0000000000000000E+00     0.0000000000000000E+00 
    3.7500000000156092E-01     1.0000000000000000E+00     0.0000000000000000E+00 
    3.1250000000130068E-01     1.0000000000000000E+00     0.0000000000000000E+00 
    2.5000000000104050E-01     1.0000000000000000E+00     0.0000000000000000E+00 
    1.8750000000078040E-01     1.0000000000000000E+00     0.0000000000000000E+00 
    1.2500000000052031E-01     1.0000000000000000E+00     0.0000000000000000E+00 
    6.2500000000260125E-02     1.0000000000000000E+00     0.0000000000000000E+00 
    0.0000000000000000E+00     9.3749999999973976E-01     0.0000000000000000E+00 
    0.0000000000000000E+00     8.7499999999950118E-01     0.0000000000000000E+00 
    0.0000000000000000E+00     8.1249999999991318E-01     0.0000000000000000E+00 
    0.0000000000000000E+00     7.5000000000034706E-01     0.0000000000000000E+00 
    0.0000000000000000E+00     6.8750000000078049E-01     0.0000000000000000E+00 
    0.0000000000000000E+00     6.2500000000121403E-01     0.0000000000000000E+00 
    0.0000000000000000E+00     5.6250000000164757E-01     0.0000000000000000E+00 
    0.0000000000000000E+00     5.0000000000205946E-01     0.0000000000000000E+00 
    0.0000000000000000E+00     4.3750000000182099E-01     0.0000000000000000E+00 
    0.0000000000000000E+00     3.7500000000156092E-01     0.0000000000000000E+00 
    0.0000000000000000E+00     3.1250000000130068E-01     0.0000000000000000E+00 
    0.0000000000000000E+00     2.5000000000104050E-01     0.0000000000000000E+00 
    0.0000000000000000E+00     1.8750000000078040E-01     0.0000000000000000E+00 
    0.0000000000000000E+00     1.2500000000052031E-01     0.0000000000000000E+00 
    0.0000000000000000E+00     6.2500000000260125E-02     0.0000000000000000E+00 
    6.2499999999897131E-02     6.2500000000235922E-02     0.0000000000000000E+00 
    6.2499999999921327E-02     1.2500000000047351E-01     0.0000000000000000E+00 
    6.2499999999945530E-02     1.8750000000070621E-01     0.0000000000000000E+00 
    6.2499999999969733E-02     2.5000000000093858E-01     0.0000000000000000E+00 
    6.2499999999993928E-02     3.1250000000117117E-01     0.0000000000000000E+00 
    6.2500000000018124E-02     3.7500000000140382E-01     0.0000000000000000E+00 
    6.2500000000042327E-02     4.3750000000163619E-01     0.0000000000000000E+00 
    6.2500000000066530E-02     5.0000000000184897E-01     0.0000000000000000E+00 
    6.2500000000090733E-02     5.6250000000147260E-01     0.0000000000000000E+00 
    6.2500000000114922E-02     6.2500000000107636E-01     0.0000000000000000E+00 
    6.2500000000139125E-02     6.8750000000068034E-01     0.0000000000000000E+00 
    6.2500000000163328E-02     7.5000000000028411E-01     0.0000000000000000E+00 
    6.2500000000187531E-02     8.1249999999988787E-01     0.0000000000000000E+00 
    6.2500000000211720E-02     8.7499999999951172E-01     0.0000000000000000E+00 
    6.2500000000235922E-02     9.3749999999974565E-01     0.0000000000000000E+00 
    1.2499999999981980E-01     6.2500000000211733E-02     0.0000000000000000E+00 
    1.2499999999986650E-01     1.2500000000042691E-01     0.0000000000000000E+00 
    1.2499999999991319E-01     1.8750000000063199E-01     0.0000000000000000E+00 
    1.2499999999995989E-01     2.5000000000083678E-01     0.0000000000000000E+00 
    1.2500000000000661E-01     3.1250000000104172E-01     0.0000000000000000E+00 
    1.2500000000005329E-01     3.7500000000124661E-01     0.0000000000000000E+00 
    1.2500000000010000E-01     4.3750000000145117E-01     0.0000000000000000E+00 
    1.2500000000014669E-01     5.0000000000163858E-01     0.0000000000000000E+00 
    1.2500000000019340E-01     5.6250000000129741E-01     0.0000000000000000E+00 
    1.2500000000024011E-01     6.2500000000093847E-01     0.0000000000000000E+00 
    1.2500000000028680E-01     6.8750000000057998E-01     0.0000000000000000E+00 
    1.2500000000033351E-01     7.5000000000022127E-01     0.0000000000000000E+00 
    1.2500000000038020E-01     8.1249999999986211E-01     0.0000000000000000E+00 
    1.2500000000042691E-01     8.7499999999952238E-01     0.0000000000000000E+00 
    1.2500000000047359E-01     9.3749999999975164E-01     0.0000000000000000E+00 
    1.8749999999966760E-01     6.2500000000187531E-02     0.0000000000000000E+00 
    1.8749999999974179E-01     1.2500000000038020E-01     0.0000000000000000E+00 
    1.8749999999981601E-01     1.8750000000055780E-01     0.0000000000000000E+00 
    1.8749999999989009E-01     2.5000000000073502E-01     0.0000000000000000E+00 
    1.8749999999996431E-01     3.1250000000091221E-01     0.0000000000000000E+00 
    1.8750000000003850E-01     3.7500000000108941E-01     0.0000000000000000E+00 
    1.8750000000011269E-01     4.3750000000126649E-01     0.0000000000000000E+00 
    1.8750000000018691E-01     5.0000000000142808E-01     0.0000000000000000E+00 
    1.8750000000026110E-01     5.6250000000112244E-01     0.0000000000000000E+00 
    1.8750000000033529E-01     6.2500000000080080E-01     0.0000000000000000E+00 
    1.8750000000040951E-01     6.8750000000047962E-01     0.0000000000000000E+00 
    1.8750000000048361E-01     7.5000000000015843E-01     0.0000000000000000E+00 
    1.8750000000055780E-01     8.1249999999983680E-01     0.0000000000000000E+00 
    1.8750000000063199E-01     8.7499999999953304E-01     0.0000000000000000E+00 
    1.8750000000070621E-01     9.3749999999975764E-01     0.0000000000000000E+00 
    2.4999999999951281E-01     6.2500000000163314E-02     0.0000000000000000E+00 
    2.4999999999961461E-01     1.2500000000033351E-01     0.0000000000000000E+00 
    2.4999999999971650E-01     1.8750000000048361E-01     0.0000000000000000E+00 
    2.4999999999981831E-01     2.5000000000063310E-01     0.0000000000000000E+00 
    2.4999999999992020E-01     3.1250000000078260E-01     0.0000000000000000E+00 
    2.5000000000002198E-01     3.7500000000093209E-01     0.0000000000000000E+00 
    2.5000000000012390E-01     4.3750000000108180E-01     0.0000000000000000E+00 
    2.5000000000022571E-01     5.0000000000121769E-01     0.0000000000000000E+00 
    2.5000000000032763E-01     5.6250000000094724E-01     0.0000000000000000E+00 
    2.5000000000042938E-01     6.2500000000066314E-01     0.0000000000000000E+00 
    2.5000000000053119E-01     6.8750000000037925E-01     0.0000000000000000E+00 
[...]
CELL_DATA 256 
SCALARS Pressure double 1 
LOOKUP_TABLE default 

    6.7896898972413056E-01 
    6.2923545225683353E-01 
    5.9762034213553705E-01 
    5.6907766365466028E-01 
    5.4016377389202685E-01 
    5.1001646676767554E-01 
    4.7839834642225032E-01 
    4.4540662445267137E-01 
    4.1134797800886813E-01 
    3.7675058483670559E-01 
    3.4246920465299457E-01 
    3.0987067138225977E-01 
    2.8096601609563965E-01 
    2.5823334996933872E-01 
    2.4372053085458431E-01 
    2.3670151360823782E-01 
    6.6498206062662091E-01 
    6.3050212648060999E-01 
    5.9998497967936959E-01 
    5.7166862677460051E-01 
    5.4294360375258033E-01 
    5.1297365249934623E-01 
    4.8151361615915694E-01 
    4.4864073982325209E-01 
    4.1463529980019814E-01 
    3.7998752359536597E-01 
    3.4549789359962713E-01 
    3.1246672061013075E-01 
    2.8286275466975441E-01 
    2.5922053339874701E-01 
    2.4384351970535703E-01 
    2.3628466714137203E-01 
    6.5425111811116721E-01 
    6.2963755821855183E-01 
    6.0160333708131775E-01 
    5.7393230892745906E-01 
    5.4553280604988108E-01 
    5.1579355857164411E-01 
    4.8451269535410763E-01 
    4.5176129848145302E-01 
    4.1779229212259633E-01 
    3.8304980941042760E-01 
    3.4826722675744248E-01 
    3.1466378714013077E-01 
    2.8416312133348165E-01 
    2.5939176603401232E-01 
    2.4300352648565812E-01 
    2.3494929407985923E-01 
    6.4582807282982624E-01 
    6.2770114255377585E-01 
    6.0251711542184705E-01 
    5.7584624933205131E-01 
    5.4792370944980195E-01 
    5.1848042395353000E-01 
    4.8740536382797894E-01 
    4.5478154335556220E-01 
    4.2083848131958518E-01 
    3.8596866218672360E-01 
    3.5082519555505226E-01 
    3.1652636540365531E-01 
    2.8493296457545636E-01 
    2.5877852625117309E-01 
    2.4115608636938587E-01 
    2.3256057016326154E-01 
    6.3907194295775660E-01 
    6.2528612000563366E-01 
    6.0286036193869785E-01 
    5.7741962879861652E-01 
    5.5011319987656893E-01 
    5.2103726875257728E-01 
    4.9020171544388957E-01 
    4.5771740968554542E-01 
    4.2379710226119260E-01 
    3.8877933868760139E-01 
    3.5322444343367315E-01 
    3.1812588606316411E-01 
    2.8524848444898543E-01 
    2.5742054754626298E-01 
    2.3825258288417656E-01 
    2.2897461676532249E-01 
    6.3358104511772317E-01 
    6.2273714399660762E-01 
    6.0278451910529252E-01 
    5.7868610618911254E-01 
    5.5210627999582251E-01 
    5.2346677569515487E-01 
    4.9291015513125591E-01 
    4.6058501078410735E-01 
    4.2669358431764115E-01 
    3.9152062620632039E-01 
    3.5552254409963052E-01 
    3.1954162839783379E-01 
    2.8519875071676148E-01 
    2.5537224989002977E-01 
    2.3424246570098395E-01 
    2.2402042602511191E-01 
    6.2908995651095312E-01 
    6.2026204014922848E-01 
    6.0243681601301091E-01 
    5.7969935867276523E-01 
    5.5392182736694429E-01 
    5.2577810706820505E-01 
    4.9553951128004903E-01 
    4.6339888087955644E-01 
    4.2955269241557698E-01 
    3.9423223469249780E-01 
    3.5778116338417082E-01 
    3.2086190804604864E-01 
    2.8488946563455869E-01 
    2.5271027440096067E-01 
    2.2908284201522650E-01 
    2.1750361297761278E-01 
    6.2541182245331095E-01 
    6.1798253774549672E-01 
    6.0194612475788345E-01 
    5.8052365481721957E-01 
    5.5558966951669553E-01 
    5.2798742498233187E-01 
    4.9810147995656251E-01 
    4.6617207317652809E-01 
    4.3239541479501858E-01 
    3.9695082198780551E-01 
    3.6006241548912349E-01 
    3.2218395687365092E-01 
    2.8444813207337377E-01 
    2.4954420648128758E-01 
    2.2274963577897589E-01 
    2.0919723310538832E-01 
    6.2241051964158056E-01 
    6.1596558232668541E-01 
    6.0141723659946633E-01 
    5.8122525538327674E-01 
    5.5714481371348756E-01 
    5.3011469690189927E-01 
    5.0061018082165154E-01 
    4.6891752871938996E-01 
    4.3523902062375286E-01 
    3.9970674469286999E-01 
    3.6242319859371130E-01 
    3.2360895528485178E-01 
    2.8402640673463314E-01 
    2.4602725821624369E-01 
    2.1524319618385465E-01 
    1.9881215787796785E-01 
    6.1998683682684164E-01 
    6.1424644253652372E-01 
    6.0093149511654542E-01 
    5.8186639658829187E-01 
    5.5862464574010706E-01 
    5.3218243088425154E-01 
    5.0308175817813805E-01 
    4.7164913595682595E-01 
    4.3809893790167087E-01 
    4.0252437247047967E-01 
    3.6491186448184609E-01 
    3.2523586316243935E-01 
    2.8379842018812423E-01 
    2.4237124793987169E-01 
    2.0660744440797307E-01 
    1.8596102669154194E-01 
    6.1806706425982227E-01 
    6.1284321803892472E-01 
    6.0055246440359467E-01 
    5.8250432126264517E-01 
    5.6006844338705930E-01 
    5.3421703748846894E-01 
    5.0553545235713482E-01 
    4.7438251235613216E-01 
    4.4099076773250440E-01 
    4.0542486639012232E-01 
    3.6756873791019840E-01 
    3.2715713826343601E-01 
    2.8395751138398651E-01 
    2.3886467806274919E-01 
    1.9697772763292767E-01 
    1.7013693094218107E-01 
    6.1659345644061758E-01 
    6.1176412288449211E-01 
    6.0033130755614150E-01 
    5.8319214982491463E-01 
    5.6151716516563399E-01 
    5.3624921283590310E-01 
    5.0799540352240125E-01 
    4.7713628398690405E-01 
    4.4393121527480461E-01 
    4.0842816191800591E-01 
    3.7042711497745356E-01 
    3.2945454790328088E-01 
    2.8471054698005432E-01 
    2.3588574547452212E-01 
    1.8663038650933070E-01 
    1.5062208210512018E-01 
    6.1552466526527960E-01 
    6.1101628368885519E-01 
    6.0031335639472028E-01 
    5.8398227604059783E-01 
    5.6301457290169643E-01 
    5.3831404855841980E-01 
    5.1049138113139747E-01 
    4.7993326321593699E-01 
    4.4693838327312069E-01 
    4.1155268785031418E-01 
    3.7351194353014927E-01 
    3.3219082309831699E-01 
    2.8625920582131265E-01 
    2.3393699105208557E-01 
    1.7615386328931518E-01 
    1.2637160257887634E-01 
    6.1483269556131470E-01 
    6.1061444250514629E-01 
    6.0054653454818474E-01 
    5.8493004656232306E-01 
    5.6460653362235946E-01 
    5.4044656469049790E-01 
    5.1305355232340544E-01 
    4.8279470110280143E-01 
    4.5002063177318868E-01 
    4.1479437565796939E-01 
    3.7681536830666429E-01 
    3.3537621892256819E-01 
    2.8873837383668205E-01 
    2.3359991040696521E-01 
    1.6669805261166420E-01 
    9.5855615876305950E-02 
    6.1438637604389357E-01 
    6.1048333998441096E-01 
    6.0101111702891863E-01 
    5.8603508639516932E-01 
    5.6628398802306013E-01 
    5.4261562585331324E-01 
    5.1563367538426597E-01 
    4.8567466457512365E-01 
    4.5312181072994601E-01 
    4.1807715139162732E-01 
    3.8022945655608414E-01 
    3.3884842336906534E-01 
    2.9202547023188641E-01 
    2.3518122263952954E-01 
    1.5995553132784776E-01 
    5.6308697335124246E-02 
    6.1422885594425891E-01 
    6.1065948681277094E-01 
    6.0174144039647171E-01 
    5.8733520578881326E-01 
    5.6808446615768526E-01 
    5.4484504396296951E-01 
    5.1823456468399220E-01 
    4.8858697502583021E-01 
    4.5628602891036019E-01 
    4.2146861595997559E-01 
    3.8385129181214822E-01 
    3.4273713728106331E-01 
    2.9634684645399240E-01 
    2.3933329143350915E-01 
    1.5937496462479528E-01 
    0.0000000000000000E+00 

SCALARS Saturarion double 1 
LOOKUP_TABLE default 

    1.0000000000000004E+00 
    9.7742041218757947E-01 
    9.3609285039434065E-01 
    8.8029375898201379E-01 
    8.3358664135595251E-01 
    7.9243802929640306E-01 
    7.5653349476770460E-01 
    7.2529339733313902E-01 
    6.9771717106598630E-01 
    6.7273257203607517E-01 
    6.4922456862557865E-01 
    6.2586522751550999E-01 
    6.0060636042833893E-01 
    5.6987804490429472E-01 
    5.1891833775147966E-01 
    2.6153091908969445E-01 
    9.9156538873503564E-01 
    9.7019460426154391E-01 
    9.2687454792710522E-01 
    8.7366616379804440E-01 
    8.2837237840993372E-01 
    7.8872101565534791E-01 
    7.5388876540864957E-01 
    7.2324566814366698E-01 
    6.9606221117576172E-01 
    6.7141816657396147E-01 
    6.4843005196155190E-01 
    6.2590754335340315E-01 
    6.0174849838516031E-01 
    5.7202284333085607E-01 
    5.2358278175412210E-01 
    2.8791979942044865E-01 
    9.7823794548289056E-01 
    9.5681231159451174E-01 
    9.1327095257484681E-01 
    8.6176467862844541E-01 
    8.1812224414673840E-01 
    7.8095665858834229E-01 
    7.4834361886166390E-01 
    7.1903594992036601E-01 
    6.9253505399841397E-01 
    6.6832373241204734E-01 
    6.4588762215457141E-01 
    6.2433297249311426E-01 
    6.0190234612264226E-01 
    5.7449408579653660E-01 
    5.2971941069418016E-01 
    3.1190683428293015E-01 
    9.5499634066750905E-01 
    9.3691619875491972E-01 
    8.9660785397263865E-01 
    8.4915794438645409E-01 
    8.0627588638899306E-01 
    7.7019434733773240E-01 
    7.3920426677354201E-01 
    7.1178014936621270E-01 
    6.8684855053590910E-01 
    6.6400441787784881E-01 
    6.4267049189570757E-01 
    6.2221301605226120E-01 
    6.0132484172033041E-01 
    5.7647156479562700E-01 
    5.3571506427330728E-01 
    3.3513437304011656E-01 
    9.2642009447271989E-01 
    9.1038572837282128E-01 
    8.7434947316209033E-01 
    8.3159020033485165E-01 
    7.9086944072552978E-01 
    7.5569883396366266E-01 
    7.2594379561153721E-01 
    7.0025177453355947E-01 
    6.7749981288018624E-01 
    6.5692626911953511E-01 
    6.3792030663648047E-01 
    6.1958516535080543E-01 
    6.0051687400266285E-01 
    5.7789306679761576E-01 
    5.4105075403006286E-01 
    3.5426950088429116E-01 
    8.9423964689589963E-01 
    8.8084631074416253E-01 
    8.4946796390168289E-01 
    8.1074977037238727E-01 
    7.7312787795007665E-01 
    7.3973717857315158E-01 
    7.1086320323385865E-01 
    6.8623953787901515E-01 
    6.6509444322125333E-01 
    6.4665413943928762E-01 
    6.3026450339844453E-01 
    6.1508946742158921E-01 
    5.9912192548835808E-01 
    5.7898513719668065E-01 
    5.4591364847825252E-01 
    3.7151626307406527E-01 
    8.5931979000362346E-01 
    8.4914437175410007E-01 
    8.2273263692443310E-01 
    7.8822025873945534E-01 
    7.5401067716555237E-01 
    7.2303532651846047E-01 
    6.9582557130108025E-01 
    6.7200547743849315E-01 
    6.5163021705709312E-01 
    6.3448995999120661E-01 
    6.2022066726223124E-01 
    6.0805375965150388E-01 
    5.9610469321849568E-01 
    5.7976545058706663E-01 
    5.5017508683307637E-01 
    3.8846627268531014E-01 
    8.2147124149876605E-01 
    8.1494844124880428E-01 
    7.9424944119620122E-01 
    7.6453057562403037E-01 
    7.3349366549215755E-01 
    7.0479152848169435E-01 
    6.7914895198995950E-01 
    6.5673591961574307E-01 
    6.3740544573619828E-01 
    6.2126642647185015E-01 
    6.0835190009291962E-01 
    5.9864163381955116E-01 
    5.9069651161482828E-01 
    5.7952404685555514E-01 
    5.5466706397893295E-01 
    4.0551500525794776E-01 
    7.8084638262129735E-01 
    7.7790830730565330E-01 
    7.6283542797245663E-01 
    7.3827305232363649E-01 
    7.1092062888873797E-01 
    6.8450841834640075E-01 
    6.6060307431233256E-01 
    6.3948159867348131E-01 
    6.2121605096020993E-01 
    6.0595880043336925E-01 
    5.9422290092605745E-01 
    5.8655876963984366E-01 
    5.8246112884768819E-01 
    5.7726615015399307E-01 
    5.5829819921582724E-01 
    4.2170801787487727E-01 
    7.3748047399649219E-01 
    7.3791705632236060E-01 
    7.2812899264240671E-01 
    7.0847435005680270E-01 
    6.8506676070833072E-01 
    6.6147177964378101E-01 
    6.3939993897186487E-01 
    6.1987973222061266E-01 
    6.0295329255199259E-01 
    5.8864245580108177E-01 
    5.7755597701882400E-01 
    5.7122193187218451E-01 
    5.7060242646299153E-01 
    5.7205934757307220E-01 
    5.6069638062217775E-01 
    4.3764207690527035E-01 
    6.9102425052549588E-01 
    6.9460665019477430E-01 
    6.8975069172028491E-01 
    6.7466126315617037E-01 
    6.5523632935082454E-01 
    6.3501058195361293E-01 
    6.1576991120836644E-01 
    5.9806568033012142E-01 
    5.8252334156635410E-01 
    5.6942626872734936E-01 
    5.5926854660104719E-01 
    5.5337544989648924E-01 
    5.5451264338525796E-01 
    5.6255605332860881E-01 
    5.6082520725793561E-01 
    4.5372721320327408E-01 
    6.4016415028791318E-01 
    6.4678430717188273E-01 
    6.4697563215807108E-01 
    6.3657425948047319E-01 
    6.2096873463323099E-01 
    6.0399295721115054E-01 
    5.8762466688916570E-01 
    5.7265192986191793E-01 
    5.5920929097517869E-01 
    5.4780929255696309E-01 
    5.3911366447973219E-01 
    5.3420789535242919E-01 
    5.3553182097773466E-01 
    5.4740741344885191E-01 
    5.5562638390618024E-01 
    4.6868547763074803E-01 
    5.8613443282808442E-01 
    5.9480299621279387E-01 
    5.9921513026001427E-01 
    5.9367991087166194E-01 
    5.8258736540304557E-01 
    5.6912109840336034E-01 
    5.5579845567511865E-01 
    5.4324653404493184E-01 
    5.3182577316306501E-01 
    5.2193686753208290E-01 
    5.1477670947346532E-01 
    5.1145762422224794E-01 
    5.1405168168751603E-01 
    5.2712971474961523E-01 
    5.4701404086709260E-01 
    4.8119362669354476E-01 
    5.2746147996504111E-01 
    5.3957414250902136E-01 
    5.4696649421283905E-01 
    5.4601018298825399E-01 
    5.3809421488260012E-01 
    5.2673617582573840E-01 
    5.1392308914086537E-01 
    5.0264658440139953E-01 
    4.9141790842350735E-01 
    4.7817755416376073E-01 
    4.6574220729997545E-01 
    4.6426748260695971E-01 
    4.7192175664354707E-01 
    4.9619811435605021E-01 
    5.3225000066396688E-01 
    4.8987691918919785E-01 
    3.2147077934538310E-01 
    3.8676157097402430E-01 
    4.2073468572318146E-01 
    4.3008130112214538E-01 
    4.1990802616746042E-01 
    3.9844152227943352E-01 
    3.5381747934103991E-01 
    2.9387377566594697E-01 
    2.6530725725758147E-01 
    2.1762419827685242E-01 
    2.0955201180731797E-01 
    1.9490782946965168E-01 
    2.3136768585337827E-01 
    3.6218183448231822E-01 
    4.8050252448069464E-01 
    4.9079078979729646E-01 
    1.6680085841360237E-03 
    2.7891822491713947E-02 
    4.9398693594109915E-02 
    5.4109519893458101E-02 
    3.9984243790603578E-02 
    1.9819821404390276E-02 
    9.4397269018852911E-03 
    9.8401489953833733E-04 
    9.1180985800434018E-04 
    2.4506638366864583E-05 
    1.9098727063957514E-04 
    3.7998840798825858E-05 
    1.1963351108000009E-03 
    1.1707301122267587E-01 
    3.0497171104758625E-01 
    4.3980045231150600E-01 
