# vtk DataFile Version 2.0
Pressure Field Data 
ASCII 
DATASET UNSTRUCTURED_GRID 

POINTS 289 double 

    0.0000000000000000E+00     0.0000000000000000E+00     0.0000000000000000E+00 
    1.0000000000000000E+00     0.0000000000000000E+00     0.0000000000000000E+00 
    1.0000000000000000E+00     1.0000000000000000E+00     0.0000000000000000E+00 
    0.0000000000000000E+00     1.0000000000000000E+00     0.0000000000000000E+00 
    6.2499999999872928E-02     0.0000000000000000E+00     0.0000000000000000E+00 
    1.2499999999977310E-01     0.0000000000000000E+00     0.0000000000000000E+00 
    1.8749999999959341E-01     0.0000000000000000E+00     0.0000000000000000E+00 
    2.4999999999941089E-01     0.0000000000000000E+00     0.0000000000000000E+00 
    3.1249999999922851E-01     0.0000000000000000E+00     0.0000000000000000E+00 
    3.7499999999904610E-01     0.0000000000000000E+00     0.0000000000000000E+00 
    4.3749999999886358E-01     0.0000000000000000E+00     0.0000000000000000E+00 
    4.9999999999869210E-01     0.0000000000000000E+00     0.0000000000000000E+00 
    5.6249999999884603E-01     0.0000000000000000E+00     0.0000000000000000E+00 
    6.2499999999901090E-01     0.0000000000000000E+00     0.0000000000000000E+00 
    6.8749999999917577E-01     0.0000000000000000E+00     0.0000000000000000E+00 
    7.4999999999934064E-01     0.0000000000000000E+00     0.0000000000000000E+00 
    8.1249999999950551E-01     0.0000000000000000E+00     0.0000000000000000E+00 
    8.7499999999967026E-01     0.0000000000000000E+00     0.0000000000000000E+00 
    9.3749999999983513E-01     0.0000000000000000E+00     0.0000000000000000E+00 
    1.0000000000000000E+00     6.2499999999872928E-02     0.0000000000000000E+00 
    1.0000000000000000E+00     1.2499999999977310E-01     0.0000000000000000E+00 
    1.0000000000000000E+00     1.8749999999959341E-01     0.0000000000000000E+00 
    1.0000000000000000E+00     2.4999999999941089E-01     0.0000000000000000E+00 
    1.0000000000000000E+00     3.1249999999922851E-01     0.0000000000000000E+00 
    1.0000000000000000E+00     3.7499999999904610E-01     0.0000000000000000E+00 
    1.0000000000000000E+00     4.3749999999886358E-01     0.0000000000000000E+00 
    1.0000000000000000E+00     4.9999999999869210E-01     0.0000000000000000E+00 
    1.0000000000000000E+00     5.6249999999884603E-01     0.0000000000000000E+00 
    1.0000000000000000E+00     6.2499999999901090E-01     0.0000000000000000E+00 
    1.0000000000000000E+00     6.8749999999917577E-01     0.0000000000000000E+00 
    1.0000000000000000E+00     7.4999999999934064E-01     0.0000000000000000E+00 
    1.0000000000000000E+00     8.1249999999950551E-01     0.0000000000000000E+00 
    1.0000000000000000E+00     8.7499999999967026E-01     0.0000000000000000E+00 
    1.0000000000000000E+00     9.3749999999983513E-01     0.0000000000000000E+00 
    9.3749999999973976E-01     1.0000000000000000E+00     0.0000000000000000E+00 
    8.7499999999950118E-01     1.0000000000000000E+00     0.0000000000000000E+00 
    8.1249999999991318E-01     1.0000000000000000E+00     0.0000000000000000E+00 
    7.5000000000034706E-01     1.0000000000000000E+00     0.0000000000000000E+00 
    6.8750000000078049E-01     1.0000000000000000E+00     0.0000000000000000E+00 
    6.2500000000121403E-01     1.0000000000000000E+00     0.0000000000000000E+00 
    5.6250000000164757E-01     1.0000000000000000E+00     0.0000000000000000E+00 
    5.0000000000205946E-01     1.0000000000000000E+00     0.0000000000000000E+00 
    4.3750000000182099E-01     1.0000000000000000E+00     0.0000000000000000E+00 
    3.7500000000156092E-01     1.0000000000000000E+00     0.0000000000000000E+00 
    3.1250000000130068E-01     1.0000000000000000E+00     0.0000000000000000E+00 
    2.5000000000104050E-01     1.0000000000000000E+00     0.0000000000000000E+00 
    1.8750000000078040E-01     1.0000000000000000E+00     0.0000000000000000E+00 
    1.2500000000052031E-01     1.0000000000000000E+00     0.0000000000000000E+00 
    6.2500000000260125E-02     1.0000000000000000E+00     0.0000000000000000E+00 
    0.0000000000000000E+00     9.3749999999973976E-01     0.0000000000000000E+00 
    0.0000000000000000E+00     8.7499999999950118E-01     0.0000000000000000E+00 
    0.0000000000000000E+00     8.1249999999991318E-01     0.0000000000000000E+00 
    0.0000000000000000E+00     7.5000000000034706E-01     0.0000000000000000E+00 
    0.0000000000000000E+00     6.8750000000078049E-01     0.0000000000000000E+00 
    0.0000000000000000E+00     6.2500000000121403E-01     0.0000000000000000E+00 
    0.0000000000000000E+00     5.6250000000164757E-01     0.0000000000000000E+00 
    0.0000000000000000E+00     5.0000000000205946E-01     0.0000000000000000E+00 
    0.0000000000000000E+00     4.3750000000182099E-01     0.0000000000000000E+00 
    0.0000000000000000E+00     3.7500000000156092E-01     0.0000000000000000E+00 
    0.0000000000000000E+00     3.1250000000130068E-01     0.0000000000000000E+00 
    0.0000000000000000E+00     2.5000000000104050E-01     0.0000000000000000E+00 
    0.0000000000000000E+00     1.8750000000078040E-01     0.0000000000000000E+00 
    0.0000000000000000E+00     1.2500000000052031E-01     0.0000000000000000E+00 
    0.0000000000000000E+00     6.2500000000260125E-02     0.0000000000000000E+00 
    6.2499999999897131E-02     6.2500000000235922E-02     0.0000000000000000E+00 
    6.2499999999921327E-02     1.2500000000047351E-01     0.0000000000000000E+00 
    6.2499999999945530E-02     1.8750000000070621E-01     0.0000000000000000E+00 
    6.2499999999969733E-02     2.5000000000093858E-01     0.0000000000000000E+00 
    6.2499999999993928E-02     3.1250000000117117E-01     0.0000000000000000E+00 
    6.2500000000018124E-02     3.7500000000140382E-01     0.0000000000000000E+00 
    6.2500000000042327E-02     4.3750000000163619E-01     0.0000000000000000E+00 
    6.2500000000066530E-02     5.0000000000184897E-01     0.0000000000000000E+00 
    6.2500000000090733E-02     5.6250000000147260E-01     0.0000000000000000E+00 
    6.2500000000114922E-02     6.2500000000107636E-01     0.0000000000000000E+00 
    6.2500000000139125E-02     6.8750000000068034E-01     0.0000000000000000E+00 
    6.2500000000163328E-02     7.5000000000028411E-01     0.0000000000000000E+00 
    6.2500000000187531E-02     8.1249999999988787E-01     0.0000000000000000E+00 
    6.2500000000211720E-02     8.7499999999951172E-01     0.0000000000000000E+00 
    6.2500000000235922E-02     9.3749999999974565E-01     0.0000000000000000E+00 
    1.2499999999981980E-01     6.2500000000211733E-02     0.0000000000000000E+00 
    1.2499999999986650E-01     1.2500000000042691E-01     0.0000000000000000E+00 
    1.2499999999991319E-01     1.8750000000063199E-01     0.0000000000000000E+00 
    1.2499999999995989E-01     2.5000000000083678E-01     0.0000000000000000E+00 
    1.2500000000000661E-01     3.1250000000104172E-01     0.0000000000000000E+00 
    1.2500000000005329E-01     3.7500000000124661E-01     0.0000000000000000E+00 
    1.2500000000010000E-01     4.3750000000145117E-01     0.0000000000000000E+00 
    1.2500000000014669E-01     5.0000000000163858E-01     0.0000000000000000E+00 
    1.2500000000019340E-01     5.6250000000129741E-01     0.0000000000000000E+00 
    1.2500000000024011E-01     6.2500000000093847E-01     0.0000000000000000E+00 
    1.2500000000028680E-01     6.8750000000057998E-01     0.0000000000000000E+00 
    1.2500000000033351E-01     7.5000000000022127E-01     0.0000000000000000E+00 
    1.2500000000038020E-01     8.1249999999986211E-01     0.0000000000000000E+00 
    1.2500000000042691E-01     8.7499999999952238E-01     0.0000000000000000E+00 
    1.2500000000047359E-01     9.3749999999975164E-01     0.0000000000000000E+00 
    1.8749999999966760E-01     6.2500000000187531E-02     0.0000000000000000E+00 
    1.8749999999974179E-01     1.2500000000038020E-01     0.0000000000000000E+00 
    1.8749999999981601E-01     1.8750000000055780E-01     0.0000000000000000E+00 
    1.8749999999989009E-01     2.5000000000073502E-01     0.0000000000000000E+00 
    1.8749999999996431E-01     3.1250000000091221E-01     0.0000000000000000E+00 
    1.8750000000003850E-01     3.7500000000108941E-01     0.0000000000000000E+00 
    1.8750000000011269E-01     4.3750000000126649E-01     0.0000000000000000E+00 
    1.8750000000018691E-01     5.0000000000142808E-01     0.0000000000000000E+00 
    1.8750000000026110E-01     5.6250000000112244E-01     0.0000000000000000E+00 
    1.8750000000033529E-01     6.2500000000080080E-01     0.0000000000000000E+00 
    1.8750000000040951E-01     6.8750000000047962E-01     0.0000000000000000E+00 
    1.8750000000048361E-01     7.5000000000015843E-01     0.0000000000000000E+00 
    1.8750000000055780E-01     8.1249999999983680E-01     0.0000000000000000E+00 
    1.8750000000063199E-01     8.7499999999953304E-01     0.0000000000000000E+00 
    1.8750000000070621E-01     9.3749999999975764E-01     0.0000000000000000E+00 
    2.4999999999951281E-01     6.2500000000163314E-02     0.0000000000000000E+00 
    2.4999999999961461E-01     1.2500000000033351E-01     0.0000000000000000E+00 
    2.4999999999971650E-01     1.8750000000048361E-01     0.0000000000000000E+00 
    2.4999999999981831E-01     2.5000000000063310E-01     0.0000000000000000E+00 
    2.4999999999992020E-01     3.1250000000078260E-01     0.0000000000000000E+00 
    2.5000000000002198E-01     3.7500000000093209E-01     0.0000000000000000E+00 
    2.5000000000012390E-01     4.3750000000108180E-01     0.0000000000000000E+00 
    2.5000000000022571E-01     5.0000000000121769E-01     0.0000000000000000E+00 
    2.5000000000032763E-01     5.6250000000094724E-01     0.0000000000000000E+00 
    2.5000000000042938E-01     6.2500000000066314E-01     0.0000000000000000E+00 
    2.5000000000053119E-01     6.8750000000037925E-01     0.0000000000000000E+00 
[...]
CELL_DATA 256 
SCALARS Pressure double 1 
LOOKUP_TABLE default 

    9.8813400927647588E-01 
    9.8606781103093966E-01 
    9.8392107042638566E-01 
    9.8165294801890024E-01 
    9.7937892786895442E-01 
    9.7717040232042363E-01 
    9.7504420970145056E-01 
    9.7301239287788011E-01 
    9.7106485604393722E-01 
    9.6915453179739242E-01 
    9.6729495160089562E-01 
    9.6571965012201688E-01 
    9.6451523899986669E-01 
    9.6362233176244183E-01 
    9.6303611521624288E-01 
    9.6275451463501005E-01 
    9.4588152039408546E-01 
    9.4566637703061052E-01 
    9.4524426172647991E-01 
    9.4463156287689487E-01 
    9.4385764993398769E-01 
    9.4294421709364662E-01 
    9.4191764115658505E-01 
    9.4080263346183268E-01 
    9.3959837770905141E-01 
    9.3837515178354203E-01 
    9.3727806001283931E-01 
    9.3637430211639661E-01 
    9.3566227059172391E-01 
    9.3512877629546654E-01 
    9.3477453585192583E-01 
    9.3460003680667481E-01 
    8.9734304577722379E-01 
    8.9715095998848782E-01 
    8.9677391663460171E-01 
    8.9622394668353189E-01 
    8.9551652464059517E-01 
    8.9468235585926426E-01 
    8.9377259419851152E-01 
    8.9285527381542495E-01 
    8.9198143580292899E-01 
    8.9120919871275062E-01 
    8.9057122479519202E-01 
    8.9004765314945866E-01 
    8.8962721148617852E-01 
    8.8931204321692625E-01 
    8.8910373181246716E-01 
    8.8900315006722042E-01 
    8.3576078461622549E-01 
    8.3565549701065189E-01 
    8.3545928776998446E-01 
    8.3520153737112457E-01 
    8.3492428377309014E-01 
    8.3467197430298601E-01 
    8.3446116688860927E-01 
    8.3429005847263460E-01 
    8.3413832493107243E-01 
    8.3398992613007061E-01 
    8.3384084478313347E-01 
    8.3369871901704407E-01 
    8.3357026908160414E-01 
    8.3346100426592118E-01 
    8.3337514598964590E-01 
    8.3331570457530013E-01 
    7.7065448673383019E-01 
    7.7070827708559531E-01 
    7.7080299998132418E-01 
    7.7092482908908511E-01 
    7.7106361381646038E-01 
    7.7121310765822293E-01 
    7.7136199748056200E-01 
    7.7150120680482415E-01 
    7.7162220439409501E-01 
    7.7171687093260255E-01 
    7.7176851378762290E-01 
    7.7178362387260357E-01 
    7.7176818031532046E-01 
    7.7172746751586863E-01 
    7.7166596249829122E-01 
    7.7158727762123724E-01 
    7.0126914432434739E-01 
    7.0137165232374699E-01 
    7.0153989415126572E-01 
    7.0173676977582999E-01 
    7.0192518507715551E-01 
    7.0206992220464692E-01 
    7.0217020686118059E-01 
    7.0222834285355606E-01 
    7.0224729900610106E-01 
    7.0223183301146486E-01 
    7.0219262572924990E-01 
    7.0214110834737231E-01 
    7.0208832633812490E-01 
    7.0204545587519518E-01 
    7.0202391940988651E-01 
    7.0203545978060067E-01 
    6.3526823140253363E-01 
    6.3522376507191325E-01 
    6.3513341835852200E-01 
    6.3499159184619802E-01 
    6.3478907809406104E-01 
    6.3454835061061654E-01 
    6.3432336281381407E-01 
    6.3411879059495757E-01 
    6.3393811770085051E-01 
    6.3378569997032064E-01 
    6.3368669773070818E-01 
    6.3363178404442078E-01 
    6.3361279789337133E-01 
    6.3362242758899179E-01 
    6.3365403317672586E-01 
    6.3370145574276127E-01 
    5.7017722364781465E-01 
    5.7010902985895284E-01 
    5.6999480876006958E-01 
    5.6985823337103447E-01 
    5.6972377749318459E-01 
    5.6961630823592413E-01 
    5.6955979867282569E-01 
    5.6955510907739559E-01 
    5.6960213814318350E-01 
    5.6968074412977654E-01 
    5.6976975140504038E-01 
    5.6986207690819124E-01 
    5.6995008475650999E-01 
    5.7002496972283401E-01 
    5.7007685922670104E-01 
    5.7009504622030172E-01 
    5.0659424080008419E-01 
    5.0652549309449990E-01 
    5.0643400436742370E-01 
    5.0636875361609535E-01 
    5.0638157546117069E-01 
    5.0649019057052358E-01 
    5.0667801136760826E-01 
    5.0693144737417162E-01 
    5.0723780930291207E-01 
    5.0754837465078706E-01 
    5.0780482778323477E-01 
    5.0800582410488526E-01 
    5.0814629095317365E-01 
    5.0821688711144664E-01 
    5.0820366691831531E-01 
    5.0808790951500227E-01 
    4.3419847252566718E-01 
    4.3424650818959326E-01 
    4.3433268045625606E-01 
    4.3444832835980857E-01 
    4.3458473910244161E-01 
    4.3473543612985383E-01 
    4.3487559282473298E-01 
    4.3498580765527312E-01 
    4.3504638387438693E-01 
    4.3503865307300627E-01 
    4.3497911907482767E-01 
    4.3488420506956132E-01 
    4.3476706227831124E-01 
    4.3463852216824489E-01 
    4.3450744782718931E-01 
    4.3438118016119526E-01 
    3.5013843038663700E-01 
    3.5013509097111162E-01 
    3.5011219953492739E-01 
    3.5004750343511193E-01 
    3.4991347277860435E-01 
    3.4967806724583644E-01 
    3.4940505281924633E-01 
    3.4911211487798000E-01 
    3.4881530387798332E-01 
    3.4853023887699264E-01 
    3.4831822117068589E-01 
    3.4817352734021217E-01 
    3.4809203622927881E-01 
    3.4807160122788611E-01 
    3.4811196908844294E-01 
    3.4821458941636507E-01 
    2.7291256441285550E-01 
    2.7291638222672154E-01 
    2.7291443914454966E-01 
    2.7289463146718712E-01 
    2.7284338289796028E-01 
    2.7274686218894739E-01 
    2.7262440303891738E-01 
    2.7249107496503855E-01 
    2.7236248280395958E-01 
    2.7225525091918334E-01 
    2.7219616330298391E-01 
    2.7217925004323335E-01 
    2.7220014773957885E-01 
    2.7225655581784458E-01 
    2.7234831485830313E-01 
    2.7247731376660156E-01 
    2.1032223611877884E-01 
    2.1031937820239768E-01 
    2.1030838209938355E-01 
    2.1028263705626915E-01 
    2.1023472788630013E-01 
    2.1015701853099117E-01 
    2.1006109478632978E-01 
    2.0995624126094667E-01 
    2.0985211487275723E-01 
    2.0975892527889242E-01 
    2.0969307961092618E-01 
    2.0965184837073544E-01 
    2.0963354242796525E-01 
    2.0963770921558783E-01 
    2.0966515406568556E-01 
    2.0971785368067414E-01 
    1.5430559400766813E-01 
    1.5427030697014807E-01 
    1.5419977000754245E-01 
    1.5409457104689075E-01 
    1.5395594397303297E-01 
    1.5378587310431152E-01 
    1.5359292870315436E-01 
    1.5338524754522431E-01 
    1.5317164087570861E-01 
    1.5296152337110527E-01 
    1.5276718098513772E-01 
    1.5259502818943427E-01 
    1.5245172298437915E-01 
    1.5234384093220751E-01 
    1.5227751158238056E-01 
    1.5225791900988611E-01 
    1.0240663286441430E-01 
    1.0226622996773752E-01 
    1.0199079538134934E-01 
    1.0158859202526059E-01 
    1.0107058532295615E-01 
    1.0045030946721349E-01 
    9.9736321564894218E-02 
    9.8940708143534326E-02 
    9.8079314617657606E-02 
    9.7172414607833144E-02 
    9.6244418228361078E-02 
    9.5332377643639124E-02 
    9.4479503351675501E-02 
    9.3736418149826223E-02 
    9.3162691427236544E-02 
    9.2828696683675105E-02 
    6.2693462688825627E-02 
    6.2237522059481395E-02 
    6.1333066198751479E-02 
    5.9985112619037113E-02 
    5.8195768172945132E-02 
    5.5955570886365782E-02 
    5.3227169780634680E-02 
    4.9969260860317881E-02 
    4.6136098365128948E-02 
    4.1701431207021800E-02 
    3.6628845788861331E-02 
    3.0875299100813446E-02 
    2.4390112649525456E-02 
    1.7113984855766384E-02 
    8.9779163035013376E-03 
    0.0000000000000000E+00 

SCALARS Saturarion double 1 
LOOKUP_TABLE default 

    9.9994289336356557E-01 
    8.9974998447595289E-01 
    7.8386069330034236E-01 
    6.9735868646622190E-01 
    6.4658443031302337E-01 
    5.9741175886436548E-01 
    5.5346064706830123E-01 
    5.1244377926983375E-01 
    4.7365123331932169E-01 
    4.0672814634136956E-01 
    9.9117014822575455E-02 
    1.2738570886423915E-06 
    1.0000001141563715E-06 
    1.0000000000000021E-06 
    9.9999999999999995E-07 
    9.9999999999999995E-07 
    7.3658831243434775E-01 
    7.0161022347350122E-01 
    6.4500073210498721E-01 
    5.9912306393606118E-01 
    5.5620324974246471E-01 
    5.1627653545620034E-01 
    4.7442270493763439E-01 
    4.0965009514543044E-01 
    2.5775105795205155E-01 
    8.3730191445242505E-02 
    3.6074248915842870E-03 
    4.4090032861168650E-06 
    1.0000002422388616E-06 
    1.0000000000000006E-06 
    9.9999999999999995E-07 
    9.9999999999999995E-07 
    4.8806834483422279E-01 
    4.7294154044775705E-01 
    4.4227408210179087E-01 
    3.8416454151831025E-01 
    3.0735743340511512E-01 
    2.2108427207878631E-01 
    1.3429995004861819E-01 
    3.9783714137045817E-02 
    2.3247866991515966E-03 
    7.5565052899913613E-04 
    1.8777649965127901E-06 
    1.0000002740172074E-06 
    1.0000000000000044E-06 
    9.9999999999999995E-07 
    9.9999999999999995E-07 
    9.9999999999999995E-07 
    7.3944170605321699E-02 
    5.8173038334425595E-02 
    3.2299080035274881E-02 
    1.4551560808385648E-02 
    5.4324824825025663E-03 
    1.4487428903168292E-03 
    6.6370674615590206E-04 
    3.0477010114331064E-05 
    2.1336066101491983E-06 
    1.0130653191523471E-06 
    1.0000000669101252E-06 
    1.0000000000000095E-06 
    9.9999999999999995E-07 
    9.9999999999999995E-07 
    9.9999999999999995E-07 
    9.9999999999999995E-07 
    1.5592721481518074E-04 
    4.6540042472269142E-05 
    4.5051644600240392E-05 
    3.1031614419744651E-05 
    9.7988672374827647E-06 
    1.6341836587357648E-06 
    1.1423011547029696E-06 
    1.0001011511620033E-06 
    1.0000001555337978E-06 
    1.0000000012472683E-06 
    1.0000000000000019E-06 
    9.9999999999999995E-07 
    9.9999999999999995E-07 
    9.9999999999999995E-07 
    9.9999999999999995E-07 
    9.9999999999999995E-07 
    1.0002023680666440E-06 
    1.0000962575068231E-06 
    1.0003081731068925E-06 
    1.0000150312426158E-06 
    1.0000055540530516E-06 
    1.0000001938302085E-06 
    1.0000000258120254E-06 
    1.0000000000034213E-06 
    1.0000000000000194E-06 
    1.0000000000000004E-06 
    9.9999999999999995E-07 
    9.9999999999999995E-07 
    9.9999999999999995E-07 
    9.9999999999999995E-07 
    9.9999999999999995E-07 
    9.9999999999999995E-07 
    1.0000000000213532E-06 
    1.0000000000221429E-06 
    1.0000000000033356E-06 
    1.0000000000030205E-06 
    1.0000000000019716E-06 
    1.0000000000000182E-06 
    1.0000000000000044E-06 
    9.9999999999999995E-07 
    9.9999999999999995E-07 
    9.9999999999999995E-07 
    9.9999999999999995E-07 
    9.9999999999999995E-07 
    9.9999999999999995E-07 
    9.9999999999999995E-07 
    9.9999999999999995E-07 
    9.9999999999999995E-07 
    9.9999999999999995E-07 
    1.0000000000000002E-06 
    9.9999999999999995E-07 
    9.9999999999999995E-07 
    9.9999999999999995E-07 
    9.9999999999999995E-07 
    9.9999999999999995E-07 
    9.9999999999999995E-07 
    9.9999999999999995E-07 
    9.9999999999999995E-07 
    9.9999999999999995E-07 
    9.9999999999999995E-07 
    9.9999999999999995E-07 
    9.9999999999999995E-07 
    9.9999999999999995E-07 
    9.9999999999999995E-07 
    9.9999999999999995E-07 
    9.9999999999999995E-07 
    9.9999999999999995E-07 
    9.9999999999999995E-07 
    9.9999999999999995E-07 
    9.9999999999999995E-07 
    9.9999999999999995E-07 
    9.9999999999999995E-07 
    9.9999999999999995E-07 
    9.9999999999999995E-07 
    9.9999999999999995E-07 
    9.9999999999999995E-07 
    9.9999999999999995E-07 
    9.9999999999999995E-07 
    9.9999999999999995E-07 
    9.9999999999999995E-07 
    9.9999999999999995E-07 
    9.9999999999999995E-07 
    9.9999999999999995E-07 
    9.9999999999999995E-07 
    9.9999999999999995E-07 
    9.9999999999999995E-07 
    9.9999999999999995E-07 
    9.9999999999999995E-07 
    9.9999999999999995E-07 
    9.9999999999999995E-07 
    9.9999999999999995E-07 
    9.9999999999999995E-07 
    9.9999999999999995E-07 
    9.9999999999999995E-07 
    9.9999999999999995E-07 
    9.9999999999999995E-07 
    9.9999999999999995E-07 
    9.9999999999999995E-07 
    9.9999999999999995E-07 
    9.9999999999999995E-07 
    9.9999999999999995E-07 
    9.9999999999999995E-07 
    9.9999999999999995E-07 
    9.9999999999999995E-07 
    9.9999999999999995E-07 
    9.9999999999999995E-07 
    9.9999999999999995E-07 
    9.9999999999999995E-07 
    9.9999999999999995E-07 
    9.9999999999999995E-07 
    9.9999999999999995E-07 
    9.9999999999999995E-07 
    9.9999999999999995E-07 
    9.9999999999999995E-07 
    9.9999999999999995E-07 
    9.9999999999999995E-07 
    9.9999999999999995E-07 
    9.9999999999999995E-07 
    9.9999999999999995E-07 
    9.9999999999999995E-07 
    9.9999999999999995E-07 
    9.9999999999999995E-07 
    9.9999999999999995E-07 
    9.9999999999999995E-07 
    9.9999999999999995E-07 
    9.9999999999999995E-07 
    9.9999999999999995E-07 
    9.9999999999999995E-07 
    9.9999999999999995E-07 
    9.9999999999999995E-07 
    9.9999999999999995E-07 
    9.9999999999999995E-07 
    9.9999999999999995E-07 
    9.9999999999999995E-07 
    9.9999999999999995E-07 
    9.9999999999999995E-07 
    9.9999999999999995E-07 
    9.9999999999999995E-07 
    9.9999999999999995E-07 
    9.9999999999999995E-07 
    9.9999999999999995E-07 
    9.9999999999999995E-07 
    9.9999999999999995E-07 
    9.9999999999999995E-07 
    9.9999999999999995E-07 
    9.9999999999999995E-07 
    9.9999999999999995E-07 
    9.9999999999999995E-07 
    9.9999999999999995E-07 
    9.9999999999999995E-07 
    9.9999999999999995E-07 
    9.9999999999999995E-07 
    9.9999999999999995E-07 
    9.9999999999999995E-07 
    9.9999999999999995E-07 
    9.9999999999999995E-07 
    9.9999999999999995E-07 
    9.9999999999999995E-07 
    9.9999999999999995E-07 
    9.9999999999999995E-07 
    9.9999999999999995E-07 
    9.9999999999999995E-07 
    9.9999999999999995E-07 
    9.9999999999999995E-07 
    9.9999999999999995E-07 
    9.9999999999999995E-07 
    9.9999999999999995E-07 
    9.9999999999999995E-07 
    9.9999999999999995E-07 
    9.9999999999999995E-07 
    9.9999999999999995E-07 
    9.9999999999999995E-07 
    9.9999999999999995E-07 
    9.9999999999999995E-07 
    9.9999999999999995E-07 
    9.9999999999999995E-07 
    9.9999999999999995E-07 
    9.9999999999999995E-07 
    9.9999999999999995E-07 
    9.9999999999999995E-07 
    9.9999999999999995E-07 
    9.9999999999999995E-07 
    9.9999999999999995E-07 
    9.9999999999999995E-07 
    9.9999999999999995E-07 
    9.9999999999999995E-07 
    9.9999999999999995E-07 
    9.9999999999999995E-07 
    9.9999999999999995E-07 
    9.9999999999999995E-07 
    9.9999999999999995E-07 
    1.0000000290674987E-06 
