# vtk DataFile Version 2.0
Pressure Field Data 
ASCII 
DATASET UNSTRUCTURED_GRID 

POINTS 289 double 

    0.0000000000000000E+00     0.0000000000000000E+00     0.0000000000000000E+00 
    1.0000000000000000E+00     0.0000000000000000E+00     0.0000000000000000E+00 
    1.0000000000000000E+00     1.0000000000000000E+00     0.0000000000000000E+00 
    0.0000000000000000E+00     1.0000000000000000E+00     0.0000000000000000E+00 
    6.2499999999872928E-02     0.0000000000000000E+00     0.0000000000000000E+00 
    1.2499999999977310E-01     0.0000000000000000E+00     0.0000000000000000E+00 
    1.8749999999959341E-01     0.0000000000000000E+00     0.0000000000000000E+00 
    2.4999999999941089E-01     0.0000000000000000E+00     0.0000000000000000E+00 
    3.1249999999922851E-01     0.0000000000000000E+00     0.0000000000000000E+00 
    3.7499999999904610E-01     0.0000000000000000E+00     0.0000000000000000E+00 
    4.3749999999886358E-01     0.0000000000000000E+00     0.0000000000000000E+00 
    4.9999999999869210E-01     0.0000000000000000E+00     0.0000000000000000E+00 
    5.6249999999884603E-01     0.0000000000000000E+00     0.0000000000000000E+00 
    6.2499999999901090E-01     0.0000000000000000E+00     0.0000000000000000E+00 
    6.8749999999917577E-01     0.0000000000000000E+00     0.0000000000000000E+00 
    7.4999999999934064E-01     0.0000000000000000E+00     0.0000000000000000E+00 
    8.1249999999950551E-01     0.0000000000000000E+00     0.0000000000000000E+00 
    8.7499999999967026E-01     0.0000000000000000E+00     0.0000000000000000E+00 
    9.3749999999983513E-01     0.0000000000000000E+00     0.0000000000000000E+00 
    1.0000000000000000E+00     6.2499999999872928E-02     0.0000000000000000E+00 
    1.0000000000000000E+00     1.2499999999977310E-01     0.0000000000000000E+00 
    1.0000000000000000E+00     1.8749999999959341E-01     0.0000000000000000E+00 
    1.0000000000000000E+00     2.4999999999941089E-01     0.0000000000000000E+00 
    1.0000000000000000E+00     3.1249999999922851E-01     0.0000000000000000E+00 
    1.0000000000000000E+00     3.7499999999904610E-01     0.0000000000000000E+00 
    1.0000000000000000E+00     4.3749999999886358E-01     0.0000000000000000E+00 
    1.0000000000000000E+00     4.9999999999869210E-01     0.0000000000000000E+00 
    1.0000000000000000E+00     5.6249999999884603E-01     0.0000000000000000E+00 
    1.0000000000000000E+00     6.2499999999901090E-01     0.0000000000000000E+00 
    1.0000000000000000E+00     6.8749999999917577E-01     0.0000000000000000E+00 
    1.0000000000000000E+00     7.4999999999934064E-01     0.0000000000000000E+00 
    1.0000000000000000E+00     8.1249999999950551E-01     0.0000000000000000E+00 
    1.0000000000000000E+00     8.7499999999967026E-01     0.0000000000000000E+00 
    1.0000000000000000E+00     9.3749999999983513E-01     0.0000000000000000E+00 
    9.3749999999973976E-01     1.0000000000000000E+00     0.0000000000000000E+00 
    8.7499999999950118E-01     1.0000000000000000E+00     0.0000000000000000E+00 
    8.1249999999991318E-01     1.0000000000000000E+00     0.0000000000000000E+00 
    7.5000000000034706E-01     1.0000000000000000E+00     0.0000000000000000E+00 
    6.8750000000078049E-01     1.0000000000000000E+00     0.0000000000000000E+00 
    6.2500000000121403E-01     1.0000000000000000E+00     0.0000000000000000E+00 
    5.6250000000164757E-01     1.0000000000000000E+00     0.0000000000000000E+00 
    5.0000000000205946E-01     1.0000000000000000E+00     0.0000000000000000E+00 
    4.3750000000182099E-01     1.0000000000000000E+00     0.0000000000000000E+00 
    3.7500000000156092E-01     1.0000000000000000E+00     0.0000000000000000E+00 
    3.1250000000130068E-01     1.0000000000000000E+00     0.0000000000000000E+00 
    2.5000000000104050E-01     1.0000000000000000E+00     0.0000000000000000E+00 
    1.8750000000078040E-01     1.0000000000000000E+00     0.0000000000000000E+00 
    1.2500000000052031E-01     1.0000000000000000E+00     0.0000000000000000E+00 
    6.2500000000260125E-02     1.0000000000000000E+00     0.0000000000000000E+00 
    0.0000000000000000E+00     9.3749999999973976E-01     0.0000000000000000E+00 
    0.0000000000000000E+00     8.7499999999950118E-01     0.0000000000000000E+00 
    0.0000000000000000E+00     8.1249999999991318E-01     0.0000000000000000E+00 
    0.0000000000000000E+00     7.5000000000034706E-01     0.0000000000000000E+00 
    0.0000000000000000E+00     6.8750000000078049E-01     0.0000000000000000E+00 
    0.0000000000000000E+00     6.2500000000121403E-01     0.0000000000000000E+00 
    0.0000000000000000E+00     5.6250000000164757E-01     0.0000000000000000E+00 
    0.0000000000000000E+00     5.0000000000205946E-01     0.0000000000000000E+00 
    0.0000000000000000E+00     4.3750000000182099E-01     0.0000000000000000E+00 
    0.0000000000000000E+00     3.7500000000156092E-01     0.0000000000000000E+00 
    0.0000000000000000E+00     3.1250000000130068E-01     0.0000000000000000E+00 
    0.0000000000000000E+00     2.5000000000104050E-01     0.0000000000000000E+00 
    0.0000000000000000E+00     1.8750000000078040E-01     0.0000000000000000E+00 
    0.0000000000000000E+00     1.2500000000052031E-01     0.0000000000000000E+00 
    0.0000000000000000E+00     6.2500000000260125E-02     0.0000000000000000E+00 
    6.2499999999897131E-02     6.2500000000235922E-02     0.0000000000000000E+00 
    6.2499999999921327E-02     1.2500000000047351E-01     0.0000000000000000E+00 
    6.2499999999945530E-02     1.8750000000070621E-01     0.0000000000000000E+00 
    6.2499999999969733E-02     2.5000000000093858E-01     0.0000000000000000E+00 
    6.2499999999993928E-02     3.1250000000117117E-01     0.0000000000000000E+00 
    6.2500000000018124E-02     3.7500000000140382E-01     0.0000000000000000E+00 
    6.2500000000042327E-02     4.3750000000163619E-01     0.0000000000000000E+00 
    6.2500000000066530E-02     5.0000000000184897E-01     0.0000000000000000E+00 
    6.2500000000090733E-02     5.6250000000147260E-01     0.0000000000000000E+00 
    6.2500000000114922E-02     6.2500000000107636E-01     0.0000000000000000E+00 
    6.2500000000139125E-02     6.8750000000068034E-01     0.0000000000000000E+00 
    6.2500000000163328E-02     7.5000000000028411E-01     0.0000000000000000E+00 
    6.2500000000187531E-02     8.1249999999988787E-01     0.0000000000000000E+00 
    6.2500000000211720E-02     8.7499999999951172E-01     0.0000000000000000E+00 
    6.2500000000235922E-02     9.3749999999974565E-01     0.0000000000000000E+00 
    1.2499999999981980E-01     6.2500000000211733E-02     0.0000000000000000E+00 
    1.2499999999986650E-01     1.2500000000042691E-01     0.0000000000000000E+00 
    1.2499999999991319E-01     1.8750000000063199E-01     0.0000000000000000E+00 
    1.2499999999995989E-01     2.5000000000083678E-01     0.0000000000000000E+00 
    1.2500000000000661E-01     3.1250000000104172E-01     0.0000000000000000E+00 
    1.2500000000005329E-01     3.7500000000124661E-01     0.0000000000000000E+00 
    1.2500000000010000E-01     4.3750000000145117E-01     0.0000000000000000E+00 
    1.2500000000014669E-01     5.0000000000163858E-01     0.0000000000000000E+00 
    1.2500000000019340E-01     5.6250000000129741E-01     0.0000000000000000E+00 
    1.2500000000024011E-01     6.2500000000093847E-01     0.0000000000000000E+00 
    1.2500000000028680E-01     6.8750000000057998E-01     0.0000000000000000E+00 
    1.2500000000033351E-01     7.5000000000022127E-01     0.0000000000000000E+00 
    1.2500000000038020E-01     8.1249999999986211E-01     0.0000000000000000E+00 
    1.2500000000042691E-01     8.7499999999952238E-01     0.0000000000000000E+00 
    1.2500000000047359E-01     9.3749999999975164E-01     0.0000000000000000E+00 
    1.8749999999966760E-01     6.2500000000187531E-02     0.0000000000000000E+00 
    1.8749999999974179E-01     1.2500000000038020E-01     0.0000000000000000E+00 
    1.8749999999981601E-01     1.8750000000055780E-01     0.0000000000000000E+00 
    1.8749999999989009E-01     2.5000000000073502E-01     0.0000000000000000E+00 
    1.8749999999996431E-01     3.1250000000091221E-01     0.0000000000000000E+00 
    1.8750000000003850E-01     3.7500000000108941E-01     0.0000000000000000E+00 
    1.8750000000011269E-01     4.3750000000126649E-01     0.0000000000000000E+00 
    1.8750000000018691E-01     5.0000000000142808E-01     0.0000000000000000E+00 
    1.8750000000026110E-01     5.6250000000112244E-01     0.0000000000000000E+00 
    1.8750000000033529E-01     6.2500000000080080E-01     0.0000000000000000E+00 
    1.8750000000040951E-01     6.8750000000047962E-01     0.0000000000000000E+00 
    1.8750000000048361E-01     7.5000000000015843E-01     0.0000000000000000E+00 
    1.8750000000055780E-01     8.1249999999983680E-01     0.0000000000000000E+00 
    1.8750000000063199E-01     8.7499999999953304E-01     0.0000000000000000E+00 
    1.8750000000070621E-01     9.3749999999975764E-01     0.0000000000000000E+00 
    2.4999999999951281E-01     6.2500000000163314E-02     0.0000000000000000E+00 
    2.4999999999961461E-01     1.2500000000033351E-01     0.0000000000000000E+00 
    2.4999999999971650E-01     1.8750000000048361E-01     0.0000000000000000E+00 
    2.4999999999981831E-01     2.5000000000063310E-01     0.0000000000000000E+00 
    2.4999999999992020E-01     3.1250000000078260E-01     0.0000000000000000E+00 
    2.5000000000002198E-01     3.7500000000093209E-01     0.0000000000000000E+00 
    2.5000000000012390E-01     4.3750000000108180E-01     0.0000000000000000E+00 
    2.5000000000022571E-01     5.0000000000121769E-01     0.0000000000000000E+00 
    2.5000000000032763E-01     5.6250000000094724E-01     0.0000000000000000E+00 
    2.5000000000042938E-01     6.2500000000066314E-01     0.0000000000000000E+00 
    2.5000000000053119E-01     6.8750000000037925E-01     0.0000000000000000E+00 
[...]
CELL_DATA 256 
SCALARS Pressure double 1 
LOOKUP_TABLE default 

    7.7292376390407647E-01 
    7.7104717695491987E-01 
    7.6931879537169079E-01 
    7.6770957694366804E-01 
    7.6622043979816890E-01 
    7.6484997744871541E-01 
    7.6359996168552779E-01 
    7.6247369260964337E-01 
    7.6147726841611119E-01 
    7.6061016054571140E-01 
    7.5987132797307710E-01 
    7.5926083361176733E-01 
    7.5877816946510612E-01 
    7.5842295190308218E-01 
    7.5819667653105693E-01 
    7.5807972872299867E-01 
    7.4736352991654875E-01 
    7.4727656487867322E-01 
    7.4712045059160825E-01 
    7.4690965584190727E-01 
    7.4665872398737199E-01 
    7.4638076389373953E-01 
    7.4608935696913592E-01 
    7.4579561476893130E-01 
    7.4551037895155092E-01 
    7.4524376551287275E-01 
    7.4500434235529045E-01 
    7.4479762297633922E-01 
    7.4462750864654370E-01 
    7.4449738754599160E-01 
    7.4441073752113307E-01 
    7.4436265636301724E-01 
    7.2490676561581602E-01 
    7.2489619550167539E-01 
    7.2487458852549602E-01 
    7.2484221843073515E-01 
    7.2480004288899325E-01 
    7.2474926154580510E-01 
    7.2468915699011027E-01 
    7.2462150667532954E-01 
    7.2454821291654159E-01 
    7.2447097020004236E-01 
    7.2439205857944422E-01 
    7.2431485470903800E-01 
    7.2424245469403015E-01 
    7.2417785748273411E-01 
    7.2412065024292838E-01 
    7.2407245929707831E-01 
    6.9803738102922941E-01 
    6.9805878025723500E-01 
    6.9809786403862284E-01 
    6.9815160437574064E-01 
    6.9821615914068058E-01 
    6.9828673373096184E-01 
    6.9835165970820545E-01 
    6.9840649635905871E-01 
    6.9844613561565028E-01 
    6.9846516825850236E-01 
    6.9846163174017883E-01 
    6.9843933748166709E-01 
    6.9840319025207220E-01 
    6.9835781912935302E-01 
    6.9829772240431598E-01 
    6.9822624134178946E-01 
    6.6396605230568018E-01 
    6.6401793602919668E-01 
    6.6411138396210223E-01 
    6.6423673692349550E-01 
    6.6438229918381986E-01 
    6.6453361164346403E-01 
    6.6467956548520946E-01 
    6.6481066940914446E-01 
    6.6491701411458970E-01 
    6.6498827452643916E-01 
    6.6501535286981228E-01 
    6.6500455909830158E-01 
    6.6496347264924915E-01 
    6.6489538241924062E-01 
    6.6479910709621770E-01 
    6.6470231645806011E-01 
    6.2133227364265431E-01 
    6.2141087317592281E-01 
    6.2154176378832238E-01 
    6.2169934373577806E-01 
    6.2185609003917375E-01 
    6.2198078670257984E-01 
    6.2206695401886702E-01 
    6.2211359600579608E-01 
    6.2212061679484665E-01 
    6.2208847036562220E-01 
    6.2202788973496126E-01 
    6.2195135250488476E-01 
    6.2186985684693508E-01 
    6.2177718348647271E-01 
    6.2168601193091944E-01 
    6.2167094784420784E-01 
    5.8058069531261502E-01 
    5.8051238151225204E-01 
    5.8037889127313391E-01 
    5.8018025911942783E-01 
    5.7991117603267694E-01 
    5.7959500687535837E-01 
    5.7929270660060206E-01 
    5.7901389015713911E-01 
    5.7876619942727048E-01 
    5.7855507033565579E-01 
    5.7840808276288558E-01 
    5.7831428580002531E-01 
    5.7824554748172752E-01 
    5.7817288867161154E-01 
    5.7812299307399340E-01 
    5.7812545633268531E-01 
    5.3564511919904534E-01 
    5.3556259028134634E-01 
    5.3542028870167413E-01 
    5.3524355119927991E-01 
    5.3505863856881097E-01 
    5.3489715580103825E-01 
    5.3479242966363816E-01 
    5.3474949072965938E-01 
    5.3477160094217802E-01 
    5.3483837028069370E-01 
    5.3492244564512847E-01 
    5.3499570034462940E-01 
    5.3502753099755052E-01 
    5.3502647308766049E-01 
    5.3501843174594255E-01 
    5.3498698044506821E-01 
    4.8739886610595518E-01 
    4.8732186780205916E-01 
    4.8721276338429104E-01 
    4.8712004625250505E-01 
    4.8709721060235173E-01 
    4.8717505941486033E-01 
    4.8734396719793022E-01 
    4.8759143373199421E-01 
    4.8790490378253215E-01 
    4.8822563034602312E-01 
    4.8846304328070012E-01 
    4.8860390939130233E-01 
    4.8866508897282629E-01 
    4.8867015967796024E-01 
    4.8860466760330185E-01 
    4.8843540698649107E-01 
    4.2636457819029733E-01 
    4.2639907412690342E-01 
    4.2645432124221677E-01 
    4.2651790320705618E-01 
    4.2658005785845676E-01 
    4.2663931926960075E-01 
    4.2668152013835525E-01 
    4.2668718272508360E-01 
    4.2662065494008733E-01 
    4.2642605606003325E-01 
    4.2611205044714068E-01 
    4.2576362870206241E-01 
    4.2546250192280644E-01 
    4.2521187227709284E-01 
    4.2499991262396297E-01 
    4.2483243920610197E-01 
    3.5016782188375895E-01 
    3.5013501013913101E-01 
    3.5004908374209859E-01 
    3.4988097307301141E-01 
    3.4959563300554708E-01 
    3.4915308632551817E-01 
    3.4860604551332586E-01 
    3.4795098556685999E-01 
    3.4718323991674344E-01 
    3.4636022278516859E-01 
    3.4567891625842584E-01 
    3.4519261017667635E-01 
    3.4486812038674441E-01 
    3.4467630365221846E-01 
    3.4461403854449457E-01 
    3.4468168535022026E-01 
    2.7491036957501436E-01 
    2.7485886360258355E-01 
    2.7474693178157356E-01 
    2.7456442476836562E-01 
    2.7430001454394370E-01 
    2.7394094608545833E-01 
    2.7350095197993518E-01 
    2.7300083001977621E-01 
    2.7249842066694674E-01 
    2.7206896176684486E-01 
    2.7175781782782760E-01 
    2.7154263257973243E-01 
    2.7140869469235140E-01 
    2.7135353805412721E-01 
    2.7137706028962194E-01 
    2.7148114196255996E-01 
    2.0992127107274916E-01 
    2.0989211938860206E-01 
    2.0983122975895577E-01 
    2.0973714028104318E-01 
    2.0960845745232068E-01 
    2.0944408309695664E-01 
    2.0926605823617481E-01 
    2.0910095600503520E-01 
    2.0896744567824527E-01 
    2.0886198207896173E-01 
    2.0878482963593648E-01 
    2.0873085901901450E-01 
    2.0870085912071309E-01 
    2.0869632044699304E-01 
    2.0871943166182857E-01 
    2.0877299740654959E-01 
    1.5341737448286544E-01 
    1.5338710736165087E-01 
    1.5332554075298260E-01 
    1.5323142023584840E-01 
    1.5310420970092697E-01 
    1.5294480996893123E-01 
    1.5276106141791918E-01 
    1.5256035569159512E-01 
    1.5235157459633542E-01 
    1.5214477301439280E-01 
    1.5195290325423452E-01 
    1.5178271603536422E-01 
    1.5164119539830287E-01 
    1.5153519395366977E-01 
    1.5147104676661974E-01 
    1.5145405575907503E-01 
    1.0194606524109900E-01 
    1.0180671040656261E-01 
    1.0153341272972148E-01 
    1.0113442054402649E-01 
    1.0062062743345873E-01 
    1.0000543875967084E-01 
    9.9297230776161580E-02 
    9.8507787021163654E-02 
    9.7652616577642681E-02 
    9.6751627060021203E-02 
    9.5828971741970512E-02 
    9.4921463025730984E-02 
    9.4072109768932988E-02 
    9.3331398895910703E-02 
    9.2758851148410995E-02 
    9.2424893829426452E-02 
    6.2604449049602051E-02 
    6.2147624172035121E-02 
    6.1242768216232771E-02 
    5.9896180907604096E-02 
    5.8111153133041361E-02 
    5.5877856333285930E-02 
    5.3158492772235201E-02 
    4.9911214691125111E-02 
    4.6089637426384417E-02 
    4.1666818858248765E-02 
    3.6605340670471324E-02 
    3.0861209702599167E-02 
    2.4382896465490314E-02 
    1.7110383244195913E-02 
    8.9741153013333415E-03 
    0.0000000000000000E+00 

SCALARS Saturarion double 1 
LOOKUP_TABLE default 

    1.0000000009168446E+00 
    9.8173216014060016E-01 
    9.5019650360546659E-01 
    9.1839146326108068E-01 
    8.8911200246098576E-01 
    8.6063937967812210E-01 
    8.3104072223696890E-01 
    8.0124360778185388E-01 
    7.7050105451517859E-01 
    7.3869588088281768E-01 
    7.0536132778637450E-01 
    6.7026621925291885E-01 
    6.3064220816448358E-01 
    5.8315076223701634E-01 
    5.2145434803162183E-01 
    3.0540489324062403E-01 
    9.1029685093338053E-01 
    8.9962428181005794E-01 
    8.7653941324157747E-01 
    8.5203970107556726E-01 
    8.2832782290797136E-01 
    8.0351461912048194E-01 
    7.7826009536323748E-01 
    7.5262575353521699E-01 
    7.2707214340452286E-01 
    7.0031640050854682E-01 
    6.7157875639473907E-01 
    6.4030317392641845E-01 
    6.0157690385563534E-01 
    5.5752162005628980E-01 
    5.0012717578391885E-01 
    2.2233735883349731E-01 
    7.9531288213892060E-01 
    7.8830841598260981E-01 
    7.7178354775216818E-01 
    7.5301682762344313E-01 
    7.3673382044096625E-01 
    7.1816444393716183E-01 
    6.9927168764566561E-01 
    6.8001138901786184E-01 
    6.6152351479645966E-01 
    6.4084356686261734E-01 
    6.1673296329672933E-01 
    5.8984760042782225E-01 
    5.5419819012327232E-01 
    5.1428887830165737E-01 
    4.5645684301660105E-01 
    1.1537902791057764E-01 
    7.2163492796615747E-01 
    7.1533550552616443E-01 
    7.0098115161919738E-01 
    6.8512587510495337E-01 
    6.7120191889077563E-01 
    6.5631360563371421E-01 
    6.4049000802337319E-01 
    6.2429999504359868E-01 
    6.0857684154117653E-01 
    5.9003770295384173E-01 
    5.6887351387095642E-01 
    5.4582655344039455E-01 
    5.1310928156647351E-01 
    4.7409006856442160E-01 
    3.8121523506728849E-01 
    2.3916132931161304E-02 
    6.6586401858365252E-01 
    6.6064283567213788E-01 
    6.4901427142488077E-01 
    6.3555460606315661E-01 
    6.2132245812821563E-01 
    6.0766369431863210E-01 
    5.9289908018612503E-01 
    5.7814613642037882E-01 
    5.6284645863010785E-01 
    5.4651154427108295E-01 
    5.2804431032844878E-01 
    5.0778261665109781E-01 
    4.7935332808728476E-01 
    4.3534185159687550E-01 
    1.7593709939043994E-01 
    2.9301797478780198E-04 
    6.2348802394298486E-01 
    6.1904749213001464E-01 
    6.0896538934594746E-01 
    5.9674261686552121E-01 
    5.7850898931311645E-01 
    5.6627802485473933E-01 
    5.5326543699401176E-01 
    5.4062486953404976E-01 
    5.2328218442137209E-01 
    5.0933806059882880E-01 
    4.9344332218769116E-01 
    4.7575255023892238E-01 
    4.4932474149269047E-01 
    3.7543014718827550E-01 
    2.9055690295044810E-02 
    9.6680288331970566E-06 
    5.8876097064319111E-01 
    5.8572051308569606E-01 
    5.7768156783259861E-01 
    5.6848717710727525E-01 
    5.4706585501021354E-01 
    5.3394877475944535E-01 
    5.2299124709602751E-01 
    5.1252312682883960E-01 
    4.9730532554040124E-01 
    4.8283393677818920E-01 
    4.6828738228101591E-01 
    4.4970758093684604E-01 
    4.1801881433053001E-01 
    1.9202579394869140E-01 
    9.3122018613528727E-04 
    1.0182841557890974E-06 
    5.5538037480952440E-01 
    5.5358323560954192E-01 
    5.4875087832680491E-01 
    5.4238795428280751E-01 
    5.2640330974127381E-01 
    5.0808474909848167E-01 
    4.9756978817650294E-01 
    4.8747621400185065E-01 
    4.7578818748928264E-01 
    4.6133746352960975E-01 
    4.4571364230544819E-01 
    4.0992883908689209E-01 
    2.5555365191068324E-01 
    1.6491044630124074E-02 
    2.0874636940627784E-06 
    1.0000000099772870E-06 
    5.2427671640270157E-01 
    5.2309264423145718E-01 
    5.2013668774768274E-01 
    5.1627708406716755E-01 
    5.0411373382095648E-01 
    4.8481560117974104E-01 
    4.7318034809337856E-01 
    4.6212288477715285E-01 
    4.4729745409617544E-01 
    4.2871244518939555E-01 
    3.8322013752461265E-01 
    2.0230884922315692E-01 
    4.9865208502081707E-03 
    4.7960849376821497E-04 
    1.0000039604505317E-06 
    1.0000000000000025E-06 
    4.9685669421926110E-01 
    4.9575520385555194E-01 
    4.9339853155887425E-01 
    4.9108948069824843E-01 
    4.8311407450409499E-01 
    4.6246117433278833E-01 
    4.4860521930813030E-01 
    4.3584441906498766E-01 
    3.9603393598500158E-01 
    3.3016394262792764E-01 
    1.5199422267590121E-01 
    7.3375939588496688E-03 
    5.2700474337093618E-05 
    1.3547833415263863E-06 
    1.0000000010604268E-06 
    9.9999999999999995E-07 
    4.6437409738137475E-01 
    4.6314320951473381E-01 
    4.6065320553518896E-01 
    4.5791609799968641E-01 
    4.5529029095215101E-01 
    4.4567211361652803E-01 
    4.2912765356234128E-01 
    4.1079215961462084E-01 
    3.4432783804848027E-01 
    8.5228001703867684E-02 
    1.5034417366775034E-03 
    5.2264861124105944E-06 
    1.0001743039704442E-06 
    1.0000002272085461E-06 
    9.9999999999999995E-07 
    9.9999999999999995E-07 
    3.7950544406850067E-01 
    3.7436283776692009E-01 
    3.6816967020564395E-01 
    3.5810232135265402E-01 
    3.5028287878854847E-01 
    3.3700365143822841E-01 
    2.9229026387468637E-01 
    1.9829193813526286E-01 
    6.5089759216440238E-02 
    7.7342650280253747E-04 
    1.2813464131105743E-06 
    1.0000034532833845E-06 
    1.0000000000261466E-06 
    1.0000000000000626E-06 
    9.9999999999999995E-07 
    9.9999999999999995E-07 
    5.3274765912253448E-02 
    5.0324427803084520E-02 
    4.1774478524532845E-02 
    3.3420452732618469E-02 
    2.8931083422613826E-02 
    2.0334371042896340E-02 
    6.5510178216731194E-03 
    2.4256876028669341E-04 
    1.7066522382053916E-04 
    1.0188988385351873E-06 
    1.0000000791571391E-06 
    1.0000000000038677E-06 
    1.0000000000000002E-06 
    9.9999999999999995E-07 
    9.9999999999999995E-07 
    9.9999999999999995E-07 
    1.0879291265247092E-06 
    1.0559118856198506E-06 
    1.4511828559306748E-06 
    1.5501468280021623E-06 
    1.0850084743252143E-06 
    7.4395312210963366E-06 
    1.9418954825297254E-06 
    1.0169975060885241E-06 
    1.0043678632361689E-06 
    1.0000000013631542E-06 
    9.9999999999999508E-07 
    9.9999999999999995E-07 
    9.9999999999999995E-07 
    9.9999999999999995E-07 
    9.9999999999999995E-07 
    9.9999999999999995E-07 
    1.0000001659136191E-06 
    1.0000000275781510E-06 
    1.0000001762468683E-06 
    1.0000002459378312E-06 
    1.0000000268364455E-06 
    9.9999995607769283E-07 
    1.0000002939778409E-06 
    1.0000000021273425E-06 
    1.0000000000010975E-06 
    1.0000000000000023E-06 
    9.9999999999999995E-07 
    9.9999999999999995E-07 
    9.9999999999999995E-07 
    9.9999999999999995E-07 
    9.9999999999999995E-07 
    9.9999999999999995E-07 
    1.0000000000000374E-06 
    1.0000000000000002E-06 
    1.0000000000000203E-06 
    1.0000000000000033E-06 
    1.0000000000000002E-06 
    9.9999999999999403E-07 
    1.0000000000002068E-06 
    9.9999999999999974E-07 
    9.9999999999999995E-07 
    9.9999999999999995E-07 
    9.9999999999999995E-07 
    9.9999999999999995E-07 
    9.9999999999999995E-07 
    9.9999999999999995E-07 
    9.9999999999999995E-07 
    1.0000001899336521E-06 
