# vtk DataFile Version 2.0
Pressure Field Data 
ASCII 
DATASET UNSTRUCTURED_GRID 

POINTS 289 double 

    0.0000000000000000E+00     0.0000000000000000E+00     0.0000000000000000E+00 
    1.0000000000000000E+00     0.0000000000000000E+00     0.0000000000000000E+00 
    1.0000000000000000E+00     1.0000000000000000E+00     0.0000000000000000E+00 
    0.0000000000000000E+00     1.0000000000000000E+00     0.0000000000000000E+00 
    6.2499999999872928E-02     0.0000000000000000E+00     0.0000000000000000E+00 
    1.2499999999977310E-01     0.0000000000000000E+00     0.0000000000000000E+00 
    1.8749999999959341E-01     0.0000000000000000E+00     0.0000000000000000E+00 
    2.4999999999941089E-01     0.0000000000000000E+00     0.0000000000000000E+00 
    3.1249999999922851E-01     0.0000000000000000E+00     0.0000000000000000E+00 
    3.7499999999904610E-01     0.0000000000000000E+00     0.0000000000000000E+00 
    4.3749999999886358E-01     0.0000000000000000E+00     0.0000000000000000E+00 
    4.9999999999869210E-01     0.0000000000000000E+00     0.0000000000000000E+00 
    5.6249999999884603E-01     0.0000000000000000E+00     0.0000000000000000E+00 
    6.2499999999901090E-01     0.0000000000000000E+00     0.0000000000000000E+00 
    6.8749999999917577E-01     0.0000000000000000E+00     0.0000000000000000E+00 
    7.4999999999934064E-01     0.0000000000000000E+00     0.0000000000000000E+00 
    8.1249999999950551E-01     0.0000000000000000E+00     0.0000000000000000E+00 
    8.7499999999967026E-01     0.0000000000000000E+00     0.0000000000000000E+00 
    9.3749999999983513E-01     0.0000000000000000E+00     0.0000000000000000E+00 
    1.0000000000000000E+00     6.2499999999872928E-02     0.0000000000000000E+00 
    1.0000000000000000E+00     1.2499999999977310E-01     0.0000000000000000E+00 
    1.0000000000000000E+00     1.8749999999959341E-01     0.0000000000000000E+00 
    1.0000000000000000E+00     2.4999999999941089E-01     0.0000000000000000E+00 
    1.0000000000000000E+00     3.1249999999922851E-01     0.0000000000000000E+00 
    1.0000000000000000E+00     3.7499999999904610E-01     0.0000000000000000E+00 
    1.0000000000000000E+00     4.3749999999886358E-01     0.0000000000000000E+00 
    1.0000000000000000E+00     4.9999999999869210E-01     0.0000000000000000E+00 
    1.0000000000000000E+00     5.6249999999884603E-01     0.0000000000000000E+00 
    1.0000000000000000E+00     6.2499999999901090E-01     0.0000000000000000E+00 
    1.0000000000000000E+00     6.8749999999917577E-01     0.0000000000000000E+00 
    1.0000000000000000E+00     7.4999999999934064E-01     0.0000000000000000E+00 
    1.0000000000000000E+00     8.1249999999950551E-01     0.0000000000000000E+00 
    1.0000000000000000E+00     8.7499999999967026E-01     0.0000000000000000E+00 
    1.0000000000000000E+00     9.3749999999983513E-01     0.0000000000000000E+00 
    9.3749999999973976E-01     1.0000000000000000E+00     0.0000000000000000E+00 
    8.7499999999950118E-01     1.0000000000000000E+00     0.0000000000000000E+00 
    8.1249999999991318E-01     1.0000000000000000E+00     0.0000000000000000E+00 
    7.5000000000034706E-01     1.0000000000000000E+00     0.0000000000000000E+00 
    6.8750000000078049E-01     1.0000000000000000E+00     0.0000000000000000E+00 
    6.2500000000121403E-01     1.0000000000000000E+00     0.0000000000000000E+00 
    5.6250000000164757E-01     1.0000000000000000E+00     0.0000000000000000E+00 
    5.0000000000205946E-01     1.0000000000000000E+00     0.0000000000000000E+00 
    4.3750000000182099E-01     1.0000000000000000E+00     0.0000000000000000E+00 
    3.7500000000156092E-01     1.0000000000000000E+00     0.0000000000000000E+00 
    3.1250000000130068E-01     1.0000000000000000E+00     0.0000000000000000E+00 
    2.5000000000104050E-01     1.0000000000000000E+00     0.0000000000000000E+00 
    1.8750000000078040E-01     1.0000000000000000E+00     0.0000000000000000E+00 
    1.2500000000052031E-01     1.0000000000000000E+00     0.0000000000000000E+00 
    6.2500000000260125E-02     1.0000000000000000E+00     0.0000000000000000E+00 
    0.0000000000000000E+00     9.3749999999973976E-01     0.0000000000000000E+00 
    0.0000000000000000E+00     8.7499999999950118E-01     0.0000000000000000E+00 
    0.0000000000000000E+00     8.1249999999991318E-01     0.0000000000000000E+00 
    0.0000000000000000E+00     7.5000000000034706E-01     0.0000000000000000E+00 
    0.0000000000000000E+00     6.8750000000078049E-01     0.0000000000000000E+00 
    0.0000000000000000E+00     6.2500000000121403E-01     0.0000000000000000E+00 
    0.0000000000000000E+00     5.6250000000164757E-01     0.0000000000000000E+00 
    0.0000000000000000E+00     5.0000000000205946E-01     0.0000000000000000E+00 
    0.0000000000000000E+00     4.3750000000182099E-01     0.0000000000000000E+00 
    0.0000000000000000E+00     3.7500000000156092E-01     0.0000000000000000E+00 
    0.0000000000000000E+00     3.1250000000130068E-01     0.0000000000000000E+00 
    0.0000000000000000E+00     2.5000000000104050E-01     0.0000000000000000E+00 
    0.0000000000000000E+00     1.8750000000078040E-01     0.0000000000000000E+00 
    0.0000000000000000E+00     1.2500000000052031E-01     0.0000000000000000E+00 
    0.0000000000000000E+00     6.2500000000260125E-02     0.0000000000000000E+00 
    6.2499999999897131E-02     6.2500000000235922E-02     0.0000000000000000E+00 
    6.2499999999921327E-02     1.2500000000047351E-01     0.0000000000000000E+00 
    6.2499999999945530E-02     1.8750000000070621E-01     0.0000000000000000E+00 
    6.2499999999969733E-02     2.5000000000093858E-01     0.0000000000000000E+00 
    6.2499999999993928E-02     3.1250000000117117E-01     0.0000000000000000E+00 
    6.2500000000018124E-02     3.7500000000140382E-01     0.0000000000000000E+00 
    6.2500000000042327E-02     4.3750000000163619E-01     0.0000000000000000E+00 
    6.2500000000066530E-02     5.0000000000184897E-01     0.0000000000000000E+00 
    6.2500000000090733E-02     5.6250000000147260E-01     0.0000000000000000E+00 
    6.2500000000114922E-02     6.2500000000107636E-01     0.0000000000000000E+00 
    6.2500000000139125E-02     6.8750000000068034E-01     0.0000000000000000E+00 
    6.2500000000163328E-02     7.5000000000028411E-01     0.0000000000000000E+00 
    6.2500000000187531E-02     8.1249999999988787E-01     0.0000000000000000E+00 
    6.2500000000211720E-02     8.7499999999951172E-01     0.0000000000000000E+00 
    6.2500000000235922E-02     9.3749999999974565E-01     0.0000000000000000E+00 
    1.2499999999981980E-01     6.2500000000211733E-02     0.0000000000000000E+00 
    1.2499999999986650E-01     1.2500000000042691E-01     0.0000000000000000E+00 
    1.2499999999991319E-01     1.8750000000063199E-01     0.0000000000000000E+00 
    1.2499999999995989E-01     2.5000000000083678E-01     0.0000000000000000E+00 
    1.2500000000000661E-01     3.1250000000104172E-01     0.0000000000000000E+00 
    1.2500000000005329E-01     3.7500000000124661E-01     0.0000000000000000E+00 
    1.2500000000010000E-01     4.3750000000145117E-01     0.0000000000000000E+00 
    1.2500000000014669E-01     5.0000000000163858E-01     0.0000000000000000E+00 
    1.2500000000019340E-01     5.6250000000129741E-01     0.0000000000000000E+00 
    1.2500000000024011E-01     6.2500000000093847E-01     0.0000000000000000E+00 
    1.2500000000028680E-01     6.8750000000057998E-01     0.0000000000000000E+00 
    1.2500000000033351E-01     7.5000000000022127E-01     0.0000000000000000E+00 
    1.2500000000038020E-01     8.1249999999986211E-01     0.0000000000000000E+00 
    1.2500000000042691E-01     8.7499999999952238E-01     0.0000000000000000E+00 
    1.2500000000047359E-01     9.3749999999975164E-01     0.0000000000000000E+00 
    1.8749999999966760E-01     6.2500000000187531E-02     0.0000000000000000E+00 
    1.8749999999974179E-01     1.2500000000038020E-01     0.0000000000000000E+00 
    1.8749999999981601E-01     1.8750000000055780E-01     0.0000000000000000E+00 
    1.8749999999989009E-01     2.5000000000073502E-01     0.0000000000000000E+00 
    1.8749999999996431E-01     3.1250000000091221E-01     0.0000000000000000E+00 
    1.8750000000003850E-01     3.7500000000108941E-01     0.0000000000000000E+00 
    1.8750000000011269E-01     4.3750000000126649E-01     0.0000000000000000E+00 
    1.8750000000018691E-01     5.0000000000142808E-01     0.0000000000000000E+00 
    1.8750000000026110E-01     5.6250000000112244E-01     0.0000000000000000E+00 
    1.8750000000033529E-01     6.2500000000080080E-01     0.0000000000000000E+00 
    1.8750000000040951E-01     6.8750000000047962E-01     0.0000000000000000E+00 
    1.8750000000048361E-01     7.5000000000015843E-01     0.0000000000000000E+00 
    1.8750000000055780E-01     8.1249999999983680E-01     0.0000000000000000E+00 
    1.8750000000063199E-01     8.7499999999953304E-01     0.0000000000000000E+00 
    1.8750000000070621E-01     9.3749999999975764E-01     0.0000000000000000E+00 
    2.4999999999951281E-01     6.2500000000163314E-02     0.0000000000000000E+00 
    2.4999999999961461E-01     1.2500000000033351E-01     0.0000000000000000E+00 
    2.4999999999971650E-01     1.8750000000048361E-01     0.0000000000000000E+00 
    2.4999999999981831E-01     2.5000000000063310E-01     0.0000000000000000E+00 
    2.4999999999992020E-01     3.1250000000078260E-01     0.0000000000000000E+00 
    2.5000000000002198E-01     3.7500000000093209E-01     0.0000000000000000E+00 
    2.5000000000012390E-01     4.3750000000108180E-01     0.0000000000000000E+00 
    2.5000000000022571E-01     5.0000000000121769E-01     0.0000000000000000E+00 
    2.5000000000032763E-01     5.6250000000094724E-01     0.0000000000000000E+00 
    2.5000000000042938E-01     6.2500000000066314E-01     0.0000000000000000E+00 
    2.5000000000053119E-01     6.8750000000037925E-01     0.0000000000000000E+00 
[...]
CELL_DATA 256 
SCALARS Pressure double 1 
LOOKUP_TABLE default 

    6.9684462935676605E-01 
    6.9498134447397675E-01 
    6.9327543990505047E-01 
    6.9170123376791770E-01 
    6.9025537718549301E-01 
    6.8893356699137476E-01 
    6.8773663057171508E-01 
    6.8666518833345658E-01 
    6.8572207579731748E-01 
    6.8490519382152970E-01 
    6.8421141346415859E-01 
    6.8363851293785760E-01 
    6.8318489513578107E-01 
    6.8284988046324480E-01 
    6.8263308023370473E-01 
    6.8252075826731295E-01 
    6.7243412489578169E-01 
    6.7235174050036439E-01 
    6.7220485785162643E-01 
    6.7200791334373722E-01 
    6.7177505287367067E-01 
    6.7151903401094304E-01 
    6.7125250028544392E-01 
    6.7098541531864009E-01 
    6.7072729592979063E-01 
    6.7048699239434517E-01 
    6.7027193683803565E-01 
    6.7008706234466719E-01 
    6.6993602699321320E-01 
    6.6982189393543545E-01 
    6.6974783807519134E-01 
    6.6970989683540649E-01 
    6.5161836349946678E-01 
    6.5160935232226591E-01 
    6.5159088417923039E-01 
    6.5156304793636621E-01 
    6.5152658568824851E-01 
    6.5148250834684096E-01 
    6.5143004508520053E-01 
    6.5137070549574816E-01 
    6.5130627369986360E-01 
    6.5123859893704772E-01 
    6.5117034625253167E-01 
    6.5110508469542572E-01 
    6.5104602800154954E-01 
    6.5099636988535525E-01 
    6.5096003886534071E-01 
    6.5093724610112758E-01 
    6.2701884954110665E-01 
    6.2703880637086296E-01 
    6.2707470843386015E-01 
    6.2712290251281633E-01 
    6.2717897657380950E-01 
    6.2723806023420003E-01 
    6.2728999000285923E-01 
    6.2733129782422903E-01 
    6.2735806434140784E-01 
    6.2736615344012892E-01 
    6.2735448850957543E-01 
    6.2732653964585727E-01 
    6.2728663300287646E-01 
    6.2723949887826602E-01 
    6.2718940042063132E-01 
    6.2714048539893574E-01 
    5.9612372939958047E-01 
    5.9617051117123165E-01 
    5.9625465520311272E-01 
    5.9636694750308428E-01 
    5.9649571911114774E-01 
    5.9662696055112918E-01 
    5.9675134622685666E-01 
    5.9686123790027024E-01 
    5.9694856607250935E-01 
    5.9700499789190908E-01 
    5.9702337026273988E-01 
    5.9700931427187198E-01 
    5.9697013322243320E-01 
    5.9691378572455278E-01 
    5.9684276504461398E-01 
    5.9676470344130006E-01 
    5.5780895453647095E-01 
    5.5787926348339545E-01 
    5.5799681144665325E-01 
    5.5813917613244524E-01 
    5.5828164570124272E-01 
    5.5839561901378476E-01 
    5.5847527814674625E-01 
    5.5852021556085107E-01 
    5.5853109948350699E-01 
    5.5850946476922858E-01 
    5.5846485910058385E-01 
    5.5840867817435080E-01 
    5.5835363104527169E-01 
    5.5831307451643220E-01 
    5.5828723721120166E-01 
    5.5829055639320535E-01 
    5.2169892324841460E-01 
    5.2164103302998888E-01 
    5.2152804992053814E-01 
    5.2135962766300603E-01 
    5.2113036007414082E-01 
    5.2086065495423350E-01 
    5.2060544372336059E-01 
    5.2037128945854572E-01 
    5.2016294986008804E-01 
    5.1998262557912955E-01 
    5.1985447023554321E-01 
    5.1977092173982997E-01 
    5.1972482776092854E-01 
    5.1970499302859741E-01 
    5.1969629473096146E-01 
    5.1970372845433899E-01 
    4.8164287063597278E-01 
    4.8158279672505694E-01 
    4.8148253860602258E-01 
    4.8136383304865210E-01 
    4.8124921486184125E-01 
    4.8116403086686954E-01 
    4.8113447948926247E-01 
    4.8116174795393896E-01 
    4.8124583020616379E-01 
    4.8136610661014118E-01 
    4.8149931228843390E-01 
    4.8163354362226918E-01 
    4.8174971869104949E-01 
    4.8181642125374441E-01 
    4.8182093842563617E-01 
    4.8178043722858094E-01 
    4.3809342436476223E-01 
    4.3804877215210558E-01 
    4.3799900168314648E-01 
    4.3798646080258502E-01 
    4.3805738471045913E-01 
    4.3823391657087574E-01 
    4.3850206937479808E-01 
    4.3884537752502928E-01 
    4.3924887140931040E-01 
    4.3966172685538629E-01 
    4.4002052535079816E-01 
    4.4031420255994258E-01 
    4.4052169907736216E-01 
    4.4060853149760654E-01 
    4.4056117016809748E-01 
    4.4038749764179730E-01 
    3.8137377846826986E-01 
    3.8143126695170360E-01 
    3.8153489212078967E-01 
    3.8167527038598004E-01 
    3.8184574642541697E-01 
    3.8204301673529023E-01 
    3.8224109139829004E-01 
    3.8241652673510657E-01 
    3.8254535317212507E-01 
    3.8259840886163926E-01 
    3.8258082370353363E-01 
    3.8248447326551743E-01 
    3.8229839704553853E-01 
    3.8208727939583387E-01 
    3.8191142334948724E-01 
    3.8175923123886429E-01 
    3.1183379053760829E-01 
    3.1180138945775304E-01 
    3.1171986337229907E-01 
    3.1156691356742838E-01 
    3.1131558758940625E-01 
    3.1093269139067969E-01 
    3.1049863148435880E-01 
    3.1004019226300783E-01 
    3.0958108365088860E-01 
    3.0914327597700803E-01 
    3.0878898177761349E-01 
    3.0845749499034042E-01 
    3.0818038348278648E-01 
    3.0804294339722899E-01 
    3.0803054807057795E-01 
    3.0812445061520199E-01 
    2.4653830918692637E-01 
    2.4650295350464391E-01 
    2.4642313137533631E-01 
    2.4628843041358056E-01 
    2.4608893520434949E-01 
    2.4581638504084408E-01 
    2.4550013105736510E-01 
    2.4516741575935108E-01 
    2.4484542690382957E-01 
    2.4455914693171477E-01 
    2.4432030431000329E-01 
    2.4409901588815341E-01 
    2.4395582424858386E-01 
    2.4391764840961988E-01 
    2.4396305599217608E-01 
    2.4409030495627812E-01 
    1.9551022564315776E-01 
    1.9547859275995041E-01 
    1.9540978045856910E-01 
    1.9529771410782026E-01 
    1.9513618606217270E-01 
    1.9491976524186083E-01 
    1.9466490818423765E-01 
    1.9438793236536778E-01 
    1.9410322752159373E-01 
    1.9381533433808903E-01 
    1.9351386569219101E-01 
    1.9322126246738452E-01 
    1.9301489146141154E-01 
    1.9289806296031534E-01 
    1.9285570824336082E-01 
    1.9288797599355922E-01 
    1.4992884415461019E-01 
    1.4985888111015538E-01 
    1.4971789469832236E-01 
    1.4950545764085246E-01 
    1.4922181661007697E-01 
    1.4886777440188576E-01 
    1.4844971617807973E-01 
    1.4797534591353995E-01 
    1.4745647613092502E-01 
    1.4690432189180944E-01 
    1.4633718984774599E-01 
    1.4584252268554976E-01 
    1.4546741908580507E-01 
    1.4519312405383644E-01 
    1.4502149097178801E-01 
    1.4495691169278713E-01 
    1.0188672160191087E-01 
    1.0171942525240661E-01 
    1.0139010371579828E-01 
    1.0090692228250851E-01 
    1.0028068403777020E-01 
    9.9524850148319258E-02 
    9.8647245402903067E-02 
    9.7660588909745674E-02 
    9.6587922955605754E-02 
    9.5467852576935699E-02 
    9.4347554054626179E-02 
    9.3297825334949819E-02 
    9.2353641233359082E-02 
    9.1538994317603165E-02 
    9.0914887191952912E-02 
    9.0553388538130816E-02 
    6.2938575904950805E-02 
    6.2464043447333771E-02 
    6.1526588985328666E-02 
    6.0135288838053198E-02 
    5.8296215596890195E-02 
    5.5999385288050339E-02 
    5.3208895974370993E-02 
    4.9887851798012493E-02 
    4.6002252435865282E-02 
    4.1557081219718066E-02 
    3.6526349957461166E-02 
    3.0823173686515295E-02 
    2.4368452253181908E-02 
    1.7103573632535972E-02 
    8.9615534848039146E-03 
    0.0000000000000000E+00 

SCALARS Saturarion double 1 
LOOKUP_TABLE default 

    1.0000000009470966E+00 
    9.8546617090140309E-01 
    9.6032229880410858E-01 
    9.3422942569826195E-01 
    9.0835215810880066E-01 
    8.8356357666362184E-01 
    8.5812778161069347E-01 
    8.3135810984305281E-01 
    8.0372888696797473E-01 
    7.7452551413667292E-01 
    7.4319120196812605E-01 
    7.0889871701565466E-01 
    6.7071026136376988E-01 
    6.2570427704693754E-01 
    5.6531694713450387E-01 
    4.0330171731517950E-01 
    9.2485406704305195E-01 
    9.1514598684853821E-01 
    8.9507299315298694E-01 
    8.7372477326648623E-01 
    8.5387918637076798E-01 
    8.3235017205241379E-01 
    8.0982036900293708E-01 
    7.8663129409720067E-01 
    7.6292967623277441E-01 
    7.3763937380580658E-01 
    7.0989744864536353E-01 
    6.7973078727115821E-01 
    6.4263492021221080E-01 
    5.9994934953597379E-01 
    5.4227833044309359E-01 
    3.6741488479125284E-01 
    8.1707949770705324E-01 
    8.1224632352728421E-01 
    7.9809087807935941E-01 
    7.8164537972333004E-01 
    7.6880172020904669E-01 
    7.5206017669680836E-01 
    7.3439770995798148E-01 
    7.1617990673759557E-01 
    6.9852539011822512E-01 
    6.7933156515610049E-01 
    6.5708402683025680E-01 
    6.3204803427560208E-01 
    5.9722316824281430E-01 
    5.5822889696144795E-01 
    5.0632622172462005E-01 
    2.8075420041987914E-01 
    7.5126190543240057E-01 
    7.4478915626679987E-01 
    7.3100895266923105E-01 
    7.1603797289953630E-01 
    7.0477121741287496E-01 
    6.9073366122224411E-01 
    6.7593369131976888E-01 
    6.6097547166726067E-01 
    6.4685061590154291E-01 
    6.3038037263575097E-01 
    6.1078102267572276E-01 
    5.8933023673117302E-01 
    5.5764568147911209E-01 
    5.2195833371062306E-01 
    4.7297611106671783E-01 
    1.9181542961719475E-01 
    7.0095370056747841E-01 
    6.9495563830985640E-01 
    6.8237370748372306E-01 
    6.6818522373825306E-01 
    6.5498806688556688E-01 
    6.4253289475874475E-01 
    6.2913460149066369E-01 
    6.1549232177226576E-01 
    6.0192512548789590E-01 
    5.8690275059855224E-01 
    5.6971992543792405E-01 
    5.5117600130560374E-01 
    5.2431414661040099E-01 
    4.8984426006632181E-01 
    4.3548970107225859E-01 
    7.0144903213321841E-02 
    6.6229177499561642E-01 
    6.5693506491949982E-01 
    6.4574940391892477E-01 
    6.3145860563436684E-01 
    6.1330377143959336E-01 
    6.0195675399841453E-01 
    5.8983882074429628E-01 
    5.7788038611770554E-01 
    5.6285616506162328E-01 
    5.4973397787334133E-01 
    5.3458948296685671E-01 
    5.1828484086457227E-01 
    4.9748501270940865E-01 
    4.6118327944691279E-01 
    3.7648564840928245E-01 
    2.3677061488252434E-02 
    6.3058339221654547E-01 
    6.2675944032173558E-01 
    6.1808944369780694E-01 
    6.0724723718708318E-01 
    5.8448399504711379E-01 
    5.7123480657501757E-01 
    5.6016249172527355E-01 
    5.4978842964431252E-01 
    5.3537971210051727E-01 
    5.2154356948180169E-01 
    5.0736705494986178E-01 
    4.9155763572552980E-01 
    4.7485052448511694E-01 
    4.3831051939639332E-01 
    2.1546327171380056E-01 
    4.0077763297635194E-04 
    6.0032325853407020E-01 
    5.9807530846968249E-01 
    5.9203716196368139E-01 
    5.8491336011697803E-01 
    5.6743140616796039E-01 
    5.4729667629598033E-01 
    5.3648716319184653E-01 
    5.2592557116425886E-01 
    5.1303734154202874E-01 
    4.9762414156721263E-01 
    4.8282326948938709E-01 
    4.6694011995988199E-01 
    4.4781619768265557E-01 
    3.9299052303013499E-01 
    2.6382289474207482E-02 
    2.4879691248383779E-06 
    5.7151939048366962E-01 
    5.6983961058858890E-01 
    5.6517220720094374E-01 
    5.5887501393224981E-01 
    5.4274914439986333E-01 
    5.2306273771539591E-01 
    5.1104761526118037E-01 
    4.9906478143121069E-01 
    4.8333306099430906E-01 
    4.7022124945453886E-01 
    4.5263015611986079E-01 
    4.3155353327862350E-01 
    3.3862191938776914E-01 
    1.4924711031078924E-01 
    8.1470333466554588E-04 
    1.0000009033150378E-06 
    5.4589146078452977E-01 
    5.4437614833829595E-01 
    5.4045282505970105E-01 
    5.3512900018158271E-01 
    5.1760405319407998E-01 
    5.0193167430656671E-01 
    4.8973602669531480E-01 
    4.7474078979781498E-01 
    4.5621808406061126E-01 
    4.4522541568274410E-01 
    4.1708998480595832E-01 
    3.5351246735941344E-01 
    1.2722687738376875E-01 
    1.2276460195750859E-03 
    1.7205396889971037E-06 
    1.0000000507268649E-06 
    5.2359938762124913E-01 
    5.2252770419707695E-01 
    5.1987613929088927E-01 
    5.1645880175312497E-01 
    5.0430322033552843E-01 
    4.8873677450450298E-01 
    4.7781460391212910E-01 
    4.6630327802706212E-01 
    4.4608194858978706E-01 
    4.2699088001234081E-01 
    4.0005936472538844E-01 
    2.7579711870113260E-01 
    6.7174377762575493E-03 
    3.7302846434155111E-06 
    1.0000012372551171E-06 
    1.0000000000000815E-06 
    5.0148736669821303E-01 
    5.0085801716254319E-01 
    4.9917485337843498E-01 
    4.9735082810281739E-01 
    4.9437215880130808E-01 
    4.8222642675508659E-01 
    4.6886778516800171E-01 
    4.5935851192377142E-01 
    4.4870145362951752E-01 
    4.2423383165775191E-01 
    3.8282763218376703E-01 
    1.3538936938337903E-01 
    1.3803857740059001E-04 
    1.0027096500787351E-06 
    1.0000000000936274E-06 
    9.9999999999999995E-07 
    4.7586652737883867E-01 
    4.7540126319567855E-01 
    4.7400395044978377E-01 
    4.7230500324064845E-01 
    4.7051397729618655E-01 
    4.6784284480546418E-01 
    4.5916528805767948E-01 
    4.4796453512450246E-01 
    4.3761340414810929E-01 
    4.1570573470724165E-01 
    3.2878055020885205E-01 
    2.7951040335263248E-02 
    1.6755717140842913E-05 
    1.0000184596214843E-06 
    1.0000000000006160E-06 
    9.9999999999999995E-07 
    4.3799273102519909E-01 
    4.3708900805000150E-01 
    4.3552751712374083E-01 
    4.3362895031824011E-01 
    4.3121595668758594E-01 
    4.2808705415301535E-01 
    4.2329434266776028E-01 
    4.1253001416198998E-01 
    3.9834319693825498E-01 
    3.5556358284765566E-01 
    1.6020574577830443E-01 
    8.7147094546055333E-04 
    1.0618341190251877E-06 
    1.0000000129014747E-06 
    9.9999999999999995E-07 
    9.9999999999999995E-07 
    2.2792661399896555E-01 
    2.2436883275329600E-01 
    2.1875344143327385E-01 
    2.1079516943675172E-01 
    2.0224528446151324E-01 
    1.9100041505419640E-01 
    1.7946358259796921E-01 
    1.5854689061659552E-01 
    1.2662688082766743E-01 
    6.1251395484995287E-02 
    2.4392987614924744E-03 
    1.9696933401078742E-06 
    1.0000008473979267E-06 
    1.0000000000006723E-06 
    9.9999999999999995E-07 
    9.9999999999999995E-07 
    2.0234917174812108E-05 
    8.3423394120161505E-05 
    2.4001546996591281E-05 
    5.3514141992233092E-05 
    1.6034750370181937E-05 
    3.1231350284713548E-05 
    5.5551208308535288E-05 
    3.1196694593123623E-05 
    2.1456689428345839E-04 
    1.0351781972480146E-04 
    1.3421938137546701E-06 
    1.0000028851645141E-06 
    1.0000000000091145E-06 
    1.0000000000000002E-06 
    9.9999999999999995E-07 
    1.0000002416114630E-06 
