# vtk DataFile Version 2.0
Pressure Field Data 
ASCII 
DATASET UNSTRUCTURED_GRID 

POINTS 289 double 

    0.0000000000000000E+00     0.0000000000000000E+00     0.0000000000000000E+00 
    1.0000000000000000E+00     0.0000000000000000E+00     0.0000000000000000E+00 
    1.0000000000000000E+00     1.0000000000000000E+00     0.0000000000000000E+00 
    0.0000000000000000E+00     1.0000000000000000E+00     0.0000000000000000E+00 
    6.2499999999872928E-02     0.0000000000000000E+00     0.0000000000000000E+00 
    1.2499999999977310E-01     0.0000000000000000E+00     0.0000000000000000E+00 
    1.8749999999959341E-01     0.0000000000000000E+00     0.0000000000000000E+00 
    2.4999999999941089E-01     0.0000000000000000E+00     0.0000000000000000E+00 
    3.1249999999922851E-01     0.0000000000000000E+00     0.0000000000000000E+00 
    3.7499999999904610E-01     0.0000000000000000E+00     0.0000000000000000E+00 
    4.3749999999886358E-01     0.0000000000000000E+00     0.0000000000000000E+00 
    4.9999999999869210E-01     0.0000000000000000E+00     0.0000000000000000E+00 
    5.6249999999884603E-01     0.0000000000000000E+00     0.0000000000000000E+00 
    6.2499999999901090E-01     0.0000000000000000E+00     0.0000000000000000E+00 
    6.8749999999917577E-01     0.0000000000000000E+00     0.0000000000000000E+00 
    7.4999999999934064E-01     0.0000000000000000E+00     0.0000000000000000E+00 
    8.1249999999950551E-01     0.0000000000000000E+00     0.0000000000000000E+00 
    8.7499999999967026E-01     0.0000000000000000E+00     0.0000000000000000E+00 
    9.3749999999983513E-01     0.0000000000000000E+00     0.0000000000000000E+00 
    1.0000000000000000E+00     6.2499999999872928E-02     0.0000000000000000E+00 
    1.0000000000000000E+00     1.2499999999977310E-01     0.0000000000000000E+00 
    1.0000000000000000E+00     1.8749999999959341E-01     0.0000000000000000E+00 
    1.0000000000000000E+00     2.4999999999941089E-01     0.0000000000000000E+00 
    1.0000000000000000E+00     3.1249999999922851E-01     0.0000000000000000E+00 
    1.0000000000000000E+00     3.7499999999904610E-01     0.0000000000000000E+00 
    1.0000000000000000E+00     4.3749999999886358E-01     0.0000000000000000E+00 
    1.0000000000000000E+00     4.9999999999869210E-01     0.0000000000000000E+00 
    1.0000000000000000E+00     5.6249999999884603E-01     0.0000000000000000E+00 
    1.0000000000000000E+00     6.2499999999901090E-01     0.0000000000000000E+00 
    1.0000000000000000E+00     6.8749999999917577E-01     0.0000000000000000E+00 
    1.0000000000000000E+00     7.4999999999934064E-01     0.0000000000000000E+00 
    1.0000000000000000E+00     8.1249999999950551E-01     0.0000000000000000E+00 
    1.0000000000000000E+00     8.7499999999967026E-01     0.0000000000000000E+00 
    1.0000000000000000E+00     9.3749999999983513E-01     0.0000000000000000E+00 
    9.3749999999973976E-01     1.0000000000000000E+00     0.0000000000000000E+00 
    8.7499999999950118E-01     1.0000000000000000E+00     0.0000000000000000E+00 
    8.1249999999991318E-01     1.0000000000000000E+00     0.0000000000000000E+00 
    7.5000000000034706E-01     1.0000000000000000E+00     0.0000000000000000E+00 
    6.8750000000078049E-01     1.0000000000000000E+00     0.0000000000000000E+00 
    6.2500000000121403E-01     1.0000000000000000E+00     0.0000000000000000E+00 
    5.6250000000164757E-01     1.0000000000000000E+00     0.0000000000000000E+00 
    5.0000000000205946E-01     1.0000000000000000E+00     0.0000000000000000E+00 
    4.3750000000182099E-01     1.0000000000000000E+00     0.0000000000000000E+00 
    3.7500000000156092E-01     1.0000000000000000E+00     0.0000000000000000E+00 
    3.1250000000130068E-01     1.0000000000000000E+00     0.0000000000000000E+00 
    2.5000000000104050E-01     1.0000000000000000E+00     0.0000000000000000E+00 
    1.8750000000078040E-01     1.0000000000000000E+00     0.0000000000000000E+00 
    1.2500000000052031E-01     1.0000000000000000E+00     0.0000000000000000E+00 
    6.2500000000260125E-02     1.0000000000000000E+00     0.0000000000000000E+00 
    0.0000000000000000E+00     9.3749999999973976E-01     0.0000000000000000E+00 
    0.0000000000000000E+00     8.7499999999950118E-01     0.0000000000000000E+00 
    0.0000000000000000E+00     8.1249999999991318E-01     0.0000000000000000E+00 
    0.0000000000000000E+00     7.5000000000034706E-01     0.0000000000000000E+00 
    0.0000000000000000E+00     6.8750000000078049E-01     0.0000000000000000E+00 
    0.0000000000000000E+00     6.2500000000121403E-01     0.0000000000000000E+00 
    0.0000000000000000E+00     5.6250000000164757E-01     0.0000000000000000E+00 
    0.0000000000000000E+00     5.0000000000205946E-01     0.0000000000000000E+00 
    0.0000000000000000E+00     4.3750000000182099E-01     0.0000000000000000E+00 
    0.0000000000000000E+00     3.7500000000156092E-01     0.0000000000000000E+00 
    0.0000000000000000E+00     3.1250000000130068E-01     0.0000000000000000E+00 
    0.0000000000000000E+00     2.5000000000104050E-01     0.0000000000000000E+00 
    0.0000000000000000E+00     1.8750000000078040E-01     0.0000000000000000E+00 
    0.0000000000000000E+00     1.2500000000052031E-01     0.0000000000000000E+00 
    0.0000000000000000E+00     6.2500000000260125E-02     0.0000000000000000E+00 
    6.2499999999897131E-02     6.2500000000235922E-02     0.0000000000000000E+00 
    6.2499999999921327E-02     1.2500000000047351E-01     0.0000000000000000E+00 
    6.2499999999945530E-02     1.8750000000070621E-01     0.0000000000000000E+00 
    6.2499999999969733E-02     2.5000000000093858E-01     0.0000000000000000E+00 
    6.2499999999993928E-02     3.1250000000117117E-01     0.0000000000000000E+00 
    6.2500000000018124E-02     3.7500000000140382E-01     0.0000000000000000E+00 
    6.2500000000042327E-02     4.3750000000163619E-01     0.0000000000000000E+00 
    6.2500000000066530E-02     5.0000000000184897E-01     0.0000000000000000E+00 
    6.2500000000090733E-02     5.6250000000147260E-01     0.0000000000000000E+00 
    6.2500000000114922E-02     6.2500000000107636E-01     0.0000000000000000E+00 
    6.2500000000139125E-02     6.8750000000068034E-01     0.0000000000000000E+00 
    6.2500000000163328E-02     7.5000000000028411E-01     0.0000000000000000E+00 
    6.2500000000187531E-02     8.1249999999988787E-01     0.0000000000000000E+00 
    6.2500000000211720E-02     8.7499999999951172E-01     0.0000000000000000E+00 
    6.2500000000235922E-02     9.3749999999974565E-01     0.0000000000000000E+00 
    1.2499999999981980E-01     6.2500000000211733E-02     0.0000000000000000E+00 
    1.2499999999986650E-01     1.2500000000042691E-01     0.0000000000000000E+00 
    1.2499999999991319E-01     1.8750000000063199E-01     0.0000000000000000E+00 
    1.2499999999995989E-01     2.5000000000083678E-01     0.0000000000000000E+00 
    1.2500000000000661E-01     3.1250000000104172E-01     0.0000000000000000E+00 
    1.2500000000005329E-01     3.7500000000124661E-01     0.0000000000000000E+00 
    1.2500000000010000E-01     4.3750000000145117E-01     0.0000000000000000E+00 
    1.2500000000014669E-01     5.0000000000163858E-01     0.0000000000000000E+00 
    1.2500000000019340E-01     5.6250000000129741E-01     0.0000000000000000E+00 
    1.2500000000024011E-01     6.2500000000093847E-01     0.0000000000000000E+00 
    1.2500000000028680E-01     6.8750000000057998E-01     0.0000000000000000E+00 
    1.2500000000033351E-01     7.5000000000022127E-01     0.0000000000000000E+00 
    1.2500000000038020E-01     8.1249999999986211E-01     0.0000000000000000E+00 
    1.2500000000042691E-01     8.7499999999952238E-01     0.0000000000000000E+00 
    1.2500000000047359E-01     9.3749999999975164E-01     0.0000000000000000E+00 
    1.8749999999966760E-01     6.2500000000187531E-02     0.0000000000000000E+00 
    1.8749999999974179E-01     1.2500000000038020E-01     0.0000000000000000E+00 
    1.8749999999981601E-01     1.8750000000055780E-01     0.0000000000000000E+00 
    1.8749999999989009E-01     2.5000000000073502E-01     0.0000000000000000E+00 
    1.8749999999996431E-01     3.1250000000091221E-01     0.0000000000000000E+00 
    1.8750000000003850E-01     3.7500000000108941E-01     0.0000000000000000E+00 
    1.8750000000011269E-01     4.3750000000126649E-01     0.0000000000000000E+00 
    1.8750000000018691E-01     5.0000000000142808E-01     0.0000000000000000E+00 
    1.8750000000026110E-01     5.6250000000112244E-01     0.0000000000000000E+00 
    1.8750000000033529E-01     6.2500000000080080E-01     0.0000000000000000E+00 
    1.8750000000040951E-01     6.8750000000047962E-01     0.0000000000000000E+00 
    1.8750000000048361E-01     7.5000000000015843E-01     0.0000000000000000E+00 
    1.8750000000055780E-01     8.1249999999983680E-01     0.0000000000000000E+00 
    1.8750000000063199E-01     8.7499999999953304E-01     0.0000000000000000E+00 
    1.8750000000070621E-01     9.3749999999975764E-01     0.0000000000000000E+00 
    2.4999999999951281E-01     6.2500000000163314E-02     0.0000000000000000E+00 
    2.4999999999961461E-01     1.2500000000033351E-01     0.0000000000000000E+00 
    2.4999999999971650E-01     1.8750000000048361E-01     0.0000000000000000E+00 
    2.4999999999981831E-01     2.5000000000063310E-01     0.0000000000000000E+00 
    2.4999999999992020E-01     3.1250000000078260E-01     0.0000000000000000E+00 
    2.5000000000002198E-01     3.7500000000093209E-01     0.0000000000000000E+00 
    2.5000000000012390E-01     4.3750000000108180E-01     0.0000000000000000E+00 
    2.5000000000022571E-01     5.0000000000121769E-01     0.0000000000000000E+00 
    2.5000000000032763E-01     5.6250000000094724E-01     0.0000000000000000E+00 
    2.5000000000042938E-01     6.2500000000066314E-01     0.0000000000000000E+00 
    2.5000000000053119E-01     6.8750000000037925E-01     0.0000000000000000E+00 
[...]
CELL_DATA 256 
SCALARS Pressure double 1 
LOOKUP_TABLE default 

    8.2503441628159657E-01 
    8.2315311941043434E-01 
    8.2141582570600036E-01 
    8.1978888084919521E-01 
    8.1827600837012038E-01 
    8.1687610649540932E-01 
    8.1559097322593721E-01 
    8.1442555521726612E-01 
    8.1338689486077465E-01 
    8.1247641442187613E-01 
    8.1169606411382678E-01 
    8.1104720268982911E-01 
    8.1052958951887344E-01 
    8.1014479432432951E-01 
    8.0989510347734772E-01 
    8.0976527532207687E-01 
    7.9827101162794589E-01 
    7.9818149674280636E-01 
    7.9801990171293291E-01 
    7.9780048984090779E-01 
    7.9753791987712008E-01 
    7.9724524730296786E-01 
    7.9693640104506080E-01 
    7.9662348251996895E-01 
    7.9631824419125941E-01 
    7.9603161364517283E-01 
    7.9577290649881527E-01 
    7.9554803370717353E-01 
    7.9536154704030215E-01 
    7.9521765375755749E-01 
    7.9511246928187795E-01 
    7.9504571925020229E-01 
    7.7413220479574463E-01 
    7.7411422622136772E-01 
    7.7407866118452584E-01 
    7.7402710300687383E-01 
    7.7396230119444143E-01 
    7.7388735554819232E-01 
    7.7380358510131186E-01 
    7.7371387304136197E-01 
    7.7362101394710425E-01 
    7.7352727031340218E-01 
    7.7343475491427471E-01 
    7.7334703806489835E-01 
    7.7326740819559103E-01 
    7.7319633247245179E-01 
    7.7312497114440182E-01 
    7.7306355768696611E-01 
    7.4491204144692136E-01 
    7.4491862463915470E-01 
    7.4493086588751867E-01 
    7.4494900148954102E-01 
    7.4497306654550088E-01 
    7.4500200892149582E-01 
    7.4502761348395286E-01 
    7.4504635009963771E-01 
    7.4505404052120316E-01 
    7.4504607829005220E-01 
    7.4501979208264391E-01 
    7.4497853716304296E-01 
    7.4492460114313430E-01 
    7.4484805139097265E-01 
    7.4474305835202403E-01 
    7.4465252286014127E-01 
    7.0754912520720559E-01 
    7.0757901070417106E-01 
    7.0763324933261773E-01 
    7.0770707214142425E-01 
    7.0779449779744819E-01 
    7.0788768292775550E-01 
    7.0797750182806496E-01 
    7.0805649135043025E-01 
    7.0811689557830404E-01 
    7.0815051061883283E-01 
    7.0814606737541652E-01 
    7.0810804904411773E-01 
    7.0803084693130380E-01 
    7.0790061084278655E-01 
    7.0774788163842917E-01 
    7.0763167639190061E-01 
    6.6015445716231547E-01 
    6.6021885012831460E-01 
    6.6032272516386759E-01 
    6.6044198188451286E-01 
    6.6055045751613073E-01 
    6.6061900866266132E-01 
    6.6064528207580131E-01 
    6.6063209185154081E-01 
    6.6058298105222446E-01 
    6.6050232477764637E-01 
    6.6039892219181817E-01 
    6.6026885686324766E-01 
    6.6009227999149245E-01 
    6.5989986162045600E-01 
    6.5978165030455327E-01 
    6.5976315169055466E-01 
    6.1269670122235476E-01 
    6.1263927818769093E-01 
    6.1252466212356582E-01 
    6.1235093823780384E-01 
    6.1211119268263392E-01 
    6.1182565743099149E-01 
    6.1154881948186024E-01 
    6.1128968138432649E-01 
    6.1105594114894679E-01 
    6.1084839877823693E-01 
    6.1067155323900013E-01 
    6.1048600141223353E-01 
    6.1030023391865151E-01 
    6.1017444702154744E-01 
    6.1012263027065028E-01 
    6.1012482073306051E-01 
    5.6196322149796352E-01 
    5.6189113728038875E-01 
    5.6176671251475019E-01 
    5.6161232307977527E-01 
    5.6145264228989022E-01 
    5.6131546404963029E-01 
    5.6122309767560841E-01 
    5.6116484236004205E-01 
    5.6112283560740861E-01 
    5.6106175554822246E-01 
    5.6096286911200111E-01 
    5.6085179822600328E-01 
    5.6077152871717473E-01 
    5.6072835027433088E-01 
    5.6069824215802677E-01 
    5.6065952435679489E-01 
    5.0846473688744476E-01 
    5.0836824536227609E-01 
    5.0821430844829030E-01 
    5.0804253079141171E-01 
    5.0789682975874539E-01 
    5.0779185897015111E-01 
    5.0770998980478677E-01 
    5.0765035881245257E-01 
    5.0762388307770967E-01 
    5.0759818160057857E-01 
    5.0754057573746547E-01 
    5.0748928399711413E-01 
    5.0744158758596003E-01 
    5.0737123075990409E-01 
    5.0725721591172279E-01 
    5.0707940569043053E-01 
    4.3868486055373196E-01 
    4.3866627808077469E-01 
    4.3861604578934438E-01 
    4.3852333872677585E-01 
    4.3837745086167129E-01 
    4.3817144546905173E-01 
    4.3790098088405027E-01 
    4.3759572256987006E-01 
    4.3728629260311158E-01 
    4.3698563773523874E-01 
    4.3670833791681629E-01 
    4.3644310283188587E-01 
    4.3618892228575973E-01 
    4.3595643507346449E-01 
    4.3575519743627072E-01 
    4.3559341658556305E-01 
    3.5050107116862117E-01 
    3.5047116728361977E-01 
    3.5039692506723386E-01 
    3.5026219203880582E-01 
    3.5004727781109607E-01 
    3.4973186303767784E-01 
    3.4940652164303176E-01 
    3.4909326477874175E-01 
    3.4878548010722132E-01 
    3.4848408795693403E-01 
    3.4825368683998609E-01 
    3.4809129153398494E-01 
    3.4799505534011677E-01 
    3.4796485999378213E-01 
    3.4800220054359360E-01 
    3.4810997794387727E-01 
    2.7195000006916720E-01 
    2.7196490036769211E-01 
    2.7198119541635057E-01 
    2.7198177251770278E-01 
    2.7194838126734783E-01 
    2.7186349411608801E-01 
    2.7174574359878317E-01 
    2.7161148899869481E-01 
    2.7147803473122278E-01 
    2.7136370447049207E-01 
    2.7129845747266312E-01 
    2.7127684064041557E-01 
    2.7129508086090076E-01 
    2.7135153456041478E-01 
    2.7144673886498355E-01 
    2.7158328810804039E-01 
    2.0941416290197384E-01 
    2.0941416958855988E-01 
    2.0940764537790726E-01 
    2.0938655666177788E-01 
    2.0934199658457120E-01 
    2.0926486250255294E-01 
    2.0916661739587289E-01 
    2.0905718767271517E-01 
    2.0894696958359998E-01 
    2.0884700549650889E-01 
    2.0877541138535108E-01 
    2.0872963457691340E-01 
    2.0870822641336562E-01 
    2.0871103787558365E-01 
    2.0873923066121303E-01 
    2.0879517603556927E-01 
    1.5369968791617644E-01 
    1.5366476419524233E-01 
    1.5359467952918290E-01 
    1.5348970820077840E-01 
    1.5335075215565205E-01 
    1.5317946761053544E-01 
    1.5298449569267253E-01 
    1.5277417021333237E-01 
    1.5255752065881209E-01 
    1.5234420510082905E-01 
    1.5214704096284776E-01 
    1.5197251886889615E-01 
    1.5182739590198122E-01 
    1.5171836311147577E-01 
    1.5165167936922463E-01 
    1.5163266776560724E-01 
    1.0213393308933408E-01 
    1.0199219107271636E-01 
    1.0171466174142429E-01 
    1.0131023219022529E-01 
    1.0079049100430795E-01 
    1.0016955324407507E-01 
    9.9456035631805717E-02 
    9.8661727214151715E-02 
    9.7802168425726366E-02 
    9.6897332159676441E-02 
    9.5971086232109384E-02 
    9.5060458820806784E-02 
    9.4208599318621827E-02 
    9.3466037768551669E-02 
    9.2892226235968434E-02 
    9.2557404817291883E-02 
    6.2641167627801767E-02 
    6.2182589177464956E-02 
    6.1274807659259627E-02 
    5.9924868210715382E-02 
    5.8136909971333937E-02 
    5.5901877703977906E-02 
    5.3181007758518965E-02 
    4.9931547961552927E-02 
    4.6106268477755244E-02 
    4.1679210460637064E-02 
    3.6613603882571580E-02 
    3.0866000212470081E-02 
    2.4385259470131305E-02 
    1.7111567092753809E-02 
    8.9753678383647922E-03 
    0.0000000000000000E+00 

SCALARS Saturarion double 1 
LOOKUP_TABLE default 

    1.0000000001404892E+00 
    9.7743186541033145E-01 
    9.3853489527970246E-01 
    9.0166976729595349E-01 
    8.6915586808368805E-01 
    8.3600675593537654E-01 
    8.0321880647547450E-01 
    7.7018260916218750E-01 
    7.3691230358477167E-01 
    7.0339307094025616E-01 
    6.6976556037351143E-01 
    6.3360031783296766E-01 
    5.9186628038671552E-01 
    5.4321954176263199E-01 
    4.8067737464928684E-01 
    1.7717680587688373E-01 
    8.9507053409087478E-01 
    8.8365593664360953E-01 
    8.5732567349254007E-01 
    8.2953120977365846E-01 
    8.0193643547856697E-01 
    7.7421075777566839E-01 
    7.4661851818604785E-01 
    7.1913451492717928E-01 
    6.9235434300000476E-01 
    6.6466990592516273E-01 
    6.3470203715176832E-01 
    6.0152003461449710E-01 
    5.6193541969688476E-01 
    5.1684880841482672E-01 
    4.4618602923412787E-01 
    8.3430298925240176E-02 
    7.7302803307664114E-01 
    7.6422278558869605E-01 
    7.4559564014787094E-01 
    7.2489823689812205E-01 
    7.0579313585114423E-01 
    6.8616649318251088E-01 
    6.6657045315104346E-01 
    6.4650439281994887E-01 
    6.2664146922458763E-01 
    6.0376587667577875E-01 
    5.7813496214919491E-01 
    5.4996536833084886E-01 
    5.1412709871384754E-01 
    4.7065921240433140E-01 
    3.2282312452807804E-01 
    8.9096566554616886E-03 
    6.9123480201456244E-01 
    6.8502503882324439E-01 
    6.7085202843333813E-01 
    6.5515555690766791E-01 
    6.3987490699161564E-01 
    6.2408571002850877E-01 
    6.0705804598740087E-01 
    5.8980996405498454E-01 
    5.7255088526937192E-01 
    5.5265502422827628E-01 
    5.3038143868365073E-01 
    5.0592895283362727E-01 
    4.7104396916505514E-01 
    4.0768172585087764E-01 
    8.8909111133957552E-02 
    1.7376788419000677E-04 
    6.3024362052383365E-01 
    6.2567839603067987E-01 
    6.1481543665874616E-01 
    6.0277450913104447E-01 
    5.8835721706656807E-01 
    5.7356791982946842E-01 
    5.5799422076246064E-01 
    5.4276154636558183E-01 
    5.2593224259497329E-01 
    5.0882265004197302E-01 
    4.8965314164741480E-01 
    4.6720076653378378E-01 
    4.2462209933677286E-01 
    2.1377223207946314E-01 
    3.5893008396200698E-03 
    1.6099470681995774E-06 
    5.8437051318086364E-01 
    5.8080448078091529E-01 
    5.7108416456801481E-01 
    5.6032470518658473E-01 
    5.4298843435487298E-01 
    5.3071853328825547E-01 
    5.1809700318356078E-01 
    5.0531468985991479E-01 
    4.8830212040831272E-01 
    4.7460559778331901E-01 
    4.5787459252332086E-01 
    4.3117226785462515E-01 
    3.2731100087906906E-01 
    2.9764335287882290E-02 
    6.8586573817642054E-05 
    1.0001032927562520E-06 
    5.4609452503374489E-01 
    5.4370242288103632E-01 
    5.3752255639494406E-01 
    5.2966867889578761E-01 
    5.1004418433748466E-01 
    4.9756285119240751E-01 
    4.8686745086421696E-01 
    4.7643990592725044E-01 
    4.6259361470784838E-01 
    4.4790808797536441E-01 
    4.2682915498695634E-01 
    3.4004967703691974E-01 
    7.3299875892250385E-02 
    4.6316167171653306E-04 
    1.0027351632480260E-06 
    1.0000000002107125E-06 
    5.1163343368920366E-01 
    5.1024751568717897E-01 
    5.0699674482344748E-01 
    5.0344368647424631E-01 
    4.8907240584813133E-01 
    4.6918399897847773E-01 
    4.5683505938349867E-01 
    4.4508328070202147E-01 
    4.3143874002626015E-01 
    4.0208392365494039E-01 
    2.9167400146184758E-01 
    6.0486286885617628E-02 
    1.9282260648557710E-03 
    1.0882986021375967E-06 
    1.0000000029021521E-06 
    9.9999999999999995E-07 
    4.7410623030818905E-01 
    4.7246108702169837E-01 
    4.6927813697004861E-01 
    4.6543707469063600E-01 
    4.5756447734230993E-01 
    4.3534090513675661E-01 
    4.0016143045232982E-01 
    3.5147480191461244E-01 
    2.3595382601840478E-01 
    1.1339970054864529E-01 
    1.1368069850577520E-02 
    1.6850523281791863E-03 
    3.0319371876081117E-06 
    1.0000001119650539E-06 
    1.0000000000000019E-06 
    9.9999999999999995E-07 
    3.8043502409744445E-01 
    3.7536894378670066E-01 
    3.6550161133218650E-01 
    3.5042484750180974E-01 
    3.3948216344051074E-01 
    2.6564099754013326E-01 
    1.3131600841950308E-01 
    3.2856664138282241E-02 
    4.4507836900811964E-04 
    5.6155164642370447E-04 
    1.2658274392615348E-04 
    3.5225552672088610E-06 
    1.0000233818781842E-06 
    1.0000000000002001E-06 
    9.9999999999999995E-07 
    9.9999999999999995E-07 
    4.9458389397343497E-02 
    4.3209062633341677E-02 
    3.3267029528150582E-02 
    2.3126817240814241E-02 
    1.7585624885116474E-02 
    1.8863386652106745E-03 
    1.8144111501060915E-04 
    2.4210690794640139E-05 
    1.0710742067603061E-06 
    1.0140961520755949E-06 
    1.0019439112248587E-06 
    1.0000052123585766E-06 
    1.0000000000401264E-06 
    9.9999999999999995E-07 
    9.9999999999999995E-07 
    9.9999999999999995E-07 
    7.6737777085077459E-05 
    6.1460599119223780E-05 
    1.3169206985626513E-06 
    1.4082555486288089E-06 
    1.3823987065355445E-06 
    1.0942685878965773E-06 
    1.0124531389058603E-06 
    1.0000698839493307E-06 
    1.0000000243337300E-06 
    1.0000000023619609E-06 
    1.0000000002850702E-06 
    1.0000000000043296E-06 
    9.9999999999999974E-07 
    9.9999999999999995E-07 
    9.9999999999999995E-07 
    9.9999999999999995E-07 
    9.9999991208381291E-07 
    9.9999981252356622E-07 
    1.0000001293251674E-06 
    1.0000001511562534E-06 
    1.0000001396235856E-06 
    1.0000000304161380E-06 
    1.0000000018598728E-06 
    1.0000000000000273E-06 
    1.0000000000000038E-06 
    1.0000000000000014E-06 
    1.0000000000000004E-06 
    9.9999999999999995E-07 
    9.9999999999999995E-07 
    9.9999999999999995E-07 
    9.9999999999999995E-07 
    9.9999999999999995E-07 
    9.9999999999997391E-07 
    9.9999999999995697E-07 
    9.9999999999999974E-07 
    1.0000000000000042E-06 
    1.0000000000000046E-06 
    1.0000000000000023E-06 
    9.9999999999999974E-07 
    9.9999999999999995E-07 
    9.9999999999999995E-07 
    9.9999999999999995E-07 
    9.9999999999999995E-07 
    9.9999999999999995E-07 
    9.9999999999999995E-07 
    9.9999999999999995E-07 
    9.9999999999999995E-07 
    9.9999999999999995E-07 
    9.9999999999999995E-07 
    9.9999999999999995E-07 
    9.9999999999999995E-07 
    9.9999999999999995E-07 
    9.9999999999999995E-07 
    9.9999999999999995E-07 
    9.9999999999999995E-07 
    9.9999999999999995E-07 
    9.9999999999999995E-07 
    9.9999999999999995E-07 
    9.9999999999999995E-07 
    9.9999999999999995E-07 
    9.9999999999999995E-07 
    9.9999999999999995E-07 
    9.9999999999999995E-07 
    9.9999999999999995E-07 
    9.9999999999999995E-07 
    9.9999999999999995E-07 
    9.9999999999999995E-07 
    9.9999999999999995E-07 
    9.9999999999999995E-07 
    9.9999999999999995E-07 
    9.9999999999999995E-07 
    9.9999999999999995E-07 
    9.9999999999999995E-07 
    9.9999999999999995E-07 
    9.9999999999999995E-07 
    9.9999999999999995E-07 
    9.9999999999999995E-07 
    9.9999999999999995E-07 
    9.9999999999999995E-07 
    1.0000001518979275E-06 
