# vtk DataFile Version 2.0
Pressure Field Data 
ASCII 
DATASET UNSTRUCTURED_GRID 

POINTS 289 double 

    0.0000000000000000E+00     0.0000000000000000E+00     0.0000000000000000E+00 
    1.0000000000000000E+00     0.0000000000000000E+00     0.0000000000000000E+00 
    1.0000000000000000E+00     1.0000000000000000E+00     0.0000000000000000E+00 
    0.0000000000000000E+00     1.0000000000000000E+00     0.0000000000000000E+00 
    6.2499999999872928E-02     0.0000000000000000E+00     0.0000000000000000E+00 
    1.2499999999977310E-01     0.0000000000000000E+00     0.0000000000000000E+00 
    1.8749999999959341E-01     0.0000000000000000E+00     0.0000000000000000E+00 
    2.4999999999941089E-01     0.0000000000000000E+00     0.0000000000000000E+00 
    3.1249999999922851E-01     0.0000000000000000E+00     0.0000000000000000E+00 
    3.7499999999904610E-01     0.0000000000000000E+00     0.0000000000000000E+00 
    4.3749999999886358E-01     0.0000000000000000E+00     0.0000000000000000E+00 
    4.9999999999869210E-01     0.0000000000000000E+00     0.0000000000000000E+00 
    5.6249999999884603E-01     0.0000000000000000E+00     0.0000000000000000E+00 
    6.2499999999901090E-01     0.0000000000000000E+00     0.0000000000000000E+00 
    6.8749999999917577E-01     0.0000000000000000E+00     0.0000000000000000E+00 
    7.4999999999934064E-01     0.0000000000000000E+00     0.0000000000000000E+00 
    8.1249999999950551E-01     0.0000000000000000E+00     0.0000000000000000E+00 
    8.7499999999967026E-01     0.0000000000000000E+00     0.0000000000000000E+00 
    9.3749999999983513E-01     0.0000000000000000E+00     0.0000000000000000E+00 
    1.0000000000000000E+00     6.2499999999872928E-02     0.0000000000000000E+00 
    1.0000000000000000E+00     1.2499999999977310E-01     0.0000000000000000E+00 
    1.0000000000000000E+00     1.8749999999959341E-01     0.0000000000000000E+00 
    1.0000000000000000E+00     2.4999999999941089E-01     0.0000000000000000E+00 
    1.0000000000000000E+00     3.1249999999922851E-01     0.0000000000000000E+00 
    1.0000000000000000E+00     3.7499999999904610E-01     0.0000000000000000E+00 
    1.0000000000000000E+00     4.3749999999886358E-01     0.0000000000000000E+00 
    1.0000000000000000E+00     4.9999999999869210E-01     0.0000000000000000E+00 
    1.0000000000000000E+00     5.6249999999884603E-01     0.0000000000000000E+00 
    1.0000000000000000E+00     6.2499999999901090E-01     0.0000000000000000E+00 
    1.0000000000000000E+00     6.8749999999917577E-01     0.0000000000000000E+00 
    1.0000000000000000E+00     7.4999999999934064E-01     0.0000000000000000E+00 
    1.0000000000000000E+00     8.1249999999950551E-01     0.0000000000000000E+00 
    1.0000000000000000E+00     8.7499999999967026E-01     0.0000000000000000E+00 
    1.0000000000000000E+00     9.3749999999983513E-01     0.0000000000000000E+00 
    9.3749999999973976E-01     1.0000000000000000E+00     0.0000000000000000E+00 
    8.7499999999950118E-01     1.0000000000000000E+00     0.0000000000000000E+00 
    8.1249999999991318E-01     1.0000000000000000E+00     0.0000000000000000E+00 
    7.5000000000034706E-01     1.0000000000000000E+00     0.0000000000000000E+00 
    6.8750000000078049E-01     1.0000000000000000E+00     0.0000000000000000E+00 
    6.2500000000121403E-01     1.0000000000000000E+00     0.0000000000000000E+00 
    5.6250000000164757E-01     1.0000000000000000E+00     0.0000000000000000E+00 
    5.0000000000205946E-01     1.0000000000000000E+00     0.0000000000000000E+00 
    4.3750000000182099E-01     1.0000000000000000E+00     0.0000000000000000E+00 
    3.7500000000156092E-01     1.0000000000000000E+00     0.0000000000000000E+00 
    3.1250000000130068E-01     1.0000000000000000E+00     0.0000000000000000E+00 
    2.5000000000104050E-01     1.0000000000000000E+00     0.0000000000000000E+00 
    1.8750000000078040E-01     1.0000000000000000E+00     0.0000000000000000E+00 
    1.2500000000052031E-01     1.0000000000000000E+00     0.0000000000000000E+00 
    6.2500000000260125E-02     1.0000000000000000E+00     0.0000000000000000E+00 
    0.0000000000000000E+00     9.3749999999973976E-01     0.0000000000000000E+00 
    0.0000000000000000E+00     8.7499999999950118E-01     0.0000000000000000E+00 
    0.0000000000000000E+00     8.1249999999991318E-01     0.0000000000000000E+00 
    0.0000000000000000E+00     7.5000000000034706E-01     0.0000000000000000E+00 
    0.0000000000000000E+00     6.8750000000078049E-01     0.0000000000000000E+00 
    0.0000000000000000E+00     6.2500000000121403E-01     0.0000000000000000E+00 
    0.0000000000000000E+00     5.6250000000164757E-01     0.0000000000000000E+00 
    0.0000000000000000E+00     5.0000000000205946E-01     0.0000000000000000E+00 
    0.0000000000000000E+00     4.3750000000182099E-01     0.0000000000000000E+00 
    0.0000000000000000E+00     3.7500000000156092E-01     0.0000000000000000E+00 
    0.0000000000000000E+00     3.1250000000130068E-01     0.0000000000000000E+00 
    0.0000000000000000E+00     2.5000000000104050E-01     0.0000000000000000E+00 
    0.0000000000000000E+00     1.8750000000078040E-01     0.0000000000000000E+00 
    0.0000000000000000E+00     1.2500000000052031E-01     0.0000000000000000E+00 
    0.0000000000000000E+00     6.2500000000260125E-02     0.0000000000000000E+00 
    6.2499999999897131E-02     6.2500000000235922E-02     0.0000000000000000E+00 
    6.2499999999921327E-02     1.2500000000047351E-01     0.0000000000000000E+00 
    6.2499999999945530E-02     1.8750000000070621E-01     0.0000000000000000E+00 
    6.2499999999969733E-02     2.5000000000093858E-01     0.0000000000000000E+00 
    6.2499999999993928E-02     3.1250000000117117E-01     0.0000000000000000E+00 
    6.2500000000018124E-02     3.7500000000140382E-01     0.0000000000000000E+00 
    6.2500000000042327E-02     4.3750000000163619E-01     0.0000000000000000E+00 
    6.2500000000066530E-02     5.0000000000184897E-01     0.0000000000000000E+00 
    6.2500000000090733E-02     5.6250000000147260E-01     0.0000000000000000E+00 
    6.2500000000114922E-02     6.2500000000107636E-01     0.0000000000000000E+00 
    6.2500000000139125E-02     6.8750000000068034E-01     0.0000000000000000E+00 
    6.2500000000163328E-02     7.5000000000028411E-01     0.0000000000000000E+00 
    6.2500000000187531E-02     8.1249999999988787E-01     0.0000000000000000E+00 
    6.2500000000211720E-02     8.7499999999951172E-01     0.0000000000000000E+00 
    6.2500000000235922E-02     9.3749999999974565E-01     0.0000000000000000E+00 
    1.2499999999981980E-01     6.2500000000211733E-02     0.0000000000000000E+00 
    1.2499999999986650E-01     1.2500000000042691E-01     0.0000000000000000E+00 
    1.2499999999991319E-01     1.8750000000063199E-01     0.0000000000000000E+00 
    1.2499999999995989E-01     2.5000000000083678E-01     0.0000000000000000E+00 
    1.2500000000000661E-01     3.1250000000104172E-01     0.0000000000000000E+00 
    1.2500000000005329E-01     3.7500000000124661E-01     0.0000000000000000E+00 
    1.2500000000010000E-01     4.3750000000145117E-01     0.0000000000000000E+00 
    1.2500000000014669E-01     5.0000000000163858E-01     0.0000000000000000E+00 
    1.2500000000019340E-01     5.6250000000129741E-01     0.0000000000000000E+00 
    1.2500000000024011E-01     6.2500000000093847E-01     0.0000000000000000E+00 
    1.2500000000028680E-01     6.8750000000057998E-01     0.0000000000000000E+00 
    1.2500000000033351E-01     7.5000000000022127E-01     0.0000000000000000E+00 
    1.2500000000038020E-01     8.1249999999986211E-01     0.0000000000000000E+00 
    1.2500000000042691E-01     8.7499999999952238E-01     0.0000000000000000E+00 
    1.2500000000047359E-01     9.3749999999975164E-01     0.0000000000000000E+00 
    1.8749999999966760E-01     6.2500000000187531E-02     0.0000000000000000E+00 
    1.8749999999974179E-01     1.2500000000038020E-01     0.0000000000000000E+00 
    1.8749999999981601E-01     1.8750000000055780E-01     0.0000000000000000E+00 
    1.8749999999989009E-01     2.5000000000073502E-01     0.0000000000000000E+00 
    1.8749999999996431E-01     3.1250000000091221E-01     0.0000000000000000E+00 
    1.8750000000003850E-01     3.7500000000108941E-01     0.0000000000000000E+00 
    1.8750000000011269E-01     4.3750000000126649E-01     0.0000000000000000E+00 
    1.8750000000018691E-01     5.0000000000142808E-01     0.0000000000000000E+00 
    1.8750000000026110E-01     5.6250000000112244E-01     0.0000000000000000E+00 
    1.8750000000033529E-01     6.2500000000080080E-01     0.0000000000000000E+00 
    1.8750000000040951E-01     6.8750000000047962E-01     0.0000000000000000E+00 
    1.8750000000048361E-01     7.5000000000015843E-01     0.0000000000000000E+00 
    1.8750000000055780E-01     8.1249999999983680E-01     0.0000000000000000E+00 
    1.8750000000063199E-01     8.7499999999953304E-01     0.0000000000000000E+00 
    1.8750000000070621E-01     9.3749999999975764E-01     0.0000000000000000E+00 
    2.4999999999951281E-01     6.2500000000163314E-02     0.0000000000000000E+00 
    2.4999999999961461E-01     1.2500000000033351E-01     0.0000000000000000E+00 
    2.4999999999971650E-01     1.8750000000048361E-01     0.0000000000000000E+00 
    2.4999999999981831E-01     2.5000000000063310E-01     0.0000000000000000E+00 
    2.4999999999992020E-01     3.1250000000078260E-01     0.0000000000000000E+00 
    2.5000000000002198E-01     3.7500000000093209E-01     0.0000000000000000E+00 
    2.5000000000012390E-01     4.3750000000108180E-01     0.0000000000000000E+00 
    2.5000000000022571E-01     5.0000000000121769E-01     0.0000000000000000E+00 
    2.5000000000032763E-01     5.6250000000094724E-01     0.0000000000000000E+00 
    2.5000000000042938E-01     6.2500000000066314E-01     0.0000000000000000E+00 
    2.5000000000053119E-01     6.8750000000037925E-01     0.0000000000000000E+00 
[...]
CELL_DATA 256 
SCALARS Pressure double 1 
LOOKUP_TABLE default 

    8.3280066291676347E-01 
    8.3091798280389584E-01 
    8.2917777185338248E-01 
    8.2754597198212365E-01 
    8.2602673362865198E-01 
    8.2461898341526885E-01 
    8.2332469117658624E-01 
    8.2214904887152296E-01 
    8.2109935403602008E-01 
    8.2017748144741687E-01 
    8.1938606058771835E-01 
    8.1872665900988184E-01 
    8.1819947102637758E-01 
    8.1780683758434136E-01 
    8.1755038610481712E-01 
    8.1741791539810893E-01 
    8.0582940556289984E-01 
    8.0573913418403509E-01 
    8.0557599869813434E-01 
    8.0535428006410525E-01 
    8.0508870325848847E-01 
    8.0479238285625532E-01 
    8.0447936898793115E-01 
    8.0416196636229365E-01 
    8.0385212583968169E-01 
    8.0356093349031277E-01 
    8.0329793078035405E-01 
    8.0306922838703720E-01 
    8.0287970507656736E-01 
    8.0273378189721090E-01 
    8.0262583669642706E-01 
    8.0255717026804352E-01 
    7.8137512468035319E-01 
    7.8135616949844267E-01 
    7.8131880097002238E-01 
    7.8126483109572964E-01 
    7.8119729064502608E-01 
    7.8111955979686054E-01 
    7.8103324703799692E-01 
    7.8094136115373292E-01 
    7.8084678610865754E-01 
    7.8075183019019545E-01 
    7.8065847111766073E-01 
    7.8057020820033707E-01 
    7.8049012488076042E-01 
    7.8041679212546178E-01 
    7.8034062543239369E-01 
    7.8027666033660026E-01 
    7.5172858823067923E-01 
    7.5173386846057733E-01 
    7.5174383133542844E-01 
    7.5175910453581407E-01 
    7.5178017167808153E-01 
    7.5180638658856436E-01 
    7.5182994676205306E-01 
    7.5184732687138933E-01 
    7.5185434754424163E-01 
    7.5184638685251226E-01 
    7.5182022500066226E-01 
    7.5177862241744153E-01 
    7.5172232274966522E-01 
    7.5163957330790931E-01 
    7.5152828480942691E-01 
    7.5143563150675963E-01 
    7.1384336815240002E-01 
    7.1387164836390371E-01 
    7.1392333085469117E-01 
    7.1399430894327809E-01 
    7.1407930213606408E-01 
    7.1417126232514749E-01 
    7.1426121509303231E-01 
    7.1434187575216568E-01 
    7.1440571616173010E-01 
    7.1444480772250107E-01 
    7.1444701309142100E-01 
    7.1441526313841963E-01 
    7.1433931649635563E-01 
    7.1420555656578266E-01 
    7.1405404368309666E-01 
    7.1393722086774136E-01 
    6.6573835260411651E-01 
    6.6580174940300263E-01 
    6.6590394123328356E-01 
    6.6602124049697520E-01 
    6.6612790887351747E-01 
    6.6619517953634844E-01 
    6.6622100316943778E-01 
    6.6620847081066792E-01 
    6.6616138667567981E-01 
    6.6608425769563651E-01 
    6.6598347223334864E-01 
    6.6584775399330642E-01 
    6.6565584241552522E-01 
    6.6545693870274603E-01 
    6.6533931601248619E-01 
    6.6531762802083017E-01 
    6.1732072872866739E-01 
    6.1726378366991963E-01 
    6.1714992405289382E-01 
    6.1697715109254136E-01 
    6.1673860046041884E-01 
    6.1645390533603728E-01 
    6.1617645535437415E-01 
    6.1591451765676308E-01 
    6.1567308900556494E-01 
    6.1544584647898681E-01 
    6.1523287597477827E-01 
    6.1500116599568189E-01 
    6.1478455639649532E-01 
    6.1465036829886521E-01 
    6.1459515037069201E-01 
    6.1459528581325784E-01 
    5.6562334754012866E-01 
    5.6554871313949362E-01 
    5.6541875352879789E-01 
    5.6525510571326754E-01 
    5.6508159450432338E-01 
    5.6492334796399790E-01 
    5.6479545216426519E-01 
    5.6467889799138216E-01 
    5.6455964551450044E-01 
    5.6441939096921712E-01 
    5.6425135523227865E-01 
    5.6409295047316299E-01 
    5.6398811003052163E-01 
    5.6392886518094021E-01 
    5.6388844754799905E-01 
    5.6384912671781684E-01 
    5.1112238376195795E-01 
    5.1099896426952041E-01 
    5.1079185609493272E-01 
    5.1054240140908369E-01 
    5.1029662620865757E-01 
    5.1007614682355651E-01 
    5.0988051436683524E-01 
    5.0972111895574412E-01 
    5.0961070319889301E-01 
    5.0952347064610570E-01 
    5.0943481687043846E-01 
    5.0936987186447136E-01 
    5.0931010726650439E-01 
    5.0922997525707592E-01 
    5.0911246877298322E-01 
    5.0893798255593159E-01 
    4.3905552189091135E-01 
    4.3903662125153331E-01 
    4.3898585567377324E-01 
    4.3889268022049449E-01 
    4.3874785975810804E-01 
    4.3855296396325166E-01 
    4.3831955097499326E-01 
    4.3808384176629583E-01 
    4.3786795085079239E-01 
    4.3765635343129222E-01 
    4.3744170975721514E-01 
    4.3722004270636511E-01 
    4.3699947503890135E-01 
    4.3679163975232116E-01 
    4.3660622456917636E-01 
    4.3645128651886761E-01 
    3.5000615208376473E-01 
    3.5001294709917552E-01 
    3.5001156163710762E-01 
    3.4998326053400142E-01 
    3.4990436515411838E-01 
    3.4974270766918036E-01 
    3.4955655406099567E-01 
    3.4934238501185111E-01 
    3.4910387126330938E-01 
    3.4885940152562095E-01 
    3.4867760891761318E-01 
    3.4855535316203307E-01 
    3.4849067743078505E-01 
    3.4848326964043119E-01 
    3.4853438199173936E-01 
    3.4864663804680263E-01 
    2.7263827329238638E-01 
    2.7264663417317409E-01 
    2.7265215420143823E-01 
    2.7264089448508588E-01 
    2.7259730438588847E-01 
    2.7250541838110826E-01 
    2.7238457595473564E-01 
    2.7225041912924347E-01 
    2.7211928553935399E-01 
    2.7200883486648247E-01 
    2.7194810636482303E-01 
    2.7193093973469157E-01 
    2.7195293442462604E-01 
    2.7201189647114826E-01 
    2.7210789122800733E-01 
    2.7224312308363596E-01 
    2.1008564454994161E-01 
    2.1008403905389875E-01 
    2.1007475433278594E-01 
    2.1005027120247707E-01 
    2.1000221036635450E-01 
    2.0992197732514317E-01 
    2.0982143104146861E-01 
    2.0971046751774361E-01 
    2.0959941136775342E-01 
    2.0949919948433227E-01 
    2.0942757511031551E-01 
    2.0938180764954281E-01 
    2.0936026074307554E-01 
    2.0936259370614330E-01 
    2.0938977916602991E-01 
    2.0944400813094574E-01 
    1.5417249994211280E-01 
    1.5413716639531042E-01 
    1.5406637995015643E-01 
    1.5396054605018344E-01 
    1.5382070540965903E-01 
    1.5364865465058644E-01 
    1.5345310007372379E-01 
    1.5324235706306233E-01 
    1.5302543009126676E-01 
    1.5281194269876724E-01 
    1.5261458696742108E-01 
    1.5243982889395302E-01 
    1.5229439236974052E-01 
    1.5218492829267113E-01 
    1.5211764975289971E-01 
    1.5209783002038857E-01 
    1.0232372846206864E-01 
    1.0218267537179600E-01 
    1.0190632688020307E-01 
    1.0150336581636950E-01 
    1.0098517897807979E-01 
    1.0036569187272962E-01 
    9.9653355244400166E-02 
    9.8859967541182855E-02 
    9.8001081685379646E-02 
    9.7096685170686953E-02 
    9.6170752882926258E-02 
    9.5260370237763667E-02 
    9.4408749286458760E-02 
    9.3666486348285130E-02 
    9.3093101354995142E-02 
    9.2758901622757142E-02 
    6.2623849229562656E-02 
    6.2166810872847998E-02 
    6.1261465097197459E-02 
    5.9914186829095349E-02 
    5.8128435109404276E-02 
    5.5895019304942867E-02 
    5.3175320611631854E-02 
    4.9926742616417344E-02 
    4.6102225683494077E-02 
    4.1675713281990351E-02 
    3.6610548646005582E-02 
    3.0863413145840585E-02 
    2.4383313717303120E-02 
    1.7110597907544978E-02 
    8.9758850353704629E-03 
    0.0000000000000000E+00 

SCALARS Saturarion double 1 
LOOKUP_TABLE default 

    1.0000000001591860E+00 
    9.7670482826297755E-01 
    9.3660293662919170E-01 
    8.9907604271199859E-01 
    8.6593994356666804E-01 
    8.3212915153053257E-01 
    7.9884735703797116E-01 
    7.6534419225741879E-01 
    7.3175128200725359E-01 
    6.9811496209827251E-01 
    6.6451582363559980E-01 
    6.2795818777541212E-01 
    5.8607410425737327E-01 
    5.3725774925283154E-01 
    4.7354812417285880E-01 
    1.5505060794551906E-01 
    8.9284547129544289E-01 
    8.8112749672907664E-01 
    8.5427894111678992E-01 
    8.2596234428627380E-01 
    7.9780485327570161E-01 
    7.6967233479617214E-01 
    7.4177509761022264E-01 
    7.1408478597655989E-01 
    6.8720089039183507E-01 
    6.5935098041407048E-01 
    6.2911004958508288E-01 
    5.9568628383329858E-01 
    5.5603920476306457E-01 
    5.1085981493499810E-01 
    4.3362369715290378E-01 
    6.6405837149268288E-02 
    7.6936234681884219E-01 
    7.6044351781451691E-01 
    7.4152387086846072E-01 
    7.2056571447268103E-01 
    7.0113047674824180E-01 
    6.8139623383183234E-01 
    6.6169838589764685E-01 
    6.4148157856871213E-01 
    6.2137021933210768E-01 
    5.9817894301193730E-01 
    5.7239564685096134E-01 
    5.4403020054007534E-01 
    5.0818334639740581E-01 
    4.6295229492201945E-01 
    2.8395707865972425E-01 
    4.5399975668205146E-03 
    6.8639955763277472E-01 
    6.8022943279770498E-01 
    6.6612259002170049E-01 
    6.5052308156565064E-01 
    6.3511992109898918E-01 
    6.1914269128929500E-01 
    6.0191281793870188E-01 
    5.8455286616011237E-01 
    5.6710113318144095E-01 
    5.4702505342286079E-01 
    5.2460333596235398E-01 
    4.9995791199506096E-01 
    4.6379880939273915E-01 
    3.8537528961124828E-01 
    5.8957643326464942E-02 
    9.1473687371315557E-05 
    6.2473624108217496E-01 
    6.2026276896428034E-01 
    6.0943857152970027E-01 
    5.9755742969380155E-01 
    5.8314088210815884E-01 
    5.6822867222104023E-01 
    5.5263375412204130E-01 
    5.3734427150779862E-01 
    5.2029752654600225E-01 
    5.0318896557199622E-01 
    4.8392937125317098E-01 
    4.6078419896262057E-01 
    4.1225396641864431E-01 
    1.5519035061909958E-01 
    1.2836346005687489E-03 
    1.0627954624797862E-06 
    5.7830786940089973E-01 
    5.7485814273152636E-01 
    5.6530512945031453E-01 
    5.5465795056420297E-01 
    5.3743059211806876E-01 
    5.2518183895555648E-01 
    5.1267355166218265E-01 
    4.9997513025627616E-01 
    4.8329070315150202E-01 
    4.6971879139425088E-01 
    4.5214573149091214E-01 
    4.1989259616042351E-01 
    2.6859532164052374E-01 
    1.1727500729928746E-02 
    2.5727751842693544E-05 
    1.0000329192513096E-06 
    5.3961832836870949E-01 
    5.3734251306157621E-01 
    5.3165858957985290E-01 
    5.2420079745165471E-01 
    5.0496780619810933E-01 
    4.9235409484018061E-01 
    4.8177702509962761E-01 
    4.7106457782827876E-01 
    4.5702720584359030E-01 
    4.4130898468458579E-01 
    4.1463066787300479E-01 
    2.8075947810669083E-01 
    3.2555312390203692E-02 
    1.1901965792495193E-04 
    1.0002807549063128E-06 
    1.0000000000294795E-06 
    5.0493501320796619E-01 
    5.0347113067278038E-01 
    5.0022302835813881E-01 
    4.9690382929236543E-01 
    4.8291514343076769E-01 
    4.6157660097331382E-01 
    4.4818797396027743E-01 
    4.3435829793893749E-01 
    4.1457630120748790E-01 
    3.6700211184635156E-01 
    2.0641231212054467E-01 
    2.1557475380967910E-02 
    5.6137495318410858E-04 
    1.0030489566167187E-06 
    1.0000000001137713E-06 
    9.9999999999999995E-07 
    4.6314150833319068E-01 
    4.6114771873376553E-01 
    4.5714030587018528E-01 
    4.5216771912678122E-01 
    4.4523531333335598E-01 
    4.2004832137850173E-01 
    3.5683424142239595E-01 
    2.6940713530657273E-01 
    1.5379238957609889E-01 
    5.1414208385152524E-02 
    1.4157492214297933E-03 
    3.0771748076443667E-04 
    1.4233082658635122E-06 
    1.0000000010396819E-06 
    9.9999999999999974E-07 
    9.9999999999999995E-07 
    3.0430334315979496E-01 
    2.9527277431392784E-01 
    2.7914754567598232E-01 
    2.5706010286880271E-01 
    2.3781111303481717E-01 
    1.4520084564344163E-01 
    4.2518248423035337E-02 
    3.2327109450300089E-03 
    1.0686561985730606E-04 
    8.3527411785211657E-05 
    2.1606999269819588E-06 
    1.0414352660870734E-06 
    1.0000009647930380E-06 
    1.0000000000000023E-06 
    9.9999999999999995E-07 
    9.9999999999999995E-07 
    4.6668920669581705E-03 
    3.3053579786395128E-03 
    1.5697245430098426E-03 
    4.3281725282551985E-04 
    2.6626109321519143E-04 
    1.9595206509989951E-04 
    4.4757343623961410E-05 
    1.3495017083436932E-06 
    1.0063548981678484E-06 
    1.0010491758141340E-06 
    1.0000009957767884E-06 
    1.0000000567886490E-06 
    1.0000000000007610E-06 
    9.9999999999999995E-07 
    9.9999999999999995E-07 
    9.9999999999999995E-07 
    1.0001498642370227E-06 
    1.0002361597383232E-06 
    1.0012196796895197E-06 
    1.0240163096841327E-06 
    1.0208825887600479E-06 
    1.0162617994618891E-06 
    1.0002095223197450E-06 
    1.0000001576468536E-06 
    1.0000000005694382E-06 
    1.0000000000276524E-06 
    1.0000000000001323E-06 
    1.0000000000000290E-06 
    9.9999999999999995E-07 
    9.9999999999999995E-07 
    9.9999999999999995E-07 
    9.9999999999999995E-07 
    9.9999999997002579E-07 
    1.0000000000555194E-06 
    1.0000000000490163E-06 
    1.0000000042276032E-06 
    1.0000000034499645E-06 
    1.0000000011969022E-06 
    1.0000000000000042E-06 
    1.0000000000000268E-06 
    9.9999999999999995E-07 
    9.9999999999999995E-07 
    9.9999999999999995E-07 
    9.9999999999999995E-07 
    9.9999999999999995E-07 
    9.9999999999999995E-07 
    9.9999999999999995E-07 
    9.9999999999999995E-07 
    9.9999999999999995E-07 
    9.9999999999999995E-07 
    1.0000000000000002E-06 
    1.0000000000000006E-06 
    1.0000000000000006E-06 
    9.9999999999999911E-07 
    9.9999999999999995E-07 
    9.9999999999999995E-07 
    9.9999999999999995E-07 
    9.9999999999999995E-07 
    9.9999999999999995E-07 
    9.9999999999999995E-07 
    9.9999999999999995E-07 
    9.9999999999999995E-07 
    9.9999999999999995E-07 
    9.9999999999999995E-07 
    9.9999999999999995E-07 
    9.9999999999999995E-07 
    9.9999999999999995E-07 
    9.9999999999999995E-07 
    9.9999999999999995E-07 
    9.9999999999999995E-07 
    9.9999999999999995E-07 
    9.9999999999999995E-07 
    9.9999999999999995E-07 
    9.9999999999999995E-07 
    9.9999999999999995E-07 
    9.9999999999999995E-07 
    9.9999999999999995E-07 
    9.9999999999999995E-07 
    9.9999999999999995E-07 
    9.9999999999999995E-07 
    9.9999999999999995E-07 
    9.9999999999999995E-07 
    9.9999999999999995E-07 
    9.9999999999999995E-07 
    9.9999999999999995E-07 
    9.9999999999999995E-07 
    9.9999999999999995E-07 
    9.9999999999999995E-07 
    9.9999999999999995E-07 
    9.9999999999999995E-07 
    9.9999999999999995E-07 
    9.9999999999999995E-07 
    9.9999999999999995E-07 
    9.9999999999999995E-07 
    9.9999999999999995E-07 
    1.0000001469318350E-06 
