# vtk DataFile Version 2.0
Pressure Field Data 
ASCII 
DATASET UNSTRUCTURED_GRID 

POINTS 289 double 

    0.0000000000000000E+00     0.0000000000000000E+00     0.0000000000000000E+00 
    1.0000000000000000E+00     0.0000000000000000E+00     0.0000000000000000E+00 
    1.0000000000000000E+00     1.0000000000000000E+00     0.0000000000000000E+00 
    0.0000000000000000E+00     1.0000000000000000E+00     0.0000000000000000E+00 
    6.2499999999872928E-02     0.0000000000000000E+00     0.0000000000000000E+00 
    1.2499999999977310E-01     0.0000000000000000E+00     0.0000000000000000E+00 
    1.8749999999959341E-01     0.0000000000000000E+00     0.0000000000000000E+00 
    2.4999999999941089E-01     0.0000000000000000E+00     0.0000000000000000E+00 
    3.1249999999922851E-01     0.0000000000000000E+00     0.0000000000000000E+00 
    3.7499999999904610E-01     0.0000000000000000E+00     0.0000000000000000E+00 
    4.3749999999886358E-01     0.0000000000000000E+00     0.0000000000000000E+00 
    4.9999999999869210E-01     0.0000000000000000E+00     0.0000000000000000E+00 
    5.6249999999884603E-01     0.0000000000000000E+00     0.0000000000000000E+00 
    6.2499999999901090E-01     0.0000000000000000E+00     0.0000000000000000E+00 
    6.8749999999917577E-01     0.0000000000000000E+00     0.0000000000000000E+00 
    7.4999999999934064E-01     0.0000000000000000E+00     0.0000000000000000E+00 
    8.1249999999950551E-01     0.0000000000000000E+00     0.0000000000000000E+00 
    8.7499999999967026E-01     0.0000000000000000E+00     0.0000000000000000E+00 
    9.3749999999983513E-01     0.0000000000000000E+00     0.0000000000000000E+00 
    1.0000000000000000E+00     6.2499999999872928E-02     0.0000000000000000E+00 
    1.0000000000000000E+00     1.2499999999977310E-01     0.0000000000000000E+00 
    1.0000000000000000E+00     1.8749999999959341E-01     0.0000000000000000E+00 
    1.0000000000000000E+00     2.4999999999941089E-01     0.0000000000000000E+00 
    1.0000000000000000E+00     3.1249999999922851E-01     0.0000000000000000E+00 
    1.0000000000000000E+00     3.7499999999904610E-01     0.0000000000000000E+00 
    1.0000000000000000E+00     4.3749999999886358E-01     0.0000000000000000E+00 
    1.0000000000000000E+00     4.9999999999869210E-01     0.0000000000000000E+00 
    1.0000000000000000E+00     5.6249999999884603E-01     0.0000000000000000E+00 
    1.0000000000000000E+00     6.2499999999901090E-01     0.0000000000000000E+00 
    1.0000000000000000E+00     6.8749999999917577E-01     0.0000000000000000E+00 
    1.0000000000000000E+00     7.4999999999934064E-01     0.0000000000000000E+00 
    1.0000000000000000E+00     8.1249999999950551E-01     0.0000000000000000E+00 
    1.0000000000000000E+00     8.7499999999967026E-01     0.0000000000000000E+00 
    1.0000000000000000E+00     9.3749999999983513E-01     0.0000000000000000E+00 
    9.3749999999973976E-01     1.0000000000000000E+00     0.0000000000000000E+00 
    8.7499999999950118E-01     1.0000000000000000E+00     0.0000000000000000E+00 
    8.1249999999991318E-01     1.0000000000000000E+00     0.0000000000000000E+00 
    7.5000000000034706E-01     1.0000000000000000E+00     0.0000000000000000E+00 
    6.8750000000078049E-01     1.0000000000000000E+00     0.0000000000000000E+00 
    6.2500000000121403E-01     1.0000000000000000E+00     0.0000000000000000E+00 
    5.6250000000164757E-01     1.0000000000000000E+00     0.0000000000000000E+00 
    5.0000000000205946E-01     1.0000000000000000E+00     0.0000000000000000E+00 
    4.3750000000182099E-01     1.0000000000000000E+00     0.0000000000000000E+00 
    3.7500000000156092E-01     1.0000000000000000E+00     0.0000000000000000E+00 
    3.1250000000130068E-01     1.0000000000000000E+00     0.0000000000000000E+00 
    2.5000000000104050E-01     1.0000000000000000E+00     0.0000000000000000E+00 
    1.8750000000078040E-01     1.0000000000000000E+00     0.0000000000000000E+00 
    1.2500000000052031E-01     1.0000000000000000E+00     0.0000000000000000E+00 
    6.2500000000260125E-02     1.0000000000000000E+00     0.0000000000000000E+00 
    0.0000000000000000E+00     9.3749999999973976E-01     0.0000000000000000E+00 
    0.0000000000000000E+00     8.7499999999950118E-01     0.0000000000000000E+00 
    0.0000000000000000E+00     8.1249999999991318E-01     0.0000000000000000E+00 
    0.0000000000000000E+00     7.5000000000034706E-01     0.0000000000000000E+00 
    0.0000000000000000E+00     6.8750000000078049E-01     0.0000000000000000E+00 
    0.0000000000000000E+00     6.2500000000121403E-01     0.0000000000000000E+00 
    0.0000000000000000E+00     5.6250000000164757E-01     0.0000000000000000E+00 
    0.0000000000000000E+00     5.0000000000205946E-01     0.0000000000000000E+00 
    0.0000000000000000E+00     4.3750000000182099E-01     0.0000000000000000E+00 
    0.0000000000000000E+00     3.7500000000156092E-01     0.0000000000000000E+00 
    0.0000000000000000E+00     3.1250000000130068E-01     0.0000000000000000E+00 
    0.0000000000000000E+00     2.5000000000104050E-01     0.0000000000000000E+00 
    0.0000000000000000E+00     1.8750000000078040E-01     0.0000000000000000E+00 
    0.0000000000000000E+00     1.2500000000052031E-01     0.0000000000000000E+00 
    0.0000000000000000E+00     6.2500000000260125E-02     0.0000000000000000E+00 
    6.2499999999897131E-02     6.2500000000235922E-02     0.0000000000000000E+00 
    6.2499999999921327E-02     1.2500000000047351E-01     0.0000000000000000E+00 
    6.2499999999945530E-02     1.8750000000070621E-01     0.0000000000000000E+00 
    6.2499999999969733E-02     2.5000000000093858E-01     0.0000000000000000E+00 
    6.2499999999993928E-02     3.1250000000117117E-01     0.0000000000000000E+00 
    6.2500000000018124E-02     3.7500000000140382E-01     0.0000000000000000E+00 
    6.2500000000042327E-02     4.3750000000163619E-01     0.0000000000000000E+00 
    6.2500000000066530E-02     5.0000000000184897E-01     0.0000000000000000E+00 
    6.2500000000090733E-02     5.6250000000147260E-01     0.0000000000000000E+00 
    6.2500000000114922E-02     6.2500000000107636E-01     0.0000000000000000E+00 
    6.2500000000139125E-02     6.8750000000068034E-01     0.0000000000000000E+00 
    6.2500000000163328E-02     7.5000000000028411E-01     0.0000000000000000E+00 
    6.2500000000187531E-02     8.1249999999988787E-01     0.0000000000000000E+00 
    6.2500000000211720E-02     8.7499999999951172E-01     0.0000000000000000E+00 
    6.2500000000235922E-02     9.3749999999974565E-01     0.0000000000000000E+00 
    1.2499999999981980E-01     6.2500000000211733E-02     0.0000000000000000E+00 
    1.2499999999986650E-01     1.2500000000042691E-01     0.0000000000000000E+00 
    1.2499999999991319E-01     1.8750000000063199E-01     0.0000000000000000E+00 
    1.2499999999995989E-01     2.5000000000083678E-01     0.0000000000000000E+00 
    1.2500000000000661E-01     3.1250000000104172E-01     0.0000000000000000E+00 
    1.2500000000005329E-01     3.7500000000124661E-01     0.0000000000000000E+00 
    1.2500000000010000E-01     4.3750000000145117E-01     0.0000000000000000E+00 
    1.2500000000014669E-01     5.0000000000163858E-01     0.0000000000000000E+00 
    1.2500000000019340E-01     5.6250000000129741E-01     0.0000000000000000E+00 
    1.2500000000024011E-01     6.2500000000093847E-01     0.0000000000000000E+00 
    1.2500000000028680E-01     6.8750000000057998E-01     0.0000000000000000E+00 
    1.2500000000033351E-01     7.5000000000022127E-01     0.0000000000000000E+00 
    1.2500000000038020E-01     8.1249999999986211E-01     0.0000000000000000E+00 
    1.2500000000042691E-01     8.7499999999952238E-01     0.0000000000000000E+00 
    1.2500000000047359E-01     9.3749999999975164E-01     0.0000000000000000E+00 
    1.8749999999966760E-01     6.2500000000187531E-02     0.0000000000000000E+00 
    1.8749999999974179E-01     1.2500000000038020E-01     0.0000000000000000E+00 
    1.8749999999981601E-01     1.8750000000055780E-01     0.0000000000000000E+00 
    1.8749999999989009E-01     2.5000000000073502E-01     0.0000000000000000E+00 
    1.8749999999996431E-01     3.1250000000091221E-01     0.0000000000000000E+00 
    1.8750000000003850E-01     3.7500000000108941E-01     0.0000000000000000E+00 
    1.8750000000011269E-01     4.3750000000126649E-01     0.0000000000000000E+00 
    1.8750000000018691E-01     5.0000000000142808E-01     0.0000000000000000E+00 
    1.8750000000026110E-01     5.6250000000112244E-01     0.0000000000000000E+00 
    1.8750000000033529E-01     6.2500000000080080E-01     0.0000000000000000E+00 
    1.8750000000040951E-01     6.8750000000047962E-01     0.0000000000000000E+00 
    1.8750000000048361E-01     7.5000000000015843E-01     0.0000000000000000E+00 
    1.8750000000055780E-01     8.1249999999983680E-01     0.0000000000000000E+00 
    1.8750000000063199E-01     8.7499999999953304E-01     0.0000000000000000E+00 
    1.8750000000070621E-01     9.3749999999975764E-01     0.0000000000000000E+00 
    2.4999999999951281E-01     6.2500000000163314E-02     0.0000000000000000E+00 
    2.4999999999961461E-01     1.2500000000033351E-01     0.0000000000000000E+00 
    2.4999999999971650E-01     1.8750000000048361E-01     0.0000000000000000E+00 
    2.4999999999981831E-01     2.5000000000063310E-01     0.0000000000000000E+00 
    2.4999999999992020E-01     3.1250000000078260E-01     0.0000000000000000E+00 
    2.5000000000002198E-01     3.7500000000093209E-01     0.0000000000000000E+00 
    2.5000000000012390E-01     4.3750000000108180E-01     0.0000000000000000E+00 
    2.5000000000022571E-01     5.0000000000121769E-01     0.0000000000000000E+00 
    2.5000000000032763E-01     5.6250000000094724E-01     0.0000000000000000E+00 
    2.5000000000042938E-01     6.2500000000066314E-01     0.0000000000000000E+00 
    2.5000000000053119E-01     6.8750000000037925E-01     0.0000000000000000E+00 
[...]
CELL_DATA 256 
SCALARS Pressure double 1 
LOOKUP_TABLE default 

    9.7364490513327628E-01 
    9.7164097044203512E-01 
    9.6964825667464549E-01 
    9.6762458720024058E-01 
    9.6561506349565440E-01 
    9.6367686260498764E-01 
    9.6184868876186724E-01 
    9.6014519484077854E-01 
    9.5858612774939966E-01 
    9.5716159472703932E-01 
    9.5583598806441028E-01 
    9.5450027819691818E-01 
    9.5334327653529471E-01 
    9.5253633581413211E-01 
    9.5200646071427841E-01 
    9.5175255792639246E-01 
    9.3479682037050615E-01 
    9.3462672300883698E-01 
    9.3430297820235297E-01 
    9.3384783892300416E-01 
    9.3329343889438510E-01 
    9.3266734434977905E-01 
    9.3198975168745790E-01 
    9.3126364520703098E-01 
    9.3048673950785932E-01 
    9.2966763104760075E-01 
    9.2881243102435729E-01 
    9.2798595023475638E-01 
    9.2732356921125703E-01 
    9.2684369439672709E-01 
    9.2652334755290733E-01 
    9.2636351597561595E-01 
    8.9275994117744850E-01 
    8.9262901293395480E-01 
    8.9236666724443703E-01 
    8.9197708142951859E-01 
    8.9147020863272530E-01 
    8.9085831982029839E-01 
    8.9015630664966661E-01 
    8.8937133173548455E-01 
    8.8851508800950563E-01 
    8.8765879294504013E-01 
    8.8687691842990679E-01 
    8.8622937501637900E-01 
    8.8573143497269236E-01 
    8.8536161248218570E-01 
    8.8511631597846030E-01 
    8.8499599369579118E-01 
    8.3636160968205719E-01 
    8.3624823222925238E-01 
    8.3602138981181096E-01 
    8.3568719393263402E-01 
    8.3526211078838652E-01 
    8.3477563536571886E-01 
    8.3425564842050026E-01 
    8.3373784471670509E-01 
    8.3326128950319567E-01 
    8.3285778845377201E-01 
    8.3251861546472883E-01 
    8.3222790406564540E-01 
    8.3198428279459646E-01 
    8.3179171848178768E-01 
    8.3165360993080606E-01 
    8.3157254060495922E-01 
    7.6911524915200824E-01 
    7.6913043069757736E-01 
    7.6916563808458627E-01 
    7.6923248416973844E-01 
    7.6934013475255081E-01 
    7.6948801109916876E-01 
    7.6965593221240558E-01 
    7.6981855649838704E-01 
    7.6995655879362046E-01 
    7.7006049950192479E-01 
    7.7011699909161380E-01 
    7.7013471840506154E-01 
    7.7012138759970561E-01 
    7.7008371126331754E-01 
    7.7002728796140774E-01 
    7.6995657398714212E-01 
    7.0055476657587945E-01 
    7.0065503563917275E-01 
    7.0081959598423882E-01 
    7.0101262382593632E-01 
    7.0119814122315494E-01 
    7.0134152251787518E-01 
    7.0144177912965944E-01 
    7.0150068442976421E-01 
    7.0152088370184407E-01 
    7.0150707590732686E-01 
    7.0146953886456986E-01 
    7.0141934212649948E-01 
    7.0136724974623121E-01 
    7.0132420771533743E-01 
    7.0130144068535927E-01 
    7.0131051156569357E-01 
    6.3521756605103641E-01 
    6.3517255642467718E-01 
    6.3508132905854164E-01 
    6.3493858744302534E-01 
    6.3473549982733535E-01 
    6.3449455327902804E-01 
    6.3426921332596886E-01 
    6.3406423215521845E-01 
    6.3388315936801387E-01 
    6.3373021850513056E-01 
    6.3363011380590784E-01 
    6.3357353262122729E-01 
    6.3355229842340832E-01 
    6.3355906296272202E-01 
    6.3358713793218424E-01 
    6.3363031404430359E-01 
    5.7035101150186662E-01 
    5.7028286763007319E-01 
    5.7016867918851866E-01 
    5.7003208264221694E-01 
    5.6989752907799218E-01 
    5.6978971704352721E-01 
    5.6973243279636543E-01 
    5.6972661346130660E-01 
    5.6977220637277526E-01 
    5.6984913436727669E-01 
    5.6993627495964161E-01 
    5.7002659665179589E-01 
    5.7011249883701687E-01 
    5.7018520493753544E-01 
    5.7023486865402517E-01 
    5.7025081129324029E-01 
    5.0676792257092196E-01 
    5.0669984383174294E-01 
    5.0660932869205033E-01 
    5.0654499576204437E-01 
    5.0655828716554385E-01 
    5.0666660401169028E-01 
    5.0685347458044716E-01 
    5.0710533891803589E-01 
    5.0740948809167929E-01 
    5.0771741106972212E-01 
    5.0797137225854572E-01 
    5.0817004027993451E-01 
    5.0830838207493512E-01 
    5.0837712742699670E-01 
    5.0836243915203805E-01 
    5.0824574971558811E-01 
    4.3425588428302608E-01 
    4.3430348054375673E-01 
    4.3438903695846826E-01 
    4.3450417046237061E-01 
    4.3464048605993716E-01 
    4.3479183958297324E-01 
    4.3493314346526574E-01 
    4.3504475801993520E-01 
    4.3510679379500566E-01 
    4.3510040456440585E-01 
    4.3504210235258800E-01 
    4.3494829853468864E-01 
    4.3483212544520244E-01 
    4.3470438643743053E-01 
    4.3457390365700871E-01 
    4.3444796023282006E-01 
    3.5014297198486150E-01 
    3.5013947902970455E-01 
    3.5011635654303902E-01 
    3.5005142234643560E-01 
    3.4991721196043046E-01 
    3.4968174483930786E-01 
    3.4940884837852948E-01 
    3.4911617498733621E-01 
    3.4881973745272349E-01 
    3.4853511416740462E-01 
    3.4832367225119892E-01 
    3.4817963352681908E-01 
    3.4809882221081084E-01 
    3.4807903532699114E-01 
    3.4811995988578287E-01 
    3.4822298097177190E-01 
    2.7290097519325657E-01 
    2.7290468202497875E-01 
    2.7290255822661669E-01 
    2.7288253882174601E-01 
    2.7283108620048713E-01 
    2.7273441025944573E-01 
    2.7261190750368636E-01 
    2.7247864687966300E-01 
    2.7235023654287327E-01 
    2.7224330851530226E-01 
    2.7218460081596091E-01 
    2.7216810591075519E-01 
    2.7218942220427600E-01 
    2.7224620951269651E-01 
    2.7233826662660715E-01 
    2.7246743778009935E-01 
    2.1031065492655707E-01 
    2.1030772944748036E-01 
    2.1029662196829071E-01 
    2.1027074425706549E-01 
    2.1022270398390797E-01 
    2.1014488981009238E-01 
    2.1004892433937125E-01 
    2.0994409204497866E-01 
    2.0984005181035692E-01 
    2.0974701701241805E-01 
    2.0968136525029110E-01 
    2.0964034478076146E-01 
    2.0962224396278703E-01 
    2.0962658697537012E-01 
    2.0965415472023369E-01 
    2.0970689789621011E-01 
    1.5429773942776409E-01 
    1.5426243186852992E-01 
    1.5419186108314142E-01 
    1.5408662208929583E-01 
    1.5394795616090021E-01 
    1.5377785571041414E-01 
    1.5358490082150031E-01 
    1.5337722761208925E-01 
    1.5316364737091145E-01 
    1.5295357516877303E-01 
    1.5275928729036739E-01 
    1.5258719247119867E-01 
    1.5244394273586842E-01 
    1.5233610730470767E-01 
    1.5226980890857972E-01 
    1.5225022422671364E-01 
    1.0240308264605233E-01 
    1.0226270929183021E-01 
    1.0198732349000625E-01 
    1.0158517897637752E-01 
    1.0106723269896382E-01 
    1.0044701078702027E-01 
    9.9733054535227766E-02 
    9.8937449970926461E-02 
    9.8076040673758136E-02 
    9.7169097163729540E-02 
    9.6241038754799169E-02 
    9.5328927791978282E-02 
    9.4475984603479307E-02 
    9.3732841763907282E-02 
    9.3159078671183726E-02 
    9.2825079326925575E-02 
    6.2693919583139121E-02 
    6.2238065189014813E-02 
    6.1333740569932314E-02 
    5.9985921765853233E-02 
    5.8196671271680121E-02 
    5.5956528332700303E-02 
    5.3228141323602284E-02 
    4.9970204201905816E-02 
    4.6136968342280281E-02 
    4.1702177734910265E-02 
    3.6629437799859242E-02 
    3.0875724320550801E-02 
    2.4390377952295678E-02 
    1.7114117187160455E-02 
    8.9779641661051277E-03 
    0.0000000000000000E+00 

SCALARS Saturarion double 1 
LOOKUP_TABLE default 

    9.9999919619433564E-01 
    9.2317381141088106E-01 
    8.2997316650601827E-01 
    7.5315441951156081E-01 
    6.9262253701501764E-01 
    6.4983407571592822E-01 
    6.0683570379524343E-01 
    5.6642918178542023E-01 
    5.2687845562774993E-01 
    4.9080466856554084E-01 
    4.4665755085009895E-01 
    2.4672796928930779E-01 
    1.5412754784023961E-04 
    1.0000010225030413E-06 
    1.0000000000000736E-06 
    9.9999999999999995E-07 
    7.7941275282798228E-01 
    7.5053428757861984E-01 
    6.9862916082171944E-01 
    6.5291928661738419E-01 
    6.1494861715973959E-01 
    5.7866477413520323E-01 
    5.4456839360988729E-01 
    5.1055712744508086E-01 
    4.7261445199380048E-01 
    4.0429272977351838E-01 
    2.1453292674582763E-01 
    3.2994303961506724E-02 
    1.5202025301163321E-04 
    1.0014692684781105E-06 
    1.0000000000648742E-06 
    9.9999999999999974E-07 
    5.7538131934672276E-01 
    5.6618389544207581E-01 
    5.4572025928975143E-01 
    5.2478648488795265E-01 
    4.9331830731686982E-01 
    4.6272785072314454E-01 
    4.2316531372511257E-01 
    3.4573306612248933E-01 
    1.9729240342948215E-01 
    5.2605131231551090E-02 
    2.7087967514485395E-03 
    1.2049606762180748E-04 
    1.0026264100659994E-06 
    1.0000000006155390E-06 
    1.0000000000000002E-06 
    9.9999999999999995E-07 
    3.5740821314275734E-01 
    3.3769447297266869E-01 
    2.9687682644274543E-01 
    2.4999056540514453E-01 
    1.8923065702574063E-01 
    1.2131709454303524E-01 
    5.9341341119328622E-02 
    1.0093355041100038E-02 
    3.8408193623517406E-04 
    8.3996046972621891E-05 
    1.2973366612340282E-06 
    1.0032429621699955E-06 
    1.0000000003766749E-06 
    1.0000000000000002E-06 
    9.9999999999999995E-07 
    9.9999999999999995E-07 
    4.9265456439747911E-03 
    2.7747103798954681E-03 
    2.3684882851833832E-03 
    1.9196018907596626E-03 
    1.7587361895952881E-03 
    1.2541945692950737E-03 
    3.2486901552721323E-04 
    4.1356744960779709E-06 
    1.0297207233900171E-06 
    1.0008457123141254E-06 
    1.0000001262479471E-06 
    1.0000000014739345E-06 
    1.0000000000000002E-06 
    9.9999999999999995E-07 
    9.9999999999999995E-07 
    9.9999999999999995E-07 
    1.1325042165469764E-06 
    1.0983072831192271E-06 
    1.3703063791031817E-06 
    1.6785739921664873E-06 
    1.7507218905632223E-06 
    1.1004409431920046E-06 
    1.0076361945104228E-06 
    1.0000015190920620E-06 
    1.0000000067880652E-06 
    1.0000000000054805E-06 
    1.0000000000000199E-06 
    1.0000000000000019E-06 
    9.9999999999999995E-07 
    9.9999999999999995E-07 
    9.9999999999999995E-07 
    9.9999999999999995E-07 
    9.9999997932758807E-07 
    9.9999999729028925E-07 
    1.0000001549965062E-06 
    1.0000000658362469E-06 
    1.0000000845722902E-06 
    1.0000000324449571E-06 
    1.0000000030580305E-06 
    1.0000000000000376E-06 
    1.0000000000000004E-06 
    9.9999999999999995E-07 
    9.9999999999999995E-07 
    9.9999999999999995E-07 
    9.9999999999999995E-07 
    9.9999999999999995E-07 
    9.9999999999999995E-07 
    9.9999999999999995E-07 
    1.0000000000000063E-06 
    1.0000000000000044E-06 
    1.0000000000000459E-06 
    1.0000000000000120E-06 
    1.0000000000000148E-06 
    1.0000000000000093E-06 
    1.0000000000000012E-06 
    9.9999999999999995E-07 
    9.9999999999999995E-07 
    9.9999999999999995E-07 
    9.9999999999999995E-07 
    9.9999999999999995E-07 
    9.9999999999999995E-07 
    9.9999999999999995E-07 
    9.9999999999999995E-07 
    9.9999999999999995E-07 
    9.9999999999999995E-07 
    9.9999999999999995E-07 
    9.9999999999999995E-07 
    9.9999999999999995E-07 
    9.9999999999999995E-07 
    9.9999999999999995E-07 
    9.9999999999999995E-07 
    9.9999999999999995E-07 
    9.9999999999999995E-07 
    9.9999999999999995E-07 
    9.9999999999999995E-07 
    9.9999999999999995E-07 
    9.9999999999999995E-07 
    9.9999999999999995E-07 
    9.9999999999999995E-07 
    9.9999999999999995E-07 
    9.9999999999999995E-07 
    9.9999999999999995E-07 
    9.9999999999999995E-07 
    9.9999999999999995E-07 
    9.9999999999999995E-07 
    9.9999999999999995E-07 
    9.9999999999999995E-07 
    9.9999999999999995E-07 
    9.9999999999999995E-07 
    9.9999999999999995E-07 
    9.9999999999999995E-07 
    9.9999999999999995E-07 
    9.9999999999999995E-07 
    9.9999999999999995E-07 
    9.9999999999999995E-07 
    9.9999999999999995E-07 
    9.9999999999999995E-07 
    9.9999999999999995E-07 
    9.9999999999999995E-07 
    9.9999999999999995E-07 
    9.9999999999999995E-07 
    9.9999999999999995E-07 
    9.9999999999999995E-07 
    9.9999999999999995E-07 
    9.9999999999999995E-07 
    9.9999999999999995E-07 
    9.9999999999999995E-07 
    9.9999999999999995E-07 
    9.9999999999999995E-07 
    9.9999999999999995E-07 
    9.9999999999999995E-07 
    9.9999999999999995E-07 
    9.9999999999999995E-07 
    9.9999999999999995E-07 
    9.9999999999999995E-07 
    9.9999999999999995E-07 
    9.9999999999999995E-07 
    9.9999999999999995E-07 
    9.9999999999999995E-07 
    9.9999999999999995E-07 
    9.9999999999999995E-07 
    9.9999999999999995E-07 
    9.9999999999999995E-07 
    9.9999999999999995E-07 
    9.9999999999999995E-07 
    9.9999999999999995E-07 
    9.9999999999999995E-07 
    9.9999999999999995E-07 
    9.9999999999999995E-07 
    9.9999999999999995E-07 
    9.9999999999999995E-07 
    9.9999999999999995E-07 
    9.9999999999999995E-07 
    9.9999999999999995E-07 
    9.9999999999999995E-07 
    9.9999999999999995E-07 
    9.9999999999999995E-07 
    9.9999999999999995E-07 
    9.9999999999999995E-07 
    9.9999999999999995E-07 
    9.9999999999999995E-07 
    9.9999999999999995E-07 
    9.9999999999999995E-07 
    9.9999999999999995E-07 
    9.9999999999999995E-07 
    9.9999999999999995E-07 
    9.9999999999999995E-07 
    9.9999999999999995E-07 
    9.9999999999999995E-07 
    9.9999999999999995E-07 
    9.9999999999999995E-07 
    9.9999999999999995E-07 
    9.9999999999999995E-07 
    9.9999999999999995E-07 
    9.9999999999999995E-07 
    9.9999999999999995E-07 
    9.9999999999999995E-07 
    9.9999999999999995E-07 
    9.9999999999999995E-07 
    9.9999999999999995E-07 
    9.9999999999999995E-07 
    9.9999999999999995E-07 
    9.9999999999999995E-07 
    9.9999999999999995E-07 
    9.9999999999999995E-07 
    9.9999999999999995E-07 
    9.9999999999999995E-07 
    9.9999999999999995E-07 
    9.9999999999999995E-07 
    9.9999999999999995E-07 
    9.9999999999999995E-07 
    9.9999999999999995E-07 
    9.9999999999999995E-07 
    9.9999999999999995E-07 
    9.9999999999999995E-07 
    9.9999999999999995E-07 
    9.9999999999999995E-07 
    9.9999999999999995E-07 
    9.9999999999999995E-07 
    9.9999999999999995E-07 
    9.9999999999999995E-07 
    9.9999999999999995E-07 
    9.9999999999999995E-07 
    9.9999999999999995E-07 
    9.9999999999999995E-07 
    9.9999999999999995E-07 
    9.9999999999999995E-07 
    9.9999999999999995E-07 
    9.9999999999999995E-07 
    9.9999999999999995E-07 
    9.9999999999999995E-07 
    1.0000000408475792E-06 
