# vtk DataFile Version 2.0
Pressure Field Data 
ASCII 
DATASET UNSTRUCTURED_GRID 

POINTS 289 double 

    0.0000000000000000E+00     0.0000000000000000E+00     0.0000000000000000E+00 
    1.0000000000000000E+00     0.0000000000000000E+00     0.0000000000000000E+00 
    1.0000000000000000E+00     1.0000000000000000E+00     0.0000000000000000E+00 
    0.0000000000000000E+00     1.0000000000000000E+00     0.0000000000000000E+00 
    6.2499999999872928E-02     0.0000000000000000E+00     0.0000000000000000E+00 
    1.2499999999977310E-01     0.0000000000000000E+00     0.0000000000000000E+00 
    1.8749999999959341E-01     0.0000000000000000E+00     0.0000000000000000E+00 
    2.4999999999941089E-01     0.0000000000000000E+00     0.0000000000000000E+00 
    3.1249999999922851E-01     0.0000000000000000E+00     0.0000000000000000E+00 
    3.7499999999904610E-01     0.0000000000000000E+00     0.0000000000000000E+00 
    4.3749999999886358E-01     0.0000000000000000E+00     0.0000000000000000E+00 
    4.9999999999869210E-01     0.0000000000000000E+00     0.0000000000000000E+00 
    5.6249999999884603E-01     0.0000000000000000E+00     0.0000000000000000E+00 
    6.2499999999901090E-01     0.0000000000000000E+00     0.0000000000000000E+00 
    6.8749999999917577E-01     0.0000000000000000E+00     0.0000000000000000E+00 
    7.4999999999934064E-01     0.0000000000000000E+00     0.0000000000000000E+00 
    8.1249999999950551E-01     0.0000000000000000E+00     0.0000000000000000E+00 
    8.7499999999967026E-01     0.0000000000000000E+00     0.0000000000000000E+00 
    9.3749999999983513E-01     0.0000000000000000E+00     0.0000000000000000E+00 
    1.0000000000000000E+00     6.2499999999872928E-02     0.0000000000000000E+00 
    1.0000000000000000E+00     1.2499999999977310E-01     0.0000000000000000E+00 
    1.0000000000000000E+00     1.8749999999959341E-01     0.0000000000000000E+00 
    1.0000000000000000E+00     2.4999999999941089E-01     0.0000000000000000E+00 
    1.0000000000000000E+00     3.1249999999922851E-01     0.0000000000000000E+00 
    1.0000000000000000E+00     3.7499999999904610E-01     0.0000000000000000E+00 
    1.0000000000000000E+00     4.3749999999886358E-01     0.0000000000000000E+00 
    1.0000000000000000E+00     4.9999999999869210E-01     0.0000000000000000E+00 
    1.0000000000000000E+00     5.6249999999884603E-01     0.0000000000000000E+00 
    1.0000000000000000E+00     6.2499999999901090E-01     0.0000000000000000E+00 
    1.0000000000000000E+00     6.8749999999917577E-01     0.0000000000000000E+00 
    1.0000000000000000E+00     7.4999999999934064E-01     0.0000000000000000E+00 
    1.0000000000000000E+00     8.1249999999950551E-01     0.0000000000000000E+00 
    1.0000000000000000E+00     8.7499999999967026E-01     0.0000000000000000E+00 
    1.0000000000000000E+00     9.3749999999983513E-01     0.0000000000000000E+00 
    9.3749999999973976E-01     1.0000000000000000E+00     0.0000000000000000E+00 
    8.7499999999950118E-01     1.0000000000000000E+00     0.0000000000000000E+00 
    8.1249999999991318E-01     1.0000000000000000E+00     0.0000000000000000E+00 
    7.5000000000034706E-01     1.0000000000000000E+00     0.0000000000000000E+00 
    6.8750000000078049E-01     1.0000000000000000E+00     0.0000000000000000E+00 
    6.2500000000121403E-01     1.0000000000000000E+00     0.0000000000000000E+00 
    5.6250000000164757E-01     1.0000000000000000E+00     0.0000000000000000E+00 
    5.0000000000205946E-01     1.0000000000000000E+00     0.0000000000000000E+00 
    4.3750000000182099E-01     1.0000000000000000E+00     0.0000000000000000E+00 
    3.7500000000156092E-01     1.0000000000000000E+00     0.0000000000000000E+00 
    3.1250000000130068E-01     1.0000000000000000E+00     0.0000000000000000E+00 
    2.5000000000104050E-01     1.0000000000000000E+00     0.0000000000000000E+00 
    1.8750000000078040E-01     1.0000000000000000E+00     0.0000000000000000E+00 
    1.2500000000052031E-01     1.0000000000000000E+00     0.0000000000000000E+00 
    6.2500000000260125E-02     1.0000000000000000E+00     0.0000000000000000E+00 
    0.0000000000000000E+00     9.3749999999973976E-01     0.0000000000000000E+00 
    0.0000000000000000E+00     8.7499999999950118E-01     0.0000000000000000E+00 
    0.0000000000000000E+00     8.1249999999991318E-01     0.0000000000000000E+00 
    0.0000000000000000E+00     7.5000000000034706E-01     0.0000000000000000E+00 
    0.0000000000000000E+00     6.8750000000078049E-01     0.0000000000000000E+00 
    0.0000000000000000E+00     6.2500000000121403E-01     0.0000000000000000E+00 
    0.0000000000000000E+00     5.6250000000164757E-01     0.0000000000000000E+00 
    0.0000000000000000E+00     5.0000000000205946E-01     0.0000000000000000E+00 
    0.0000000000000000E+00     4.3750000000182099E-01     0.0000000000000000E+00 
    0.0000000000000000E+00     3.7500000000156092E-01     0.0000000000000000E+00 
    0.0000000000000000E+00     3.1250000000130068E-01     0.0000000000000000E+00 
    0.0000000000000000E+00     2.5000000000104050E-01     0.0000000000000000E+00 
    0.0000000000000000E+00     1.8750000000078040E-01     0.0000000000000000E+00 
    0.0000000000000000E+00     1.2500000000052031E-01     0.0000000000000000E+00 
    0.0000000000000000E+00     6.2500000000260125E-02     0.0000000000000000E+00 
    6.2499999999897131E-02     6.2500000000235922E-02     0.0000000000000000E+00 
    6.2499999999921327E-02     1.2500000000047351E-01     0.0000000000000000E+00 
    6.2499999999945530E-02     1.8750000000070621E-01     0.0000000000000000E+00 
    6.2499999999969733E-02     2.5000000000093858E-01     0.0000000000000000E+00 
    6.2499999999993928E-02     3.1250000000117117E-01     0.0000000000000000E+00 
    6.2500000000018124E-02     3.7500000000140382E-01     0.0000000000000000E+00 
    6.2500000000042327E-02     4.3750000000163619E-01     0.0000000000000000E+00 
    6.2500000000066530E-02     5.0000000000184897E-01     0.0000000000000000E+00 
    6.2500000000090733E-02     5.6250000000147260E-01     0.0000000000000000E+00 
    6.2500000000114922E-02     6.2500000000107636E-01     0.0000000000000000E+00 
    6.2500000000139125E-02     6.8750000000068034E-01     0.0000000000000000E+00 
    6.2500000000163328E-02     7.5000000000028411E-01     0.0000000000000000E+00 
    6.2500000000187531E-02     8.1249999999988787E-01     0.0000000000000000E+00 
    6.2500000000211720E-02     8.7499999999951172E-01     0.0000000000000000E+00 
    6.2500000000235922E-02     9.3749999999974565E-01     0.0000000000000000E+00 
    1.2499999999981980E-01     6.2500000000211733E-02     0.0000000000000000E+00 
    1.2499999999986650E-01     1.2500000000042691E-01     0.0000000000000000E+00 
    1.2499999999991319E-01     1.8750000000063199E-01     0.0000000000000000E+00 
    1.2499999999995989E-01     2.5000000000083678E-01     0.0000000000000000E+00 
    1.2500000000000661E-01     3.1250000000104172E-01     0.0000000000000000E+00 
    1.2500000000005329E-01     3.7500000000124661E-01     0.0000000000000000E+00 
    1.2500000000010000E-01     4.3750000000145117E-01     0.0000000000000000E+00 
    1.2500000000014669E-01     5.0000000000163858E-01     0.0000000000000000E+00 
    1.2500000000019340E-01     5.6250000000129741E-01     0.0000000000000000E+00 
    1.2500000000024011E-01     6.2500000000093847E-01     0.0000000000000000E+00 
    1.2500000000028680E-01     6.8750000000057998E-01     0.0000000000000000E+00 
    1.2500000000033351E-01     7.5000000000022127E-01     0.0000000000000000E+00 
    1.2500000000038020E-01     8.1249999999986211E-01     0.0000000000000000E+00 
    1.2500000000042691E-01     8.7499999999952238E-01     0.0000000000000000E+00 
    1.2500000000047359E-01     9.3749999999975164E-01     0.0000000000000000E+00 
    1.8749999999966760E-01     6.2500000000187531E-02     0.0000000000000000E+00 
    1.8749999999974179E-01     1.2500000000038020E-01     0.0000000000000000E+00 
    1.8749999999981601E-01     1.8750000000055780E-01     0.0000000000000000E+00 
    1.8749999999989009E-01     2.5000000000073502E-01     0.0000000000000000E+00 
    1.8749999999996431E-01     3.1250000000091221E-01     0.0000000000000000E+00 
    1.8750000000003850E-01     3.7500000000108941E-01     0.0000000000000000E+00 
    1.8750000000011269E-01     4.3750000000126649E-01     0.0000000000000000E+00 
    1.8750000000018691E-01     5.0000000000142808E-01     0.0000000000000000E+00 
    1.8750000000026110E-01     5.6250000000112244E-01     0.0000000000000000E+00 
    1.8750000000033529E-01     6.2500000000080080E-01     0.0000000000000000E+00 
    1.8750000000040951E-01     6.8750000000047962E-01     0.0000000000000000E+00 
    1.8750000000048361E-01     7.5000000000015843E-01     0.0000000000000000E+00 
    1.8750000000055780E-01     8.1249999999983680E-01     0.0000000000000000E+00 
    1.8750000000063199E-01     8.7499999999953304E-01     0.0000000000000000E+00 
    1.8750000000070621E-01     9.3749999999975764E-01     0.0000000000000000E+00 
    2.4999999999951281E-01     6.2500000000163314E-02     0.0000000000000000E+00 
    2.4999999999961461E-01     1.2500000000033351E-01     0.0000000000000000E+00 
    2.4999999999971650E-01     1.8750000000048361E-01     0.0000000000000000E+00 
    2.4999999999981831E-01     2.5000000000063310E-01     0.0000000000000000E+00 
    2.4999999999992020E-01     3.1250000000078260E-01     0.0000000000000000E+00 
    2.5000000000002198E-01     3.7500000000093209E-01     0.0000000000000000E+00 
    2.5000000000012390E-01     4.3750000000108180E-01     0.0000000000000000E+00 
    2.5000000000022571E-01     5.0000000000121769E-01     0.0000000000000000E+00 
    2.5000000000032763E-01     5.6250000000094724E-01     0.0000000000000000E+00 
    2.5000000000042938E-01     6.2500000000066314E-01     0.0000000000000000E+00 
    2.5000000000053119E-01     6.8750000000037925E-01     0.0000000000000000E+00 
[...]
CELL_DATA 256 
SCALARS Pressure double 1 
LOOKUP_TABLE default 

    9.2797790817221115E-01 
    9.2604438854162241E-01 
    9.2420393375923648E-01 
    9.2242328068018187E-01 
    9.2072377635781844E-01 
    9.1910971652200335E-01 
    9.1759761948538310E-01 
    9.1620909517198801E-01 
    9.1495752844024292E-01 
    9.1384175665031564E-01 
    9.1286591331174638E-01 
    9.1203546826459914E-01 
    9.1133977471869410E-01 
    9.1071505192906677E-01 
    9.1025540137132843E-01 
    9.1005952245546318E-01 
    8.9546786649393295E-01 
    8.9534862259122316E-01 
    8.9512817431947211E-01 
    8.9482361532461629E-01 
    8.9445526923696494E-01 
    8.9404176559056592E-01 
    8.9360367653196926E-01 
    8.9315840163235249E-01 
    8.9271990516521460E-01 
    8.9230032962066175E-01 
    8.9191153325733652E-01 
    8.9154797120159324E-01 
    8.9118779562064820E-01 
    8.9084235047793214E-01 
    8.9059814749865984E-01 
    8.9048678621231681E-01 
    8.6289216396398438E-01 
    8.6284066764832945E-01 
    8.6274048072254983E-01 
    8.6259810624459754E-01 
    8.6242300585081311E-01 
    8.6222328546439608E-01 
    8.6200330351206045E-01 
    8.6176971928356016E-01 
    8.6152849759078254E-01 
    8.6127881089604219E-01 
    8.6100397558721609E-01 
    8.6068556915580696E-01 
    8.6034421135995487E-01 
    8.6005665179329072E-01 
    8.5986798894494276E-01 
    8.5977137279388438E-01 
    8.2225216543550206E-01 
    8.2222891762848627E-01 
    8.2218353527410037E-01 
    8.2212042489001103E-01 
    8.2204268885917986E-01 
    8.2194722481266336E-01 
    8.2181678699972116E-01 
    8.2163664684042992E-01 
    8.2139219778713290E-01 
    8.2107735742457955E-01 
    8.2069155440812347E-01 
    8.2028142863315423E-01 
    8.1992647161189569E-01 
    8.1965867679537807E-01 
    8.1947073135784299E-01 
    8.1935553961986951E-01 
    7.7128568344820803E-01 
    7.7125020618326146E-01 
    7.7116861425168648E-01 
    7.7103249401596008E-01 
    7.7083767388890490E-01 
    7.7058375232276355E-01 
    7.7027237794445913E-01 
    7.6990435500592758E-01 
    7.6948369563513863E-01 
    7.6903587138769969E-01 
    7.6859836420392236E-01 
    7.6822350416196650E-01 
    7.6791985384455652E-01 
    7.6767121182518183E-01 
    7.6747618230065873E-01 
    7.6733809202942937E-01 
    7.0402949692395900E-01 
    7.0403136753813134E-01 
    7.0400426508821556E-01 
    7.0392011457202674E-01 
    7.0375930881994897E-01 
    7.0351564922376064E-01 
    7.0321910407261889E-01 
    7.0290715287394090E-01 
    7.0261563172362806E-01 
    7.0236339415455984E-01 
    7.0214559797230680E-01 
    7.0195108724694522E-01 
    7.0178344238204249E-01 
    7.0165354414168180E-01 
    7.0157262865186376E-01 
    7.0155225284175360E-01 
    6.3502169345264459E-01 
    6.3497882101837844E-01 
    6.3489790272127500E-01 
    6.3478080415500970E-01 
    6.3462085539539448E-01 
    6.3443541281932614E-01 
    6.3426706770979124E-01 
    6.3411140189973125E-01 
    6.3396779617586141E-01 
    6.3384100743383087E-01 
    6.3375904218511114E-01 
    6.3371462824278513E-01 
    6.3370117944983606E-01 
    6.3371256175898405E-01 
    6.3374294371080575E-01 
    6.3378663770664023E-01 
    5.7041218978371144E-01 
    5.7034248206508964E-01 
    5.7022638498507261E-01 
    5.7008869195759948E-01 
    5.6995484654366568E-01 
    5.6985024087476044E-01 
    5.6979915610614462E-01 
    5.6980159281441489E-01 
    5.6985660260695059E-01 
    5.6994293653875794E-01 
    5.7003841435219560E-01 
    5.7013576653050801E-01 
    5.7022722396642489E-01 
    5.7030387988679010E-01 
    5.7035578593600189E-01 
    5.7037218333603179E-01 
    5.0681510306028754E-01 
    5.0674633275823366E-01 
    5.0665550450785668E-01 
    5.0659236642039662E-01 
    5.0660953317962876E-01 
    5.0672471734292934E-01 
    5.0692078009539532E-01 
    5.0718348186473761E-01 
    5.0749945513033923E-01 
    5.0781900338546127E-01 
    5.0808267408767016E-01 
    5.0828906593607071E-01 
    5.0843308544864674E-01 
    5.0850541433826379E-01 
    5.0849218354756698E-01 
    5.0837481453274114E-01 
    4.3435340101562553E-01 
    4.3440179287681485E-01 
    4.3448829631879166E-01 
    4.3460387350727014E-01 
    4.3473945393999830E-01 
    4.3488829915718524E-01 
    4.3502590951633285E-01 
    4.3513325632670602E-01 
    4.3519098883710544E-01 
    4.3518074702878523E-01 
    4.3511909108752145E-01 
    4.3502248430675183E-01 
    4.3490410142210484E-01 
    4.3477477960714422E-01 
    4.3464336548344656E-01 
    4.3451715672204916E-01 
    3.5016060170414348E-01 
    3.5015698755916208E-01 
    3.5013336015334817E-01 
    3.5006726373077462E-01 
    3.4993096731392681E-01 
    3.4969224835176038E-01 
    3.4941534946525110E-01 
    3.4911827710934634E-01 
    3.4881740921869081E-01 
    3.4852868968765194E-01 
    3.4831375883265958E-01 
    3.4816692188930087E-01 
    3.4808407600987101E-01 
    3.4806307989116769E-01 
    3.4810366775744317E-01 
    3.4820725445826467E-01 
    2.7288204545521028E-01 
    2.7288560370710252E-01 
    2.7288304192263790E-01 
    2.7286215340072018E-01 
    2.7280926698937358E-01 
    2.7271047616308697E-01 
    2.7258529018967309E-01 
    2.7244899870106459E-01 
    2.7231744006529118E-01 
    2.7220748087534036E-01 
    2.7214616969998173E-01 
    2.7212756131694055E-01 
    2.7214730945301985E-01 
    2.7220312136418523E-01 
    2.7229483301263535E-01 
    2.7242431327090605E-01 
    2.1028691917859568E-01 
    2.1028388446562760E-01 
    2.1027248016401157E-01 
    2.1024603917546111E-01 
    2.1019709428515426E-01 
    2.1011796762701471E-01 
    2.1002034867336225E-01 
    2.0991365126626510E-01 
    2.0980766979701612E-01 
    2.0971275689414187E-01 
    2.0964547651127810E-01 
    2.0960311416874933E-01 
    2.0958399158049815E-01 
    2.0958766149140937E-01 
    2.0961492721898101E-01 
    2.0966775443512531E-01 
    1.5427692354250036E-01 
    1.5424154810732704E-01 
    1.5417082333291135E-01 
    1.5406532638440387E-01 
    1.5392628220383894E-01 
    1.5375566953437114E-01 
    1.5356209789065089E-01 
    1.5335374644522382E-01 
    1.5313947094569735E-01 
    1.5292873186209030E-01 
    1.5273386552852522E-01 
    1.5256129293064161E-01 
    1.5241767737326636E-01 
    1.5230959748451678E-01 
    1.5224318314441201E-01 
    1.5222361555892755E-01 
    1.0238624284403641E-01 
    1.0224585352069313E-01 
    1.0197047937691275E-01 
    1.0156841785592038E-01 
    1.0105066660228577E-01 
    1.0043078641540008E-01 
    9.9717302129998228E-02 
    9.8922251151026985E-02 
    9.8061428523448055E-02 
    9.7155058381536027E-02 
    9.6227499550502554E-02 
    9.5315804088905942E-02 
    9.4463181826343862E-02 
    9.3720255415108422E-02 
    9.3146595697746776E-02 
    9.2812580248381640E-02 
    6.2679371516802640E-02 
    6.2223537876883811E-02 
    6.1319409327986726E-02 
    5.9972115590857446E-02 
    5.8183866941785775E-02 
    5.5945199199136653E-02 
    5.3218562900875510E-02 
    4.9962450641576221E-02 
    4.6130910774497914E-02 
    4.1697675508222627E-02 
    3.6626305538754816E-02 
    3.0873733249980856E-02 
    2.4389257683793776E-02 
    1.7113558734607719E-02 
    8.9776242246688617E-03 
    0.0000000000000000E+00 

SCALARS Saturarion double 1 
LOOKUP_TABLE default 

    1.0000000148322172E+00 
    9.5518967115106213E-01 
    8.8775942078308046E-01 
    8.3477966595375341E-01 
    7.8480356583804711E-01 
    7.3806838989654866E-01 
    6.9625746362396557E-01 
    6.6032295589050538E-01 
    6.2409462838069540E-01 
    5.8649357730056673E-01 
    5.4829028753977427E-01 
    5.0887413088637945E-01 
    4.6544628962482815E-01 
    3.0723828078280402E-01 
    4.3670966340043820E-03 
    1.0000912864594304E-06 
    8.3972259895992207E-01 
    8.2022097110361414E-01 
    7.8079417951513486E-01 
    7.4067154483407227E-01 
    7.0404141602391790E-01 
    6.7124684740286178E-01 
    6.4071281863726315E-01 
    6.1025072096975519E-01 
    5.7823209297703670E-01 
    5.4590600288970559E-01 
    5.1198430505551462E-01 
    4.7220622512144789E-01 
    3.7223431890471470E-01 
    9.0433084984949175E-02 
    4.5274979335562567E-04 
    1.0141730566668373E-06 
    6.7952326155063203E-01 
    6.6917405836546506E-01 
    6.4737971658510007E-01 
    6.2492845604608183E-01 
    6.0290159002698762E-01 
    5.7912072603148579E-01 
    5.5588766367719544E-01 
    5.3326915896606109E-01 
    5.0938658402398851E-01 
    4.8470513799930015E-01 
    4.5272106046320265E-01 
    3.5597697515154114E-01 
    9.4188194733044989E-02 
    1.3684156521551034E-03 
    1.1741557324852009E-06 
    1.0000000186654306E-06 
    5.7279077479954055E-01 
    5.6828739380744109E-01 
    5.5558642928146662E-01 
    5.4267246391512491E-01 
    5.2566786407479937E-01 
    5.0716207077014053E-01 
    4.8987135477272814E-01 
    4.7301471335609607E-01 
    4.5386684286285672E-01 
    4.0676604634020963E-01 
    2.6311529902287195E-01 
    4.9793546185068309E-02 
    1.5358437579789819E-03 
    1.6340977189041379E-06 
    1.0000000847930380E-06 
    1.0000000000000088E-06 
    4.9827626849860701E-01 
    4.9516835247343799E-01 
    4.8988812037827822E-01 
    4.8056585043616423E-01 
    4.5918317448960033E-01 
    4.2729287783747827E-01 
    3.8142537379133717E-01 
    3.1711366434348720E-01 
    2.0109677746264074E-01 
    7.3198670196777199E-02 
    3.8566181651612389E-03 
    5.2725036242078918E-04 
    1.4919432969005663E-06 
    1.0000004675077256E-06 
    1.0000000000000482E-06 
    9.9999999999999995E-07 
    2.9872190923811354E-01 
    2.8085880045065875E-01 
    2.4420417241925962E-01 
    1.9981277349465568E-01 
    1.2150132722215919E-01 
    7.3377860220667349E-02 
    3.4597574009529466E-02 
    7.8985815736317081E-03 
    3.0816877498509286E-04 
    1.6189756348913785E-04 
    2.7057568224148965E-06 
    1.0122450850254178E-06 
    1.0000013792149695E-06 
    1.0000000000007614E-06 
    9.9999999999999995E-07 
    9.9999999999999995E-07 
    9.3075851637897697E-04 
    4.8681807850543720E-04 
    1.5126250906420069E-04 
    4.1248543735696701E-05 
    6.0333237146379736E-05 
    4.3708911498570939E-05 
    7.4950999191416244E-05 
    1.6109112966433995E-05 
    1.0287000599265919E-06 
    1.0043252586403175E-06 
    1.0000000984013940E-06 
    1.0000000121590851E-06 
    1.0000000000036712E-06 
    9.9999999999999995E-07 
    9.9999999999999995E-07 
    9.9999999999999995E-07 
    1.0009950199880754E-06 
    1.0010624710931441E-06 
    1.0050552765266824E-06 
    1.0012518878433186E-06 
    1.0010861249474791E-06 
    1.0003647985242511E-06 
    1.0008146134487314E-06 
    1.0000239853741622E-06 
    1.0000000041538029E-06 
    1.0000000001176391E-06 
    1.0000000000000364E-06 
    1.0000000000000029E-06 
    9.9999999999999995E-07 
    9.9999999999999995E-07 
    9.9999999999999995E-07 
    9.9999999999999995E-07 
    9.9999999972904407E-07 
    9.9999999996274850E-07 
    1.0000000025359592E-06 
    1.0000000001818240E-06 
    1.0000000000096784E-06 
    1.0000000000010818E-06 
    1.0000000000670659E-06 
    1.0000000000039399E-06 
    9.9999999999999974E-07 
    1.0000000000000002E-06 
    9.9999999999999995E-07 
    9.9999999999999995E-07 
    9.9999999999999995E-07 
    9.9999999999999995E-07 
    9.9999999999999995E-07 
    9.9999999999999995E-07 
    9.9999999999999974E-07 
    1.0000000000000002E-06 
    9.9999999999999995E-07 
    9.9999999999999995E-07 
    9.9999999999999995E-07 
    9.9999999999999995E-07 
    1.0000000000000002E-06 
    9.9999999999999995E-07 
    9.9999999999999995E-07 
    9.9999999999999995E-07 
    9.9999999999999995E-07 
    9.9999999999999995E-07 
    9.9999999999999995E-07 
    9.9999999999999995E-07 
    9.9999999999999995E-07 
    9.9999999999999995E-07 
    9.9999999999999995E-07 
    9.9999999999999995E-07 
    9.9999999999999995E-07 
    9.9999999999999995E-07 
    9.9999999999999995E-07 
    9.9999999999999995E-07 
    9.9999999999999995E-07 
    9.9999999999999995E-07 
    9.9999999999999995E-07 
    9.9999999999999995E-07 
    9.9999999999999995E-07 
    9.9999999999999995E-07 
    9.9999999999999995E-07 
    9.9999999999999995E-07 
    9.9999999999999995E-07 
    9.9999999999999995E-07 
    9.9999999999999995E-07 
    9.9999999999999995E-07 
    9.9999999999999995E-07 
    9.9999999999999995E-07 
    9.9999999999999995E-07 
    9.9999999999999995E-07 
    9.9999999999999995E-07 
    9.9999999999999995E-07 
    9.9999999999999995E-07 
    9.9999999999999995E-07 
    9.9999999999999995E-07 
    9.9999999999999995E-07 
    9.9999999999999995E-07 
    9.9999999999999995E-07 
    9.9999999999999995E-07 
    9.9999999999999995E-07 
    9.9999999999999995E-07 
    9.9999999999999995E-07 
    9.9999999999999995E-07 
    9.9999999999999995E-07 
    9.9999999999999995E-07 
    9.9999999999999995E-07 
    9.9999999999999995E-07 
    9.9999999999999995E-07 
    9.9999999999999995E-07 
    9.9999999999999995E-07 
    9.9999999999999995E-07 
    9.9999999999999995E-07 
    9.9999999999999995E-07 
    9.9999999999999995E-07 
    9.9999999999999995E-07 
    9.9999999999999995E-07 
    9.9999999999999995E-07 
    9.9999999999999995E-07 
    9.9999999999999995E-07 
    9.9999999999999995E-07 
    9.9999999999999995E-07 
    9.9999999999999995E-07 
    9.9999999999999995E-07 
    9.9999999999999995E-07 
    9.9999999999999995E-07 
    9.9999999999999995E-07 
    9.9999999999999995E-07 
    9.9999999999999995E-07 
    9.9999999999999995E-07 
    9.9999999999999995E-07 
    9.9999999999999995E-07 
    9.9999999999999995E-07 
    9.9999999999999995E-07 
    9.9999999999999995E-07 
    9.9999999999999995E-07 
    9.9999999999999995E-07 
    9.9999999999999995E-07 
    9.9999999999999995E-07 
    9.9999999999999995E-07 
    9.9999999999999995E-07 
    9.9999999999999995E-07 
    9.9999999999999995E-07 
    9.9999999999999995E-07 
    9.9999999999999995E-07 
    9.9999999999999995E-07 
    9.9999999999999995E-07 
    9.9999999999999995E-07 
    9.9999999999999995E-07 
    9.9999999999999995E-07 
    9.9999999999999995E-07 
    9.9999999999999995E-07 
    9.9999999999999995E-07 
    9.9999999999999995E-07 
    9.9999999999999995E-07 
    9.9999999999999995E-07 
    9.9999999999999995E-07 
    9.9999999999999995E-07 
    9.9999999999999995E-07 
    9.9999999999999995E-07 
    9.9999999999999995E-07 
    9.9999999999999995E-07 
    9.9999999999999995E-07 
    9.9999999999999995E-07 
    1.0000000742474016E-06 
