# vtk DataFile Version 2.0
Pressure Field Data 
ASCII 
DATASET UNSTRUCTURED_GRID 

POINTS 289 double 

    0.0000000000000000E+00     0.0000000000000000E+00     0.0000000000000000E+00 
    1.0000000000000000E+00     0.0000000000000000E+00     0.0000000000000000E+00 
    1.0000000000000000E+00     1.0000000000000000E+00     0.0000000000000000E+00 
    0.0000000000000000E+00     1.0000000000000000E+00     0.0000000000000000E+00 
    6.2499999999872928E-02     0.0000000000000000E+00     0.0000000000000000E+00 
    1.2499999999977310E-01     0.0000000000000000E+00     0.0000000000000000E+00 
    1.8749999999959341E-01     0.0000000000000000E+00     0.0000000000000000E+00 
    2.4999999999941089E-01     0.0000000000000000E+00     0.0000000000000000E+00 
    3.1249999999922851E-01     0.0000000000000000E+00     0.0000000000000000E+00 
    3.7499999999904610E-01     0.0000000000000000E+00     0.0000000000000000E+00 
    4.3749999999886358E-01     0.0000000000000000E+00     0.0000000000000000E+00 
    4.9999999999869210E-01     0.0000000000000000E+00     0.0000000000000000E+00 
    5.6249999999884603E-01     0.0000000000000000E+00     0.0000000000000000E+00 
    6.2499999999901090E-01     0.0000000000000000E+00     0.0000000000000000E+00 
    6.8749999999917577E-01     0.0000000000000000E+00     0.0000000000000000E+00 
    7.4999999999934064E-01     0.0000000000000000E+00     0.0000000000000000E+00 
    8.1249999999950551E-01     0.0000000000000000E+00     0.0000000000000000E+00 
    8.7499999999967026E-01     0.0000000000000000E+00     0.0000000000000000E+00 
    9.3749999999983513E-01     0.0000000000000000E+00     0.0000000000000000E+00 
    1.0000000000000000E+00     6.2499999999872928E-02     0.0000000000000000E+00 
    1.0000000000000000E+00     1.2499999999977310E-01     0.0000000000000000E+00 
    1.0000000000000000E+00     1.8749999999959341E-01     0.0000000000000000E+00 
    1.0000000000000000E+00     2.4999999999941089E-01     0.0000000000000000E+00 
    1.0000000000000000E+00     3.1249999999922851E-01     0.0000000000000000E+00 
    1.0000000000000000E+00     3.7499999999904610E-01     0.0000000000000000E+00 
    1.0000000000000000E+00     4.3749999999886358E-01     0.0000000000000000E+00 
    1.0000000000000000E+00     4.9999999999869210E-01     0.0000000000000000E+00 
    1.0000000000000000E+00     5.6249999999884603E-01     0.0000000000000000E+00 
    1.0000000000000000E+00     6.2499999999901090E-01     0.0000000000000000E+00 
    1.0000000000000000E+00     6.8749999999917577E-01     0.0000000000000000E+00 
    1.0000000000000000E+00     7.4999999999934064E-01     0.0000000000000000E+00 
    1.0000000000000000E+00     8.1249999999950551E-01     0.0000000000000000E+00 
    1.0000000000000000E+00     8.7499999999967026E-01     0.0000000000000000E+00 
    1.0000000000000000E+00     9.3749999999983513E-01     0.0000000000000000E+00 
    9.3749999999973976E-01     1.0000000000000000E+00     0.0000000000000000E+00 
    8.7499999999950118E-01     1.0000000000000000E+00     0.0000000000000000E+00 
    8.1249999999991318E-01     1.0000000000000000E+00     0.0000000000000000E+00 
    7.5000000000034706E-01     1.0000000000000000E+00     0.0000000000000000E+00 
    6.8750000000078049E-01     1.0000000000000000E+00     0.0000000000000000E+00 
    6.2500000000121403E-01     1.0000000000000000E+00     0.0000000000000000E+00 
    5.6250000000164757E-01     1.0000000000000000E+00     0.0000000000000000E+00 
    5.0000000000205946E-01     1.0000000000000000E+00     0.0000000000000000E+00 
    4.3750000000182099E-01     1.0000000000000000E+00     0.0000000000000000E+00 
    3.7500000000156092E-01     1.0000000000000000E+00     0.0000000000000000E+00 
    3.1250000000130068E-01     1.0000000000000000E+00     0.0000000000000000E+00 
    2.5000000000104050E-01     1.0000000000000000E+00     0.0000000000000000E+00 
    1.8750000000078040E-01     1.0000000000000000E+00     0.0000000000000000E+00 
    1.2500000000052031E-01     1.0000000000000000E+00     0.0000000000000000E+00 
    6.2500000000260125E-02     1.0000000000000000E+00     0.0000000000000000E+00 
    0.0000000000000000E+00     9.3749999999973976E-01     0.0000000000000000E+00 
    0.0000000000000000E+00     8.7499999999950118E-01     0.0000000000000000E+00 
    0.0000000000000000E+00     8.1249999999991318E-01     0.0000000000000000E+00 
    0.0000000000000000E+00     7.5000000000034706E-01     0.0000000000000000E+00 
    0.0000000000000000E+00     6.8750000000078049E-01     0.0000000000000000E+00 
    0.0000000000000000E+00     6.2500000000121403E-01     0.0000000000000000E+00 
    0.0000000000000000E+00     5.6250000000164757E-01     0.0000000000000000E+00 
    0.0000000000000000E+00     5.0000000000205946E-01     0.0000000000000000E+00 
    0.0000000000000000E+00     4.3750000000182099E-01     0.0000000000000000E+00 
    0.0000000000000000E+00     3.7500000000156092E-01     0.0000000000000000E+00 
    0.0000000000000000E+00     3.1250000000130068E-01     0.0000000000000000E+00 
    0.0000000000000000E+00     2.5000000000104050E-01     0.0000000000000000E+00 
    0.0000000000000000E+00     1.8750000000078040E-01     0.0000000000000000E+00 
    0.0000000000000000E+00     1.2500000000052031E-01     0.0000000000000000E+00 
    0.0000000000000000E+00     6.2500000000260125E-02     0.0000000000000000E+00 
    6.2499999999897131E-02     6.2500000000235922E-02     0.0000000000000000E+00 
    6.2499999999921327E-02     1.2500000000047351E-01     0.0000000000000000E+00 
    6.2499999999945530E-02     1.8750000000070621E-01     0.0000000000000000E+00 
    6.2499999999969733E-02     2.5000000000093858E-01     0.0000000000000000E+00 
    6.2499999999993928E-02     3.1250000000117117E-01     0.0000000000000000E+00 
    6.2500000000018124E-02     3.7500000000140382E-01     0.0000000000000000E+00 
    6.2500000000042327E-02     4.3750000000163619E-01     0.0000000000000000E+00 
    6.2500000000066530E-02     5.0000000000184897E-01     0.0000000000000000E+00 
    6.2500000000090733E-02     5.6250000000147260E-01     0.0000000000000000E+00 
    6.2500000000114922E-02     6.2500000000107636E-01     0.0000000000000000E+00 
    6.2500000000139125E-02     6.8750000000068034E-01     0.0000000000000000E+00 
    6.2500000000163328E-02     7.5000000000028411E-01     0.0000000000000000E+00 
    6.2500000000187531E-02     8.1249999999988787E-01     0.0000000000000000E+00 
    6.2500000000211720E-02     8.7499999999951172E-01     0.0000000000000000E+00 
    6.2500000000235922E-02     9.3749999999974565E-01     0.0000000000000000E+00 
    1.2499999999981980E-01     6.2500000000211733E-02     0.0000000000000000E+00 
    1.2499999999986650E-01     1.2500000000042691E-01     0.0000000000000000E+00 
    1.2499999999991319E-01     1.8750000000063199E-01     0.0000000000000000E+00 
    1.2499999999995989E-01     2.5000000000083678E-01     0.0000000000000000E+00 
    1.2500000000000661E-01     3.1250000000104172E-01     0.0000000000000000E+00 
    1.2500000000005329E-01     3.7500000000124661E-01     0.0000000000000000E+00 
    1.2500000000010000E-01     4.3750000000145117E-01     0.0000000000000000E+00 
    1.2500000000014669E-01     5.0000000000163858E-01     0.0000000000000000E+00 
    1.2500000000019340E-01     5.6250000000129741E-01     0.0000000000000000E+00 
    1.2500000000024011E-01     6.2500000000093847E-01     0.0000000000000000E+00 
    1.2500000000028680E-01     6.8750000000057998E-01     0.0000000000000000E+00 
    1.2500000000033351E-01     7.5000000000022127E-01     0.0000000000000000E+00 
    1.2500000000038020E-01     8.1249999999986211E-01     0.0000000000000000E+00 
    1.2500000000042691E-01     8.7499999999952238E-01     0.0000000000000000E+00 
    1.2500000000047359E-01     9.3749999999975164E-01     0.0000000000000000E+00 
    1.8749999999966760E-01     6.2500000000187531E-02     0.0000000000000000E+00 
    1.8749999999974179E-01     1.2500000000038020E-01     0.0000000000000000E+00 
    1.8749999999981601E-01     1.8750000000055780E-01     0.0000000000000000E+00 
    1.8749999999989009E-01     2.5000000000073502E-01     0.0000000000000000E+00 
    1.8749999999996431E-01     3.1250000000091221E-01     0.0000000000000000E+00 
    1.8750000000003850E-01     3.7500000000108941E-01     0.0000000000000000E+00 
    1.8750000000011269E-01     4.3750000000126649E-01     0.0000000000000000E+00 
    1.8750000000018691E-01     5.0000000000142808E-01     0.0000000000000000E+00 
    1.8750000000026110E-01     5.6250000000112244E-01     0.0000000000000000E+00 
    1.8750000000033529E-01     6.2500000000080080E-01     0.0000000000000000E+00 
    1.8750000000040951E-01     6.8750000000047962E-01     0.0000000000000000E+00 
    1.8750000000048361E-01     7.5000000000015843E-01     0.0000000000000000E+00 
    1.8750000000055780E-01     8.1249999999983680E-01     0.0000000000000000E+00 
    1.8750000000063199E-01     8.7499999999953304E-01     0.0000000000000000E+00 
    1.8750000000070621E-01     9.3749999999975764E-01     0.0000000000000000E+00 
    2.4999999999951281E-01     6.2500000000163314E-02     0.0000000000000000E+00 
    2.4999999999961461E-01     1.2500000000033351E-01     0.0000000000000000E+00 
    2.4999999999971650E-01     1.8750000000048361E-01     0.0000000000000000E+00 
    2.4999999999981831E-01     2.5000000000063310E-01     0.0000000000000000E+00 
    2.4999999999992020E-01     3.1250000000078260E-01     0.0000000000000000E+00 
    2.5000000000002198E-01     3.7500000000093209E-01     0.0000000000000000E+00 
    2.5000000000012390E-01     4.3750000000108180E-01     0.0000000000000000E+00 
    2.5000000000022571E-01     5.0000000000121769E-01     0.0000000000000000E+00 
    2.5000000000032763E-01     5.6250000000094724E-01     0.0000000000000000E+00 
    2.5000000000042938E-01     6.2500000000066314E-01     0.0000000000000000E+00 
    2.5000000000053119E-01     6.8750000000037925E-01     0.0000000000000000E+00 
[...]
CELL_DATA 256 
SCALARS Pressure double 1 
LOOKUP_TABLE default 

    8.5451446218906324E-01 
    8.5262623809387594E-01 
    8.5087407845047713E-01 
    8.4922276374414873E-01 
    8.4767763717457301E-01 
    8.4623726040632952E-01 
    8.4490504366573937E-01 
    8.4368756683580182E-01 
    8.4259412711069603E-01 
    8.4162807138953455E-01 
    8.4079385641093252E-01 
    8.4009361117949766E-01 
    8.3952980134883326E-01 
    8.3910804678432682E-01 
    8.3882167839294630E-01 
    8.3867918209069925E-01 
    8.2690567714369290E-01 
    8.2681256497627609E-01 
    8.2664357861751558E-01 
    8.2641299139293900E-01 
    8.2613568797787906E-01 
    8.2582492640899019E-01 
    8.2549536795059841E-01 
    8.2516008492397297E-01 
    8.2483173941273036E-01 
    8.2452190502459588E-01 
    8.2424099412898744E-01 
    8.2399576011168640E-01 
    8.2379210700655203E-01 
    8.2363372894596321E-01 
    8.2351030740128084E-01 
    8.2343560181510822E-01 
    8.0153104387315921E-01 
    8.0150849329322882E-01 
    8.0146452302619797E-01 
    8.0140185475971026E-01 
    8.0132471903048497E-01 
    8.0123767955798586E-01 
    8.0114315553420257E-01 
    8.0104455272836217E-01 
    8.0094498959291971E-01 
    8.0084687371864705E-01 
    8.0075150386042004E-01 
    8.0066221070576649E-01 
    8.0058056132258759E-01 
    8.0049644408765708E-01 
    8.0040058778885947E-01 
    8.0032826355289555E-01 
    7.7054146817714086E-01 
    7.7054192085563300E-01 
    7.7054357281570807E-01 
    7.7054873695497783E-01 
    7.7055985199219779E-01 
    7.7057816976585691E-01 
    7.7059687879007754E-01 
    7.7061257314796983E-01 
    7.7062124572363366E-01 
    7.7061842754020904E-01 
    7.7059849640734734E-01 
    7.7056211200840596E-01 
    7.7050005677298994E-01 
    7.7039438970565122E-01 
    7.7026654569534447E-01 
    7.7016674544364083E-01 
    7.3067909127209130E-01 
    7.3070079986930103E-01 
    7.3074181737420640E-01 
    7.3080082384159784E-01 
    7.3087549926286643E-01 
    7.3096199764639636E-01 
    7.3105100856197236E-01 
    7.3113498916971453E-01 
    7.3120631782450929E-01 
    7.3125697196871309E-01 
    7.3126863377138829E-01 
    7.3123127603902449E-01 
    7.3112419522915417E-01 
    7.3096525751642361E-01 
    7.3081676375045412E-01 
    7.3069187105658495E-01 
    6.7945192300800472E-01 
    6.7951617991518432E-01 
    6.7961976182894701E-01 
    6.7973921827660411E-01 
    6.7984911704387474E-01 
    6.7992009022233402E-01 
    6.7994863894677504E-01 
    6.7993716881938071E-01 
    6.7988926652046144E-01 
    6.7980354624778661E-01 
    6.7966184572712129E-01 
    6.7944249979437954E-01 
    6.7918354218506871E-01 
    6.7897574603555755E-01 
    6.7885267056964105E-01 
    6.7881204360847258E-01 
    6.2667614429421081E-01 
    6.2661665165779223E-01 
    6.2649772158961559E-01 
    6.2631679091723824E-01 
    6.2606577966217469E-01 
    6.2575963428727122E-01 
    6.2544202917045832E-01 
    6.2510042434482049E-01 
    6.2472208496311421E-01 
    6.2430353485233125E-01 
    6.2387469845251353E-01 
    6.2348063449379432E-01 
    6.2319578417633648E-01 
    6.2302566613318422E-01 
    6.2294543899044141E-01 
    6.2293892331676182E-01 
    5.7031327955138833E-01 
    5.7019755054197230E-01 
    5.6998263236882762E-01 
    5.6968472183850405E-01 
    5.6931821365684954E-01 
    5.6889928594083483E-01 
    5.6846236512696369E-01 
    5.6802958697548267E-01 
    5.6762085408820118E-01 
    5.6724777570272766E-01 
    5.6693370710942337E-01 
    5.6671265652046876E-01 
    5.6657390776052463E-01 
    5.6648767594984584E-01 
    5.6643746056968669E-01 
    5.6640981004197177E-01 
    5.0828739178123516E-01 
    5.0814125685639866E-01 
    5.0789547161066406E-01 
    5.0760012926105902E-01 
    5.0731004167319849E-01 
    5.0705986340037079E-01 
    5.0687228739125167E-01 
    5.0677644102693042E-01 
    5.0679546570901346E-01 
    5.0689248194482606E-01 
    5.0698811281240086E-01 
    5.0706141469686683E-01 
    5.0710144595998030E-01 
    5.0709880103307292E-01 
    5.0703971723993324E-01 
    5.0690572878647266E-01 
    4.3349420796036292E-01 
    4.3353421009759424E-01 
    4.3360823295875328E-01 
    4.3371601606332372E-01 
    4.3386126547045489E-01 
    4.3404594876982416E-01 
    4.3423583321451520E-01 
    4.3439185255097523E-01 
    4.3448622066015169E-01 
    4.3450215809832282E-01 
    4.3445835018495804E-01 
    4.3437316117058034E-01 
    4.3426132897897080E-01 
    4.3413497624304304E-01 
    4.3400394868355652E-01 
    4.3387626985442634E-01 
    3.5010476583728928E-01 
    3.5010561498124032E-01 
    3.5008968453525352E-01 
    3.5003329417642898E-01 
    3.4990813543562510E-01 
    3.4968183679313974E-01 
    3.4941715349444774E-01 
    3.4913128655355757E-01 
    3.4884029735844413E-01 
    3.4856010003385052E-01 
    3.4835106194908544E-01 
    3.4820768421609216E-01 
    3.4812607242345034E-01 
    3.4810428628786594E-01 
    3.4814224247079928E-01 
    3.4824151355812422E-01 
    2.7312303625585233E-01 
    2.7312851046350822E-01 
    2.7312938037881279E-01 
    2.7311304724804758E-01 
    2.7306547175882545E-01 
    2.7297240943588635E-01 
    2.7285255798297009E-01 
    2.7272097839689780E-01 
    2.7259329352251416E-01 
    2.7248614891729772E-01 
    2.7242640489403552E-01 
    2.7240829201099170E-01 
    2.7242762460940906E-01 
    2.7248224931479675E-01 
    2.7257211837320550E-01 
    2.7269919408482046E-01 
    2.1054183665009857E-01 
    2.1053976255831738E-01 
    2.1053008700769413E-01 
    2.1050595899501306E-01 
    2.1045974124713301E-01 
    2.1038360349326621E-01 
    2.1028879543510109E-01 
    2.1018460459073657E-01 
    2.1008070699889161E-01 
    2.0998733701660041E-01 
    2.0992095728475382E-01 
    2.0987897467316236E-01 
    2.0985981814991753E-01 
    2.0986313053041852E-01 
    2.0988978688104853E-01 
    2.0994180645997598E-01 
    1.5446437074775135E-01 
    1.5442921787454847E-01 
    1.5435889507871983E-01 
    1.5425393982783822E-01 
    1.5411554196352550E-01 
    1.5394565050965017E-01 
    1.5375276392646736E-01 
    1.5354503270045231E-01 
    1.5333128464635901E-01 
    1.5312095202629111E-01 
    1.5292633429111560E-01 
    1.5275388236431084E-01 
    1.5261028339057972E-01 
    1.5250213400179533E-01 
    1.5243557579233680E-01 
    1.5241579537183583E-01 
    1.0248365064371040E-01 
    1.0234286769122376E-01 
    1.0206678836692201E-01 
    1.0166378458313359E-01 
    1.0114491793201304E-01 
    1.0052380035289876E-01 
    9.9809142523277328E-02 
    9.9013043991659042E-02 
    9.8151359363972762E-02 
    9.7244370284577150E-02 
    9.6316464995985798E-02 
    9.5404624452389689E-02 
    9.4551997471798543E-02 
    9.3809155074174103E-02 
    9.3235624797970554E-02 
    9.2901747795786457E-02 
    6.2691333767505075E-02 
    6.2234738598790626E-02 
    6.1329311805555571E-02 
    5.9980392082957801E-02 
    5.8190376518517606E-02 
    5.5949735462293336E-02 
    5.3221168376975478E-02 
    4.9963408337461705E-02 
    4.6130746718476980E-02 
    4.1696833784759052E-02 
    3.6625152606620220E-02 
    3.0872569965892927E-02 
    2.4388335732678956E-02 
    1.7113099433351490E-02 
    8.9778386474282535E-03 
    0.0000000000000000E+00 

SCALARS Saturarion double 1 
LOOKUP_TABLE default 

    1.0000000003629579E+00 
    9.7399688500236214E-01 
    9.2948574266742512E-01 
    8.8986750643049406E-01 
    8.5416998574076142E-01 
    8.1825923273164092E-01 
    7.8307856030339396E-01 
    7.4806394991545555E-01 
    7.1348604827383311E-01 
    6.7983228714639976E-01 
    6.4587635936010446E-01 
    6.0786781120815947E-01 
    5.6555104729690275E-01 
    5.1642370156512818E-01 
    4.4094509777138152E-01 
    7.8511602177368925E-02 
    8.8487991376229291E-01 
    8.7205831178979809E-01 
    8.4334833386504682E-01 
    8.1316132105699257E-01 
    7.8312475931363279E-01 
    7.5366236915526597E-01 
    7.2483982780386624E-01 
    6.9659039626588004E-01 
    6.6929674572177333E-01 
    6.4067872813092663E-01 
    6.0944189022265827E-01 
    5.7535647896862696E-01 
    5.3551513062584855E-01 
    4.8952226293131501E-01 
    3.6282056432480209E-01 
    1.6143432859633593E-02 
    7.5623420221433291E-01 
    7.4694689208240372E-01 
    7.2709386863159087E-01 
    7.0532352833829082E-01 
    6.8499097067413350E-01 
    6.6494666397279256E-01 
    6.4485323699251207E-01 
    6.2405250339473461E-01 
    6.0294255630002680E-01 
    5.7883951978770642E-01 
    5.5259693517854180E-01 
    5.2367071795613884E-01 
    4.8693437526813038E-01 
    4.2790547838920640E-01 
    1.4194514096130653E-01 
    2.9215892285492208E-04 
    6.6906664886009781E-01 
    6.6305396559087593E-01 
    6.4922547351267934E-01 
    6.3408589796137194E-01 
    6.1838859231422083E-01 
    6.0167919752600130E-01 
    5.8381921544623328E-01 
    5.6621445253640390E-01 
    5.4804547747539856E-01 
    5.2742795442030665E-01 
    5.0470061544670808E-01 
    4.7903083057293516E-01 
    4.3281524321700476E-01 
    2.4326032034375078E-01 
    6.4064592324302484E-03 
    4.9445332520780589E-06 
    6.0519013090824536E-01 
    6.0104934646939345E-01 
    5.9026513320423346E-01 
    5.7877917727032002E-01 
    5.6439086165867924E-01 
    5.4927624615588289E-01 
    5.3395369296349482E-01 
    5.1870727816506301E-01 
    5.0163913289540762E-01 
    4.8475591056752398E-01 
    4.6477302597110598E-01 
    4.3562102095473465E-01 
    3.1315598269237710E-01 
    2.6303542404599110E-02 
    1.7634648132746868E-04 
    1.0098330774890540E-06 
    5.5659443982972312E-01 
    5.5353716622097859E-01 
    5.4528373521163709E-01 
    5.3525472965266907E-01 
    5.1842957289871028E-01 
    5.0600779611675961E-01 
    4.9363572854202947E-01 
    4.8134019428326508E-01 
    4.6566262140403797E-01 
    4.5155881416236709E-01 
    4.2435872696227966E-01 
    3.2468938583227408E-01 
    5.7073944013925106E-02 
    4.9094333300076583E-04 
    1.0159831121443789E-06 
    1.0000000035007721E-06 
    5.1727931502625080E-01 
    5.1535823861196417E-01 
    5.1109480749342262E-01 
    5.0516343731586488E-01 
    4.8624319992281068E-01 
    4.7119918228691193E-01 
    4.6017651371810286E-01 
    4.4872737866667245E-01 
    4.3374555085171629E-01 
    3.9671713335593084E-01 
    2.5782796877530678E-01 
    4.6653058382640999E-02 
    7.7495442011186794E-04 
    1.0286628532524717E-06 
    1.0000000117841116E-06 
    1.0000000000000006E-06 
    4.7715499879604190E-01 
    4.7492161897548296E-01 
    4.7109026455849212E-01 
    4.6640981703642104E-01 
    4.5266977580098477E-01 
    4.2078707814729599E-01 
    3.8110231384800308E-01 
    3.2259547429871516E-01 
    2.2929954428040794E-01 
    9.8487119245806498E-02 
    1.0041651225304853E-02 
    1.3320625474300446E-03 
    1.1503689967685545E-06 
    1.0000000395403888E-06 
    1.0000000000000040E-06 
    9.9999999999999995E-07 
    3.5311458064467083E-01 
    3.4531991785731170E-01 
    3.3170101136714147E-01 
    3.1152959941190206E-01 
    2.6383611619389163E-01 
    1.5669860994273904E-01 
    5.5265513033985011E-02 
    1.6959086443924569E-02 
    5.8438501539724227E-04 
    3.1716416903435974E-04 
    5.7039002912349758E-05 
    1.5175772358855659E-06 
    1.0000003032547033E-06 
    1.0000000000000160E-06 
    9.9999999999999995E-07 
    9.9999999999999995E-07 
    2.0047777560725785E-02 
    1.6948156739566206E-02 
    1.1230419476500775E-02 
    6.2979053348108790E-03 
    2.8380189375465156E-03 
    5.8040513000569998E-04 
    6.4532160577107341E-05 
    9.9864202728416863E-05 
    1.0524997396453833E-06 
    1.0240500136431052E-06 
    1.0006917166218969E-06 
    1.0000003736647791E-06 
    1.0000000000002204E-06 
    9.9999999999999995E-07 
    9.9999999999999995E-07 
    9.9999999999999995E-07 
    1.0025576503826192E-06 
    1.0364358204271931E-06 
    1.1251713904456224E-06 
    1.1311540276175927E-06 
    1.3459875226003526E-06 
    1.2190460892288299E-06 
    1.0006982443238167E-06 
    1.0006977816436854E-06 
    1.0000000050827351E-06 
    1.0000000000745408E-06 
    1.0000000002851108E-06 
    1.0000000000000887E-06 
    9.9999999999999995E-07 
    9.9999999999999995E-07 
    9.9999999999999995E-07 
    9.9999999999999995E-07 
    1.0000000005040629E-06 
    1.0000000044116235E-06 
    1.0000000131729287E-06 
    9.9999998319564280E-07 
    1.0000002563467921E-06 
    1.0000000602190024E-06 
    1.0000000000003942E-06 
    1.0000000000000129E-06 
    1.0000000000000004E-06 
    9.9999999999999995E-07 
    1.0000000000000002E-06 
    9.9999999999999995E-07 
    9.9999999999999995E-07 
    9.9999999999999995E-07 
    9.9999999999999995E-07 
    9.9999999999999995E-07 
    9.9999999999999953E-07 
    9.9999999999999974E-07 
    1.0000000000000012E-06 
    9.9999999999999932E-07 
    1.0000000000001012E-06 
    1.0000000000000124E-06 
    1.0000000000000002E-06 
    9.9999999999999995E-07 
    9.9999999999999995E-07 
    9.9999999999999995E-07 
    9.9999999999999995E-07 
    9.9999999999999995E-07 
    9.9999999999999995E-07 
    9.9999999999999995E-07 
    9.9999999999999995E-07 
    9.9999999999999995E-07 
    9.9999999999999995E-07 
    9.9999999999999995E-07 
    9.9999999999999995E-07 
    9.9999999999999995E-07 
    9.9999999999999995E-07 
    9.9999999999999995E-07 
    9.9999999999999995E-07 
    9.9999999999999995E-07 
    9.9999999999999995E-07 
    9.9999999999999995E-07 
    9.9999999999999995E-07 
    9.9999999999999995E-07 
    9.9999999999999995E-07 
    9.9999999999999995E-07 
    9.9999999999999995E-07 
    9.9999999999999995E-07 
    9.9999999999999995E-07 
    9.9999999999999995E-07 
    9.9999999999999995E-07 
    9.9999999999999995E-07 
    9.9999999999999995E-07 
    9.9999999999999995E-07 
    9.9999999999999995E-07 
    9.9999999999999995E-07 
    9.9999999999999995E-07 
    9.9999999999999995E-07 
    9.9999999999999995E-07 
    9.9999999999999995E-07 
    9.9999999999999995E-07 
    9.9999999999999995E-07 
    9.9999999999999995E-07 
    9.9999999999999995E-07 
    9.9999999999999995E-07 
    9.9999999999999995E-07 
    9.9999999999999995E-07 
    9.9999999999999995E-07 
    9.9999999999999995E-07 
    9.9999999999999995E-07 
    9.9999999999999995E-07 
    9.9999999999999995E-07 
    9.9999999999999995E-07 
    9.9999999999999995E-07 
    9.9999999999999995E-07 
    9.9999999999999995E-07 
    9.9999999999999995E-07 
    9.9999999999999995E-07 
    9.9999999999999995E-07 
    1.0000001309310929E-06 
