# vtk DataFile Version 2.0
Pressure Field Data 
ASCII 
DATASET UNSTRUCTURED_GRID 

POINTS 289 double 

    0.0000000000000000E+00     0.0000000000000000E+00     0.0000000000000000E+00 
    1.0000000000000000E+00     0.0000000000000000E+00     0.0000000000000000E+00 
    1.0000000000000000E+00     1.0000000000000000E+00     0.0000000000000000E+00 
    0.0000000000000000E+00     1.0000000000000000E+00     0.0000000000000000E+00 
    6.2499999999872928E-02     0.0000000000000000E+00     0.0000000000000000E+00 
    1.2499999999977310E-01     0.0000000000000000E+00     0.0000000000000000E+00 
    1.8749999999959341E-01     0.0000000000000000E+00     0.0000000000000000E+00 
    2.4999999999941089E-01     0.0000000000000000E+00     0.0000000000000000E+00 
    3.1249999999922851E-01     0.0000000000000000E+00     0.0000000000000000E+00 
    3.7499999999904610E-01     0.0000000000000000E+00     0.0000000000000000E+00 
    4.3749999999886358E-01     0.0000000000000000E+00     0.0000000000000000E+00 
    4.9999999999869210E-01     0.0000000000000000E+00     0.0000000000000000E+00 
    5.6249999999884603E-01     0.0000000000000000E+00     0.0000000000000000E+00 
    6.2499999999901090E-01     0.0000000000000000E+00     0.0000000000000000E+00 
    6.8749999999917577E-01     0.0000000000000000E+00     0.0000000000000000E+00 
    7.4999999999934064E-01     0.0000000000000000E+00     0.0000000000000000E+00 
    8.1249999999950551E-01     0.0000000000000000E+00     0.0000000000000000E+00 
    8.7499999999967026E-01     0.0000000000000000E+00     0.0000000000000000E+00 
    9.3749999999983513E-01     0.0000000000000000E+00     0.0000000000000000E+00 
    1.0000000000000000E+00     6.2499999999872928E-02     0.0000000000000000E+00 
    1.0000000000000000E+00     1.2499999999977310E-01     0.0000000000000000E+00 
    1.0000000000000000E+00     1.8749999999959341E-01     0.0000000000000000E+00 
    1.0000000000000000E+00     2.4999999999941089E-01     0.0000000000000000E+00 
    1.0000000000000000E+00     3.1249999999922851E-01     0.0000000000000000E+00 
    1.0000000000000000E+00     3.7499999999904610E-01     0.0000000000000000E+00 
    1.0000000000000000E+00     4.3749999999886358E-01     0.0000000000000000E+00 
    1.0000000000000000E+00     4.9999999999869210E-01     0.0000000000000000E+00 
    1.0000000000000000E+00     5.6249999999884603E-01     0.0000000000000000E+00 
    1.0000000000000000E+00     6.2499999999901090E-01     0.0000000000000000E+00 
    1.0000000000000000E+00     6.8749999999917577E-01     0.0000000000000000E+00 
    1.0000000000000000E+00     7.4999999999934064E-01     0.0000000000000000E+00 
    1.0000000000000000E+00     8.1249999999950551E-01     0.0000000000000000E+00 
    1.0000000000000000E+00     8.7499999999967026E-01     0.0000000000000000E+00 
    1.0000000000000000E+00     9.3749999999983513E-01     0.0000000000000000E+00 
    9.3749999999973976E-01     1.0000000000000000E+00     0.0000000000000000E+00 
    8.7499999999950118E-01     1.0000000000000000E+00     0.0000000000000000E+00 
    8.1249999999991318E-01     1.0000000000000000E+00     0.0000000000000000E+00 
    7.5000000000034706E-01     1.0000000000000000E+00     0.0000000000000000E+00 
    6.8750000000078049E-01     1.0000000000000000E+00     0.0000000000000000E+00 
    6.2500000000121403E-01     1.0000000000000000E+00     0.0000000000000000E+00 
    5.6250000000164757E-01     1.0000000000000000E+00     0.0000000000000000E+00 
    5.0000000000205946E-01     1.0000000000000000E+00     0.0000000000000000E+00 
    4.3750000000182099E-01     1.0000000000000000E+00     0.0000000000000000E+00 
    3.7500000000156092E-01     1.0000000000000000E+00     0.0000000000000000E+00 
    3.1250000000130068E-01     1.0000000000000000E+00     0.0000000000000000E+00 
    2.5000000000104050E-01     1.0000000000000000E+00     0.0000000000000000E+00 
    1.8750000000078040E-01     1.0000000000000000E+00     0.0000000000000000E+00 
    1.2500000000052031E-01     1.0000000000000000E+00     0.0000000000000000E+00 
    6.2500000000260125E-02     1.0000000000000000E+00     0.0000000000000000E+00 
    0.0000000000000000E+00     9.3749999999973976E-01     0.0000000000000000E+00 
    0.0000000000000000E+00     8.7499999999950118E-01     0.0000000000000000E+00 
    0.0000000000000000E+00     8.1249999999991318E-01     0.0000000000000000E+00 
    0.0000000000000000E+00     7.5000000000034706E-01     0.0000000000000000E+00 
    0.0000000000000000E+00     6.8750000000078049E-01     0.0000000000000000E+00 
    0.0000000000000000E+00     6.2500000000121403E-01     0.0000000000000000E+00 
    0.0000000000000000E+00     5.6250000000164757E-01     0.0000000000000000E+00 
    0.0000000000000000E+00     5.0000000000205946E-01     0.0000000000000000E+00 
    0.0000000000000000E+00     4.3750000000182099E-01     0.0000000000000000E+00 
    0.0000000000000000E+00     3.7500000000156092E-01     0.0000000000000000E+00 
    0.0000000000000000E+00     3.1250000000130068E-01     0.0000000000000000E+00 
    0.0000000000000000E+00     2.5000000000104050E-01     0.0000000000000000E+00 
    0.0000000000000000E+00     1.8750000000078040E-01     0.0000000000000000E+00 
    0.0000000000000000E+00     1.2500000000052031E-01     0.0000000000000000E+00 
    0.0000000000000000E+00     6.2500000000260125E-02     0.0000000000000000E+00 
    6.2499999999897131E-02     6.2500000000235922E-02     0.0000000000000000E+00 
    6.2499999999921327E-02     1.2500000000047351E-01     0.0000000000000000E+00 
    6.2499999999945530E-02     1.8750000000070621E-01     0.0000000000000000E+00 
    6.2499999999969733E-02     2.5000000000093858E-01     0.0000000000000000E+00 
    6.2499999999993928E-02     3.1250000000117117E-01     0.0000000000000000E+00 
    6.2500000000018124E-02     3.7500000000140382E-01     0.0000000000000000E+00 
    6.2500000000042327E-02     4.3750000000163619E-01     0.0000000000000000E+00 
    6.2500000000066530E-02     5.0000000000184897E-01     0.0000000000000000E+00 
    6.2500000000090733E-02     5.6250000000147260E-01     0.0000000000000000E+00 
    6.2500000000114922E-02     6.2500000000107636E-01     0.0000000000000000E+00 
    6.2500000000139125E-02     6.8750000000068034E-01     0.0000000000000000E+00 
    6.2500000000163328E-02     7.5000000000028411E-01     0.0000000000000000E+00 
    6.2500000000187531E-02     8.1249999999988787E-01     0.0000000000000000E+00 
    6.2500000000211720E-02     8.7499999999951172E-01     0.0000000000000000E+00 
    6.2500000000235922E-02     9.3749999999974565E-01     0.0000000000000000E+00 
    1.2499999999981980E-01     6.2500000000211733E-02     0.0000000000000000E+00 
    1.2499999999986650E-01     1.2500000000042691E-01     0.0000000000000000E+00 
    1.2499999999991319E-01     1.8750000000063199E-01     0.0000000000000000E+00 
    1.2499999999995989E-01     2.5000000000083678E-01     0.0000000000000000E+00 
    1.2500000000000661E-01     3.1250000000104172E-01     0.0000000000000000E+00 
    1.2500000000005329E-01     3.7500000000124661E-01     0.0000000000000000E+00 
    1.2500000000010000E-01     4.3750000000145117E-01     0.0000000000000000E+00 
    1.2500000000014669E-01     5.0000000000163858E-01     0.0000000000000000E+00 
    1.2500000000019340E-01     5.6250000000129741E-01     0.0000000000000000E+00 
    1.2500000000024011E-01     6.2500000000093847E-01     0.0000000000000000E+00 
    1.2500000000028680E-01     6.8750000000057998E-01     0.0000000000000000E+00 
    1.2500000000033351E-01     7.5000000000022127E-01     0.0000000000000000E+00 
    1.2500000000038020E-01     8.1249999999986211E-01     0.0000000000000000E+00 
    1.2500000000042691E-01     8.7499999999952238E-01     0.0000000000000000E+00 
    1.2500000000047359E-01     9.3749999999975164E-01     0.0000000000000000E+00 
    1.8749999999966760E-01     6.2500000000187531E-02     0.0000000000000000E+00 
    1.8749999999974179E-01     1.2500000000038020E-01     0.0000000000000000E+00 
    1.8749999999981601E-01     1.8750000000055780E-01     0.0000000000000000E+00 
    1.8749999999989009E-01     2.5000000000073502E-01     0.0000000000000000E+00 
    1.8749999999996431E-01     3.1250000000091221E-01     0.0000000000000000E+00 
    1.8750000000003850E-01     3.7500000000108941E-01     0.0000000000000000E+00 
    1.8750000000011269E-01     4.3750000000126649E-01     0.0000000000000000E+00 
    1.8750000000018691E-01     5.0000000000142808E-01     0.0000000000000000E+00 
    1.8750000000026110E-01     5.6250000000112244E-01     0.0000000000000000E+00 
    1.8750000000033529E-01     6.2500000000080080E-01     0.0000000000000000E+00 
    1.8750000000040951E-01     6.8750000000047962E-01     0.0000000000000000E+00 
    1.8750000000048361E-01     7.5000000000015843E-01     0.0000000000000000E+00 
    1.8750000000055780E-01     8.1249999999983680E-01     0.0000000000000000E+00 
    1.8750000000063199E-01     8.7499999999953304E-01     0.0000000000000000E+00 
    1.8750000000070621E-01     9.3749999999975764E-01     0.0000000000000000E+00 
    2.4999999999951281E-01     6.2500000000163314E-02     0.0000000000000000E+00 
    2.4999999999961461E-01     1.2500000000033351E-01     0.0000000000000000E+00 
    2.4999999999971650E-01     1.8750000000048361E-01     0.0000000000000000E+00 
    2.4999999999981831E-01     2.5000000000063310E-01     0.0000000000000000E+00 
    2.4999999999992020E-01     3.1250000000078260E-01     0.0000000000000000E+00 
    2.5000000000002198E-01     3.7500000000093209E-01     0.0000000000000000E+00 
    2.5000000000012390E-01     4.3750000000108180E-01     0.0000000000000000E+00 
    2.5000000000022571E-01     5.0000000000121769E-01     0.0000000000000000E+00 
    2.5000000000032763E-01     5.6250000000094724E-01     0.0000000000000000E+00 
    2.5000000000042938E-01     6.2500000000066314E-01     0.0000000000000000E+00 
    2.5000000000053119E-01     6.8750000000037925E-01     0.0000000000000000E+00 
[...]
CELL_DATA 256 
SCALARS Pressure double 1 
LOOKUP_TABLE default 

    1.0119323855572746E+00 
    1.0094897395791675E+00 
    1.0065488583544875E+00 
    1.0031915089726426E+00 
    9.9966421555260332E-01 
    9.9608824891076986E-01 
    9.9222147299171437E-01 
    9.8844511402393898E-01 
    9.8534546245175192E-01 
    9.8268852313248467E-01 
    9.8045103540962730E-01 
    9.7861523920066296E-01 
    9.7716706451301694E-01 
    9.7609607256609232E-01 
    9.7539528990316648E-01 
    9.7506098547185460E-01 
    9.5734813752303738E-01 
    9.5691268856239231E-01 
    9.5600994735031197E-01 
    9.5470080221518194E-01 
    9.5310211186697047E-01 
    9.5137554598396046E-01 
    9.4963855538479369E-01 
    9.4802723647536447E-01 
    9.4661721528625131E-01 
    9.4537353424515069E-01 
    9.4430405411012719E-01 
    9.4341150834471732E-01 
    9.4269793096221344E-01 
    9.4216479164868938E-01 
    9.4181308723141355E-01 
    9.4164337969964895E-01 
    8.9621442166716792E-01 
    8.9600360359105691E-01 
    8.9562108443012989E-01 
    8.9513490598755185E-01 
    8.9461936660717911E-01 
    8.9412969445336665E-01 
    8.9367799721983709E-01 
    8.9325349455066960E-01 
    8.9285236547847280E-01 
    8.9248091692548159E-01 
    8.9214685036541319E-01 
    8.9185790394564657E-01 
    8.9162042062321900E-01 
    8.9143926485943603E-01 
    8.9131785136427633E-01 
    8.9125819866869749E-01 
    8.3543529165892261E-01 
    8.3544082077195914E-01 
    8.3544559945878660E-01 
    8.3544384946000716E-01 
    8.3543479961195910E-01 
    8.3542181899212331E-01 
    8.3539926292570699E-01 
    8.3536715589024224E-01 
    8.3532473483187863E-01 
    8.3527048342485266E-01 
    8.3520313656023515E-01 
    8.3512906182425284E-01 
    8.3505391783389560E-01 
    8.3498234530329873E-01 
    8.3491795457602636E-01 
    8.3486338246138159E-01 
    7.7208704475289769E-01 
    7.7213020352630990E-01 
    7.7220833893702867E-01 
    7.7231381172695213E-01 
    7.7243954951220584E-01 
    7.7257899947239073E-01 
    7.7272059458261588E-01 
    7.7285435396242264E-01 
    7.7297100216952030E-01 
    7.7306171996826356E-01 
    7.7311018865395320E-01 
    7.7312225990485828E-01 
    7.7310342767341378E-01 
    7.7305866583959004E-01 
    7.7299233595249583E-01 
    7.7290815021670412E-01 
    7.0177444198795769E-01 
    7.0187625314198854E-01 
    7.0204362885647764E-01 
    7.0224008071461030E-01 
    7.0242917571837349E-01 
    7.0257629318019288E-01 
    7.0268018556256950E-01 
    7.0274267191172934E-01 
    7.0276630073473367E-01 
    7.0275544013803448E-01 
    7.0272073645182553E-01 
    7.0267354542105553E-01 
    7.0262483003900933E-01 
    7.0258567791850812E-01 
    7.0256741236830389E-01 
    7.0258166022860535E-01 
    6.3527574373996443E-01 
    6.3523137853070522E-01 
    6.3514134239015685E-01 
    6.3500008811765396E-01 
    6.3479840119878783E-01 
    6.3455895997479217E-01 
    6.3433608688105558E-01 
    6.3413429049709202E-01 
    6.3395687825182556E-01 
    6.3380792652787987E-01 
    6.3371278504838946E-01 
    6.3366193226740897E-01 
    6.3364703465655159E-01 
    6.3366062301346315E-01 
    6.3369590947956433E-01 
    6.3374659179264647E-01 
    5.7002121683564488E-01 
    5.6995277613452699E-01 
    5.6983827976828938E-01 
    5.6970159966128631E-01 
    5.6956739471540785E-01 
    5.6946077787320559E-01 
    5.6940596877961158E-01 
    5.6940370002297680E-01 
    5.6945375886998861E-01 
    5.6953570111113183E-01 
    5.6962805931944038E-01 
    5.6972362458304548E-01 
    5.6981464827587214E-01 
    5.6989221620628583E-01 
    5.6994634800954658E-01 
    5.6996622781018924E-01 
    5.0644012668725635E-01 
    5.0637071287939950E-01 
    5.0627831298745340E-01 
    5.0621233160754342E-01 
    5.0622505883786928E-01 
    5.0633451901042703E-01 
    5.0652396983332293E-01 
    5.0677973142555333E-01 
    5.0708906503380935E-01 
    5.0740294797533125E-01 
    5.0766240880281277E-01 
    5.0786608734286787E-01 
    5.0800887710032561E-01 
    5.0808138195143948E-01 
    5.0806957706547573E-01 
    5.0795463440730249E-01 
    4.3415282033339958E-01 
    4.3420131137231432E-01 
    4.3428810215654384E-01 
    4.3440422485758007E-01 
    4.3454062470010574E-01 
    4.3469048067819849E-01 
    4.3482925847346965E-01 
    4.3493783141303988E-01 
    4.3499673211997497E-01 
    4.3498750246055029E-01 
    4.3492663309747581E-01 
    4.3483055146039007E-01 
    4.3471241995394860E-01 
    4.3458308976538446E-01 
    4.3445145486599041E-01 
    4.3432490100422461E-01 
    3.5013554627627685E-01 
    3.5013235509853702E-01 
    3.5010966827193390E-01 
    3.5004514508607598E-01 
    3.4991117347248391E-01 
    3.4967563983376682E-01 
    3.4940228306642962E-01 
    3.4910884642009882E-01 
    3.4881144389178009E-01 
    3.4852576078459374E-01 
    3.4831304899135834E-01 
    3.4816763412314727E-01 
    3.4808544349182907E-01 
    3.4806438005640872E-01 
    3.4810424242409144E-01 
    3.4820653525734213E-01 
    2.7292259937050645E-01 
    2.7292652529784445E-01 
    2.7292474784071774E-01 
    2.7290511413882240E-01 
    2.7285399925328152E-01 
    2.7275752288342336E-01 
    2.7263496945474996E-01 
    2.7250142430024538E-01 
    2.7237250582492228E-01 
    2.7226484875335971E-01 
    2.7220529653330727E-01 
    2.7218791278341931E-01 
    2.7220836791610603E-01 
    2.7226439617060988E-01 
    2.7235587442518550E-01 
    2.7248472975423510E-01 
    2.1033205591510101E-01 
    2.1032926235229943E-01 
    2.1031836609271606E-01 
    2.1029272810716593E-01 
    2.1024490483003855E-01 
    2.1016723106908583E-01 
    2.1007126378829497E-01 
    2.0996629651620730E-01 
    2.0986199399014607E-01 
    2.0976857264106591E-01 
    2.0970247693741476E-01 
    2.0966099717792436E-01 
    2.0964246414214646E-01 
    2.0964644566747587E-01 
    2.0967376825867159E-01 
    2.0972643077642950E-01 
    1.5431207028332247E-01 
    1.5427679976841652E-01 
    1.5420628766651395E-01 
    1.5410111371804883E-01 
    1.5396250343442286E-01 
    1.5379243241542753E-01 
    1.5359946425955609E-01 
    1.5339173925194272E-01 
    1.5317807171247610E-01 
    1.5296787921714763E-01 
    1.5277345978470480E-01 
    1.5260123293498715E-01 
    1.5245786191578090E-01 
    1.5234992779338477E-01 
    1.5228356594692982E-01 
    1.5226396665768854E-01 
    1.0240924235619425E-01 
    1.0226880655849228E-01 
    1.0199331962249110E-01 
    1.0159105706076038E-01 
    1.0107299601891671E-01 
    1.0045268144930498E-01 
    9.9738684072830527E-02 
    9.8943087469783669E-02 
    9.8081735208652113E-02 
    9.7174900295463454E-02 
    9.6246981054343622E-02 
    9.5335020621817604E-02 
    9.4482220728334232E-02 
    9.3739195454112426E-02 
    9.3165505332409235E-02 
    9.2831514704901294E-02 
    6.2692351162346949E-02 
    6.2236325499737684E-02 
    6.1331749911001758E-02 
    5.9983692545973570E-02 
    5.8194312613796838E-02 
    5.5954147924389838E-02 
    5.3225833328065124E-02 
    4.9968051522138408E-02 
    4.6135044133821752E-02 
    4.1700564306297240E-02 
    3.6628181158301548E-02 
    3.0874834536826313E-02 
    2.4389828460103267E-02 
    1.7113843123609383E-02 
    8.9778597895185594E-03 
    0.0000000000000000E+00 

SCALARS Saturarion double 1 
LOOKUP_TABLE default 

    9.8040379933411459E-01 
    7.9657736185993122E-01 
    6.5005219737780673E-01 
    5.7408915391619442E-01 
    5.1149575151529847E-01 
    4.5475785015405468E-01 
    2.7661033369266197E-01 
    2.8201410828953390E-03 
    1.0183086046917946E-06 
    1.0000000073182050E-06 
    1.0000000000000021E-06 
    9.9999999999999995E-07 
    9.9999999999999995E-07 
    9.9999999999999995E-07 
    9.9999999999999995E-07 
    9.9999999999999995E-07 
    5.6057388335009817E-01 
    5.0583594159896794E-01 
    4.2269044478726825E-01 
    3.1583192632676554E-01 
    1.9446377551581451E-01 
    8.3202519821693494E-02 
    1.4926840846918445E-02 
    1.5370797301448964E-05 
    1.0000034410800199E-06 
    1.0000000000001810E-06 
    9.9999999999999995E-07 
    9.9999999999999995E-07 
    9.9999999999999995E-07 
    9.9999999999999995E-07 
    9.9999999999999995E-07 
    9.9999999999999995E-07 
    5.8852909361146843E-02 
    3.9876794520668939E-02 
    1.3888588635560016E-02 
    2.2653539544863800E-03 
    8.6817549241123725E-05 
    5.8748608824046578E-05 
    3.5245796660699688E-05 
    1.0000557797295416E-06 
    1.0000000000015164E-06 
    9.9999999999999995E-07 
    9.9999999999999995E-07 
    9.9999999999999995E-07 
    9.9999999999999995E-07 
    9.9999999999999995E-07 
    9.9999999999999995E-07 
    9.9999999999999995E-07 
    1.3793990991590886E-05 
    1.2259322999118375E-05 
    5.0882187457362931E-06 
    1.9965216235239810E-06 
    1.0016926287827502E-06 
    1.0005386832451619E-06 
    1.0000701532440025E-06 
    1.0000000000056158E-06 
    9.9999999999999995E-07 
    9.9999999999999995E-07 
    9.9999999999999995E-07 
    9.9999999999999995E-07 
    9.9999999999999995E-07 
    9.9999999999999995E-07 
    9.9999999999999995E-07 
    9.9999999999999995E-07 
    1.0000054623719871E-06 
    1.0000191215233899E-06 
    1.0000037465360560E-06 
    1.0000002124262760E-06 
    1.0000000004100531E-06 
    1.0000000000565324E-06 
    1.0000000000089251E-06 
    9.9999999999999995E-07 
    9.9999999999999995E-07 
    9.9999999999999995E-07 
    9.9999999999999995E-07 
    9.9999999999999995E-07 
    9.9999999999999995E-07 
    9.9999999999999995E-07 
    9.9999999999999995E-07 
    9.9999999999999995E-07 
    1.0000000000009560E-06 
    1.0000000000021906E-06 
    1.0000000000003388E-06 
    1.0000000000000387E-06 
    1.0000000000000002E-06 
    9.9999999999999995E-07 
    9.9999999999999995E-07 
    9.9999999999999995E-07 
    9.9999999999999995E-07 
    9.9999999999999995E-07 
    9.9999999999999995E-07 
    9.9999999999999995E-07 
    9.9999999999999995E-07 
    9.9999999999999995E-07 
    9.9999999999999995E-07 
    9.9999999999999995E-07 
    9.9999999999999995E-07 
    9.9999999999999995E-07 
    9.9999999999999995E-07 
    9.9999999999999995E-07 
    9.9999999999999995E-07 
    9.9999999999999995E-07 
    9.9999999999999995E-07 
    9.9999999999999995E-07 
    9.9999999999999995E-07 
    9.9999999999999995E-07 
    9.9999999999999995E-07 
    9.9999999999999995E-07 
    9.9999999999999995E-07 
    9.9999999999999995E-07 
    9.9999999999999995E-07 
    9.9999999999999995E-07 
    9.9999999999999995E-07 
    9.9999999999999995E-07 
    9.9999999999999995E-07 
    9.9999999999999995E-07 
    9.9999999999999995E-07 
    9.9999999999999995E-07 
    9.9999999999999995E-07 
    9.9999999999999995E-07 
    9.9999999999999995E-07 
    9.9999999999999995E-07 
    9.9999999999999995E-07 
    9.9999999999999995E-07 
    9.9999999999999995E-07 
    9.9999999999999995E-07 
    9.9999999999999995E-07 
    9.9999999999999995E-07 
    9.9999999999999995E-07 
    9.9999999999999995E-07 
    9.9999999999999995E-07 
    9.9999999999999995E-07 
    9.9999999999999995E-07 
    9.9999999999999995E-07 
    9.9999999999999995E-07 
    9.9999999999999995E-07 
    9.9999999999999995E-07 
    9.9999999999999995E-07 
    9.9999999999999995E-07 
    9.9999999999999995E-07 
    9.9999999999999995E-07 
    9.9999999999999995E-07 
    9.9999999999999995E-07 
    9.9999999999999995E-07 
    9.9999999999999995E-07 
    9.9999999999999995E-07 
    9.9999999999999995E-07 
    9.9999999999999995E-07 
    9.9999999999999995E-07 
    9.9999999999999995E-07 
    9.9999999999999995E-07 
    9.9999999999999995E-07 
    9.9999999999999995E-07 
    9.9999999999999995E-07 
    9.9999999999999995E-07 
    9.9999999999999995E-07 
    9.9999999999999995E-07 
    9.9999999999999995E-07 
    9.9999999999999995E-07 
    9.9999999999999995E-07 
    9.9999999999999995E-07 
    9.9999999999999995E-07 
    9.9999999999999995E-07 
    9.9999999999999995E-07 
    9.9999999999999995E-07 
    9.9999999999999995E-07 
    9.9999999999999995E-07 
    9.9999999999999995E-07 
    9.9999999999999995E-07 
    9.9999999999999995E-07 
    9.9999999999999995E-07 
    9.9999999999999995E-07 
    9.9999999999999995E-07 
    9.9999999999999995E-07 
    9.9999999999999995E-07 
    9.9999999999999995E-07 
    9.9999999999999995E-07 
    9.9999999999999995E-07 
    9.9999999999999995E-07 
    9.9999999999999995E-07 
    9.9999999999999995E-07 
    9.9999999999999995E-07 
    9.9999999999999995E-07 
    9.9999999999999995E-07 
    9.9999999999999995E-07 
    9.9999999999999995E-07 
    9.9999999999999995E-07 
    9.9999999999999995E-07 
    9.9999999999999995E-07 
    9.9999999999999995E-07 
    9.9999999999999995E-07 
    9.9999999999999995E-07 
    9.9999999999999995E-07 
    9.9999999999999995E-07 
    9.9999999999999995E-07 
    9.9999999999999995E-07 
    9.9999999999999995E-07 
    9.9999999999999995E-07 
    9.9999999999999995E-07 
    9.9999999999999995E-07 
    9.9999999999999995E-07 
    9.9999999999999995E-07 
    9.9999999999999995E-07 
    9.9999999999999995E-07 
    9.9999999999999995E-07 
    9.9999999999999995E-07 
    9.9999999999999995E-07 
    9.9999999999999995E-07 
    9.9999999999999995E-07 
    9.9999999999999995E-07 
    9.9999999999999995E-07 
    9.9999999999999995E-07 
    9.9999999999999995E-07 
    9.9999999999999995E-07 
    9.9999999999999995E-07 
    9.9999999999999995E-07 
    9.9999999999999995E-07 
    9.9999999999999995E-07 
    9.9999999999999995E-07 
    9.9999999999999995E-07 
    9.9999999999999995E-07 
    9.9999999999999995E-07 
    9.9999999999999995E-07 
    9.9999999999999995E-07 
    9.9999999999999995E-07 
    9.9999999999999995E-07 
    9.9999999999999995E-07 
    9.9999999999999995E-07 
    9.9999999999999995E-07 
    9.9999999999999995E-07 
    9.9999999999999995E-07 
    9.9999999999999995E-07 
    9.9999999999999995E-07 
    9.9999999999999995E-07 
    9.9999999999999995E-07 
    9.9999999999999995E-07 
    9.9999999999999995E-07 
    9.9999999999999995E-07 
    9.9999999999999995E-07 
    9.9999999999999995E-07 
    9.9999999999999995E-07 
    9.9999999999999995E-07 
    9.9999999999999995E-07 
    9.9999999999999995E-07 
    9.9999999999999995E-07 
    9.9999999999999995E-07 
    9.9999999999999995E-07 
    9.9999999999999995E-07 
    9.9999999999999995E-07 
    9.9999999999999995E-07 
    9.9999999999999995E-07 
    9.9999999999999995E-07 
    9.9999999999999995E-07 
    9.9999999999999995E-07 
    9.9999999999999995E-07 
    1.0000000121735348E-06 
