# vtk DataFile Version 2.0
Pressure Field Data 
ASCII 
DATASET UNSTRUCTURED_GRID 

POINTS 289 double 

    0.0000000000000000E+00     0.0000000000000000E+00     0.0000000000000000E+00 
    1.0000000000000000E+00     0.0000000000000000E+00     0.0000000000000000E+00 
    1.0000000000000000E+00     1.0000000000000000E+00     0.0000000000000000E+00 
    0.0000000000000000E+00     1.0000000000000000E+00     0.0000000000000000E+00 
    6.2499999999872928E-02     0.0000000000000000E+00     0.0000000000000000E+00 
    1.2499999999977310E-01     0.0000000000000000E+00     0.0000000000000000E+00 
    1.8749999999959341E-01     0.0000000000000000E+00     0.0000000000000000E+00 
    2.4999999999941089E-01     0.0000000000000000E+00     0.0000000000000000E+00 
    3.1249999999922851E-01     0.0000000000000000E+00     0.0000000000000000E+00 
    3.7499999999904610E-01     0.0000000000000000E+00     0.0000000000000000E+00 
    4.3749999999886358E-01     0.0000000000000000E+00     0.0000000000000000E+00 
    4.9999999999869210E-01     0.0000000000000000E+00     0.0000000000000000E+00 
    5.6249999999884603E-01     0.0000000000000000E+00     0.0000000000000000E+00 
    6.2499999999901090E-01     0.0000000000000000E+00     0.0000000000000000E+00 
    6.8749999999917577E-01     0.0000000000000000E+00     0.0000000000000000E+00 
    7.4999999999934064E-01     0.0000000000000000E+00     0.0000000000000000E+00 
    8.1249999999950551E-01     0.0000000000000000E+00     0.0000000000000000E+00 
    8.7499999999967026E-01     0.0000000000000000E+00     0.0000000000000000E+00 
    9.3749999999983513E-01     0.0000000000000000E+00     0.0000000000000000E+00 
    1.0000000000000000E+00     6.2499999999872928E-02     0.0000000000000000E+00 
    1.0000000000000000E+00     1.2499999999977310E-01     0.0000000000000000E+00 
    1.0000000000000000E+00     1.8749999999959341E-01     0.0000000000000000E+00 
    1.0000000000000000E+00     2.4999999999941089E-01     0.0000000000000000E+00 
    1.0000000000000000E+00     3.1249999999922851E-01     0.0000000000000000E+00 
    1.0000000000000000E+00     3.7499999999904610E-01     0.0000000000000000E+00 
    1.0000000000000000E+00     4.3749999999886358E-01     0.0000000000000000E+00 
    1.0000000000000000E+00     4.9999999999869210E-01     0.0000000000000000E+00 
    1.0000000000000000E+00     5.6249999999884603E-01     0.0000000000000000E+00 
    1.0000000000000000E+00     6.2499999999901090E-01     0.0000000000000000E+00 
    1.0000000000000000E+00     6.8749999999917577E-01     0.0000000000000000E+00 
    1.0000000000000000E+00     7.4999999999934064E-01     0.0000000000000000E+00 
    1.0000000000000000E+00     8.1249999999950551E-01     0.0000000000000000E+00 
    1.0000000000000000E+00     8.7499999999967026E-01     0.0000000000000000E+00 
    1.0000000000000000E+00     9.3749999999983513E-01     0.0000000000000000E+00 
    9.3749999999973976E-01     1.0000000000000000E+00     0.0000000000000000E+00 
    8.7499999999950118E-01     1.0000000000000000E+00     0.0000000000000000E+00 
    8.1249999999991318E-01     1.0000000000000000E+00     0.0000000000000000E+00 
    7.5000000000034706E-01     1.0000000000000000E+00     0.0000000000000000E+00 
    6.8750000000078049E-01     1.0000000000000000E+00     0.0000000000000000E+00 
    6.2500000000121403E-01     1.0000000000000000E+00     0.0000000000000000E+00 
    5.6250000000164757E-01     1.0000000000000000E+00     0.0000000000000000E+00 
    5.0000000000205946E-01     1.0000000000000000E+00     0.0000000000000000E+00 
    4.3750000000182099E-01     1.0000000000000000E+00     0.0000000000000000E+00 
    3.7500000000156092E-01     1.0000000000000000E+00     0.0000000000000000E+00 
    3.1250000000130068E-01     1.0000000000000000E+00     0.0000000000000000E+00 
    2.5000000000104050E-01     1.0000000000000000E+00     0.0000000000000000E+00 
    1.8750000000078040E-01     1.0000000000000000E+00     0.0000000000000000E+00 
    1.2500000000052031E-01     1.0000000000000000E+00     0.0000000000000000E+00 
    6.2500000000260125E-02     1.0000000000000000E+00     0.0000000000000000E+00 
    0.0000000000000000E+00     9.3749999999973976E-01     0.0000000000000000E+00 
    0.0000000000000000E+00     8.7499999999950118E-01     0.0000000000000000E+00 
    0.0000000000000000E+00     8.1249999999991318E-01     0.0000000000000000E+00 
    0.0000000000000000E+00     7.5000000000034706E-01     0.0000000000000000E+00 
    0.0000000000000000E+00     6.8750000000078049E-01     0.0000000000000000E+00 
    0.0000000000000000E+00     6.2500000000121403E-01     0.0000000000000000E+00 
    0.0000000000000000E+00     5.6250000000164757E-01     0.0000000000000000E+00 
    0.0000000000000000E+00     5.0000000000205946E-01     0.0000000000000000E+00 
    0.0000000000000000E+00     4.3750000000182099E-01     0.0000000000000000E+00 
    0.0000000000000000E+00     3.7500000000156092E-01     0.0000000000000000E+00 
    0.0000000000000000E+00     3.1250000000130068E-01     0.0000000000000000E+00 
    0.0000000000000000E+00     2.5000000000104050E-01     0.0000000000000000E+00 
    0.0000000000000000E+00     1.8750000000078040E-01     0.0000000000000000E+00 
    0.0000000000000000E+00     1.2500000000052031E-01     0.0000000000000000E+00 
    0.0000000000000000E+00     6.2500000000260125E-02     0.0000000000000000E+00 
    6.2499999999897131E-02     6.2500000000235922E-02     0.0000000000000000E+00 
    6.2499999999921327E-02     1.2500000000047351E-01     0.0000000000000000E+00 
    6.2499999999945530E-02     1.8750000000070621E-01     0.0000000000000000E+00 
    6.2499999999969733E-02     2.5000000000093858E-01     0.0000000000000000E+00 
    6.2499999999993928E-02     3.1250000000117117E-01     0.0000000000000000E+00 
    6.2500000000018124E-02     3.7500000000140382E-01     0.0000000000000000E+00 
    6.2500000000042327E-02     4.3750000000163619E-01     0.0000000000000000E+00 
    6.2500000000066530E-02     5.0000000000184897E-01     0.0000000000000000E+00 
    6.2500000000090733E-02     5.6250000000147260E-01     0.0000000000000000E+00 
    6.2500000000114922E-02     6.2500000000107636E-01     0.0000000000000000E+00 
    6.2500000000139125E-02     6.8750000000068034E-01     0.0000000000000000E+00 
    6.2500000000163328E-02     7.5000000000028411E-01     0.0000000000000000E+00 
    6.2500000000187531E-02     8.1249999999988787E-01     0.0000000000000000E+00 
    6.2500000000211720E-02     8.7499999999951172E-01     0.0000000000000000E+00 
    6.2500000000235922E-02     9.3749999999974565E-01     0.0000000000000000E+00 
    1.2499999999981980E-01     6.2500000000211733E-02     0.0000000000000000E+00 
    1.2499999999986650E-01     1.2500000000042691E-01     0.0000000000000000E+00 
    1.2499999999991319E-01     1.8750000000063199E-01     0.0000000000000000E+00 
    1.2499999999995989E-01     2.5000000000083678E-01     0.0000000000000000E+00 
    1.2500000000000661E-01     3.1250000000104172E-01     0.0000000000000000E+00 
    1.2500000000005329E-01     3.7500000000124661E-01     0.0000000000000000E+00 
    1.2500000000010000E-01     4.3750000000145117E-01     0.0000000000000000E+00 
    1.2500000000014669E-01     5.0000000000163858E-01     0.0000000000000000E+00 
    1.2500000000019340E-01     5.6250000000129741E-01     0.0000000000000000E+00 
    1.2500000000024011E-01     6.2500000000093847E-01     0.0000000000000000E+00 
    1.2500000000028680E-01     6.8750000000057998E-01     0.0000000000000000E+00 
    1.2500000000033351E-01     7.5000000000022127E-01     0.0000000000000000E+00 
    1.2500000000038020E-01     8.1249999999986211E-01     0.0000000000000000E+00 
    1.2500000000042691E-01     8.7499999999952238E-01     0.0000000000000000E+00 
    1.2500000000047359E-01     9.3749999999975164E-01     0.0000000000000000E+00 
    1.8749999999966760E-01     6.2500000000187531E-02     0.0000000000000000E+00 
    1.8749999999974179E-01     1.2500000000038020E-01     0.0000000000000000E+00 
    1.8749999999981601E-01     1.8750000000055780E-01     0.0000000000000000E+00 
    1.8749999999989009E-01     2.5000000000073502E-01     0.0000000000000000E+00 
    1.8749999999996431E-01     3.1250000000091221E-01     0.0000000000000000E+00 
    1.8750000000003850E-01     3.7500000000108941E-01     0.0000000000000000E+00 
    1.8750000000011269E-01     4.3750000000126649E-01     0.0000000000000000E+00 
    1.8750000000018691E-01     5.0000000000142808E-01     0.0000000000000000E+00 
    1.8750000000026110E-01     5.6250000000112244E-01     0.0000000000000000E+00 
    1.8750000000033529E-01     6.2500000000080080E-01     0.0000000000000000E+00 
    1.8750000000040951E-01     6.8750000000047962E-01     0.0000000000000000E+00 
    1.8750000000048361E-01     7.5000000000015843E-01     0.0000000000000000E+00 
    1.8750000000055780E-01     8.1249999999983680E-01     0.0000000000000000E+00 
    1.8750000000063199E-01     8.7499999999953304E-01     0.0000000000000000E+00 
    1.8750000000070621E-01     9.3749999999975764E-01     0.0000000000000000E+00 
    2.4999999999951281E-01     6.2500000000163314E-02     0.0000000000000000E+00 
    2.4999999999961461E-01     1.2500000000033351E-01     0.0000000000000000E+00 
    2.4999999999971650E-01     1.8750000000048361E-01     0.0000000000000000E+00 
    2.4999999999981831E-01     2.5000000000063310E-01     0.0000000000000000E+00 
    2.4999999999992020E-01     3.1250000000078260E-01     0.0000000000000000E+00 
    2.5000000000002198E-01     3.7500000000093209E-01     0.0000000000000000E+00 
    2.5000000000012390E-01     4.3750000000108180E-01     0.0000000000000000E+00 
    2.5000000000022571E-01     5.0000000000121769E-01     0.0000000000000000E+00 
    2.5000000000032763E-01     5.6250000000094724E-01     0.0000000000000000E+00 
    2.5000000000042938E-01     6.2500000000066314E-01     0.0000000000000000E+00 
    2.5000000000053119E-01     6.8750000000037925E-01     0.0000000000000000E+00 
[...]
CELL_DATA 256 
SCALARS Pressure double 1 
LOOKUP_TABLE default 

    7.5109663371357749E-01 
    7.4922241202747963E-01 
    7.4749854905056445E-01 
    7.4589867344768002E-01 
    7.4442349241855776E-01 
    7.4307110108291408E-01 
    7.4184272778953197E-01 
    7.4074022649375670E-01 
    7.3976826419892538E-01 
    7.3892595336817590E-01 
    7.3821090610472095E-01 
    7.3762174014816329E-01 
    7.3715708692575899E-01 
    7.3681557869899139E-01 
    7.3659672747949922E-01 
    7.3648162050789079E-01 
    7.2595252432036206E-01 
    7.2586647196595011E-01 
    7.2571247463473421E-01 
    7.2550527375556939E-01 
    7.2525959238541038E-01 
    7.2498876497219344E-01 
    7.2470626490154333E-01 
    7.2442272845364830E-01 
    7.2414850110691897E-01 
    7.2389322783487609E-01 
    7.2366479181135301E-01 
    7.2346843081173218E-01 
    7.2330785981649548E-01 
    7.2318616363041310E-01 
    7.2310682202021870E-01 
    7.2306450103580933E-01 
    7.0408027355531233E-01 
    7.0407125540663773E-01 
    7.0405243973035903E-01 
    7.0402363712308491E-01 
    7.0398523115787426E-01 
    7.0393780979787057E-01 
    7.0388022603309941E-01 
    7.0381413369281465E-01 
    7.0374141358254716E-01 
    7.0366387502752981E-01 
    7.0358448067932211E-01 
    7.0350687400863754E-01 
    7.0343435930489229E-01 
    7.0337028364859167E-01 
    7.0331773356038507E-01 
    7.0327865937102596E-01 
    6.7802699998366012E-01 
    6.7805134730643646E-01 
    6.7809507148409331E-01 
    6.7815367639237023E-01 
    6.7822164923526496E-01 
    6.7829259775112438E-01 
    6.7835426848555536E-01 
    6.7840266618311840E-01 
    6.7843322806919015E-01 
    6.7844116532178333E-01 
    6.7842634535025037E-01 
    6.7839307454854880E-01 
    6.7834678526899783E-01 
    6.7829319699384027E-01 
    6.7823087679343685E-01 
    6.7816433486260808E-01 
    6.4514818928919049E-01 
    6.4520485139182349E-01 
    6.4530564540474511E-01 
    6.4543851399038321E-01 
    6.4558891375657113E-01 
    6.4573928864765362E-01 
    6.4587947267061818E-01 
    6.4600106577769578E-01 
    6.4609530888703492E-01 
    6.4615320582369506E-01 
    6.4616881927843683E-01 
    6.4614957696336339E-01 
    6.4610481272827958E-01 
    6.4604406187399455E-01 
    6.4596548093681938E-01 
    6.4588128876211182E-01 
    6.0444373539459006E-01 
    6.0452344333824226E-01 
    6.0465549627694515E-01 
    6.0481320000956418E-01 
    6.0496777525409995E-01 
    6.0508639422736088E-01 
    6.0516357584389335E-01 
    6.0519944108050960E-01 
    6.0519519469473171E-01 
    6.0515285974743949E-01 
    6.0508346397898738E-01 
    6.0500011481394256E-01 
    6.0491643273080198E-01 
    6.0483873071038385E-01 
    6.0477458257909888E-01 
    6.0477907190281099E-01 
    5.6680180472440411E-01 
    5.6673122494558925E-01 
    5.6659461228942742E-01 
    5.6639309379603886E-01 
    5.6612240837945005E-01 
    5.6580697412312764E-01 
    5.6550987784270024E-01 
    5.6523947201953095E-01 
    5.6500182025118895E-01 
    5.6479939799682233E-01 
    5.6465803082433708E-01 
    5.6456883688203963E-01 
    5.6451672032387845E-01 
    5.6447333840505420E-01 
    5.6443348274661442E-01 
    5.6443014278726578E-01 
    5.2439318298292459E-01 
    5.2431622174839110E-01 
    5.2418695937216819E-01 
    5.2403245654787589E-01 
    5.2388085660911787E-01 
    5.2376336270613133E-01 
    5.2371254789335198E-01 
    5.2373086857169660E-01 
    5.2381927002766571E-01 
    5.2395343949222639E-01 
    5.2410459468839166E-01 
    5.2425229279523178E-01 
    5.2436444129597026E-01 
    5.2442165727306478E-01 
    5.2442867423215433E-01 
    5.2438555972338230E-01 
    4.7769801604073170E-01 
    4.7763322427318661E-01 
    4.7755178782482360E-01 
    4.7750556884299439E-01 
    4.7755128501087180E-01 
    4.7771750153696363E-01 
    4.7798929371514065E-01 
    4.7834813123109660E-01 
    4.7877733275442591E-01 
    4.7921502743693428E-01 
    4.7958521869929488E-01 
    4.7987167428133948E-01 
    4.8004687492799636E-01 
    4.8010800149613575E-01 
    4.8005869865700812E-01 
    4.7987052802695729E-01 
    4.1634790374215341E-01 
    4.1639705724024734E-01 
    4.1648706525735241E-01 
    4.1661171376923090E-01 
    4.1676850160930040E-01 
    4.1696209063016826E-01 
    4.1716200729537029E-01 
    4.1733691451975619E-01 
    4.1745621804038202E-01 
    4.1747626522167652E-01 
    4.1737929957950065E-01 
    4.1717215615925185E-01 
    4.1693712240898195E-01 
    4.1673204773846645E-01 
    4.1654806859644145E-01 
    4.1637591944650570E-01 
    3.4100477503330334E-01 
    3.4097393374573332E-01 
    3.4088979333588038E-01 
    3.4072223661004969E-01 
    3.4043507882415458E-01 
    3.3998558418923586E-01 
    3.3946529826628907E-01 
    3.3890021490605071E-01 
    3.3829501929835271E-01 
    3.3761101176934438E-01 
    3.3693118782280329E-01 
    3.3638345504393302E-01 
    3.3603531550292959E-01 
    3.3585010201279825E-01 
    3.3580702559462555E-01 
    3.3590207915537357E-01 
    2.6993326066049872E-01 
    2.6988588376919292E-01 
    2.6977749594382466E-01 
    2.6959025133124309E-01 
    2.6930460737846773E-01 
    2.6890176969567547E-01 
    2.6840080190854210E-01 
    2.6781539965536000E-01 
    2.6716430715672096E-01 
    2.6646970983844348E-01 
    2.6587162089810645E-01 
    2.6546031570024275E-01 
    2.6520048435775334E-01 
    2.6506692726769293E-01 
    2.6505593096774704E-01 
    2.6516632612528723E-01 
    2.0923499410920923E-01 
    2.0917835156112613E-01 
    2.0905960377733923E-01 
    2.0887223783437381E-01 
    2.0860924558379396E-01 
    2.0826338822213222E-01 
    2.0784818042468187E-01 
    2.0738022774373241E-01 
    2.0689699129138187E-01 
    2.0645499029693615E-01 
    2.0611466851964177E-01 
    2.0586635985650678E-01 
    2.0568847471806082E-01 
    2.0557990816447055E-01 
    2.0554126306122980E-01 
    2.0557406952554946E-01 
    1.5172312690536410E-01 
    1.5166588093530059E-01 
    1.5155393054517499E-01 
    1.5139251686830899E-01 
    1.5118875389364642E-01 
    1.5095086091463056E-01 
    1.5069601663012938E-01 
    1.5044329181489899E-01 
    1.5020976200818428E-01 
    1.4999879234333210E-01 
    1.4980734862635636E-01 
    1.4963468656434897E-01 
    1.4948949345674295E-01 
    1.4938036661397394E-01 
    1.4931487869944396E-01 
    1.4929909724583959E-01 
    1.0082779142647809E-01 
    1.0069089301830957E-01 
    1.0042266052829595E-01 
    1.0003136873039882E-01 
    9.9527921845712283E-02 
    9.8925828075759267E-02 
    9.8232469956685137E-02 
    9.7458562986047298E-02 
    9.6618469764200257E-02 
    9.5731049721647601E-02 
    9.4819294746907257E-02 
    9.3919983688070419E-02 
    9.3076197139676187E-02 
    9.2338519193426227E-02 
    9.1766585736912404E-02 
    9.1430957558219450E-02 
    6.2229527287140679E-02 
    6.1777341332583897E-02 
    6.0883887329182325E-02 
    5.9557453755144915E-02 
    5.7803148180370849E-02 
    5.5610438854326913E-02 
    5.2936955149102523E-02 
    4.9736250933253387E-02 
    4.5957383217812557E-02 
    4.1572732841444367E-02 
    3.6543704243353195E-02 
    3.0825214382456344E-02 
    2.4364730371251871E-02 
    1.7101331227408537E-02 
    8.9646751665561145E-03 
    0.0000000000000000E+00 

SCALARS Saturarion double 1 
LOOKUP_TABLE default 

    1.0000000010121559E+00 
    9.8318818093791616E-01 
    9.5416707034738191E-01 
    9.2449377699670132E-01 
    8.9636515417744012E-01 
    8.6946044360898633E-01 
    8.4131029360588239E-01 
    8.1262429281465665E-01 
    7.8302976002259106E-01 
    7.5209218778481779E-01 
    7.1934909788673917E-01 
    6.8431942578420824E-01 
    6.4545450457349407E-01 
    5.9865088418290358E-01 
    5.3701803834464412E-01 
    3.4498369671483003E-01 
    9.1592763910089403E-01 
    9.0545907008402615E-01 
    8.8351899494456299E-01 
    8.6021185806380951E-01 
    8.3805368354240106E-01 
    8.1444152935437075E-01 
    7.9017614151469706E-01 
    7.6541383337955493E-01 
    7.4047629705796991E-01 
    7.1417563101546266E-01 
    6.8573506408549123E-01 
    6.5498555549285675E-01 
    6.1676732836014336E-01 
    5.7314005374003485E-01 
    5.1565883220967479E-01 
    2.8266242585491108E-01 
    8.0337293882592331E-01 
    7.9719359930378975E-01 
    7.8152623007225386E-01 
    7.6357669680089457E-01 
    7.4867432199386796E-01 
    7.3070811529023794E-01 
    7.1219742339454306E-01 
    6.9327248644598205E-01 
    6.7511381514197955E-01 
    6.5511724372535807E-01 
    6.3179293642843182E-01 
    6.0555350660056018E-01 
    5.7018329374322119E-01 
    5.3066792159054710E-01 
    4.7822130114088063E-01 
    1.8051176960592075E-01 
    7.3266975153842107E-01 
    7.2636099854928893E-01 
    7.1209379551874419E-01 
    6.9642490565171067E-01 
    6.8339856352014361E-01 
    6.6880120608579885E-01 
    6.5337932697408141E-01 
    6.3768162092219494E-01 
    6.2263135216289545E-01 
    6.0480360572978864E-01 
    5.8413178527661214E-01 
    5.6172981832951563E-01 
    5.2919452969906089E-01 
    4.9220557825983258E-01 
    4.3193686290156325E-01 
    6.4393162293656173E-02 
    6.7912463399343159E-01 
    6.7358920045299819E-01 
    6.6153258405520421E-01 
    6.4757907706951623E-01 
    6.3354050538127371E-01 
    6.2036252741594766E-01 
    6.0610226906129638E-01 
    5.9167830871908733E-01 
    5.7701216054883364E-01 
    5.6114180746264763E-01 
    5.4312904857043842E-01 
    5.2346894513229014E-01 
    4.9597582989985872E-01 
    4.5657571353425985E-01 
    3.2322877731197297E-01 
    7.3040647016844942E-03 
    6.3818586221948359E-01 
    6.3337978185967780E-01 
    6.2299815684198445E-01 
    6.0988562523992129E-01 
    5.9127818408756450E-01 
    5.7929646788224043E-01 
    5.6652459426352453E-01 
    5.5413565423355071E-01 
    5.3767883535247873E-01 
    5.2396851388989119E-01 
    5.0831411780915281E-01 
    4.9115795520073813E-01 
    4.6855648201575367E-01 
    4.2467449054533868E-01 
    1.2204646998046824E-01 
    7.7359683635601039E-05 
    6.0462283770807812E-01 
    6.0131088047165693E-01 
    5.9310467669454714E-01 
    5.8347231652912945E-01 
    5.6144833643318037E-01 
    5.4794337238692326E-01 
    5.3682225094195546E-01 
    5.2623481821203599E-01 
    5.1095717854309186E-01 
    4.9623457974975083E-01 
    4.8172275698699307E-01 
    4.6504782640201925E-01 
    4.4271466040527807E-01 
    3.6248791787109425E-01 
    2.2393890788510871E-02 
    9.8377749609982655E-06 
    5.7241825550361081E-01 
    5.7048244850006402E-01 
    5.6509333637402082E-01 
    5.5822667704316398E-01 
    5.4186862412896208E-01 
    5.2240719458845331E-01 
    5.1186744337706258E-01 
    5.0161794460066134E-01 
    4.8931612290020543E-01 
    4.7435517047440301E-01 
    4.5948693675672642E-01 
    4.3865896198977350E-01 
    3.7944158204562001E-01 
    1.0945926926239133E-01 
    1.0074459118549464E-04 
    1.0000629121277128E-06 
    5.4166154374576037E-01 
    5.4027014409346130E-01 
    5.3674054294451889E-01 
    5.3166801818559040E-01 
    5.1796330844820393E-01 
    4.9893680648022465E-01 
    4.8718851183618905E-01 
    4.7570461247449564E-01 
    4.6096561992919832E-01 
    4.4815331491174182E-01 
    4.2022522937349854E-01 
    3.3105738786456512E-01 
    1.1718326183856866E-01 
    2.2246025582951727E-03 
    9.9987526269408632E-07 
    1.0000000000030592E-06 
    5.1511507517757760E-01 
    5.1399753477711074E-01 
    5.1132624044178721E-01 
    5.0834761711947707E-01 
    4.9577089835963029E-01 
    4.7829002231202361E-01 
    4.6644515659097102E-01 
    4.5381041102699393E-01 
    4.2993855654837049E-01 
    4.0983097294410042E-01 
    3.3711660056165926E-01 
    8.6315223701249902E-02 
    9.8019485366763852E-04 
    7.7787032697329483E-06 
    1.0000044863128047E-06 
    1.0000000000002011E-06 
    4.9078735868642115E-01 
    4.8986973293861702E-01 
    4.8773320206457543E-01 
    4.8570248047275838E-01 
    4.8084642876699263E-01 
    4.6513146395892779E-01 
    4.5119729046800516E-01 
    4.4121730552268801E-01 
    4.1561204255361717E-01 
    3.5928802256313497E-01 
    1.3491490563545511E-01 
    1.6085819494743490E-03 
    1.2286800016447326E-06 
    1.0000786098723457E-06 
    1.0000000000439254E-06 
    9.9999999999999995E-07 
    4.5713483972045882E-01 
    4.5618341913973415E-01 
    4.5432430508595106E-01 
    4.5200916947012221E-01 
    4.4996446545832480E-01 
    4.4546267726329930E-01 
    4.3426962677602832E-01 
    4.1695096280974320E-01 
    3.8446947445934559E-01 
    2.3742659480271469E-01 
    1.5241754883163677E-02 
    7.3333460307281086E-05 
    1.0027611828211014E-06 
    1.0000000010319800E-06 
    1.0000000000000002E-06 
    9.9999999999999995E-07 
    3.5404148205027208E-01 
    3.5015023234592563E-01 
    3.4173425463479024E-01 
    3.3151451381326152E-01 
    3.2129306568542082E-01 
    3.0864628398116439E-01 
    2.7906056647948163E-01 
    2.1333661067266899E-01 
    1.1401526790537485E-01 
    1.4550121739380252E-02 
    1.0623549999390618E-04 
    1.0000841478602754E-06 
    1.0000000000091263E-06 
    1.0000000000000033E-06 
    9.9999999999999995E-07 
    9.9999999999999995E-07 
    3.0250729757158215E-02 
    2.6906061853573089E-02 
    2.2527134954868824E-02 
    1.6696757790529856E-02 
    1.2049086749432137E-02 
    8.3386234263180120E-03 
    3.1636841975287342E-03 
    1.8901615235718093E-04 
    3.1103150133309637E-04 
    7.8615393161884700E-05 
    1.0145261455881946E-06 
    1.0000000000737045E-06 
    9.9999999999999995E-07 
    9.9999999999999995E-07 
    9.9999999999999995E-07 
    9.9999999999999995E-07 
    1.0001176274040814E-06 
    1.0372422125731730E-06 
    1.1425831229889153E-06 
    1.1291494822475598E-06 
    1.7442680897825798E-06 
    1.2754243320954149E-06 
    1.0906552115508611E-06 
    1.0079900032012529E-06 
    1.0080784183300572E-06 
    1.0016947001515606E-06 
    1.0000000110671311E-06 
    1.0000000000000014E-06 
    9.9999999999999995E-07 
    9.9999999999999995E-07 
    9.9999999999999995E-07 
    9.9999999999999995E-07 
    1.0000000000789386E-06 
    9.9999997622326759E-07 
    1.0000000286600865E-06 
    1.0000000265315859E-06 
    9.9999987313813818E-07 
    9.9999993472501121E-07 
    9.9999999495029657E-07 
    1.0000000005853658E-06 
    1.0000000026828311E-06 
    1.0000000012752500E-06 
    1.0000000000000036E-06 
    9.9999999999999995E-07 
    9.9999999999999995E-07 
    9.9999999999999995E-07 
    9.9999999999999995E-07 
    1.0000002073685819E-06 
