# vtk DataFile Version 2.0
Pressure Field Data 
ASCII 
DATASET UNSTRUCTURED_GRID 

POINTS 289 double 

    0.0000000000000000E+00     0.0000000000000000E+00     0.0000000000000000E+00 
    1.0000000000000000E+00     0.0000000000000000E+00     0.0000000000000000E+00 
    1.0000000000000000E+00     1.0000000000000000E+00     0.0000000000000000E+00 
    0.0000000000000000E+00     1.0000000000000000E+00     0.0000000000000000E+00 
    6.2499999999872928E-02     0.0000000000000000E+00     0.0000000000000000E+00 
    1.2499999999977310E-01     0.0000000000000000E+00     0.0000000000000000E+00 
    1.8749999999959341E-01     0.0000000000000000E+00     0.0000000000000000E+00 
    2.4999999999941089E-01     0.0000000000000000E+00     0.0000000000000000E+00 
    3.1249999999922851E-01     0.0000000000000000E+00     0.0000000000000000E+00 
    3.7499999999904610E-01     0.0000000000000000E+00     0.0000000000000000E+00 
    4.3749999999886358E-01     0.0000000000000000E+00     0.0000000000000000E+00 
    4.9999999999869210E-01     0.0000000000000000E+00     0.0000000000000000E+00 
    5.6249999999884603E-01     0.0000000000000000E+00     0.0000000000000000E+00 
    6.2499999999901090E-01     0.0000000000000000E+00     0.0000000000000000E+00 
    6.8749999999917577E-01     0.0000000000000000E+00     0.0000000000000000E+00 
    7.4999999999934064E-01     0.0000000000000000E+00     0.0000000000000000E+00 
    8.1249999999950551E-01     0.0000000000000000E+00     0.0000000000000000E+00 
    8.7499999999967026E-01     0.0000000000000000E+00     0.0000000000000000E+00 
    9.3749999999983513E-01     0.0000000000000000E+00     0.0000000000000000E+00 
    1.0000000000000000E+00     6.2499999999872928E-02     0.0000000000000000E+00 
    1.0000000000000000E+00     1.2499999999977310E-01     0.0000000000000000E+00 
    1.0000000000000000E+00     1.8749999999959341E-01     0.0000000000000000E+00 
    1.0000000000000000E+00     2.4999999999941089E-01     0.0000000000000000E+00 
    1.0000000000000000E+00     3.1249999999922851E-01     0.0000000000000000E+00 
    1.0000000000000000E+00     3.7499999999904610E-01     0.0000000000000000E+00 
    1.0000000000000000E+00     4.3749999999886358E-01     0.0000000000000000E+00 
    1.0000000000000000E+00     4.9999999999869210E-01     0.0000000000000000E+00 
    1.0000000000000000E+00     5.6249999999884603E-01     0.0000000000000000E+00 
    1.0000000000000000E+00     6.2499999999901090E-01     0.0000000000000000E+00 
    1.0000000000000000E+00     6.8749999999917577E-01     0.0000000000000000E+00 
    1.0000000000000000E+00     7.4999999999934064E-01     0.0000000000000000E+00 
    1.0000000000000000E+00     8.1249999999950551E-01     0.0000000000000000E+00 
    1.0000000000000000E+00     8.7499999999967026E-01     0.0000000000000000E+00 
    1.0000000000000000E+00     9.3749999999983513E-01     0.0000000000000000E+00 
    9.3749999999973976E-01     1.0000000000000000E+00     0.0000000000000000E+00 
    8.7499999999950118E-01     1.0000000000000000E+00     0.0000000000000000E+00 
    8.1249999999991318E-01     1.0000000000000000E+00     0.0000000000000000E+00 
    7.5000000000034706E-01     1.0000000000000000E+00     0.0000000000000000E+00 
    6.8750000000078049E-01     1.0000000000000000E+00     0.0000000000000000E+00 
    6.2500000000121403E-01     1.0000000000000000E+00     0.0000000000000000E+00 
    5.6250000000164757E-01     1.0000000000000000E+00     0.0000000000000000E+00 
    5.0000000000205946E-01     1.0000000000000000E+00     0.0000000000000000E+00 
    4.3750000000182099E-01     1.0000000000000000E+00     0.0000000000000000E+00 
    3.7500000000156092E-01     1.0000000000000000E+00     0.0000000000000000E+00 
    3.1250000000130068E-01     1.0000000000000000E+00     0.0000000000000000E+00 
    2.5000000000104050E-01     1.0000000000000000E+00     0.0000000000000000E+00 
    1.8750000000078040E-01     1.0000000000000000E+00     0.0000000000000000E+00 
    1.2500000000052031E-01     1.0000000000000000E+00     0.0000000000000000E+00 
    6.2500000000260125E-02     1.0000000000000000E+00     0.0000000000000000E+00 
    0.0000000000000000E+00     9.3749999999973976E-01     0.0000000000000000E+00 
    0.0000000000000000E+00     8.7499999999950118E-01     0.0000000000000000E+00 
    0.0000000000000000E+00     8.1249999999991318E-01     0.0000000000000000E+00 
    0.0000000000000000E+00     7.5000000000034706E-01     0.0000000000000000E+00 
    0.0000000000000000E+00     6.8750000000078049E-01     0.0000000000000000E+00 
    0.0000000000000000E+00     6.2500000000121403E-01     0.0000000000000000E+00 
    0.0000000000000000E+00     5.6250000000164757E-01     0.0000000000000000E+00 
    0.0000000000000000E+00     5.0000000000205946E-01     0.0000000000000000E+00 
    0.0000000000000000E+00     4.3750000000182099E-01     0.0000000000000000E+00 
    0.0000000000000000E+00     3.7500000000156092E-01     0.0000000000000000E+00 
    0.0000000000000000E+00     3.1250000000130068E-01     0.0000000000000000E+00 
    0.0000000000000000E+00     2.5000000000104050E-01     0.0000000000000000E+00 
    0.0000000000000000E+00     1.8750000000078040E-01     0.0000000000000000E+00 
    0.0000000000000000E+00     1.2500000000052031E-01     0.0000000000000000E+00 
    0.0000000000000000E+00     6.2500000000260125E-02     0.0000000000000000E+00 
    6.2499999999897131E-02     6.2500000000235922E-02     0.0000000000000000E+00 
    6.2499999999921327E-02     1.2500000000047351E-01     0.0000000000000000E+00 
    6.2499999999945530E-02     1.8750000000070621E-01     0.0000000000000000E+00 
    6.2499999999969733E-02     2.5000000000093858E-01     0.0000000000000000E+00 
    6.2499999999993928E-02     3.1250000000117117E-01     0.0000000000000000E+00 
    6.2500000000018124E-02     3.7500000000140382E-01     0.0000000000000000E+00 
    6.2500000000042327E-02     4.3750000000163619E-01     0.0000000000000000E+00 
    6.2500000000066530E-02     5.0000000000184897E-01     0.0000000000000000E+00 
    6.2500000000090733E-02     5.6250000000147260E-01     0.0000000000000000E+00 
    6.2500000000114922E-02     6.2500000000107636E-01     0.0000000000000000E+00 
    6.2500000000139125E-02     6.8750000000068034E-01     0.0000000000000000E+00 
    6.2500000000163328E-02     7.5000000000028411E-01     0.0000000000000000E+00 
    6.2500000000187531E-02     8.1249999999988787E-01     0.0000000000000000E+00 
    6.2500000000211720E-02     8.7499999999951172E-01     0.0000000000000000E+00 
    6.2500000000235922E-02     9.3749999999974565E-01     0.0000000000000000E+00 
    1.2499999999981980E-01     6.2500000000211733E-02     0.0000000000000000E+00 
    1.2499999999986650E-01     1.2500000000042691E-01     0.0000000000000000E+00 
    1.2499999999991319E-01     1.8750000000063199E-01     0.0000000000000000E+00 
    1.2499999999995989E-01     2.5000000000083678E-01     0.0000000000000000E+00 
    1.2500000000000661E-01     3.1250000000104172E-01     0.0000000000000000E+00 
    1.2500000000005329E-01     3.7500000000124661E-01     0.0000000000000000E+00 
    1.2500000000010000E-01     4.3750000000145117E-01     0.0000000000000000E+00 
    1.2500000000014669E-01     5.0000000000163858E-01     0.0000000000000000E+00 
    1.2500000000019340E-01     5.6250000000129741E-01     0.0000000000000000E+00 
    1.2500000000024011E-01     6.2500000000093847E-01     0.0000000000000000E+00 
    1.2500000000028680E-01     6.8750000000057998E-01     0.0000000000000000E+00 
    1.2500000000033351E-01     7.5000000000022127E-01     0.0000000000000000E+00 
    1.2500000000038020E-01     8.1249999999986211E-01     0.0000000000000000E+00 
    1.2500000000042691E-01     8.7499999999952238E-01     0.0000000000000000E+00 
    1.2500000000047359E-01     9.3749999999975164E-01     0.0000000000000000E+00 
    1.8749999999966760E-01     6.2500000000187531E-02     0.0000000000000000E+00 
    1.8749999999974179E-01     1.2500000000038020E-01     0.0000000000000000E+00 
    1.8749999999981601E-01     1.8750000000055780E-01     0.0000000000000000E+00 
    1.8749999999989009E-01     2.5000000000073502E-01     0.0000000000000000E+00 
    1.8749999999996431E-01     3.1250000000091221E-01     0.0000000000000000E+00 
    1.8750000000003850E-01     3.7500000000108941E-01     0.0000000000000000E+00 
    1.8750000000011269E-01     4.3750000000126649E-01     0.0000000000000000E+00 
    1.8750000000018691E-01     5.0000000000142808E-01     0.0000000000000000E+00 
    1.8750000000026110E-01     5.6250000000112244E-01     0.0000000000000000E+00 
    1.8750000000033529E-01     6.2500000000080080E-01     0.0000000000000000E+00 
    1.8750000000040951E-01     6.8750000000047962E-01     0.0000000000000000E+00 
    1.8750000000048361E-01     7.5000000000015843E-01     0.0000000000000000E+00 
    1.8750000000055780E-01     8.1249999999983680E-01     0.0000000000000000E+00 
    1.8750000000063199E-01     8.7499999999953304E-01     0.0000000000000000E+00 
    1.8750000000070621E-01     9.3749999999975764E-01     0.0000000000000000E+00 
    2.4999999999951281E-01     6.2500000000163314E-02     0.0000000000000000E+00 
    2.4999999999961461E-01     1.2500000000033351E-01     0.0000000000000000E+00 
    2.4999999999971650E-01     1.8750000000048361E-01     0.0000000000000000E+00 
    2.4999999999981831E-01     2.5000000000063310E-01     0.0000000000000000E+00 
    2.4999999999992020E-01     3.1250000000078260E-01     0.0000000000000000E+00 
    2.5000000000002198E-01     3.7500000000093209E-01     0.0000000000000000E+00 
    2.5000000000012390E-01     4.3750000000108180E-01     0.0000000000000000E+00 
    2.5000000000022571E-01     5.0000000000121769E-01     0.0000000000000000E+00 
    2.5000000000032763E-01     5.6250000000094724E-01     0.0000000000000000E+00 
    2.5000000000042938E-01     6.2500000000066314E-01     0.0000000000000000E+00 
    2.5000000000053119E-01     6.8750000000037925E-01     0.0000000000000000E+00 
[...]
CELL_DATA 256 
SCALARS Pressure double 1 
LOOKUP_TABLE default 

    7.1297552522800267E-01 
    7.1110862811402542E-01 
    7.0939689472890821E-01 
    7.0781460775251548E-01 
    7.0635975083665348E-01 
    7.0502880265402834E-01 
    7.0382272277516966E-01 
    7.0274239127089622E-01 
    7.0179120100739856E-01 
    7.0096738650586066E-01 
    7.0026794758944710E-01 
    6.9969083496457951E-01 
    6.9923452369331063E-01 
    6.9889808575831702E-01 
    6.9868095539372255E-01 
    6.9856780313822420E-01 
    6.8834681114487462E-01 
    6.8826324468259004E-01 
    6.8811409183510275E-01 
    6.8791390668345409E-01 
    6.8767704560497900E-01 
    6.8741647948062856E-01 
    6.8714512374551950E-01 
    6.8687311944681739E-01 
    6.8661021716649207E-01 
    6.8636549510384648E-01 
    6.8614650933628862E-01 
    6.8595828169225725E-01 
    6.8580448204995381E-01 
    6.8568815743214528E-01 
    6.8561261305573051E-01 
    6.8557348006745700E-01 
    6.6721875563516919E-01 
    6.6720981564309412E-01 
    6.6719135741913627E-01 
    6.6716334302149993E-01 
    6.6712635569311274E-01 
    6.6708122969143913E-01 
    6.6702702012896953E-01 
    6.6696529550916483E-01 
    6.6689789429095980E-01 
    6.6682668698587444E-01 
    6.6675448665078396E-01 
    6.6668493098720749E-01 
    6.6662129862265085E-01 
    6.6656689097014155E-01 
    6.6652568569896475E-01 
    6.6649843600170910E-01 
    6.4218292786505393E-01 
    6.4220450389200723E-01 
    6.4224322128577738E-01 
    6.4229503883784400E-01 
    6.4235505239404345E-01 
    6.4241777316112225E-01 
    6.4247223573043444E-01 
    6.4251485392529051E-01 
    6.4254154995118107E-01 
    6.4254801318461519E-01 
    6.4253352376967288E-01 
    6.4250183922929971E-01 
    6.4245762399225670E-01 
    6.4240590041155532E-01 
    6.4235030162014950E-01 
    6.4229578586646552E-01 
    6.1068117188631366E-01 
    6.1073172253334818E-01 
    6.1082218103915609E-01 
    6.1094222652488872E-01 
    6.1107903544142517E-01 
    6.1121717656291363E-01 
    6.1134712429250948E-01 
    6.1146111428912298E-01 
    6.1155097890799492E-01 
    6.1160831193403553E-01 
    6.1162658655240487E-01 
    6.1161222972335849E-01 
    6.1157349304546593E-01 
    6.1151937806203027E-01 
    6.1144916569115615E-01 
    6.1136892331593495E-01 
    5.7162566499972334E-01 
    5.7169946232172197E-01 
    5.7182241116567256E-01 
    5.7197057398972839E-01 
    5.7211781973929177E-01 
    5.7223400195492824E-01 
    5.7231343436761484E-01 
    5.7235597063546018E-01 
    5.7236257894382825E-01 
    5.7233508607642913E-01 
    5.7228366737716829E-01 
    5.7222044245124370E-01 
    5.7215876151532241E-01 
    5.7211195268666304E-01 
    5.7208076719782996E-01 
    5.7208716549432004E-01 
    5.3510264192975010E-01 
    5.3504028464165809E-01 
    5.3491905964984587E-01 
    5.3473914432851166E-01 
    5.3449548141025360E-01 
    5.3420997778938284E-01 
    5.3394083698983019E-01 
    5.3369501800448960E-01 
    5.3347743922271007E-01 
    5.3329004066672603E-01 
    5.3315748857024037E-01 
    5.3307188472747646E-01 
    5.3302396480764047E-01 
    5.3299523885976241E-01 
    5.3297184988445256E-01 
    5.3297422390461391E-01 
    4.9433686994045389E-01 
    4.9427172376506867E-01 
    4.9416303405858325E-01 
    4.9403434465430901E-01 
    4.9391003869715322E-01 
    4.9381741862564077E-01 
    4.9378483053497879E-01 
    4.9381350088187226E-01 
    4.9390339137648087E-01 
    4.9403248640557895E-01 
    4.9417578255834793E-01 
    4.9431842399315062E-01 
    4.9443502114953736E-01 
    4.9449596675749952E-01 
    4.9449686147377708E-01 
    4.9445342947928894E-01 
    4.4976577921242294E-01 
    4.4971524493835069E-01 
    4.4965688922721658E-01 
    4.4963648629467778E-01 
    4.4970391248994046E-01 
    4.4988327631515562E-01 
    4.5015963959923955E-01 
    4.5051509405064644E-01 
    4.5093316673683581E-01 
    4.5135892607217282E-01 
    4.5172539385950711E-01 
    4.5202423728488295E-01 
    4.5222388534281543E-01 
    4.5229929949455383E-01 
    4.5225306047527519E-01 
    4.5207495904290923E-01 
    3.9137289670588915E-01 
    3.9142888285578548E-01 
    3.9153089846776989E-01 
    3.9167109807046374E-01 
    3.9184481412872690E-01 
    3.9205160611947459E-01 
    3.9226253977532827E-01 
    3.9245067930090149E-01 
    3.9258930571327633E-01 
    3.9264557585259702E-01 
    3.9262159858396578E-01 
    3.9251066386890088E-01 
    3.9232022358777313E-01 
    3.9212259329069427E-01 
    3.9194809457670127E-01 
    3.9178764324074572E-01 
    3.1977509273786547E-01 
    3.1974248434131997E-01 
    3.1965819183210864E-01 
    3.1949694649008303E-01 
    3.1922864212949431E-01 
    3.1881696064270187E-01 
    3.1834750013120111E-01 
    3.1784944676345755E-01 
    3.1734716434100008E-01 
    3.1686014100988269E-01 
    3.1643565977795635E-01 
    3.1602937565492700E-01 
    3.1573094889622139E-01 
    3.1558980891187083E-01 
    3.1557242704043936E-01 
    3.1567003200459687E-01 
    2.5237513624364222E-01 
    2.5233999116953565E-01 
    2.5225919576658884E-01 
    2.5212064128363465E-01 
    2.5191251912720664E-01 
    2.5162501258645442E-01 
    2.5128766088432497E-01 
    2.5092825935661844E-01 
    2.5057192934566935E-01 
    2.5023339839929382E-01 
    2.4990765763224307E-01 
    2.4961231478294693E-01 
    2.4943512469932225E-01 
    2.4937410069806143E-01 
    2.4940860330498993E-01 
    2.4953740120166742E-01 
    1.9988645974641805E-01 
    1.9985281713556760E-01 
    1.9977831278956207E-01 
    1.9965425429268099E-01 
    1.9947090956771027E-01 
    1.9921839205299535E-01 
    1.9890711590874011E-01 
    1.9854567767771017E-01 
    1.9813911762431816E-01 
    1.9769388205106350E-01 
    1.9723937619296220E-01 
    1.9686253703597387E-01 
    1.9660624695151313E-01 
    1.9644522332519398E-01 
    1.9637535413113894E-01 
    1.9639665880804158E-01 
    1.4997551693955555E-01 
    1.4990217191229210E-01 
    1.4975538804810706E-01 
    1.4953644752039813E-01 
    1.4924753045869624E-01 
    1.4889135628273245E-01 
    1.4847561231062559E-01 
    1.4800754630595195E-01 
    1.4749840683831289E-01 
    1.4697892249378602E-01 
    1.4650713294139106E-01 
    1.4612550794466428E-01 
    1.4583040324591928E-01 
    1.4561216460290227E-01 
    1.4547703525631284E-01 
    1.4543028791457183E-01 
    9.9914389358323960E-02 
    9.9752901041720007E-02 
    9.9437321299630149E-02 
    9.8979180615785936E-02 
    9.8393214827140668E-02 
    9.7696926928687311E-02 
    9.6902862614447527E-02 
    9.6027711657885553E-02 
    9.5095363269879135E-02 
    9.4142489525503997E-02 
    9.3204048296921901E-02 
    9.2295672962927899E-02 
    9.1441538422155993E-02 
    9.0693611439914029E-02 
    9.0113161347339835E-02 
    8.9772023751468880E-02 
    6.2640881826478395E-02 
    6.2177605157647045E-02 
    6.1263497490730394E-02 
    5.9908672039188586E-02 
    5.8119856006427273E-02 
    5.5886087395108988E-02 
    5.3169137477000535E-02 
    4.9928265867769120E-02 
    4.6115632487871136E-02 
    4.1699379059682136E-02 
    3.6640846301282080E-02 
    3.0895181324821920E-02 
    2.4409675864964425E-02 
    1.7123751318837817E-02 
    8.9676034489112114E-03 
    0.0000000000000000E+00 

SCALARS Saturarion double 1 
LOOKUP_TABLE default 

    1.0000000010155734E+00 
    9.8478409341032680E-01 
    9.5848697155476859E-01 
    9.3129883608063213E-01 
    9.0467455910075700E-01 
    8.7928896345048468E-01 
    8.5300436245078781E-01 
    8.2560344165002997E-01 
    7.9737501859980675E-01 
    7.6759107023750306E-01 
    7.3577708231638939E-01 
    7.0114753098649318E-01 
    6.6278616805509871E-01 
    6.1717614422978240E-01 
    5.5624943667570426E-01 
    3.8611729737690653E-01 
    9.2215652754899280E-01 
    9.1216510351619695E-01 
    8.9152150501667327E-01 
    8.6957235136982358E-01 
    8.4907098569438400E-01 
    8.2689484236546595E-01 
    8.0382014387428991E-01 
    7.8013459219766379E-01 
    7.5600962336279565E-01 
    7.3037297629275566E-01 
    7.0237058426460819E-01 
    6.7203397907304330E-01 
    6.3456053761606657E-01 
    5.9152066312426188E-01 
    5.3369096151271334E-01 
    3.4389043708855183E-01 
    8.1279755056631120E-01 
    8.0756311911338341E-01 
    7.9293211403184005E-01 
    7.7600490795676080E-01 
    7.6260028883035047E-01 
    7.4545957051249723E-01 
    7.2751049305358872E-01 
    7.0905489583127734E-01 
    6.9122052966157832E-01 
    6.7181624083153935E-01 
    6.4928955031484170E-01 
    6.2389261921440253E-01 
    5.8885594188296464E-01 
    5.4971842542609550E-01 
    4.9835338459508405E-01 
    2.5878232208101176E-01 
    7.4548808873697059E-01 
    7.3908359442330396E-01 
    7.2510337671776137E-01 
    7.0987006042952117E-01 
    6.9805704281986503E-01 
    6.8383747565354203E-01 
    6.6885690079726179E-01 
    6.5369501120481799E-01 
    6.3931828421721371E-01 
    6.2243669322379080E-01 
    6.0248577917464219E-01 
    5.8076940943139610E-01 
    5.4882627076913271E-01 
    5.1291306761380573E-01 
    4.6222520902237785E-01 
    1.3376869905029717E-01 
    6.9428693809335484E-01 
    6.8839625414960159E-01 
    6.7593183061479156E-01 
    6.6171880311960585E-01 
    6.4818842642459573E-01 
    6.3552813124007579E-01 
    6.2187498544314590E-01 
    6.0797309328720850E-01 
    5.9407520029036054E-01 
    5.7876604122440800E-01 
    5.6131946831546287E-01 
    5.4241134073504005E-01 
    5.1530363543531432E-01 
    4.7957859119907220E-01 
    4.1719193942237576E-01 
    5.1517016668460605E-02 
    6.5494018984792235E-01 
    6.4973879488560804E-01 
    6.3881890543865283E-01 
    6.2479634057433864E-01 
    6.0632551261164691E-01 
    5.9476759351130504E-01 
    5.8243864658378430E-01 
    5.7036182586597139E-01 
    5.5498899012744318E-01 
    5.4166887452745749E-01 
    5.2635410985507347E-01 
    5.0979450261541093E-01 
    4.8887216715737647E-01 
    4.5091812691072253E-01 
    3.1176911172171473E-01 
    5.3498304463978621E-03 
    6.2265531337239366E-01 
    6.1900086944174382E-01 
    6.1052313991361151E-01 
    6.0010879999788802E-01 
    5.7747523638201903E-01 
    5.6397098544378321E-01 
    5.5282417057882449E-01 
    5.4232810324415948E-01 
    5.2760866155327946E-01 
    5.1343075313571185E-01 
    4.9911552537715698E-01 
    4.8306238175961463E-01 
    4.6526726471972990E-01 
    4.2535503300643157E-01 
    1.2889895587487751E-01 
    6.7651573048041738E-05 
    5.9181551279208577E-01 
    5.8967630970084783E-01 
    5.8381318595209719E-01 
    5.7675889041044204E-01 
    5.5963246220963581E-01 
    5.3955184530568789E-01 
    5.2881729908656916E-01 
    5.1832387072995045E-01 
    5.0546857809698909E-01 
    4.8992056830672082E-01 
    4.7504032542348701E-01 
    4.5873551780374938E-01 
    4.3050004493466082E-01 
    3.4041781153792688E-01 
    5.7159542905583834E-03 
    1.0105078573935829E-06 
    5.6236260460921095E-01 
    5.6076409688770334E-01 
    5.5641461265847669E-01 
    5.5033992551466249E-01 
    5.3483464945682202E-01 
    5.1527196593926028E-01 
    5.0327029076477525E-01 
    4.9139903989550709E-01 
    4.7604760083540248E-01 
    4.6325652682550933E-01 
    4.4280251493137274E-01 
    4.0133328524181372E-01 
    2.9752903782260548E-01 
    5.2007690879302598E-02 
    2.7478002300435552E-06 
    1.0000000038531465E-06 
    5.3629817227907717E-01 
    5.3490931667565933E-01 
    5.3145121324125111E-01 
    5.2678476193618129E-01 
    5.1037004304368683E-01 
    4.9468818158118344E-01 
    4.8252953639069507E-01 
    4.6792671582857281E-01 
    4.4867651446763446E-01 
    4.3658350595493151E-01 
    4.0373664690330435E-01 
    2.9010138386094980E-01 
    3.9384854451946200E-02 
    9.2587456049087179E-05 
    1.0003349430304182E-06 
    1.0000000000248619E-06 
    5.1381571481025223E-01 
    5.1284893350249849E-01 
    5.1047972269667397E-01 
    5.0776758833343827E-01 
    4.9778458544369214E-01 
    4.8164278227454782E-01 
    4.7046683128464994E-01 
    4.5970922450929103E-01 
    4.3948884620268974E-01 
    4.1605674044512780E-01 
    3.7902897051412382E-01 
    1.5285156572930900E-01 
    2.8476983413626780E-04 
    1.0225872636167427E-06 
    1.0000000013186426E-06 
    9.9999999999999995E-07 
    4.9049119163403926E-01 
    4.8987741677851371E-01 
    4.8819287896460323E-01 
    4.8642747211657028E-01 
    4.8436060425939115E-01 
    4.7498618216995886E-01 
    4.6140847610875363E-01 
    4.5102029073778138E-01 
    4.3967825274423966E-01 
    4.1175094431958986E-01 
    3.2301102015791849E-01 
    3.0100483056414742E-02 
    1.9605329217172617E-05 
    1.0000142501266896E-06 
    1.0000000000000972E-06 
    9.9999999999999995E-07 
    4.5915952572038526E-01 
    4.5851226378859022E-01 
    4.5691071476442052E-01 
    4.5501406784527659E-01 
    4.5299081447722478E-01 
    4.5075011797080988E-01 
    4.4384100547998440E-01 
    4.3224362422192930E-01 
    4.1648768426608052E-01 
    3.7699492573995241E-01 
    1.5927223208984126E-01 
    7.5421558749583771E-04 
    1.0478196855717181E-06 
    1.0000000019007813E-06 
    1.0000000000000008E-06 
    9.9999999999999995E-07 
    3.7924774314794535E-01 
    3.7645656657025356E-01 
    3.7197698410513980E-01 
    3.6634609714396027E-01 
    3.5741858225981588E-01 
    3.4794408865068033E-01 
    3.3496640325333910E-01 
    3.0553730558558179E-01 
    2.4871081196247277E-01 
    1.2981082508683370E-01 
    8.2221347471627335E-03 
    9.1519012541426396E-06 
    1.0000162773777414E-06 
    1.0000000000006661E-06 
    9.9999999999999995E-07 
    9.9999999999999995E-07 
    5.8743379818676382E-02 
    5.5532645744276361E-02 
    5.0121995660804580E-02 
    4.2910928177570591E-02 
    3.5567862326593633E-02 
    2.9406811477501543E-02 
    2.1690070056022241E-02 
    8.6203765086464244E-03 
    1.4853167038356972E-03 
    3.5597666439460610E-04 
    4.4044763691605696E-05 
    1.0000064094064155E-06 
    1.0000000000012046E-06 
    9.9999999999999995E-07 
    9.9999999999999995E-07 
    9.9999999999999995E-07 
    1.0000372192514220E-06 
    6.3818352437838155E-05 
    1.7411781559515873E-06 
    1.5986585961237176E-06 
    1.6199505868781901E-06 
    1.7015985606635489E-06 
    1.6329291250144649E-06 
    1.6257688759088543E-06 
    1.0425281166058559E-06 
    1.0494849931939815E-06 
    1.0011857259382360E-06 
    1.0000000000040155E-06 
    1.0000000000000002E-06 
    9.9999999999999995E-07 
    9.9999999999999995E-07 
    1.0000002302910301E-06 
