# vtk DataFile Version 2.0
Pressure Field Data 
ASCII 
DATASET UNSTRUCTURED_GRID 

POINTS 289 double 

    0.0000000000000000E+00     0.0000000000000000E+00     0.0000000000000000E+00 
    1.0000000000000000E+00     0.0000000000000000E+00     0.0000000000000000E+00 
    1.0000000000000000E+00     1.0000000000000000E+00     0.0000000000000000E+00 
    0.0000000000000000E+00     1.0000000000000000E+00     0.0000000000000000E+00 
    6.2499999999872928E-02     0.0000000000000000E+00     0.0000000000000000E+00 
    1.2499999999977310E-01     0.0000000000000000E+00     0.0000000000000000E+00 
    1.8749999999959341E-01     0.0000000000000000E+00     0.0000000000000000E+00 
    2.4999999999941089E-01     0.0000000000000000E+00     0.0000000000000000E+00 
    3.1249999999922851E-01     0.0000000000000000E+00     0.0000000000000000E+00 
    3.7499999999904610E-01     0.0000000000000000E+00     0.0000000000000000E+00 
    4.3749999999886358E-01     0.0000000000000000E+00     0.0000000000000000E+00 
    4.9999999999869210E-01     0.0000000000000000E+00     0.0000000000000000E+00 
    5.6249999999884603E-01     0.0000000000000000E+00     0.0000000000000000E+00 
    6.2499999999901090E-01     0.0000000000000000E+00     0.0000000000000000E+00 
    6.8749999999917577E-01     0.0000000000000000E+00     0.0000000000000000E+00 
    7.4999999999934064E-01     0.0000000000000000E+00     0.0000000000000000E+00 
    8.1249999999950551E-01     0.0000000000000000E+00     0.0000000000000000E+00 
    8.7499999999967026E-01     0.0000000000000000E+00     0.0000000000000000E+00 
    9.3749999999983513E-01     0.0000000000000000E+00     0.0000000000000000E+00 
    1.0000000000000000E+00     6.2499999999872928E-02     0.0000000000000000E+00 
    1.0000000000000000E+00     1.2499999999977310E-01     0.0000000000000000E+00 
    1.0000000000000000E+00     1.8749999999959341E-01     0.0000000000000000E+00 
    1.0000000000000000E+00     2.4999999999941089E-01     0.0000000000000000E+00 
    1.0000000000000000E+00     3.1249999999922851E-01     0.0000000000000000E+00 
    1.0000000000000000E+00     3.7499999999904610E-01     0.0000000000000000E+00 
    1.0000000000000000E+00     4.3749999999886358E-01     0.0000000000000000E+00 
    1.0000000000000000E+00     4.9999999999869210E-01     0.0000000000000000E+00 
    1.0000000000000000E+00     5.6249999999884603E-01     0.0000000000000000E+00 
    1.0000000000000000E+00     6.2499999999901090E-01     0.0000000000000000E+00 
    1.0000000000000000E+00     6.8749999999917577E-01     0.0000000000000000E+00 
    1.0000000000000000E+00     7.4999999999934064E-01     0.0000000000000000E+00 
    1.0000000000000000E+00     8.1249999999950551E-01     0.0000000000000000E+00 
    1.0000000000000000E+00     8.7499999999967026E-01     0.0000000000000000E+00 
    1.0000000000000000E+00     9.3749999999983513E-01     0.0000000000000000E+00 
    9.3749999999973976E-01     1.0000000000000000E+00     0.0000000000000000E+00 
    8.7499999999950118E-01     1.0000000000000000E+00     0.0000000000000000E+00 
    8.1249999999991318E-01     1.0000000000000000E+00     0.0000000000000000E+00 
    7.5000000000034706E-01     1.0000000000000000E+00     0.0000000000000000E+00 
    6.8750000000078049E-01     1.0000000000000000E+00     0.0000000000000000E+00 
    6.2500000000121403E-01     1.0000000000000000E+00     0.0000000000000000E+00 
    5.6250000000164757E-01     1.0000000000000000E+00     0.0000000000000000E+00 
    5.0000000000205946E-01     1.0000000000000000E+00     0.0000000000000000E+00 
    4.3750000000182099E-01     1.0000000000000000E+00     0.0000000000000000E+00 
    3.7500000000156092E-01     1.0000000000000000E+00     0.0000000000000000E+00 
    3.1250000000130068E-01     1.0000000000000000E+00     0.0000000000000000E+00 
    2.5000000000104050E-01     1.0000000000000000E+00     0.0000000000000000E+00 
    1.8750000000078040E-01     1.0000000000000000E+00     0.0000000000000000E+00 
    1.2500000000052031E-01     1.0000000000000000E+00     0.0000000000000000E+00 
    6.2500000000260125E-02     1.0000000000000000E+00     0.0000000000000000E+00 
    0.0000000000000000E+00     9.3749999999973976E-01     0.0000000000000000E+00 
    0.0000000000000000E+00     8.7499999999950118E-01     0.0000000000000000E+00 
    0.0000000000000000E+00     8.1249999999991318E-01     0.0000000000000000E+00 
    0.0000000000000000E+00     7.5000000000034706E-01     0.0000000000000000E+00 
    0.0000000000000000E+00     6.8750000000078049E-01     0.0000000000000000E+00 
    0.0000000000000000E+00     6.2500000000121403E-01     0.0000000000000000E+00 
    0.0000000000000000E+00     5.6250000000164757E-01     0.0000000000000000E+00 
    0.0000000000000000E+00     5.0000000000205946E-01     0.0000000000000000E+00 
    0.0000000000000000E+00     4.3750000000182099E-01     0.0000000000000000E+00 
    0.0000000000000000E+00     3.7500000000156092E-01     0.0000000000000000E+00 
    0.0000000000000000E+00     3.1250000000130068E-01     0.0000000000000000E+00 
    0.0000000000000000E+00     2.5000000000104050E-01     0.0000000000000000E+00 
    0.0000000000000000E+00     1.8750000000078040E-01     0.0000000000000000E+00 
    0.0000000000000000E+00     1.2500000000052031E-01     0.0000000000000000E+00 
    0.0000000000000000E+00     6.2500000000260125E-02     0.0000000000000000E+00 
    6.2499999999897131E-02     6.2500000000235922E-02     0.0000000000000000E+00 
    6.2499999999921327E-02     1.2500000000047351E-01     0.0000000000000000E+00 
    6.2499999999945530E-02     1.8750000000070621E-01     0.0000000000000000E+00 
    6.2499999999969733E-02     2.5000000000093858E-01     0.0000000000000000E+00 
    6.2499999999993928E-02     3.1250000000117117E-01     0.0000000000000000E+00 
    6.2500000000018124E-02     3.7500000000140382E-01     0.0000000000000000E+00 
    6.2500000000042327E-02     4.3750000000163619E-01     0.0000000000000000E+00 
    6.2500000000066530E-02     5.0000000000184897E-01     0.0000000000000000E+00 
    6.2500000000090733E-02     5.6250000000147260E-01     0.0000000000000000E+00 
    6.2500000000114922E-02     6.2500000000107636E-01     0.0000000000000000E+00 
    6.2500000000139125E-02     6.8750000000068034E-01     0.0000000000000000E+00 
    6.2500000000163328E-02     7.5000000000028411E-01     0.0000000000000000E+00 
    6.2500000000187531E-02     8.1249999999988787E-01     0.0000000000000000E+00 
    6.2500000000211720E-02     8.7499999999951172E-01     0.0000000000000000E+00 
    6.2500000000235922E-02     9.3749999999974565E-01     0.0000000000000000E+00 
    1.2499999999981980E-01     6.2500000000211733E-02     0.0000000000000000E+00 
    1.2499999999986650E-01     1.2500000000042691E-01     0.0000000000000000E+00 
    1.2499999999991319E-01     1.8750000000063199E-01     0.0000000000000000E+00 
    1.2499999999995989E-01     2.5000000000083678E-01     0.0000000000000000E+00 
    1.2500000000000661E-01     3.1250000000104172E-01     0.0000000000000000E+00 
    1.2500000000005329E-01     3.7500000000124661E-01     0.0000000000000000E+00 
    1.2500000000010000E-01     4.3750000000145117E-01     0.0000000000000000E+00 
    1.2500000000014669E-01     5.0000000000163858E-01     0.0000000000000000E+00 
    1.2500000000019340E-01     5.6250000000129741E-01     0.0000000000000000E+00 
    1.2500000000024011E-01     6.2500000000093847E-01     0.0000000000000000E+00 
    1.2500000000028680E-01     6.8750000000057998E-01     0.0000000000000000E+00 
    1.2500000000033351E-01     7.5000000000022127E-01     0.0000000000000000E+00 
    1.2500000000038020E-01     8.1249999999986211E-01     0.0000000000000000E+00 
    1.2500000000042691E-01     8.7499999999952238E-01     0.0000000000000000E+00 
    1.2500000000047359E-01     9.3749999999975164E-01     0.0000000000000000E+00 
    1.8749999999966760E-01     6.2500000000187531E-02     0.0000000000000000E+00 
    1.8749999999974179E-01     1.2500000000038020E-01     0.0000000000000000E+00 
    1.8749999999981601E-01     1.8750000000055780E-01     0.0000000000000000E+00 
    1.8749999999989009E-01     2.5000000000073502E-01     0.0000000000000000E+00 
    1.8749999999996431E-01     3.1250000000091221E-01     0.0000000000000000E+00 
    1.8750000000003850E-01     3.7500000000108941E-01     0.0000000000000000E+00 
    1.8750000000011269E-01     4.3750000000126649E-01     0.0000000000000000E+00 
    1.8750000000018691E-01     5.0000000000142808E-01     0.0000000000000000E+00 
    1.8750000000026110E-01     5.6250000000112244E-01     0.0000000000000000E+00 
    1.8750000000033529E-01     6.2500000000080080E-01     0.0000000000000000E+00 
    1.8750000000040951E-01     6.8750000000047962E-01     0.0000000000000000E+00 
    1.8750000000048361E-01     7.5000000000015843E-01     0.0000000000000000E+00 
    1.8750000000055780E-01     8.1249999999983680E-01     0.0000000000000000E+00 
    1.8750000000063199E-01     8.7499999999953304E-01     0.0000000000000000E+00 
    1.8750000000070621E-01     9.3749999999975764E-01     0.0000000000000000E+00 
    2.4999999999951281E-01     6.2500000000163314E-02     0.0000000000000000E+00 
    2.4999999999961461E-01     1.2500000000033351E-01     0.0000000000000000E+00 
    2.4999999999971650E-01     1.8750000000048361E-01     0.0000000000000000E+00 
    2.4999999999981831E-01     2.5000000000063310E-01     0.0000000000000000E+00 
    2.4999999999992020E-01     3.1250000000078260E-01     0.0000000000000000E+00 
    2.5000000000002198E-01     3.7500000000093209E-01     0.0000000000000000E+00 
    2.5000000000012390E-01     4.3750000000108180E-01     0.0000000000000000E+00 
    2.5000000000022571E-01     5.0000000000121769E-01     0.0000000000000000E+00 
    2.5000000000032763E-01     5.6250000000094724E-01     0.0000000000000000E+00 
    2.5000000000042938E-01     6.2500000000066314E-01     0.0000000000000000E+00 
    2.5000000000053119E-01     6.8750000000037925E-01     0.0000000000000000E+00 
[...]
CELL_DATA 256 
SCALARS Pressure double 1 
LOOKUP_TABLE default 

    8.1769168765784783E-01 
    8.1581201951232374E-01 
    8.1407790047406881E-01 
    8.1245590024143244E-01 
    8.1094902111812817E-01 
    8.0955602596613208E-01 
    8.0827867425730704E-01 
    8.0712176877844755E-01 
    8.0609227097131309E-01 
    8.0519109111787357E-01 
    8.0441959097891014E-01 
    8.0377900006831970E-01 
    8.0326887355209708E-01 
    8.0289029490712382E-01 
    8.0264603447284721E-01 
    8.0251894619284481E-01 
    7.9115470631140705E-01 
    7.9106603425749866E-01 
    7.9090610497896408E-01 
    7.9068911468542313E-01 
    7.9042959760860987E-01 
    7.9014049265774999E-01 
    7.8983559358599065E-01 
    7.8952681367321276E-01 
    7.8922572109246691E-01 
    7.8894309085776371E-01 
    7.8868809602138190E-01 
    7.8846647892913047E-01 
    7.8828251845389907E-01 
    7.8814019931518897E-01 
    7.8803744440706014E-01 
    7.8797292733083046E-01 
    7.6736116443760971E-01 
    7.6734404414651780E-01 
    7.6731010530560406E-01 
    7.6726079751741572E-01 
    7.6719868192371221E-01 
    7.6712667861067996E-01 
    7.6704585668825587E-01 
    7.6695897152510639E-01 
    7.6686871905738674E-01 
    7.6677730590063908E-01 
    7.6668685688044880E-01 
    7.6660098636624008E-01 
    7.6652310112637234E-01 
    7.6645489565483982E-01 
    7.6638809150796061E-01 
    7.6632894200802071E-01 
    7.3859260429460838E-01 
    7.3859998673072247E-01 
    7.3861368897809743E-01 
    7.3863376571384587E-01 
    7.3866004356230885E-01 
    7.3869132905856871E-01 
    7.3871908892262739E-01 
    7.3873973684003647E-01 
    7.3874902991209856E-01 
    7.3874228842816470E-01 
    7.3871693377817038E-01 
    7.3867668982863144E-01 
    7.3862484389561045E-01 
    7.3855391656163227E-01 
    7.3845614135524640E-01 
    7.3836789143577497E-01 
    7.0174317565672262E-01 
    7.0177381737791411E-01 
    7.0182934771437289E-01 
    7.0190480627551177E-01 
    7.0199401808948814E-01 
    7.0208889822391762E-01 
    7.0218002215605047E-01 
    7.0225961067049736E-01 
    7.0231954503319149E-01 
    7.0235120012482188E-01 
    7.0234337545509840E-01 
    7.0230149727788183E-01 
    7.0222464139165375E-01 
    7.0210035950806127E-01 
    7.0194868756484385E-01 
    7.0183185194870656E-01 
    6.5491012136495275E-01 
    6.5497584264444408E-01 
    6.5508216782796147E-01 
    6.5520474337854795E-01 
    6.5531716454693312E-01 
    6.5539004196461459E-01 
    6.5542054179466624E-01 
    6.5541105667293720E-01 
    6.5536470340904163E-01 
    6.5528545576787489E-01 
    6.5518353432135856E-01 
    6.5506183284323993E-01 
    6.5490381800712194E-01 
    6.5472168357203420E-01 
    6.5460131171171709E-01 
    6.5458199407041762E-01 
    6.0798742752211132E-01 
    6.0792985925937848E-01 
    6.0781498774055842E-01 
    6.0764075464946343E-01 
    6.0739992190678560E-01 
    6.0711303231461278E-01 
    6.0683563407976115E-01 
    6.0657724368333177E-01 
    6.0634647932765706E-01 
    6.0614758390324319E-01 
    6.0599344576188263E-01 
    6.0584531716861723E-01 
    6.0568674568328107E-01 
    6.0556640753279134E-01 
    6.0551695711999098E-01 
    6.0552235117653597E-01 
    5.5790470251992663E-01 
    5.5783512096852828E-01 
    5.5771560988852131E-01 
    5.5756849456661284E-01 
    5.5741793794619521E-01 
    5.5729203919640913E-01 
    5.5721661050453053E-01 
    5.5718923199960324E-01 
    5.5719765613416605E-01 
    5.5719852001228365E-01 
    5.5715976896940034E-01 
    5.5709226579867199E-01 
    5.5703411729928920E-01 
    5.5700643247834924E-01 
    5.5698803840851374E-01 
    5.5695349264621807E-01 
    5.0530817255085647E-01 
    5.0522699869331089E-01 
    5.0510463351801305E-01 
    5.0498247067130742E-01 
    5.0490654439402805E-01 
    5.0489670786952412E-01 
    5.0492894626129026E-01 
    5.0497762880896535E-01 
    5.0504043472234239E-01 
    5.0508850259428462E-01 
    5.0507872094317197E-01 
    5.0505049514630462E-01 
    5.0501962676953327E-01 
    5.0496402140785668E-01 
    5.0485895372319156E-01 
    5.0468412298025922E-01 
    4.3874614057296196E-01 
    4.3871983943639875E-01 
    4.3865213832749700E-01 
    4.3853024558314796E-01 
    4.3834206927237152E-01 
    4.3808265796453733E-01 
    4.3774469073801259E-01 
    4.3734438424852479E-01 
    4.3691789580373935E-01 
    4.3649449288396974E-01 
    4.3611551991996800E-01 
    4.3577904611804580E-01 
    4.3547394836025932E-01 
    4.3520549923184704E-01 
    4.3498256190386775E-01 
    4.3481310814760760E-01 
    3.5166477558331777E-01 
    3.5161102891221002E-01 
    3.5148681119235592E-01 
    3.5127317693619409E-01 
    3.5094791254750052E-01 
    3.5049316903689454E-01 
    3.5000739569774630E-01 
    3.4954890220261192E-01 
    3.4914015283176209E-01 
    3.4876672409140291E-01 
    3.4847516953100682E-01 
    3.4826171456663907E-01 
    3.4812443301449009E-01 
    3.4806327540029797E-01 
    3.4807991289287804E-01 
    3.4817745492250435E-01 
    2.7133460494477984E-01 
    2.7136536187285804E-01 
    2.7141284747325800E-01 
    2.7145900214716112E-01 
    2.7148456436790042E-01 
    2.7146755223972063E-01 
    2.7141578191107535E-01 
    2.7133851038840734E-01 
    2.7125214152425264E-01 
    2.7117546855071756E-01 
    2.7113850963816272E-01 
    2.7113742567418408E-01 
    2.7116980670953628E-01 
    2.7123511687232538E-01 
    2.7133475002374075E-01 
    2.7147191210538441E-01 
    2.0900898794332906E-01 
    2.0901357936952769E-01 
    2.0901587031085264E-01 
    2.0900737058542815E-01 
    2.0897863258289504E-01 
    2.0891992538581894E-01 
    2.0884108573081170E-01 
    2.0875092703930201E-01 
    2.0865884178607105E-01 
    2.0857497476512687E-01 
    2.0851665781695400E-01 
    2.0848146154660099E-01 
    2.0846809575727954E-01 
    2.0847658143082987E-01 
    2.0850824567340911E-01 
    2.0856561015331182E-01 
    1.5343771804005713E-01 
    1.5340425093478985E-01 
    1.5333691667141902E-01 
    1.5323580409601373E-01 
    1.5310161000376532E-01 
    1.5293576887388505E-01 
    1.5274649719044692E-01 
    1.5254188807110763E-01 
    1.5233073634173316E-01 
    1.5212247827591929E-01 
    1.5192972794162884E-01 
    1.5175894601025508E-01 
    1.5161687160702042E-01 
    1.5151019095614562E-01 
    1.5144516934394053E-01 
    1.5142714628647955E-01 
    1.0209064900379476E-01 
    1.0194791094329043E-01 
    1.0166845035969432E-01 
    1.0126121451571080E-01 
    1.0073785258011754E-01 
    1.0011254206762388E-01 
    9.9394363949418113E-02 
    9.8595431138695511E-02 
    9.7731593432317992E-02 
    9.6823108514080866E-02 
    9.5894057217780410E-02 
    9.4981333549429434E-02 
    9.4127961761806309E-02 
    9.3384357481698335E-02 
    9.2809870005662112E-02 
    9.2474648498568748E-02 
    6.2746470405446869E-02 
    6.2285016356687810E-02 
    6.1371779661291682E-02 
    6.0014121784261465E-02 
    5.8216518635130679E-02 
    5.5970041336103088E-02 
    5.3237016676545117E-02 
    4.9975766856658027E-02 
    4.6140109584132213E-02 
    4.1704139294033445E-02 
    3.6631065880287021E-02 
    3.0877404776073508E-02 
    2.4391973241188050E-02 
    1.7114911964789484E-02 
    8.9766222213163559E-03 
    0.0000000000000000E+00 

SCALARS Saturarion double 1 
LOOKUP_TABLE default 

    1.0000000001288687E+00 
    9.7813287188982012E-01 
    9.4040318737462580E-01 
    9.0422417080662365E-01 
    8.7227925762138570E-01 
    8.3981135823626396E-01 
    8.0749444411345184E-01 
    7.7493533871749876E-01 
    7.4199674906613189E-01 
    7.0864161236301171E-01 
    6.7497253884560360E-01 
    6.3914279291612308E-01 
    5.9760186471061849E-01 
    5.4913257521609049E-01 
    4.8725696158030346E-01 
    1.9855216669994502E-01 
    8.9725492682459007E-01 
    8.8613566216454731E-01 
    8.6031313343658433E-01 
    8.3303016111665606E-01 
    8.0599292810588341E-01 
    7.7868004444709837E-01 
    7.5140501823090089E-01 
    7.2414595906778723E-01 
    6.9747995782740202E-01 
    6.6994245059147628E-01 
    6.4022634892840291E-01 
    6.0730910474047550E-01 
    5.6779438936628079E-01 
    5.2281074290578655E-01 
    4.5678585177419079E-01 
    1.0216471062502627E-01 
    7.7663023762097738E-01 
    7.6794112508000423E-01 
    7.4961361815372096E-01 
    7.2918593772660745E-01 
    7.1042477186424668E-01 
    6.9091645810102509E-01 
    6.7141892986161222E-01 
    6.5149218587663782E-01 
    6.3185878879335933E-01 
    6.0931203226987196E-01 
    5.8384645926095680E-01 
    5.5587070481715073E-01 
    5.2000546180213669E-01 
    4.7776416843725000E-01 
    3.5690703722199413E-01 
    1.5573094140593605E-02 
    6.9597621763951423E-01 
    6.8973119979725117E-01 
    6.7550372481250154E-01 
    6.5973252155525264E-01 
    6.4458720705804584E-01 
    6.2897122573515774E-01 
    6.1214481806007393E-01 
    5.9502471016842462E-01 
    5.7795718804511942E-01 
    5.5824328501972154E-01 
    5.3612908693449945E-01 
    5.1185429059471121E-01 
    4.7782223727216522E-01 
    4.2348628204774003E-01 
    1.2714045140413574E-01 
    2.4142499765640867E-04 
    6.3566553402472159E-01 
    6.3101307341185364E-01 
    6.2009544573869002E-01 
    6.0788232858246860E-01 
    5.9348242396177620E-01 
    5.7883880549772782E-01 
    5.6332454326106629E-01 
    5.4816234773388373E-01 
    5.3158374299887734E-01 
    5.1450939957196662E-01 
    4.9542649783299464E-01 
    4.7350421172584112E-01 
    4.3548464476917254E-01 
    2.7454839561319017E-01 
    8.7606544718151422E-03 
    8.9059173372728838E-06 
    5.9030969100496078E-01 
    5.8662519728126572E-01 
    5.7680452341241173E-01 
    5.6592828559832142E-01 
    5.4849220151891831E-01 
    5.3619571365927832E-01 
    5.2345578973913875E-01 
    5.1062103796960046E-01 
    4.9335096963495184E-01 
    4.7950391690966188E-01 
    4.6317250734368903E-01 
    4.4022756907272831E-01 
    3.7023670654300561E-01 
    5.9883868678853647E-02 
    1.9028449539719737E-04 
    1.0002394798412790E-06 
    5.5252244100601211E-01 
    5.5002537486429726E-01 
    5.4338377185776909E-01 
    5.3520318682602175E-01 
    5.1519228528889349E-01 
    5.0273993829787333E-01 
    4.9195734253642198E-01 
    4.8164744248340086E-01 
    4.6783350739851981E-01 
    4.5373237054600862E-01 
    4.3528474047580967E-01 
    3.7982427555852283E-01 
    1.3422805846327834E-01 
    1.3912655572169790E-03 
    1.0479546538744159E-06 
    1.0000000026408005E-06 
    5.1808551086360899E-01 
    5.1669606252689626E-01 
    5.1333837920317804E-01 
    5.0939338232053721E-01 
    4.9456989881089963E-01 
    4.7595324932479932E-01 
    4.6455015749790346E-01 
    4.5358933154447234E-01 
    4.4117940193689681E-01 
    4.2038599984175556E-01 
    3.5231620813200176E-01 
    1.1559580250593500E-01 
    3.1809917287836690E-03 
    1.6371220928177166E-06 
    1.0000000503132338E-06 
    1.0000000000000019E-06 
    4.8388320339346813E-01 
    4.8247779488949805E-01 
    4.7974883132566171E-01 
    4.7649816096896563E-01 
    4.6766391286104259E-01 
    4.4541646900819754E-01 
    4.2322691001965884E-01 
    3.9252682937376404E-01 
    3.1303195953821861E-01 
    1.9121143388113554E-01 
    4.5692718180016502E-02 
    2.7814287186142582E-03 
    4.1173139026111472E-06 
    1.0000007117853595E-06 
    1.0000000000000328E-06 
    9.9999999999999995E-07 
    4.2560473597941628E-01 
    4.2273355607406921E-01 
    4.1719556630936405E-01 
    4.0737494415396924E-01 
    4.0181905529921647E-01 
    3.6720077480423974E-01 
    2.5214153307410131E-01 
    1.1782004151458983E-01 
    1.2783151306314779E-02 
    7.6250412546620980E-04 
    3.3124980935318531E-04 
    4.8090143833272768E-06 
    1.0000288509342608E-06 
    1.0000000000043058E-06 
    9.9999999999999995E-07 
    9.9999999999999995E-07 
    1.3206843744597144E-01 
    1.2356080035173897E-01 
    1.0882113587280283E-01 
    9.2831312446110911E-02 
    8.2713203653774062E-02 
    3.1516506680251542E-02 
    2.3560766455757898E-03 
    1.2651542448709923E-04 
    2.8465042645212374E-06 
    1.3210356159380173E-06 
    1.0470021901862428E-06 
    1.0000239225070040E-06 
    1.0000000001502212E-06 
    1.0000000000000002E-06 
    9.9999999999999995E-07 
    9.9999999999999995E-07 
    7.6742097390979848E-05 
    6.1727795940101426E-05 
    3.0902142135289173E-06 
    4.3086988929645077E-06 
    3.7921294098148240E-06 
    5.4648316479854831E-05 
    1.3416743772397854E-06 
    1.0052797880674684E-06 
    1.0000012795821059E-06 
    1.0000000395251863E-06 
    1.0000000072349543E-06 
    1.0000000000375534E-06 
    1.0000000000000004E-06 
    9.9999999999999995E-07 
    9.9999999999999995E-07 
    9.9999999999999995E-07 
    9.9999993116259075E-07 
    1.0027852730697652E-06 
    1.0000029897055455E-06 
    1.0000048920581604E-06 
    1.0000041424096931E-06 
    1.0006139616585776E-06 
    1.0000000137562023E-06 
    1.0000000000278959E-06 
    1.0000000000005088E-06 
    1.0000000000000069E-06 
    1.0000000000000029E-06 
    1.0000000000000002E-06 
    9.9999999999999995E-07 
    9.9999999999999995E-07 
    9.9999999999999995E-07 
    9.9999999999999995E-07 
    9.9999999999985808E-07 
    1.0000000002342785E-06 
    1.0000000000002085E-06 
    1.0000000000008012E-06 
    1.0000000000003839E-06 
    1.0000000000534297E-06 
    1.0000000000000027E-06 
    1.0000000000000004E-06 
    9.9999999999999995E-07 
    9.9999999999999995E-07 
    9.9999999999999995E-07 
    9.9999999999999995E-07 
    9.9999999999999995E-07 
    9.9999999999999995E-07 
    9.9999999999999995E-07 
    9.9999999999999995E-07 
    9.9999999999999995E-07 
    9.9999999999999995E-07 
    9.9999999999999995E-07 
    9.9999999999999995E-07 
    9.9999999999999995E-07 
    9.9999999999999995E-07 
    9.9999999999999995E-07 
    9.9999999999999995E-07 
    9.9999999999999995E-07 
    9.9999999999999995E-07 
    9.9999999999999995E-07 
    9.9999999999999995E-07 
    9.9999999999999995E-07 
    9.9999999999999995E-07 
    9.9999999999999995E-07 
    9.9999999999999995E-07 
    9.9999999999999995E-07 
    9.9999999999999995E-07 
    9.9999999999999995E-07 
    9.9999999999999995E-07 
    9.9999999999999995E-07 
    9.9999999999999995E-07 
    9.9999999999999995E-07 
    9.9999999999999995E-07 
    9.9999999999999995E-07 
    9.9999999999999995E-07 
    9.9999999999999995E-07 
    9.9999999999999995E-07 
    9.9999999999999995E-07 
    9.9999999999999995E-07 
    9.9999999999999995E-07 
    1.0000001570059754E-06 
