# vtk DataFile Version 2.0
Pressure Field Data 
ASCII 
DATASET UNSTRUCTURED_GRID 

POINTS 289 double 

    0.0000000000000000E+00     0.0000000000000000E+00     0.0000000000000000E+00 
    1.0000000000000000E+00     0.0000000000000000E+00     0.0000000000000000E+00 
    1.0000000000000000E+00     1.0000000000000000E+00     0.0000000000000000E+00 
    0.0000000000000000E+00     1.0000000000000000E+00     0.0000000000000000E+00 
    6.2499999999872928E-02     0.0000000000000000E+00     0.0000000000000000E+00 
    1.2499999999977310E-01     0.0000000000000000E+00     0.0000000000000000E+00 
    1.8749999999959341E-01     0.0000000000000000E+00     0.0000000000000000E+00 
    2.4999999999941089E-01     0.0000000000000000E+00     0.0000000000000000E+00 
    3.1249999999922851E-01     0.0000000000000000E+00     0.0000000000000000E+00 
    3.7499999999904610E-01     0.0000000000000000E+00     0.0000000000000000E+00 
    4.3749999999886358E-01     0.0000000000000000E+00     0.0000000000000000E+00 
    4.9999999999869210E-01     0.0000000000000000E+00     0.0000000000000000E+00 
    5.6249999999884603E-01     0.0000000000000000E+00     0.0000000000000000E+00 
    6.2499999999901090E-01     0.0000000000000000E+00     0.0000000000000000E+00 
    6.8749999999917577E-01     0.0000000000000000E+00     0.0000000000000000E+00 
    7.4999999999934064E-01     0.0000000000000000E+00     0.0000000000000000E+00 
    8.1249999999950551E-01     0.0000000000000000E+00     0.0000000000000000E+00 
    8.7499999999967026E-01     0.0000000000000000E+00     0.0000000000000000E+00 
    9.3749999999983513E-01     0.0000000000000000E+00     0.0000000000000000E+00 
    1.0000000000000000E+00     6.2499999999872928E-02     0.0000000000000000E+00 
    1.0000000000000000E+00     1.2499999999977310E-01     0.0000000000000000E+00 
    1.0000000000000000E+00     1.8749999999959341E-01     0.0000000000000000E+00 
    1.0000000000000000E+00     2.4999999999941089E-01     0.0000000000000000E+00 
    1.0000000000000000E+00     3.1249999999922851E-01     0.0000000000000000E+00 
    1.0000000000000000E+00     3.7499999999904610E-01     0.0000000000000000E+00 
    1.0000000000000000E+00     4.3749999999886358E-01     0.0000000000000000E+00 
    1.0000000000000000E+00     4.9999999999869210E-01     0.0000000000000000E+00 
    1.0000000000000000E+00     5.6249999999884603E-01     0.0000000000000000E+00 
    1.0000000000000000E+00     6.2499999999901090E-01     0.0000000000000000E+00 
    1.0000000000000000E+00     6.8749999999917577E-01     0.0000000000000000E+00 
    1.0000000000000000E+00     7.4999999999934064E-01     0.0000000000000000E+00 
    1.0000000000000000E+00     8.1249999999950551E-01     0.0000000000000000E+00 
    1.0000000000000000E+00     8.7499999999967026E-01     0.0000000000000000E+00 
    1.0000000000000000E+00     9.3749999999983513E-01     0.0000000000000000E+00 
    9.3749999999973976E-01     1.0000000000000000E+00     0.0000000000000000E+00 
    8.7499999999950118E-01     1.0000000000000000E+00     0.0000000000000000E+00 
    8.1249999999991318E-01     1.0000000000000000E+00     0.0000000000000000E+00 
    7.5000000000034706E-01     1.0000000000000000E+00     0.0000000000000000E+00 
    6.8750000000078049E-01     1.0000000000000000E+00     0.0000000000000000E+00 
    6.2500000000121403E-01     1.0000000000000000E+00     0.0000000000000000E+00 
    5.6250000000164757E-01     1.0000000000000000E+00     0.0000000000000000E+00 
    5.0000000000205946E-01     1.0000000000000000E+00     0.0000000000000000E+00 
    4.3750000000182099E-01     1.0000000000000000E+00     0.0000000000000000E+00 
    3.7500000000156092E-01     1.0000000000000000E+00     0.0000000000000000E+00 
    3.1250000000130068E-01     1.0000000000000000E+00     0.0000000000000000E+00 
    2.5000000000104050E-01     1.0000000000000000E+00     0.0000000000000000E+00 
    1.8750000000078040E-01     1.0000000000000000E+00     0.0000000000000000E+00 
    1.2500000000052031E-01     1.0000000000000000E+00     0.0000000000000000E+00 
    6.2500000000260125E-02     1.0000000000000000E+00     0.0000000000000000E+00 
    0.0000000000000000E+00     9.3749999999973976E-01     0.0000000000000000E+00 
    0.0000000000000000E+00     8.7499999999950118E-01     0.0000000000000000E+00 
    0.0000000000000000E+00     8.1249999999991318E-01     0.0000000000000000E+00 
    0.0000000000000000E+00     7.5000000000034706E-01     0.0000000000000000E+00 
    0.0000000000000000E+00     6.8750000000078049E-01     0.0000000000000000E+00 
    0.0000000000000000E+00     6.2500000000121403E-01     0.0000000000000000E+00 
    0.0000000000000000E+00     5.6250000000164757E-01     0.0000000000000000E+00 
    0.0000000000000000E+00     5.0000000000205946E-01     0.0000000000000000E+00 
    0.0000000000000000E+00     4.3750000000182099E-01     0.0000000000000000E+00 
    0.0000000000000000E+00     3.7500000000156092E-01     0.0000000000000000E+00 
    0.0000000000000000E+00     3.1250000000130068E-01     0.0000000000000000E+00 
    0.0000000000000000E+00     2.5000000000104050E-01     0.0000000000000000E+00 
    0.0000000000000000E+00     1.8750000000078040E-01     0.0000000000000000E+00 
    0.0000000000000000E+00     1.2500000000052031E-01     0.0000000000000000E+00 
    0.0000000000000000E+00     6.2500000000260125E-02     0.0000000000000000E+00 
    6.2499999999897131E-02     6.2500000000235922E-02     0.0000000000000000E+00 
    6.2499999999921327E-02     1.2500000000047351E-01     0.0000000000000000E+00 
    6.2499999999945530E-02     1.8750000000070621E-01     0.0000000000000000E+00 
    6.2499999999969733E-02     2.5000000000093858E-01     0.0000000000000000E+00 
    6.2499999999993928E-02     3.1250000000117117E-01     0.0000000000000000E+00 
    6.2500000000018124E-02     3.7500000000140382E-01     0.0000000000000000E+00 
    6.2500000000042327E-02     4.3750000000163619E-01     0.0000000000000000E+00 
    6.2500000000066530E-02     5.0000000000184897E-01     0.0000000000000000E+00 
    6.2500000000090733E-02     5.6250000000147260E-01     0.0000000000000000E+00 
    6.2500000000114922E-02     6.2500000000107636E-01     0.0000000000000000E+00 
    6.2500000000139125E-02     6.8750000000068034E-01     0.0000000000000000E+00 
    6.2500000000163328E-02     7.5000000000028411E-01     0.0000000000000000E+00 
    6.2500000000187531E-02     8.1249999999988787E-01     0.0000000000000000E+00 
    6.2500000000211720E-02     8.7499999999951172E-01     0.0000000000000000E+00 
    6.2500000000235922E-02     9.3749999999974565E-01     0.0000000000000000E+00 
    1.2499999999981980E-01     6.2500000000211733E-02     0.0000000000000000E+00 
    1.2499999999986650E-01     1.2500000000042691E-01     0.0000000000000000E+00 
    1.2499999999991319E-01     1.8750000000063199E-01     0.0000000000000000E+00 
    1.2499999999995989E-01     2.5000000000083678E-01     0.0000000000000000E+00 
    1.2500000000000661E-01     3.1250000000104172E-01     0.0000000000000000E+00 
    1.2500000000005329E-01     3.7500000000124661E-01     0.0000000000000000E+00 
    1.2500000000010000E-01     4.3750000000145117E-01     0.0000000000000000E+00 
    1.2500000000014669E-01     5.0000000000163858E-01     0.0000000000000000E+00 
    1.2500000000019340E-01     5.6250000000129741E-01     0.0000000000000000E+00 
    1.2500000000024011E-01     6.2500000000093847E-01     0.0000000000000000E+00 
    1.2500000000028680E-01     6.8750000000057998E-01     0.0000000000000000E+00 
    1.2500000000033351E-01     7.5000000000022127E-01     0.0000000000000000E+00 
    1.2500000000038020E-01     8.1249999999986211E-01     0.0000000000000000E+00 
    1.2500000000042691E-01     8.7499999999952238E-01     0.0000000000000000E+00 
    1.2500000000047359E-01     9.3749999999975164E-01     0.0000000000000000E+00 
    1.8749999999966760E-01     6.2500000000187531E-02     0.0000000000000000E+00 
    1.8749999999974179E-01     1.2500000000038020E-01     0.0000000000000000E+00 
    1.8749999999981601E-01     1.8750000000055780E-01     0.0000000000000000E+00 
    1.8749999999989009E-01     2.5000000000073502E-01     0.0000000000000000E+00 
    1.8749999999996431E-01     3.1250000000091221E-01     0.0000000000000000E+00 
    1.8750000000003850E-01     3.7500000000108941E-01     0.0000000000000000E+00 
    1.8750000000011269E-01     4.3750000000126649E-01     0.0000000000000000E+00 
    1.8750000000018691E-01     5.0000000000142808E-01     0.0000000000000000E+00 
    1.8750000000026110E-01     5.6250000000112244E-01     0.0000000000000000E+00 
    1.8750000000033529E-01     6.2500000000080080E-01     0.0000000000000000E+00 
    1.8750000000040951E-01     6.8750000000047962E-01     0.0000000000000000E+00 
    1.8750000000048361E-01     7.5000000000015843E-01     0.0000000000000000E+00 
    1.8750000000055780E-01     8.1249999999983680E-01     0.0000000000000000E+00 
    1.8750000000063199E-01     8.7499999999953304E-01     0.0000000000000000E+00 
    1.8750000000070621E-01     9.3749999999975764E-01     0.0000000000000000E+00 
    2.4999999999951281E-01     6.2500000000163314E-02     0.0000000000000000E+00 
    2.4999999999961461E-01     1.2500000000033351E-01     0.0000000000000000E+00 
    2.4999999999971650E-01     1.8750000000048361E-01     0.0000000000000000E+00 
    2.4999999999981831E-01     2.5000000000063310E-01     0.0000000000000000E+00 
    2.4999999999992020E-01     3.1250000000078260E-01     0.0000000000000000E+00 
    2.5000000000002198E-01     3.7500000000093209E-01     0.0000000000000000E+00 
    2.5000000000012390E-01     4.3750000000108180E-01     0.0000000000000000E+00 
    2.5000000000022571E-01     5.0000000000121769E-01     0.0000000000000000E+00 
    2.5000000000032763E-01     5.6250000000094724E-01     0.0000000000000000E+00 
    2.5000000000042938E-01     6.2500000000066314E-01     0.0000000000000000E+00 
    2.5000000000053119E-01     6.8750000000037925E-01     0.0000000000000000E+00 
[...]
CELL_DATA 256 
SCALARS Pressure double 1 
LOOKUP_TABLE default 

    9.5143521231141714E-01 
    9.4947465785219742E-01 
    9.4757996460324712E-01 
    9.4571625681620797E-01 
    9.4390714860425706E-01 
    9.4217184426256129E-01 
    9.4054638964009507E-01 
    9.3905167910959719E-01 
    9.3769617336912148E-01 
    9.3648266062396057E-01 
    9.3541459262825699E-01 
    9.3447030577864720E-01 
    9.3356798675493258E-01 
    9.3281349446576678E-01 
    9.3233754894986620E-01 
    9.3211478896039901E-01 
    9.1601921794299568E-01 
    9.1588143246296028E-01 
    9.1562373883041293E-01 
    9.1526495814991637E-01 
    9.1482944045772296E-01 
    9.1434029887012480E-01 
    9.1382196424500195E-01 
    9.1329313296516490E-01 
    9.1276851915499246E-01 
    9.1225324142424324E-01 
    9.1173525707994418E-01 
    9.1119682868456209E-01 
    9.1066600957068577E-01 
    9.1024619583885424E-01 
    9.0997559689699581E-01 
    9.0984140963477123E-01 
    8.7905443355524882E-01 
    8.7897927585505919E-01 
    8.7883411765901531E-01 
    8.7862962151885393E-01 
    8.7837795154118925E-01 
    8.7808548729318747E-01 
    8.7775012618940040E-01 
    8.7736474320765068E-01 
    8.7692066620012721E-01 
    8.7641695500684347E-01 
    8.7585462268576886E-01 
    8.7529180063942191E-01 
    8.7482402052833219E-01 
    8.7448299967652954E-01 
    8.7425954439172227E-01 
    8.7414616317484506E-01 
    8.3265507071977218E-01 
    8.3256839565437357E-01 
    8.3239383025493607E-01 
    8.3213299815580266E-01 
    8.3179018369922519E-01 
    8.3137407397110508E-01 
    8.3088825890837603E-01 
    8.3033661407524328E-01 
    8.2972954219346218E-01 
    8.2911196364006257E-01 
    8.2853646038734063E-01 
    8.2805712006874554E-01 
    8.2768405944675472E-01 
    8.2739920773920361E-01 
    8.2720028382056321E-01 
    8.2708890799841961E-01 
    7.7177429426624722E-01 
    7.7171793219872886E-01 
    7.7159720359264405E-01 
    7.7140874390332170E-01 
    7.7115792899768454E-01 
    7.7086163930381979E-01 
    7.7054278044793323E-01 
    7.7022990720903850E-01 
    7.6995625341191465E-01 
    7.6973641655586822E-01 
    7.6954351586362202E-01 
    7.6936340285466465E-01 
    7.6919604796632879E-01 
    7.6904680377704615E-01 
    7.6892057660345248E-01 
    7.6882169511032306E-01 
    6.9951691566212437E-01 
    6.9961994788429105E-01 
    6.9979695828570831E-01 
    7.0001983631453291E-01 
    7.0025554309312421E-01 
    7.0046423642505984E-01 
    7.0063187340127508E-01 
    7.0074940743923553E-01 
    7.0081545228372077E-01 
    7.0083572977268183E-01 
    7.0082310018605298E-01 
    7.0079058249741821E-01 
    7.0075043568962514E-01 
    7.0071471247484907E-01 
    7.0069537748568689E-01 
    7.0070438315806005E-01 
    6.3499490688098503E-01 
    6.3495252062444685E-01 
    6.3486669560048226E-01 
    6.3473236898850538E-01 
    6.3454107590559450E-01 
    6.3431475186474273E-01 
    6.3410537054860316E-01 
    6.3391673957213868E-01 
    6.3375154684248847E-01 
    6.3361286974592690E-01 
    6.3352451408101396E-01 
    6.3347697295228345E-01 
    6.3346191317342593E-01 
    6.3347185365071979E-01 
    6.3349999254140155E-01 
    6.3354002670212239E-01 
    5.7042062365381385E-01 
    5.7035326528543517E-01 
    5.7024077906222614E-01 
    5.7010693352774566E-01 
    5.6997629453496834E-01 
    5.6987322679011487E-01 
    5.6982113965459369E-01 
    5.6982067009292836E-01 
    5.6987144281877222E-01 
    5.6995293327123320E-01 
    5.7004358572471181E-01 
    5.7013633133641928E-01 
    5.7022353753864641E-01 
    5.7029640710973017E-01 
    5.7034508749036916E-01 
    5.7035891123202875E-01 
    5.0685616308763137E-01 
    5.0678891775800272E-01 
    5.0669984911899413E-01 
    5.0663735926474851E-01 
    5.0665264532506005E-01 
    5.0676274337194516E-01 
    5.0695110821560418E-01 
    5.0720402406824372E-01 
    5.0750858693297451E-01 
    5.0781630068908323E-01 
    5.0806976093747924E-01 
    5.0826768282374712E-01 
    5.0840511597739046E-01 
    5.0847291600025146E-01 
    5.0845742236614366E-01 
    5.0834030381360007E-01 
    4.3429000719473498E-01 
    4.3433722095019967E-01 
    4.3442218677572592E-01 
    4.3453670338866951E-01 
    4.3467258428013189E-01 
    4.3482390757367789E-01 
    4.3496548182920830E-01 
    4.3507758162013099E-01 
    4.3514026588624088E-01 
    4.3513464145087233E-01 
    4.3507717349981889E-01 
    4.3498420891201184E-01 
    4.3486881895838275E-01 
    4.3474174553352896E-01 
    4.3461174400879238E-01 
    4.3448602001983389E-01 
    3.5014668717342307E-01 
    3.5014299569565138E-01 
    3.5011953110123761E-01 
    3.5005416566118103E-01 
    3.4991949045110682E-01 
    3.4968358231101399E-01 
    3.4941034525468356E-01 
    3.4911745722365661E-01 
    3.4882095357172926E-01 
    3.4853643144473162E-01 
    3.4832527840135175E-01 
    3.4818165400772227E-01 
    3.4810131815254447E-01 
    3.4808200062578604E-01 
    3.4812331744446728E-01 
    3.4822657828075393E-01 
    2.7289479291448254E-01 
    2.7289836357371899E-01 
    2.7289599700072481E-01 
    2.7287565748117715E-01 
    2.7282383855222581E-01 
    2.7272678521036575E-01 
    2.7260396852275587E-01 
    2.7247048493129045E-01 
    2.7234197268139809E-01 
    2.7223509570632382E-01 
    2.7217656147724617E-01 
    2.7216031988252909E-01 
    2.7218192473802449E-01 
    2.7223898889430276E-01 
    2.7233126143825692E-01 
    2.7246053390917119E-01 
    2.1030399315187145E-01 
    2.1030098505692227E-01 
    2.1028972978185562E-01 
    2.1026365648285261E-01 
    2.1021539154718208E-01 
    2.1013734498457243E-01 
    2.1004118376125128E-01 
    2.0993620853368425E-01 
    2.0983209584353191E-01 
    2.0973907742462705E-01 
    2.0967351117534580E-01 
    2.0963262006738750E-01 
    2.0961466604806003E-01 
    2.0961914552149685E-01 
    2.0964681004761232E-01 
    2.0969957927777283E-01 
    1.5429285815257224E-01 
    1.5425752207316712E-01 
    1.5418690040745553E-01 
    1.5408159454017337E-01 
    1.5394285268321312E-01 
    1.5377267509217085E-01 
    1.5357965555521153E-01 
    1.5337193489029413E-01 
    1.5315832955270989E-01 
    1.5294825983641733E-01 
    1.5275399500818432E-01 
    1.5258193640447723E-01 
    1.5243872821383175E-01 
    1.5233093128409200E-01 
    1.5226465939613071E-01 
    1.5224507968081202E-01 
    1.0240037723245606E-01 
    1.0226003166446963E-01 
    1.0198469553302975E-01 
    1.0158261717460997E-01 
    1.0106474820562505E-01 
    1.0044460916351448E-01 
    9.9730724984434055E-02 
    9.8935175138413031E-02 
    9.8073795922616405E-02 
    9.7166850232569490E-02 
    9.6238763086488183E-02 
    9.5326607278304137E-02 
    9.4473613565611417E-02 
    9.3730425120888916E-02 
    9.3156632280395599E-02 
    9.2822630467859740E-02 
    6.2693313293180758E-02 
    6.2237551714367324E-02 
    6.1333384689611074E-02 
    5.9985759274496654E-02 
    5.8196705646996527E-02 
    5.5956760397588561E-02 
    5.3228547744653111E-02 
    4.9970736443709592E-02 
    4.6137552527057868E-02 
    4.1702733498568283E-02 
    3.6629908002465780E-02 
    3.0876075439037708E-02 
    2.4390600863707090E-02 
    1.7114228372815080E-02 
    8.9780073112528114E-03 
    0.0000000000000000E+00 

SCALARS Saturarion double 1 
LOOKUP_TABLE default 

    1.0000000389916601E+00 
    9.4159445126497343E-01 
    8.6472311379585520E-01 
    8.0162634550335576E-01 
    7.4431691886061746E-01 
    6.9574681366654634E-01 
    6.5711677363757048E-01 
    6.1859944207222595E-01 
    5.7993122989818169E-01 
    5.4167049200177020E-01 
    5.0422087833191365E-01 
    4.6331644967799523E-01 
    3.3791776123082112E-01 
    9.8123031950593936E-03 
    1.3262131637100723E-06 
    9.9999995675694761E-07 
    8.1440492334851233E-01 
    7.9095410300379032E-01 
    7.4573561493393237E-01 
    7.0179601753807053E-01 
    6.6448100699800050E-01 
    6.3102209550302502E-01 
    5.9902498814030625E-01 
    5.6679963187232030E-01 
    5.3406322331293232E-01 
    5.0109573409129604E-01 
    4.5942419506234644E-01 
    3.4669157998551831E-01 
    8.2769803309655957E-02 
    6.1433813491749945E-04 
    1.0021937529723001E-06 
    1.0000000002736469E-06 
    6.3522230532929103E-01 
    6.2506496479040596E-01 
    6.0354142948778777E-01 
    5.8232573074397076E-01 
    5.5803255157392784E-01 
    5.3270345541144026E-01 
    5.0937001558429817E-01 
    4.8710530779459132E-01 
    4.6185116145213462E-01 
    4.0476392533369865E-01 
    2.4265470147054369E-01 
    4.0805585242262278E-02 
    7.4120632381068693E-04 
    1.1367402728481924E-06 
    1.0000000394009905E-06 
    1.0000000000000033E-06 
    5.2097387686507601E-01 
    5.1774281455523408E-01 
    5.0885456141202345E-01 
    4.9521442194892357E-01 
    4.7136877117695841E-01 
    4.4284697472271811E-01 
    4.0362004464884310E-01 
    3.2706658403576810E-01 
    2.0144397149413285E-01 
    6.4013709961270371E-02 
    3.0737431382909619E-03 
    3.0259139360518290E-04 
    1.0691711121284679E-06 
    1.0000000601374103E-06 
    1.0000000000000082E-06 
    9.9999999999999995E-07 
    2.9680903911969431E-01 
    2.7871353077075994E-01 
    2.4161767538497589E-01 
    1.9781901142541206E-01 
    1.4492635431933068E-01 
    8.5842510967426067E-02 
    3.6198477806602986E-02 
    9.6898201201842601E-03 
    3.3970343759132083E-04 
    1.3744874741105875E-04 
    4.7118134479040075E-06 
    1.0074794282759621E-06 
    1.0000000979150518E-06 
    1.0000000000000285E-06 
    9.9999999999999995E-07 
    9.9999999999999995E-07 
    2.1826872346534269E-03 
    8.2096138199656680E-04 
    1.2295601207288305E-04 
    4.3768911429907178E-05 
    8.5956296206477032E-05 
    6.2121241743899255E-05 
    2.2649985387266429E-04 
    2.5709517771325368E-05 
    1.0395217291187194E-06 
    1.0026096711657427E-06 
    1.0000069080658734E-06 
    1.0000000026224968E-06 
    1.0000000000001827E-06 
    9.9999999999999995E-07 
    9.9999999999999995E-07 
    9.9999999999999995E-07 
    1.9448807472028436E-06 
    1.0139617639129654E-06 
    1.0074019222213200E-06 
    1.0017244162421514E-06 
    1.0030775592694151E-06 
    1.0009544832889888E-06 
    1.0007372625537385E-06 
    1.0000228479931111E-06 
    1.0000000036538771E-06 
    1.0000000000039715E-06 
    1.0000000000008991E-06 
    1.0000000000000012E-06 
    9.9999999999999995E-07 
    9.9999999999999995E-07 
    9.9999999999999995E-07 
    9.9999999999999995E-07 
    1.0000000316325371E-06 
    1.0000000098720118E-06 
    1.0000000035076489E-06 
    1.0000000002966154E-06 
    1.0000000002990752E-06 
    1.0000000000483355E-06 
    1.0000000001706447E-06 
    1.0000000000016822E-06 
    9.9999999999999995E-07 
    9.9999999999999995E-07 
    9.9999999999999995E-07 
    9.9999999999999995E-07 
    9.9999999999999995E-07 
    9.9999999999999995E-07 
    9.9999999999999995E-07 
    9.9999999999999995E-07 
    1.0000000000000078E-06 
    1.0000000000000063E-06 
    9.9999999999999995E-07 
    9.9999999999999995E-07 
    9.9999999999999995E-07 
    1.0000000000000002E-06 
    9.9999999999999995E-07 
    9.9999999999999995E-07 
    9.9999999999999995E-07 
    9.9999999999999995E-07 
    9.9999999999999995E-07 
    9.9999999999999995E-07 
    9.9999999999999995E-07 
    9.9999999999999995E-07 
    9.9999999999999995E-07 
    9.9999999999999995E-07 
    9.9999999999999995E-07 
    9.9999999999999995E-07 
    9.9999999999999995E-07 
    9.9999999999999995E-07 
    9.9999999999999995E-07 
    9.9999999999999995E-07 
    9.9999999999999995E-07 
    9.9999999999999995E-07 
    9.9999999999999995E-07 
    9.9999999999999995E-07 
    9.9999999999999995E-07 
    9.9999999999999995E-07 
    9.9999999999999995E-07 
    9.9999999999999995E-07 
    9.9999999999999995E-07 
    9.9999999999999995E-07 
    9.9999999999999995E-07 
    9.9999999999999995E-07 
    9.9999999999999995E-07 
    9.9999999999999995E-07 
    9.9999999999999995E-07 
    9.9999999999999995E-07 
    9.9999999999999995E-07 
    9.9999999999999995E-07 
    9.9999999999999995E-07 
    9.9999999999999995E-07 
    9.9999999999999995E-07 
    9.9999999999999995E-07 
    9.9999999999999995E-07 
    9.9999999999999995E-07 
    9.9999999999999995E-07 
    9.9999999999999995E-07 
    9.9999999999999995E-07 
    9.9999999999999995E-07 
    9.9999999999999995E-07 
    9.9999999999999995E-07 
    9.9999999999999995E-07 
    9.9999999999999995E-07 
    9.9999999999999995E-07 
    9.9999999999999995E-07 
    9.9999999999999995E-07 
    9.9999999999999995E-07 
    9.9999999999999995E-07 
    9.9999999999999995E-07 
    9.9999999999999995E-07 
    9.9999999999999995E-07 
    9.9999999999999995E-07 
    9.9999999999999995E-07 
    9.9999999999999995E-07 
    9.9999999999999995E-07 
    9.9999999999999995E-07 
    9.9999999999999995E-07 
    9.9999999999999995E-07 
    9.9999999999999995E-07 
    9.9999999999999995E-07 
    9.9999999999999995E-07 
    9.9999999999999995E-07 
    9.9999999999999995E-07 
    9.9999999999999995E-07 
    9.9999999999999995E-07 
    9.9999999999999995E-07 
    9.9999999999999995E-07 
    9.9999999999999995E-07 
    9.9999999999999995E-07 
    9.9999999999999995E-07 
    9.9999999999999995E-07 
    9.9999999999999995E-07 
    9.9999999999999995E-07 
    9.9999999999999995E-07 
    9.9999999999999995E-07 
    9.9999999999999995E-07 
    9.9999999999999995E-07 
    9.9999999999999995E-07 
    9.9999999999999995E-07 
    9.9999999999999995E-07 
    9.9999999999999995E-07 
    9.9999999999999995E-07 
    9.9999999999999995E-07 
    9.9999999999999995E-07 
    9.9999999999999995E-07 
    9.9999999999999995E-07 
    9.9999999999999995E-07 
    9.9999999999999995E-07 
    9.9999999999999995E-07 
    9.9999999999999995E-07 
    9.9999999999999995E-07 
    9.9999999999999995E-07 
    9.9999999999999995E-07 
    9.9999999999999995E-07 
    9.9999999999999995E-07 
    9.9999999999999995E-07 
    9.9999999999999995E-07 
    9.9999999999999995E-07 
    9.9999999999999995E-07 
    9.9999999999999995E-07 
    9.9999999999999995E-07 
    9.9999999999999995E-07 
    9.9999999999999995E-07 
    9.9999999999999995E-07 
    9.9999999999999995E-07 
    9.9999999999999995E-07 
    9.9999999999999995E-07 
    9.9999999999999995E-07 
    9.9999999999999995E-07 
    9.9999999999999995E-07 
    9.9999999999999995E-07 
    9.9999999999999995E-07 
    9.9999999999999995E-07 
    9.9999999999999995E-07 
    9.9999999999999995E-07 
    9.9999999999999995E-07 
    1.0000000566982374E-06 
