# vtk DataFile Version 2.0
Pressure Field Data 
ASCII 
DATASET UNSTRUCTURED_GRID 

POINTS 289 double 

    0.0000000000000000E+00     0.0000000000000000E+00     0.0000000000000000E+00 
    1.0000000000000000E+00     0.0000000000000000E+00     0.0000000000000000E+00 
    1.0000000000000000E+00     1.0000000000000000E+00     0.0000000000000000E+00 
    0.0000000000000000E+00     1.0000000000000000E+00     0.0000000000000000E+00 
    6.2499999999872928E-02     0.0000000000000000E+00     0.0000000000000000E+00 
    1.2499999999977310E-01     0.0000000000000000E+00     0.0000000000000000E+00 
    1.8749999999959341E-01     0.0000000000000000E+00     0.0000000000000000E+00 
    2.4999999999941089E-01     0.0000000000000000E+00     0.0000000000000000E+00 
    3.1249999999922851E-01     0.0000000000000000E+00     0.0000000000000000E+00 
    3.7499999999904610E-01     0.0000000000000000E+00     0.0000000000000000E+00 
    4.3749999999886358E-01     0.0000000000000000E+00     0.0000000000000000E+00 
    4.9999999999869210E-01     0.0000000000000000E+00     0.0000000000000000E+00 
    5.6249999999884603E-01     0.0000000000000000E+00     0.0000000000000000E+00 
    6.2499999999901090E-01     0.0000000000000000E+00     0.0000000000000000E+00 
    6.8749999999917577E-01     0.0000000000000000E+00     0.0000000000000000E+00 
    7.4999999999934064E-01     0.0000000000000000E+00     0.0000000000000000E+00 
    8.1249999999950551E-01     0.0000000000000000E+00     0.0000000000000000E+00 
    8.7499999999967026E-01     0.0000000000000000E+00     0.0000000000000000E+00 
    9.3749999999983513E-01     0.0000000000000000E+00     0.0000000000000000E+00 
    1.0000000000000000E+00     6.2499999999872928E-02     0.0000000000000000E+00 
    1.0000000000000000E+00     1.2499999999977310E-01     0.0000000000000000E+00 
    1.0000000000000000E+00     1.8749999999959341E-01     0.0000000000000000E+00 
    1.0000000000000000E+00     2.4999999999941089E-01     0.0000000000000000E+00 
    1.0000000000000000E+00     3.1249999999922851E-01     0.0000000000000000E+00 
    1.0000000000000000E+00     3.7499999999904610E-01     0.0000000000000000E+00 
    1.0000000000000000E+00     4.3749999999886358E-01     0.0000000000000000E+00 
    1.0000000000000000E+00     4.9999999999869210E-01     0.0000000000000000E+00 
    1.0000000000000000E+00     5.6249999999884603E-01     0.0000000000000000E+00 
    1.0000000000000000E+00     6.2499999999901090E-01     0.0000000000000000E+00 
    1.0000000000000000E+00     6.8749999999917577E-01     0.0000000000000000E+00 
    1.0000000000000000E+00     7.4999999999934064E-01     0.0000000000000000E+00 
    1.0000000000000000E+00     8.1249999999950551E-01     0.0000000000000000E+00 
    1.0000000000000000E+00     8.7499999999967026E-01     0.0000000000000000E+00 
    1.0000000000000000E+00     9.3749999999983513E-01     0.0000000000000000E+00 
    9.3749999999973976E-01     1.0000000000000000E+00     0.0000000000000000E+00 
    8.7499999999950118E-01     1.0000000000000000E+00     0.0000000000000000E+00 
    8.1249999999991318E-01     1.0000000000000000E+00     0.0000000000000000E+00 
    7.5000000000034706E-01     1.0000000000000000E+00     0.0000000000000000E+00 
    6.8750000000078049E-01     1.0000000000000000E+00     0.0000000000000000E+00 
    6.2500000000121403E-01     1.0000000000000000E+00     0.0000000000000000E+00 
    5.6250000000164757E-01     1.0000000000000000E+00     0.0000000000000000E+00 
    5.0000000000205946E-01     1.0000000000000000E+00     0.0000000000000000E+00 
    4.3750000000182099E-01     1.0000000000000000E+00     0.0000000000000000E+00 
    3.7500000000156092E-01     1.0000000000000000E+00     0.0000000000000000E+00 
    3.1250000000130068E-01     1.0000000000000000E+00     0.0000000000000000E+00 
    2.5000000000104050E-01     1.0000000000000000E+00     0.0000000000000000E+00 
    1.8750000000078040E-01     1.0000000000000000E+00     0.0000000000000000E+00 
    1.2500000000052031E-01     1.0000000000000000E+00     0.0000000000000000E+00 
    6.2500000000260125E-02     1.0000000000000000E+00     0.0000000000000000E+00 
    0.0000000000000000E+00     9.3749999999973976E-01     0.0000000000000000E+00 
    0.0000000000000000E+00     8.7499999999950118E-01     0.0000000000000000E+00 
    0.0000000000000000E+00     8.1249999999991318E-01     0.0000000000000000E+00 
    0.0000000000000000E+00     7.5000000000034706E-01     0.0000000000000000E+00 
    0.0000000000000000E+00     6.8750000000078049E-01     0.0000000000000000E+00 
    0.0000000000000000E+00     6.2500000000121403E-01     0.0000000000000000E+00 
    0.0000000000000000E+00     5.6250000000164757E-01     0.0000000000000000E+00 
    0.0000000000000000E+00     5.0000000000205946E-01     0.0000000000000000E+00 
    0.0000000000000000E+00     4.3750000000182099E-01     0.0000000000000000E+00 
    0.0000000000000000E+00     3.7500000000156092E-01     0.0000000000000000E+00 
    0.0000000000000000E+00     3.1250000000130068E-01     0.0000000000000000E+00 
    0.0000000000000000E+00     2.5000000000104050E-01     0.0000000000000000E+00 
    0.0000000000000000E+00     1.8750000000078040E-01     0.0000000000000000E+00 
    0.0000000000000000E+00     1.2500000000052031E-01     0.0000000000000000E+00 
    0.0000000000000000E+00     6.2500000000260125E-02     0.0000000000000000E+00 
    6.2499999999897131E-02     6.2500000000235922E-02     0.0000000000000000E+00 
    6.2499999999921327E-02     1.2500000000047351E-01     0.0000000000000000E+00 
    6.2499999999945530E-02     1.8750000000070621E-01     0.0000000000000000E+00 
    6.2499999999969733E-02     2.5000000000093858E-01     0.0000000000000000E+00 
    6.2499999999993928E-02     3.1250000000117117E-01     0.0000000000000000E+00 
    6.2500000000018124E-02     3.7500000000140382E-01     0.0000000000000000E+00 
    6.2500000000042327E-02     4.3750000000163619E-01     0.0000000000000000E+00 
    6.2500000000066530E-02     5.0000000000184897E-01     0.0000000000000000E+00 
    6.2500000000090733E-02     5.6250000000147260E-01     0.0000000000000000E+00 
    6.2500000000114922E-02     6.2500000000107636E-01     0.0000000000000000E+00 
    6.2500000000139125E-02     6.8750000000068034E-01     0.0000000000000000E+00 
    6.2500000000163328E-02     7.5000000000028411E-01     0.0000000000000000E+00 
    6.2500000000187531E-02     8.1249999999988787E-01     0.0000000000000000E+00 
    6.2500000000211720E-02     8.7499999999951172E-01     0.0000000000000000E+00 
    6.2500000000235922E-02     9.3749999999974565E-01     0.0000000000000000E+00 
    1.2499999999981980E-01     6.2500000000211733E-02     0.0000000000000000E+00 
    1.2499999999986650E-01     1.2500000000042691E-01     0.0000000000000000E+00 
    1.2499999999991319E-01     1.8750000000063199E-01     0.0000000000000000E+00 
    1.2499999999995989E-01     2.5000000000083678E-01     0.0000000000000000E+00 
    1.2500000000000661E-01     3.1250000000104172E-01     0.0000000000000000E+00 
    1.2500000000005329E-01     3.7500000000124661E-01     0.0000000000000000E+00 
    1.2500000000010000E-01     4.3750000000145117E-01     0.0000000000000000E+00 
    1.2500000000014669E-01     5.0000000000163858E-01     0.0000000000000000E+00 
    1.2500000000019340E-01     5.6250000000129741E-01     0.0000000000000000E+00 
    1.2500000000024011E-01     6.2500000000093847E-01     0.0000000000000000E+00 
    1.2500000000028680E-01     6.8750000000057998E-01     0.0000000000000000E+00 
    1.2500000000033351E-01     7.5000000000022127E-01     0.0000000000000000E+00 
    1.2500000000038020E-01     8.1249999999986211E-01     0.0000000000000000E+00 
    1.2500000000042691E-01     8.7499999999952238E-01     0.0000000000000000E+00 
    1.2500000000047359E-01     9.3749999999975164E-01     0.0000000000000000E+00 
    1.8749999999966760E-01     6.2500000000187531E-02     0.0000000000000000E+00 
    1.8749999999974179E-01     1.2500000000038020E-01     0.0000000000000000E+00 
    1.8749999999981601E-01     1.8750000000055780E-01     0.0000000000000000E+00 
    1.8749999999989009E-01     2.5000000000073502E-01     0.0000000000000000E+00 
    1.8749999999996431E-01     3.1250000000091221E-01     0.0000000000000000E+00 
    1.8750000000003850E-01     3.7500000000108941E-01     0.0000000000000000E+00 
    1.8750000000011269E-01     4.3750000000126649E-01     0.0000000000000000E+00 
    1.8750000000018691E-01     5.0000000000142808E-01     0.0000000000000000E+00 
    1.8750000000026110E-01     5.6250000000112244E-01     0.0000000000000000E+00 
    1.8750000000033529E-01     6.2500000000080080E-01     0.0000000000000000E+00 
    1.8750000000040951E-01     6.8750000000047962E-01     0.0000000000000000E+00 
    1.8750000000048361E-01     7.5000000000015843E-01     0.0000000000000000E+00 
    1.8750000000055780E-01     8.1249999999983680E-01     0.0000000000000000E+00 
    1.8750000000063199E-01     8.7499999999953304E-01     0.0000000000000000E+00 
    1.8750000000070621E-01     9.3749999999975764E-01     0.0000000000000000E+00 
    2.4999999999951281E-01     6.2500000000163314E-02     0.0000000000000000E+00 
    2.4999999999961461E-01     1.2500000000033351E-01     0.0000000000000000E+00 
    2.4999999999971650E-01     1.8750000000048361E-01     0.0000000000000000E+00 
    2.4999999999981831E-01     2.5000000000063310E-01     0.0000000000000000E+00 
    2.4999999999992020E-01     3.1250000000078260E-01     0.0000000000000000E+00 
    2.5000000000002198E-01     3.7500000000093209E-01     0.0000000000000000E+00 
    2.5000000000012390E-01     4.3750000000108180E-01     0.0000000000000000E+00 
    2.5000000000022571E-01     5.0000000000121769E-01     0.0000000000000000E+00 
    2.5000000000032763E-01     5.6250000000094724E-01     0.0000000000000000E+00 
    2.5000000000042938E-01     6.2500000000066314E-01     0.0000000000000000E+00 
    2.5000000000053119E-01     6.8750000000037925E-01     0.0000000000000000E+00 
[...]
CELL_DATA 256 
SCALARS Pressure double 1 
LOOKUP_TABLE default 

    8.1111657523537783E-01 
    8.0923782777766429E-01 
    8.0750552489015393E-01 
    8.0588659964061671E-01 
    8.0438345785429988E-01 
    8.0299479148993469E-01 
    8.0172240019100949E-01 
    8.0057097474547312E-01 
    7.9954746054486392E-01 
    7.9865236493589253E-01 
    7.9788661630137137E-01 
    7.9725140809977357E-01 
    7.9674628910592893E-01 
    7.9637206801310823E-01 
    7.9613183078698746E-01 
    7.9600725990550270E-01 
    7.8478567552827616E-01 
    7.8469754138548975E-01 
    7.8453869595900994E-01 
    7.8432330189198551E-01 
    7.8406581288249000E-01 
    7.8377910427607012E-01 
    7.8347688927124692E-01 
    7.8317093245674130E-01 
    7.8287266016899737E-01 
    7.8259272760201726E-01 
    7.8234023343202019E-01 
    7.8212082847955922E-01 
    7.8193861544888377E-01 
    7.8179740534600495E-01 
    7.8169680673933328E-01 
    7.8163472880493323E-01 
    7.6129436425038899E-01 
    7.6127838304984230E-01 
    7.6124659936653771E-01 
    7.6120028849938637E-01 
    7.6114178241479524E-01 
    7.6107376784283909E-01 
    7.6099701883258442E-01 
    7.6091412897537791E-01 
    7.6082766229238796E-01 
    7.6073974283068257E-01 
    7.6065246378100038E-01 
    7.6056942905874769E-01 
    7.6049407783362921E-01 
    7.6042882164241965E-01 
    7.6036596162543924E-01 
    7.6030878520516920E-01 
    7.3292800218382415E-01 
    7.3293718740370684E-01 
    7.3295422875249727E-01 
    7.3297884979941086E-01 
    7.3301047698965394E-01 
    7.3304755637204932E-01 
    7.3308105395656065E-01 
    7.3310719142960445E-01 
    7.3312152164310429E-01 
    7.3311916121974807E-01 
    7.3309737831269906E-01 
    7.3305994690932952E-01 
    7.3301066382424707E-01 
    7.3294514931966037E-01 
    7.3285554950888399E-01 
    7.3277017858519777E-01 
    6.9657458128535776E-01 
    6.9660780880500650E-01 
    6.9666805348503125E-01 
    6.9674991186442348E-01 
    6.9684671640396623E-01 
    6.9694981218995355E-01 
    6.9704934915365202E-01 
    6.9713711314701055E-01 
    6.9720452835632463E-01 
    6.9724248652256982E-01 
    6.9723960726491085E-01 
    6.9720170863540132E-01 
    6.9713130963770253E-01 
    6.9701759853982093E-01 
    6.9687107250405644E-01 
    6.9675394805107238E-01 
    6.5031948722134181E-01 
    6.5038780485331060E-01 
    6.5049901606013827E-01 
    6.5062843322794484E-01 
    6.5074934860574396E-01 
    6.5083201467282625E-01 
    6.5087300269177262E-01 
    6.5087418186191670E-01 
    6.5083814609352852E-01 
    6.5076831456301520E-01 
    6.5067558330015207E-01 
    6.5056733599746563E-01 
    6.5043074103432752E-01 
    6.5026432154434444E-01 
    6.5014401868777028E-01 
    6.5012248156758690E-01 
    6.0397953102214819E-01 
    6.0392071204562614E-01 
    6.0380364068709635E-01 
    6.0362641316088317E-01 
    6.0338182171357002E-01 
    6.0309087786299920E-01 
    6.0281026165276741E-01 
    6.0254978922501379E-01 
    6.0231811655852385E-01 
    6.0212062838280955E-01 
    6.0197636876464433E-01 
    6.0184862627494318E-01 
    6.0170535673090297E-01 
    6.0158509628622281E-01 
    6.0153520976386721E-01 
    6.0154295792416701E-01 
    5.5450354982037520E-01 
    5.5443298327400881E-01 
    5.5431168186743940E-01 
    5.5416224276108461E-01 
    5.5400883368231291E-01 
    5.5388024879842002E-01 
    5.5380425796828747E-01 
    5.5378185664314905E-01 
    5.5380706662805612E-01 
    5.5384050748474289E-01 
    5.5384073284055191E-01 
    5.5380135768558014E-01 
    5.5375555104743779E-01 
    5.5373556670242863E-01 
    5.5372371353311811E-01 
    5.5369287213532870E-01 
    5.0272950340876477E-01 
    5.0265061537483491E-01 
    5.0253348296187339E-01 
    5.0242125159475537E-01 
    5.0236247802557299E-01 
    5.0238467024526690E-01 
    5.0247272822526134E-01 
    5.0259439089854741E-01 
    5.0272343958210342E-01 
    5.0282341788250307E-01 
    5.0285044849554372E-01 
    5.0284178162969972E-01 
    5.0282418730344314E-01 
    5.0278060982078443E-01 
    5.0268412054354550E-01 
    5.0251431214896369E-01 
    4.3878906860188821E-01 
    4.3876524238786208E-01 
    4.3869899284188613E-01 
    4.3857232180104461E-01 
    4.3836836881750302E-01 
    4.3807962587998345E-01 
    4.3770112226904767E-01 
    4.3723717599000173E-01 
    4.3672067195259190E-01 
    4.3619592195534157E-01 
    4.3571919730148362E-01 
    4.3531215430227332E-01 
    4.3496090520733771E-01 
    4.3466035521709706E-01 
    4.3441850951240424E-01 
    4.3424292489713312E-01 
    3.5283755826210877E-01 
    3.5277759898675815E-01 
    3.5263843775608567E-01 
    3.5239703171558412E-01 
    3.5202646487760725E-01 
    3.5150219606522209E-01 
    3.5091671025152504E-01 
    3.5033656249062889E-01 
    3.4982061913895718E-01 
    3.4937555321253033E-01 
    3.4902973821745664E-01 
    3.4877084623357935E-01 
    3.4859684469386559E-01 
    3.4850762458565299E-01 
    3.4850489169275861E-01 
    3.4859182761785645E-01 
    2.7122140412967988E-01 
    2.7125465296519607E-01 
    2.7131008382890592E-01 
    2.7137447073343685E-01 
    2.7143316843777660E-01 
    2.7146783991877088E-01 
    2.7148136731197792E-01 
    2.7147037381395772E-01 
    2.7144142806344485E-01 
    2.7141148482712635E-01 
    2.7141023338265374E-01 
    2.7143546166371663E-01 
    2.7148611995388111E-01 
    2.7156275456290857E-01 
    2.7166756944196729E-01 
    2.7180431766846852E-01 
    2.0904444724924964E-01 
    2.0905275829715966E-01 
    2.0906240525893532E-01 
    2.0906483073726487E-01 
    2.0905047329810597E-01 
    2.0900939143599603E-01 
    2.0894987723544933E-01 
    2.0887950910394473E-01 
    2.0880644690915093E-01 
    2.0873971031912769E-01 
    2.0869548608879307E-01 
    2.0867140836122264E-01 
    2.0866628443797025E-01 
    2.0868023884324521E-01 
    2.0871469095682713E-01 
    2.0877223361818018E-01 
    1.5348059649808701E-01 
    1.5344838659396753E-01 
    1.5338348699270410E-01 
    1.5328589671299775E-01 
    1.5315620960937470E-01 
    1.5299574086464779E-01 
    1.5281227366918188E-01 
    1.5261360851130976E-01 
    1.5240824716427898E-01 
    1.5220533939778672E-01 
    1.5201718046920676E-01 
    1.5185020797679177E-01 
    1.5171114278185072E-01 
    1.5160665967663417E-01 
    1.5154301768860526E-01 
    1.5152555465534626E-01 
    1.0217502254128508E-01 
    1.0203148518197182E-01 
    1.0175040753155579E-01 
    1.0134070867803414E-01 
    1.0081400757079026E-01 
    1.0018445768341812E-01 
    9.9461618463912119E-02 
    9.8657969634407039E-02 
    9.7789710580309969E-02 
    9.6877418863565462E-02 
    9.5945479986465951E-02 
    9.5030651306735506E-02 
    9.4175838987990201E-02 
    9.3431361098432697E-02 
    9.2856490388670554E-02 
    9.2521319544350250E-02 
    6.2855410373447954E-02 
    6.2391531421890134E-02 
    6.1473416426283775E-02 
    6.0108395326136037E-02 
    5.8300923391408722E-02 
    5.6042081214235477E-02 
    5.3295632583314552E-02 
    5.0021321072410314E-02 
    4.6174361632269879E-02 
    4.1728787156581459E-02 
    3.6647789589588767E-02 
    3.0887865786501247E-02 
    2.4397827442246764E-02 
    1.7117828522153745E-02 
    8.9783051870847043E-03 
    0.0000000000000000E+00 

SCALARS Saturarion double 1 
LOOKUP_TABLE default 

    1.0000000001194365E+00 
    9.7879755384352929E-01 
    9.4217896020357117E-01 
    9.0669744795877971E-01 
    8.7526664860574321E-01 
    8.4348239493600252E-01 
    8.1161407385377282E-01 
    7.7953171013214539E-01 
    7.4692971073783421E-01 
    7.1377623258685541E-01 
    6.8007605395149018E-01 
    6.4451111052670795E-01 
    6.0321138017583298E-01 
    5.5491286450824184E-01 
    4.9336109241689197E-01 
    2.1872420172510992E-01 
    8.9935800350532480E-01 
    8.8852106699124977E-01 
    8.6318723262158892E-01 
    8.3639628534709498E-01 
    8.0990615973194202E-01 
    7.8300375540407230E-01 
    7.5605090712765965E-01 
    7.2903033761950498E-01 
    7.0249897120948146E-01 
    6.7509374690452961E-01 
    6.4560065154543866E-01 
    6.1296203694347551E-01 
    5.7353271899007141E-01 
    5.2867274454202340E-01 
    4.6587298754387274E-01 
    1.2182669613782574E-01 
    7.8010251840011036E-01 
    7.7152885076642752E-01 
    7.5349977290347181E-01 
    7.3334312836501825E-01 
    7.1493728703354453E-01 
    6.9555594458145675E-01 
    6.7615294562010708E-01 
    6.5635166445450177E-01 
    6.3693404843556101E-01 
    6.1471611317429675E-01 
    5.8942834836959723E-01 
    5.6163562122899935E-01 
    5.2574010436593976E-01 
    4.8431455234444448E-01 
    3.8465047180049056E-01 
    2.4893907613321463E-02 
    7.0054054476979033E-01 
    6.9426271424401220E-01 
    6.7999174295917675E-01 
    6.6416610286197608E-01 
    6.4916835400985717E-01 
    6.3370602351979288E-01 
    6.1707094317246092E-01 
    6.0008885750691254E-01 
    5.8321732739936905E-01 
    5.6368295926755285E-01 
    5.4173149498886664E-01 
    5.1763347489882461E-01 
    4.8415384848483117E-01 
    4.3522972982881153E-01 
    1.7069562207937472E-01 
    4.6343893824740240E-04 
    6.4091714588281001E-01 
    6.3617862858145080E-01 
    6.2518743602741322E-01 
    6.1278996892453430E-01 
    5.9841453944763956E-01 
    5.8392739638821611E-01 
    5.6849873950099306E-01 
    5.5340662284221898E-01 
    5.3707475254411563E-01 
    5.2007204125051920E-01 
    5.0107116974261268E-01 
    4.7955855275527204E-01 
    4.4476960256793086E-01 
    3.2909431322681182E-01 
    1.8295577360339155E-02 
    5.0113522936103463E-05 
    5.9605125375020096E-01 
    5.9224612641665997E-01 
    5.8236793307258317E-01 
    5.7135111405708217E-01 
    5.5381358227563460E-01 
    5.4149364390292098E-01 
    5.2864554959043220E-01 
    5.1578755412207145E-01 
    4.9833049899772469E-01 
    4.8436045378452752E-01 
    4.6819041939750761E-01 
    4.4750723279425358E-01 
    3.9628679001936085E-01 
    1.0222100619151250E-01 
    4.6742138997406995E-04 
    1.0035830023678854E-06 
    5.5878919273784189E-01 
    5.5619789796104802E-01 
    5.4915903091400076E-01 
    5.4072160209626108E-01 
    5.2037638776811779E-01 
    5.0788575902366095E-01 
    4.9706260270448799E-01 
    4.8677104580074726E-01 
    4.7282145499371653E-01 
    4.5903231061277910E-01 
    4.4201586452508668E-01 
    4.0262231188784742E-01 
    2.0946334285825424E-01 
    4.7500081265880074E-03 
    3.7254183487002752E-06 
    1.0000004630880999E-06 
    5.2433792824235059E-01 
    5.2289300371653413E-01 
    5.1934799493096306E-01 
    5.1494617767220252E-01 
    4.9971928468361637E-01 
    4.8199960196090136E-01 
    4.7119601706466990E-01 
    4.6067429235114699E-01 
    4.4839801461141160E-01 
    4.2983912795941759E-01 
    3.8829117405918778E-01 
    1.8640870959274680E-01 
    7.8218250085859541E-03 
    5.3353047862503158E-06 
    1.0000012715848523E-06 
    1.0000000000000091E-06 
    4.9212647481500565E-01 
    4.9086466470177642E-01 
    4.8827372247652812E-01 
    4.8551313418121400E-01 
    4.7593245015679697E-01 
    4.5341034690675425E-01 
    4.3609452440042645E-01 
    4.1574246882573301E-01 
    3.6390760613523498E-01 
    2.7274061910769010E-01 
    1.0120869391705446E-01 
    3.8377085755616248E-03 
    2.4516436155252980E-05 
    1.0000052917108986E-06 
    1.0000000000003093E-06 
    9.9999999999999995E-07 
    4.4844835586619963E-01 
    4.4653437886319830E-01 
    4.4275509771562022E-01 
    4.3740065079619245E-01 
    4.3422085068518168E-01 
    4.1643205323234112E-01 
    3.5838313320189841E-01 
    2.3633959566302465E-01 
    6.4875755709029190E-02 
    3.7934448938547602E-03 
    5.5801918211218990E-04 
    5.8318436269351204E-06 
    1.0013867552556737E-06 
    1.0000000000773718E-06 
    1.0000000000000002E-06 
    9.9999999999999995E-07 
    2.3711824989960431E-01 
    2.2809256192288532E-01 
    2.1243672152113052E-01 
    1.9268148520657105E-01 
    1.8180415518353552E-01 
    1.2304023544191534E-01 
    3.5384005305363175E-02 
    1.5591883684819569E-03 
    4.2281629784372734E-05 
    1.6270860233587909E-06 
    1.1720696261869695E-06 
    1.0000267146194577E-06 
    1.0000000008662385E-06 
    9.9999999999999995E-07 
    9.9999999999999995E-07 
    9.9999999999999995E-07 
    1.3666477579066090E-04 
    9.2765823307479169E-05 
    1.9860769027834424E-05 
    6.6228777125113082E-06 
    4.8840265700978533E-06 
    1.5339660548193708E-04 
    4.5264379914522651E-05 
    1.0655776121043527E-06 
    1.0003036858730969E-06 
    1.0000005279344129E-06 
    1.0000000248055013E-06 
    1.0000000000705417E-06 
    1.0000000000000012E-06 
    9.9999999999999995E-07 
    9.9999999999999995E-07 
    9.9999999999999995E-07 
    1.0004116581756779E-06 
    1.0050558222149206E-06 
    1.0000082898138767E-06 
    1.0000277073077023E-06 
    1.0000191106271002E-06 
    1.0031719537833140E-06 
    1.0002037081247464E-06 
    1.0000000142721392E-06 
    1.0000000000010039E-06 
    1.0000000000000760E-06 
    1.0000000000000069E-06 
    1.0000000000000006E-06 
    9.9999999999999995E-07 
    9.9999999999999995E-07 
    9.9999999999999995E-07 
    9.9999999999999995E-07 
    9.9999999999982801E-07 
    1.0000000027281766E-06 
    1.0000000000038711E-06 
    1.0000000000081584E-06 
    1.0000000000009476E-06 
    1.0000000010780486E-06 
    1.0000000000000129E-06 
    1.0000000000000014E-06 
    1.0000000000000002E-06 
    9.9999999999999995E-07 
    9.9999999999999995E-07 
    9.9999999999999995E-07 
    9.9999999999999995E-07 
    9.9999999999999995E-07 
    9.9999999999999995E-07 
    9.9999999999999995E-07 
    9.9999999999999995E-07 
    1.0000000000000004E-06 
    9.9999999999999995E-07 
    9.9999999999999995E-07 
    9.9999999999999995E-07 
    1.0000000000000002E-06 
    9.9999999999999995E-07 
    9.9999999999999995E-07 
    9.9999999999999995E-07 
    9.9999999999999995E-07 
    9.9999999999999995E-07 
    9.9999999999999995E-07 
    9.9999999999999995E-07 
    9.9999999999999995E-07 
    9.9999999999999995E-07 
    9.9999999999999995E-07 
    9.9999999999999995E-07 
    9.9999999999999995E-07 
    9.9999999999999995E-07 
    9.9999999999999995E-07 
    9.9999999999999995E-07 
    9.9999999999999995E-07 
    9.9999999999999995E-07 
    9.9999999999999995E-07 
    9.9999999999999995E-07 
    9.9999999999999995E-07 
    9.9999999999999995E-07 
    9.9999999999999995E-07 
    9.9999999999999995E-07 
    9.9999999999999995E-07 
    9.9999999999999995E-07 
    1.0000001621660993E-06 
