# vtk DataFile Version 2.0
Pressure Field Data 
ASCII 
DATASET UNSTRUCTURED_GRID 

POINTS 289 double 

    0.0000000000000000E+00     0.0000000000000000E+00     0.0000000000000000E+00 
    1.0000000000000000E+00     0.0000000000000000E+00     0.0000000000000000E+00 
    1.0000000000000000E+00     1.0000000000000000E+00     0.0000000000000000E+00 
    0.0000000000000000E+00     1.0000000000000000E+00     0.0000000000000000E+00 
    6.2499999999872928E-02     0.0000000000000000E+00     0.0000000000000000E+00 
    1.2499999999977310E-01     0.0000000000000000E+00     0.0000000000000000E+00 
    1.8749999999959341E-01     0.0000000000000000E+00     0.0000000000000000E+00 
    2.4999999999941089E-01     0.0000000000000000E+00     0.0000000000000000E+00 
    3.1249999999922851E-01     0.0000000000000000E+00     0.0000000000000000E+00 
    3.7499999999904610E-01     0.0000000000000000E+00     0.0000000000000000E+00 
    4.3749999999886358E-01     0.0000000000000000E+00     0.0000000000000000E+00 
    4.9999999999869210E-01     0.0000000000000000E+00     0.0000000000000000E+00 
    5.6249999999884603E-01     0.0000000000000000E+00     0.0000000000000000E+00 
    6.2499999999901090E-01     0.0000000000000000E+00     0.0000000000000000E+00 
    6.8749999999917577E-01     0.0000000000000000E+00     0.0000000000000000E+00 
    7.4999999999934064E-01     0.0000000000000000E+00     0.0000000000000000E+00 
    8.1249999999950551E-01     0.0000000000000000E+00     0.0000000000000000E+00 
    8.7499999999967026E-01     0.0000000000000000E+00     0.0000000000000000E+00 
    9.3749999999983513E-01     0.0000000000000000E+00     0.0000000000000000E+00 
    1.0000000000000000E+00     6.2499999999872928E-02     0.0000000000000000E+00 
    1.0000000000000000E+00     1.2499999999977310E-01     0.0000000000000000E+00 
    1.0000000000000000E+00     1.8749999999959341E-01     0.0000000000000000E+00 
    1.0000000000000000E+00     2.4999999999941089E-01     0.0000000000000000E+00 
    1.0000000000000000E+00     3.1249999999922851E-01     0.0000000000000000E+00 
    1.0000000000000000E+00     3.7499999999904610E-01     0.0000000000000000E+00 
    1.0000000000000000E+00     4.3749999999886358E-01     0.0000000000000000E+00 
    1.0000000000000000E+00     4.9999999999869210E-01     0.0000000000000000E+00 
    1.0000000000000000E+00     5.6249999999884603E-01     0.0000000000000000E+00 
    1.0000000000000000E+00     6.2499999999901090E-01     0.0000000000000000E+00 
    1.0000000000000000E+00     6.8749999999917577E-01     0.0000000000000000E+00 
    1.0000000000000000E+00     7.4999999999934064E-01     0.0000000000000000E+00 
    1.0000000000000000E+00     8.1249999999950551E-01     0.0000000000000000E+00 
    1.0000000000000000E+00     8.7499999999967026E-01     0.0000000000000000E+00 
    1.0000000000000000E+00     9.3749999999983513E-01     0.0000000000000000E+00 
    9.3749999999973976E-01     1.0000000000000000E+00     0.0000000000000000E+00 
    8.7499999999950118E-01     1.0000000000000000E+00     0.0000000000000000E+00 
    8.1249999999991318E-01     1.0000000000000000E+00     0.0000000000000000E+00 
    7.5000000000034706E-01     1.0000000000000000E+00     0.0000000000000000E+00 
    6.8750000000078049E-01     1.0000000000000000E+00     0.0000000000000000E+00 
    6.2500000000121403E-01     1.0000000000000000E+00     0.0000000000000000E+00 
    5.6250000000164757E-01     1.0000000000000000E+00     0.0000000000000000E+00 
    5.0000000000205946E-01     1.0000000000000000E+00     0.0000000000000000E+00 
    4.3750000000182099E-01     1.0000000000000000E+00     0.0000000000000000E+00 
    3.7500000000156092E-01     1.0000000000000000E+00     0.0000000000000000E+00 
    3.1250000000130068E-01     1.0000000000000000E+00     0.0000000000000000E+00 
    2.5000000000104050E-01     1.0000000000000000E+00     0.0000000000000000E+00 
    1.8750000000078040E-01     1.0000000000000000E+00     0.0000000000000000E+00 
    1.2500000000052031E-01     1.0000000000000000E+00     0.0000000000000000E+00 
    6.2500000000260125E-02     1.0000000000000000E+00     0.0000000000000000E+00 
    0.0000000000000000E+00     9.3749999999973976E-01     0.0000000000000000E+00 
    0.0000000000000000E+00     8.7499999999950118E-01     0.0000000000000000E+00 
    0.0000000000000000E+00     8.1249999999991318E-01     0.0000000000000000E+00 
    0.0000000000000000E+00     7.5000000000034706E-01     0.0000000000000000E+00 
    0.0000000000000000E+00     6.8750000000078049E-01     0.0000000000000000E+00 
    0.0000000000000000E+00     6.2500000000121403E-01     0.0000000000000000E+00 
    0.0000000000000000E+00     5.6250000000164757E-01     0.0000000000000000E+00 
    0.0000000000000000E+00     5.0000000000205946E-01     0.0000000000000000E+00 
    0.0000000000000000E+00     4.3750000000182099E-01     0.0000000000000000E+00 
    0.0000000000000000E+00     3.7500000000156092E-01     0.0000000000000000E+00 
    0.0000000000000000E+00     3.1250000000130068E-01     0.0000000000000000E+00 
    0.0000000000000000E+00     2.5000000000104050E-01     0.0000000000000000E+00 
    0.0000000000000000E+00     1.8750000000078040E-01     0.0000000000000000E+00 
    0.0000000000000000E+00     1.2500000000052031E-01     0.0000000000000000E+00 
    0.0000000000000000E+00     6.2500000000260125E-02     0.0000000000000000E+00 
    6.2499999999897131E-02     6.2500000000235922E-02     0.0000000000000000E+00 
    6.2499999999921327E-02     1.2500000000047351E-01     0.0000000000000000E+00 
    6.2499999999945530E-02     1.8750000000070621E-01     0.0000000000000000E+00 
    6.2499999999969733E-02     2.5000000000093858E-01     0.0000000000000000E+00 
    6.2499999999993928E-02     3.1250000000117117E-01     0.0000000000000000E+00 
    6.2500000000018124E-02     3.7500000000140382E-01     0.0000000000000000E+00 
    6.2500000000042327E-02     4.3750000000163619E-01     0.0000000000000000E+00 
    6.2500000000066530E-02     5.0000000000184897E-01     0.0000000000000000E+00 
    6.2500000000090733E-02     5.6250000000147260E-01     0.0000000000000000E+00 
    6.2500000000114922E-02     6.2500000000107636E-01     0.0000000000000000E+00 
    6.2500000000139125E-02     6.8750000000068034E-01     0.0000000000000000E+00 
    6.2500000000163328E-02     7.5000000000028411E-01     0.0000000000000000E+00 
    6.2500000000187531E-02     8.1249999999988787E-01     0.0000000000000000E+00 
    6.2500000000211720E-02     8.7499999999951172E-01     0.0000000000000000E+00 
    6.2500000000235922E-02     9.3749999999974565E-01     0.0000000000000000E+00 
    1.2499999999981980E-01     6.2500000000211733E-02     0.0000000000000000E+00 
    1.2499999999986650E-01     1.2500000000042691E-01     0.0000000000000000E+00 
    1.2499999999991319E-01     1.8750000000063199E-01     0.0000000000000000E+00 
    1.2499999999995989E-01     2.5000000000083678E-01     0.0000000000000000E+00 
    1.2500000000000661E-01     3.1250000000104172E-01     0.0000000000000000E+00 
    1.2500000000005329E-01     3.7500000000124661E-01     0.0000000000000000E+00 
    1.2500000000010000E-01     4.3750000000145117E-01     0.0000000000000000E+00 
    1.2500000000014669E-01     5.0000000000163858E-01     0.0000000000000000E+00 
    1.2500000000019340E-01     5.6250000000129741E-01     0.0000000000000000E+00 
    1.2500000000024011E-01     6.2500000000093847E-01     0.0000000000000000E+00 
    1.2500000000028680E-01     6.8750000000057998E-01     0.0000000000000000E+00 
    1.2500000000033351E-01     7.5000000000022127E-01     0.0000000000000000E+00 
    1.2500000000038020E-01     8.1249999999986211E-01     0.0000000000000000E+00 
    1.2500000000042691E-01     8.7499999999952238E-01     0.0000000000000000E+00 
    1.2500000000047359E-01     9.3749999999975164E-01     0.0000000000000000E+00 
    1.8749999999966760E-01     6.2500000000187531E-02     0.0000000000000000E+00 
    1.8749999999974179E-01     1.2500000000038020E-01     0.0000000000000000E+00 
    1.8749999999981601E-01     1.8750000000055780E-01     0.0000000000000000E+00 
    1.8749999999989009E-01     2.5000000000073502E-01     0.0000000000000000E+00 
    1.8749999999996431E-01     3.1250000000091221E-01     0.0000000000000000E+00 
    1.8750000000003850E-01     3.7500000000108941E-01     0.0000000000000000E+00 
    1.8750000000011269E-01     4.3750000000126649E-01     0.0000000000000000E+00 
    1.8750000000018691E-01     5.0000000000142808E-01     0.0000000000000000E+00 
    1.8750000000026110E-01     5.6250000000112244E-01     0.0000000000000000E+00 
    1.8750000000033529E-01     6.2500000000080080E-01     0.0000000000000000E+00 
    1.8750000000040951E-01     6.8750000000047962E-01     0.0000000000000000E+00 
    1.8750000000048361E-01     7.5000000000015843E-01     0.0000000000000000E+00 
    1.8750000000055780E-01     8.1249999999983680E-01     0.0000000000000000E+00 
    1.8750000000063199E-01     8.7499999999953304E-01     0.0000000000000000E+00 
    1.8750000000070621E-01     9.3749999999975764E-01     0.0000000000000000E+00 
    2.4999999999951281E-01     6.2500000000163314E-02     0.0000000000000000E+00 
    2.4999999999961461E-01     1.2500000000033351E-01     0.0000000000000000E+00 
    2.4999999999971650E-01     1.8750000000048361E-01     0.0000000000000000E+00 
    2.4999999999981831E-01     2.5000000000063310E-01     0.0000000000000000E+00 
    2.4999999999992020E-01     3.1250000000078260E-01     0.0000000000000000E+00 
    2.5000000000002198E-01     3.7500000000093209E-01     0.0000000000000000E+00 
    2.5000000000012390E-01     4.3750000000108180E-01     0.0000000000000000E+00 
    2.5000000000022571E-01     5.0000000000121769E-01     0.0000000000000000E+00 
    2.5000000000032763E-01     5.6250000000094724E-01     0.0000000000000000E+00 
    2.5000000000042938E-01     6.2500000000066314E-01     0.0000000000000000E+00 
    2.5000000000053119E-01     6.8750000000037925E-01     0.0000000000000000E+00 
[...]
CELL_DATA 256 
SCALARS Pressure double 1 
LOOKUP_TABLE default 

    8.8029937938547653E-01 
    8.7840486696270459E-01 
    8.7663935871431364E-01 
    8.7496766520393154E-01 
    8.7339763058137665E-01 
    8.7192754136907757E-01 
    8.7056245816973321E-01 
    8.6930990417816978E-01 
    8.6818135954559350E-01 
    8.6718181499478642E-01 
    8.6631493013933225E-01 
    8.6558342676237920E-01 
    8.6499258957727110E-01 
    8.6454891859606464E-01 
    8.6422124131520228E-01 
    8.6405998741235346E-01 
    8.5168275739879451E-01 
    8.5158550338394601E-01 
    8.5140823126558540E-01 
    8.5116556750747352E-01 
    8.5087306685395103E-01 
    8.5054466011135366E-01 
    8.5019585908205597E-01 
    8.4984054971137302E-01 
    8.4949193266937839E-01 
    8.4916156543277455E-01 
    8.4886014617933547E-01 
    8.4859540389601829E-01 
    8.4837333955405847E-01 
    8.4818833620177780E-01 
    8.4802931943864313E-01 
    8.4794154108002251E-01 
    8.2486895445992181E-01 
    8.2483851763609561E-01 
    8.2477952555708522E-01 
    8.2469585615938668E-01 
    8.2459339985274427E-01 
    8.2447829737528566E-01 
    8.2435425591057521E-01 
    8.2422537817703823E-01 
    8.2409528729574366E-01 
    8.2396688980306143E-01 
    8.2384201950276692E-01 
    8.2372389456543316E-01 
    8.2360565903613503E-01 
    8.2346967906918112E-01 
    8.2333358014665226E-01 
    8.2325143072231421E-01 
    7.9187722059225529E-01 
    7.9186611926347283E-01 
    7.9184618948457663E-01 
    7.9182164564848245E-01 
    7.9179707157710466E-01 
    7.9177569584334306E-01 
    7.9175290821152755E-01 
    7.9172669575259025E-01 
    7.9169476403958117E-01 
    7.9165450868037501E-01 
    7.9159998570161472E-01 
    7.9152228475909991E-01 
    7.9140033116732922E-01 
    7.9124222739537353E-01 
    7.9110335465987125E-01 
    7.9100351472699770E-01 
    7.4938607674096946E-01 
    7.4939429419474057E-01 
    7.4941099479113027E-01 
    7.4943814770352113E-01 
    7.4947682170322416E-01 
    7.4952636211576706E-01 
    7.4957872934735192E-01 
    7.4962733841437523E-01 
    7.4966454538487626E-01 
    7.4967740447404563E-01 
    7.4962770096865838E-01 
    7.4949426339843506E-01 
    7.4929735384706542E-01 
    7.4910257844346728E-01 
    7.4894093946859197E-01 
    7.4880531772610281E-01 
    6.9482516985605647E-01 
    6.9488440831026399E-01 
    6.9497825116494238E-01 
    6.9508421039029000E-01 
    6.9517797953510785E-01 
    6.9522705588554101E-01 
    6.9521630043338367E-01 
    6.9512796775476393E-01 
    6.9494253238935055E-01 
    6.9465554209318192E-01 
    6.9428120149876360E-01 
    6.9387748656899839E-01 
    6.9353524951143342E-01 
    6.9329082064137426E-01 
    6.9314032787022484E-01 
    6.9308399347151473E-01 
    6.3747101502500769E-01 
    6.3737558360995872E-01 
    6.3718055953520869E-01 
    6.3687553056379287E-01 
    6.3643933551576681E-01 
    6.3588037199705916E-01 
    6.3526793915809709E-01 
    6.3461561361997632E-01 
    6.3393824656421349E-01 
    6.3328593509477593E-01 
    6.3274046477055412E-01 
    6.3233529396154364E-01 
    6.3206311168550022E-01 
    6.3189206035987633E-01 
    6.3180776604014632E-01 
    6.3180169070391812E-01 
    5.7282548441682990E-01 
    5.7268161095419323E-01 
    5.7241567801153337E-01 
    5.7205169372698284E-01 
    5.7161573881277650E-01 
    5.7115536371411724E-01 
    5.7073791224761039E-01 
    5.7039523798445424E-01 
    5.7015799103121678E-01 
    5.7002224078863795E-01 
    5.6994920939725613E-01 
    5.6991243898498178E-01 
    5.6989905279881381E-01 
    5.6990050552850591E-01 
    5.6990699654857835E-01 
    5.6990761752006014E-01 
    5.0619354416878026E-01 
    5.0610451624219444E-01 
    5.0598220149345008E-01 
    5.0589024461162924E-01 
    5.0589927134010459E-01 
    5.0603586396893219E-01 
    5.0626801213450567E-01 
    5.0656487964204333E-01 
    5.0690846489795727E-01 
    5.0724958078902760E-01 
    5.0752856215111775E-01 
    5.0774602895657095E-01 
    5.0789836081826190E-01 
    5.0797718290678384E-01 
    5.0796902748461203E-01 
    5.0785516676161579E-01 
    4.3412950468619427E-01 
    4.3418141440121827E-01 
    4.3427339901088563E-01 
    4.3439452228094960E-01 
    4.3453407027274532E-01 
    4.3468402584422738E-01 
    4.3482091352437080E-01 
    4.3492628483862766E-01 
    4.3498136484583116E-01 
    4.3496853139614217E-01 
    4.3490428827393551E-01 
    4.3480516304919792E-01 
    4.3468443890839209E-01 
    4.3455309973392520E-01 
    4.3442017995855592E-01 
    4.3429321364738860E-01 
    3.5014369261583422E-01 
    3.5014151398584520E-01 
    3.5012031989875553E-01 
    3.5005719984717132E-01 
    3.4992397269134662E-01 
    3.4968799249842625E-01 
    3.4941320571055540E-01 
    3.4911767277310646E-01 
    3.4881785453148523E-01 
    3.4852980181295867E-01 
    3.4831480920899721E-01 
    3.4816729203712038E-01 
    3.4808328146482365E-01 
    3.4806080300043613E-01 
    3.4809979616835851E-01 
    3.4820192274464179E-01 
    2.7293159529003763E-01 
    2.7293629846038059E-01 
    2.7293576575302231E-01 
    2.7291750984707830E-01 
    2.7286756033807441E-01 
    2.7277169481138336E-01 
    2.7264908338835142E-01 
    2.7251492990963688E-01 
    2.7238497956097474E-01 
    2.7227599976881739E-01 
    2.7221516625868830E-01 
    2.7219658569439265E-01 
    2.7221598681354664E-01 
    2.7227118092213892E-01 
    2.7236214073358567E-01 
    2.7249090634760342E-01 
    2.1034133732289328E-01 
    2.1033900815391035E-01 
    2.1032886241975057E-01 
    2.1030406668688423E-01 
    2.1025697388715556E-01 
    2.1017971381574838E-01 
    2.1008377261838612E-01 
    2.0997850774668900E-01 
    2.0987365367022509E-01 
    2.0977950317671740E-01 
    2.0971270193688524E-01 
    2.0967056235715048E-01 
    2.0965144711372832E-01 
    2.0965496753092747E-01 
    2.0968200536117670E-01 
    2.0973462563227013E-01 
    1.5431961627442486E-01 
    1.5428444912561121E-01 
    1.5421409599946576E-01 
    1.5410908357077874E-01 
    1.5397058112614906E-01 
    1.5380050729866268E-01 
    1.5360741869197686E-01 
    1.5339947970606679E-01 
    1.5318552994374424E-01 
    1.5297501456447132E-01 
    1.5278029913805244E-01 
    1.5260780791984846E-01 
    1.5246421279097622E-01 
    1.5235610721379014E-01 
    1.5228964278335633E-01 
    1.5227002952411728E-01 
    1.0241297473761762E-01 
    1.0227229570627271E-01 
    1.0199640962097428E-01 
    1.0159368256308231E-01 
    1.0107518110962996E-01 
    1.0045453398165277E-01 
    9.9740355496444472E-02 
    9.8944703478818299E-02 
    9.8083397459051078E-02 
    9.7176689523250981E-02 
    9.6248918144306583E-02 
    9.5337115591882529E-02 
    9.4484468892929122E-02 
    9.3741573380265231E-02 
    9.3167966876156069E-02 
    9.2833987422951458E-02 
    6.2689206688471014E-02 
    6.2232658678188356E-02 
    6.1327337847312376E-02 
    5.9978623109396265E-02 
    5.8188988788533208E-02 
    5.5949029512484719E-02 
    5.3221220435353836E-02 
    4.9964083625098306E-02 
    4.6131698881154426E-02 
    4.1697875809121716E-02 
    3.6626154562735068E-02 
    3.0873438907042000E-02 
    2.4388987262686682E-02 
    1.7113423841557604E-02 
    8.9776634379694718E-03 
    0.0000000000000000E+00 

SCALARS Saturarion double 1 
LOOKUP_TABLE default 

    1.0000000011054260E+00 
    9.6984582522034812E-01 
    9.1896910902845941E-01 
    8.7674844407738362E-01 
    8.3694548484660203E-01 
    7.9834932351279697E-01 
    7.6047130056138701E-01 
    7.2370269331514181E-01 
    6.8866369231411306E-01 
    6.5526699772041863E-01 
    6.1929376970593786E-01 
    5.8034870909408520E-01 
    5.3710131866452981E-01 
    4.8826740578032812E-01 
    3.5210674073303661E-01 
    1.1972108850622660E-02 
    8.7356227266375319E-01 
    8.5912621945505296E-01 
    8.2774505413474564E-01 
    7.9490882506660454E-01 
    7.6252362634184179E-01 
    7.3154288838674386E-01 
    7.0186789766570257E-01 
    6.7317562512587503E-01 
    6.4492318257044934E-01 
    6.1483976046874833E-01 
    5.8256465690527148E-01 
    5.4777734753112695E-01 
    5.0768105334071845E-01 
    4.5297776764271019E-01 
    2.0277116203024315E-01 
    8.9770429302758845E-04 
    7.3746774174636442E-01 
    7.2775595634883894E-01 
    7.0690742980824761E-01 
    6.8434128436586139E-01 
    6.6331967752214649E-01 
    6.4281820261541711E-01 
    6.2197089562956043E-01 
    6.0035751911047119E-01 
    5.7786583958100068E-01 
    5.5289378760943775E-01 
    5.2606809809361255E-01 
    4.9650468720768998E-01 
    4.5173748306780326E-01 
    3.0741290576237007E-01 
    2.2305419349620433E-02 
    1.7923922136298789E-05 
    6.4444994278226964E-01 
    6.3872012839124070E-01 
    6.2523707419366903E-01 
    6.1085517070446493E-01 
    5.9494821678719412E-01 
    5.7725507961440459E-01 
    5.5896951392150729E-01 
    5.4130267967086643E-01 
    5.2225899750269711E-01 
    5.0171797678371910E-01 
    4.7917605171510308E-01 
    4.4844326735477946E-01 
    3.3955234954004521E-01 
    4.7780575224403508E-02 
    1.4493702142600727E-04 
    1.0003162046317232E-06 
    5.7753776777039301E-01 
    5.7389432989701694E-01 
    5.6360361311817708E-01 
    5.5256045513431329E-01 
    5.3814039813774950E-01 
    5.2319743053481915E-01 
    5.0866833909139531E-01 
    4.9404823937511788E-01 
    4.7910745476020733E-01 
    4.6281765572939676E-01 
    4.3505474974605302E-01 
    3.4209682990122420E-01 
    7.6860007253759743E-02 
    5.0793321274049950E-04 
    1.0121048689606648E-06 
    1.0000000004197027E-06 
    5.2648192120594717E-01 
    5.2403964639657252E-01 
    5.1855775502083046E-01 
    5.1041742797138900E-01 
    4.9413992847772792E-01 
    4.8120348795400764E-01 
    4.6793928495210391E-01 
    4.5399753632264278E-01 
    4.3364525438545376E-01 
    3.9141122516377763E-01 
    2.5739765003279164E-01 
    4.6664911310380641E-02 
    9.5154664181630903E-04 
    1.1760823081029529E-06 
    1.0000000713802419E-06 
    1.0000000000000048E-06 
    4.8396610285248742E-01 
    4.8061040434025637E-01 
    4.7591137636042619E-01 
    4.7045649500061359E-01 
    4.4732761029911633E-01 
    4.1639573171555450E-01 
    3.8643438687785381E-01 
    3.2288977930888429E-01 
    2.1784693291818119E-01 
    7.2802970184922239E-02 
    3.7140327272903472E-03 
    3.3699367852661966E-04 
    1.0730763702336767E-06 
    1.0000000926887183E-06 
    1.0000000000000203E-06 
    9.9999999999999995E-07 
    3.5502492999298385E-01 
    3.4596712011225278E-01 
    3.2961889336235584E-01 
    3.0610074793297976E-01 
    2.1841689911686413E-01 
    1.0476397097510620E-01 
    3.9085587249908911E-02 
    1.1161599958114261E-02 
    7.1171722878239229E-04 
    1.7079523127193713E-04 
    3.0393444827015881E-06 
    1.0045507609166781E-06 
    1.0000000589957041E-06 
    1.0000000000000171E-06 
    9.9999999999999995E-07 
    9.9999999999999995E-07 
    1.8541747787828883E-02 
    1.5318583490107290E-02 
    9.4020917984586443E-03 
    4.0313526893090762E-03 
    1.0007658242321689E-03 
    1.4229219061178597E-03 
    4.1809115809616164E-04 
    4.2650904397016383E-05 
    1.1154150249504745E-06 
    1.0051631389443971E-06 
    1.0000020603115792E-06 
    1.0000000048253959E-06 
    1.0000000000000664E-06 
    9.9999999999999995E-07 
    9.9999999999999995E-07 
    9.9999999999999995E-07 
    5.3463370613726407E-06 
    1.0885079103883675E-06 
    1.1028986592067685E-06 
    1.1241787780371221E-06 
    1.1587385208947997E-06 
    1.0411573992249055E-06 
    1.0030494714216623E-06 
    1.0004908738299210E-06 
    1.0000000241216632E-06 
    1.0000000000102569E-06 
    1.0000000000000730E-06 
    1.0000000000000025E-06 
    9.9999999999999995E-07 
    9.9999999999999995E-07 
    9.9999999999999995E-07 
    9.9999999999999995E-07 
    9.9999983741611309E-07 
    1.0000000268811561E-06 
    1.0000000281810368E-06 
    1.0000000276064633E-06 
    1.0000000416198939E-06 
    1.0000000351605875E-06 
    1.0000000010535664E-06 
    1.0000000000968711E-06 
    9.9999999999999932E-07 
    9.9999999999999995E-07 
    9.9999999999999995E-07 
    9.9999999999999995E-07 
    9.9999999999999995E-07 
    9.9999999999999995E-07 
    9.9999999999999995E-07 
    9.9999999999999995E-07 
    9.9999999999997730E-07 
    1.0000000000000095E-06 
    1.0000000000000014E-06 
    1.0000000000000055E-06 
    1.0000000000000086E-06 
    1.0000000000000103E-06 
    1.0000000000000002E-06 
    1.0000000000000002E-06 
    9.9999999999999995E-07 
    9.9999999999999995E-07 
    9.9999999999999995E-07 
    9.9999999999999995E-07 
    9.9999999999999995E-07 
    9.9999999999999995E-07 
    9.9999999999999995E-07 
    9.9999999999999995E-07 
    9.9999999999999995E-07 
    9.9999999999999995E-07 
    9.9999999999999995E-07 
    9.9999999999999995E-07 
    9.9999999999999995E-07 
    9.9999999999999995E-07 
    9.9999999999999995E-07 
    9.9999999999999995E-07 
    9.9999999999999995E-07 
    9.9999999999999995E-07 
    9.9999999999999995E-07 
    9.9999999999999995E-07 
    9.9999999999999995E-07 
    9.9999999999999995E-07 
    9.9999999999999995E-07 
    9.9999999999999995E-07 
    9.9999999999999995E-07 
    9.9999999999999995E-07 
    9.9999999999999995E-07 
    9.9999999999999995E-07 
    9.9999999999999995E-07 
    9.9999999999999995E-07 
    9.9999999999999995E-07 
    9.9999999999999995E-07 
    9.9999999999999995E-07 
    9.9999999999999995E-07 
    9.9999999999999995E-07 
    9.9999999999999995E-07 
    9.9999999999999995E-07 
    9.9999999999999995E-07 
    9.9999999999999995E-07 
    9.9999999999999995E-07 
    9.9999999999999995E-07 
    9.9999999999999995E-07 
    9.9999999999999995E-07 
    9.9999999999999995E-07 
    9.9999999999999995E-07 
    9.9999999999999995E-07 
    9.9999999999999995E-07 
    9.9999999999999995E-07 
    9.9999999999999995E-07 
    9.9999999999999995E-07 
    9.9999999999999995E-07 
    9.9999999999999995E-07 
    9.9999999999999995E-07 
    9.9999999999999995E-07 
    9.9999999999999995E-07 
    9.9999999999999995E-07 
    9.9999999999999995E-07 
    9.9999999999999995E-07 
    9.9999999999999995E-07 
    9.9999999999999995E-07 
    9.9999999999999995E-07 
    9.9999999999999995E-07 
    9.9999999999999995E-07 
    9.9999999999999995E-07 
    9.9999999999999995E-07 
    9.9999999999999995E-07 
    9.9999999999999995E-07 
    9.9999999999999995E-07 
    9.9999999999999995E-07 
    9.9999999999999995E-07 
    9.9999999999999995E-07 
    1.0000001121142958E-06 
