# vtk DataFile Version 2.0
Pressure Field Data 
ASCII 
DATASET UNSTRUCTURED_GRID 

POINTS 289 double 

    0.0000000000000000E+00     0.0000000000000000E+00     0.0000000000000000E+00 
    1.0000000000000000E+00     0.0000000000000000E+00     0.0000000000000000E+00 
    1.0000000000000000E+00     1.0000000000000000E+00     0.0000000000000000E+00 
    0.0000000000000000E+00     1.0000000000000000E+00     0.0000000000000000E+00 
    6.2499999999872928E-02     0.0000000000000000E+00     0.0000000000000000E+00 
    1.2499999999977310E-01     0.0000000000000000E+00     0.0000000000000000E+00 
    1.8749999999959341E-01     0.0000000000000000E+00     0.0000000000000000E+00 
    2.4999999999941089E-01     0.0000000000000000E+00     0.0000000000000000E+00 
    3.1249999999922851E-01     0.0000000000000000E+00     0.0000000000000000E+00 
    3.7499999999904610E-01     0.0000000000000000E+00     0.0000000000000000E+00 
    4.3749999999886358E-01     0.0000000000000000E+00     0.0000000000000000E+00 
    4.9999999999869210E-01     0.0000000000000000E+00     0.0000000000000000E+00 
    5.6249999999884603E-01     0.0000000000000000E+00     0.0000000000000000E+00 
    6.2499999999901090E-01     0.0000000000000000E+00     0.0000000000000000E+00 
    6.8749999999917577E-01     0.0000000000000000E+00     0.0000000000000000E+00 
    7.4999999999934064E-01     0.0000000000000000E+00     0.0000000000000000E+00 
    8.1249999999950551E-01     0.0000000000000000E+00     0.0000000000000000E+00 
    8.7499999999967026E-01     0.0000000000000000E+00     0.0000000000000000E+00 
    9.3749999999983513E-01     0.0000000000000000E+00     0.0000000000000000E+00 
    1.0000000000000000E+00     6.2499999999872928E-02     0.0000000000000000E+00 
    1.0000000000000000E+00     1.2499999999977310E-01     0.0000000000000000E+00 
    1.0000000000000000E+00     1.8749999999959341E-01     0.0000000000000000E+00 
    1.0000000000000000E+00     2.4999999999941089E-01     0.0000000000000000E+00 
    1.0000000000000000E+00     3.1249999999922851E-01     0.0000000000000000E+00 
    1.0000000000000000E+00     3.7499999999904610E-01     0.0000000000000000E+00 
    1.0000000000000000E+00     4.3749999999886358E-01     0.0000000000000000E+00 
    1.0000000000000000E+00     4.9999999999869210E-01     0.0000000000000000E+00 
    1.0000000000000000E+00     5.6249999999884603E-01     0.0000000000000000E+00 
    1.0000000000000000E+00     6.2499999999901090E-01     0.0000000000000000E+00 
    1.0000000000000000E+00     6.8749999999917577E-01     0.0000000000000000E+00 
    1.0000000000000000E+00     7.4999999999934064E-01     0.0000000000000000E+00 
    1.0000000000000000E+00     8.1249999999950551E-01     0.0000000000000000E+00 
    1.0000000000000000E+00     8.7499999999967026E-01     0.0000000000000000E+00 
    1.0000000000000000E+00     9.3749999999983513E-01     0.0000000000000000E+00 
    9.3749999999973976E-01     1.0000000000000000E+00     0.0000000000000000E+00 
    8.7499999999950118E-01     1.0000000000000000E+00     0.0000000000000000E+00 
    8.1249999999991318E-01     1.0000000000000000E+00     0.0000000000000000E+00 
    7.5000000000034706E-01     1.0000000000000000E+00     0.0000000000000000E+00 
    6.8750000000078049E-01     1.0000000000000000E+00     0.0000000000000000E+00 
    6.2500000000121403E-01     1.0000000000000000E+00     0.0000000000000000E+00 
    5.6250000000164757E-01     1.0000000000000000E+00     0.0000000000000000E+00 
    5.0000000000205946E-01     1.0000000000000000E+00     0.0000000000000000E+00 
    4.3750000000182099E-01     1.0000000000000000E+00     0.0000000000000000E+00 
    3.7500000000156092E-01     1.0000000000000000E+00     0.0000000000000000E+00 
    3.1250000000130068E-01     1.0000000000000000E+00     0.0000000000000000E+00 
    2.5000000000104050E-01     1.0000000000000000E+00     0.0000000000000000E+00 
    1.8750000000078040E-01     1.0000000000000000E+00     0.0000000000000000E+00 
    1.2500000000052031E-01     1.0000000000000000E+00     0.0000000000000000E+00 
    6.2500000000260125E-02     1.0000000000000000E+00     0.0000000000000000E+00 
    0.0000000000000000E+00     9.3749999999973976E-01     0.0000000000000000E+00 
    0.0000000000000000E+00     8.7499999999950118E-01     0.0000000000000000E+00 
    0.0000000000000000E+00     8.1249999999991318E-01     0.0000000000000000E+00 
    0.0000000000000000E+00     7.5000000000034706E-01     0.0000000000000000E+00 
    0.0000000000000000E+00     6.8750000000078049E-01     0.0000000000000000E+00 
    0.0000000000000000E+00     6.2500000000121403E-01     0.0000000000000000E+00 
    0.0000000000000000E+00     5.6250000000164757E-01     0.0000000000000000E+00 
    0.0000000000000000E+00     5.0000000000205946E-01     0.0000000000000000E+00 
    0.0000000000000000E+00     4.3750000000182099E-01     0.0000000000000000E+00 
    0.0000000000000000E+00     3.7500000000156092E-01     0.0000000000000000E+00 
    0.0000000000000000E+00     3.1250000000130068E-01     0.0000000000000000E+00 
    0.0000000000000000E+00     2.5000000000104050E-01     0.0000000000000000E+00 
    0.0000000000000000E+00     1.8750000000078040E-01     0.0000000000000000E+00 
    0.0000000000000000E+00     1.2500000000052031E-01     0.0000000000000000E+00 
    0.0000000000000000E+00     6.2500000000260125E-02     0.0000000000000000E+00 
    6.2499999999897131E-02     6.2500000000235922E-02     0.0000000000000000E+00 
    6.2499999999921327E-02     1.2500000000047351E-01     0.0000000000000000E+00 
    6.2499999999945530E-02     1.8750000000070621E-01     0.0000000000000000E+00 
    6.2499999999969733E-02     2.5000000000093858E-01     0.0000000000000000E+00 
    6.2499999999993928E-02     3.1250000000117117E-01     0.0000000000000000E+00 
    6.2500000000018124E-02     3.7500000000140382E-01     0.0000000000000000E+00 
    6.2500000000042327E-02     4.3750000000163619E-01     0.0000000000000000E+00 
    6.2500000000066530E-02     5.0000000000184897E-01     0.0000000000000000E+00 
    6.2500000000090733E-02     5.6250000000147260E-01     0.0000000000000000E+00 
    6.2500000000114922E-02     6.2500000000107636E-01     0.0000000000000000E+00 
    6.2500000000139125E-02     6.8750000000068034E-01     0.0000000000000000E+00 
    6.2500000000163328E-02     7.5000000000028411E-01     0.0000000000000000E+00 
    6.2500000000187531E-02     8.1249999999988787E-01     0.0000000000000000E+00 
    6.2500000000211720E-02     8.7499999999951172E-01     0.0000000000000000E+00 
    6.2500000000235922E-02     9.3749999999974565E-01     0.0000000000000000E+00 
    1.2499999999981980E-01     6.2500000000211733E-02     0.0000000000000000E+00 
    1.2499999999986650E-01     1.2500000000042691E-01     0.0000000000000000E+00 
    1.2499999999991319E-01     1.8750000000063199E-01     0.0000000000000000E+00 
    1.2499999999995989E-01     2.5000000000083678E-01     0.0000000000000000E+00 
    1.2500000000000661E-01     3.1250000000104172E-01     0.0000000000000000E+00 
    1.2500000000005329E-01     3.7500000000124661E-01     0.0000000000000000E+00 
    1.2500000000010000E-01     4.3750000000145117E-01     0.0000000000000000E+00 
    1.2500000000014669E-01     5.0000000000163858E-01     0.0000000000000000E+00 
    1.2500000000019340E-01     5.6250000000129741E-01     0.0000000000000000E+00 
    1.2500000000024011E-01     6.2500000000093847E-01     0.0000000000000000E+00 
    1.2500000000028680E-01     6.8750000000057998E-01     0.0000000000000000E+00 
    1.2500000000033351E-01     7.5000000000022127E-01     0.0000000000000000E+00 
    1.2500000000038020E-01     8.1249999999986211E-01     0.0000000000000000E+00 
    1.2500000000042691E-01     8.7499999999952238E-01     0.0000000000000000E+00 
    1.2500000000047359E-01     9.3749999999975164E-01     0.0000000000000000E+00 
    1.8749999999966760E-01     6.2500000000187531E-02     0.0000000000000000E+00 
    1.8749999999974179E-01     1.2500000000038020E-01     0.0000000000000000E+00 
    1.8749999999981601E-01     1.8750000000055780E-01     0.0000000000000000E+00 
    1.8749999999989009E-01     2.5000000000073502E-01     0.0000000000000000E+00 
    1.8749999999996431E-01     3.1250000000091221E-01     0.0000000000000000E+00 
    1.8750000000003850E-01     3.7500000000108941E-01     0.0000000000000000E+00 
    1.8750000000011269E-01     4.3750000000126649E-01     0.0000000000000000E+00 
    1.8750000000018691E-01     5.0000000000142808E-01     0.0000000000000000E+00 
    1.8750000000026110E-01     5.6250000000112244E-01     0.0000000000000000E+00 
    1.8750000000033529E-01     6.2500000000080080E-01     0.0000000000000000E+00 
    1.8750000000040951E-01     6.8750000000047962E-01     0.0000000000000000E+00 
    1.8750000000048361E-01     7.5000000000015843E-01     0.0000000000000000E+00 
    1.8750000000055780E-01     8.1249999999983680E-01     0.0000000000000000E+00 
    1.8750000000063199E-01     8.7499999999953304E-01     0.0000000000000000E+00 
    1.8750000000070621E-01     9.3749999999975764E-01     0.0000000000000000E+00 
    2.4999999999951281E-01     6.2500000000163314E-02     0.0000000000000000E+00 
    2.4999999999961461E-01     1.2500000000033351E-01     0.0000000000000000E+00 
    2.4999999999971650E-01     1.8750000000048361E-01     0.0000000000000000E+00 
    2.4999999999981831E-01     2.5000000000063310E-01     0.0000000000000000E+00 
    2.4999999999992020E-01     3.1250000000078260E-01     0.0000000000000000E+00 
    2.5000000000002198E-01     3.7500000000093209E-01     0.0000000000000000E+00 
    2.5000000000012390E-01     4.3750000000108180E-01     0.0000000000000000E+00 
    2.5000000000022571E-01     5.0000000000121769E-01     0.0000000000000000E+00 
    2.5000000000032763E-01     5.6250000000094724E-01     0.0000000000000000E+00 
    2.5000000000042938E-01     6.2500000000066314E-01     0.0000000000000000E+00 
    2.5000000000053119E-01     6.8750000000037925E-01     0.0000000000000000E+00 
[...]
CELL_DATA 256 
SCALARS Pressure double 1 
LOOKUP_TABLE default 

    9.9447788533670378E-01 
    9.9248405308652377E-01 
    9.9036805327202149E-01 
    9.8799179492620226E-01 
    9.8553093986201046E-01 
    9.8308291096010447E-01 
    9.8067808217968666E-01 
    9.7833646506961447E-01 
    9.7599242427839983E-01 
    9.7367610842264762E-01 
    9.7169284823048474E-01 
    9.7010809991332336E-01 
    9.6885535988624849E-01 
    9.6792651288352516E-01 
    9.6731645509840591E-01 
    9.6702289107361983E-01 
    9.5092017515701788E-01 
    9.5067605978309189E-01 
    9.5016188990251005E-01 
    9.4935343113538706E-01 
    9.4831676309256441E-01 
    9.4710942873739246E-01 
    9.4575742042143318E-01 
    9.4430493901858170E-01 
    9.4285524394132536E-01 
    9.4153601069700543E-01 
    9.4041966034254343E-01 
    9.3950067510944302E-01 
    9.3876605294521942E-01 
    9.3821657790008384E-01 
    9.3785278042628129E-01 
    9.3767496030795927E-01 
    8.9963740066741382E-01 
    8.9935921200119262E-01 
    8.9879688390691137E-01 
    8.9798921787481634E-01 
    8.9704038356093529E-01 
    8.9603981356958151E-01 
    8.9504446054307218E-01 
    8.9411197143130550E-01 
    8.9329762345885311E-01 
    8.9260953413241262E-01 
    8.9202372557337861E-01 
    8.9153195841208666E-01 
    8.9113718760047544E-01 
    8.9084168930975927E-01 
    8.9064695415234874E-01 
    8.9055369753833258E-01 
    8.3491621811297889E-01 
    8.3487899515585551E-01 
    8.3482475723066674E-01 
    8.3477734788937574E-01 
    8.3474727477966837E-01 
    8.3472955144358874E-01 
    8.3470360375673869E-01 
    8.3466219583216728E-01 
    8.3460511515493929E-01 
    8.3453371123666908E-01 
    8.3444880580425218E-01 
    8.3435876427878286E-01 
    8.3427079443846464E-01 
    8.3419066558861199E-01 
    8.3412273642696233E-01 
    8.3407004514612459E-01 
    7.7136818324444456E-01 
    7.7140819017786588E-01 
    7.7148143823236237E-01 
    7.7158186896670844E-01 
    7.7170402516324710E-01 
    7.7184285127428998E-01 
    7.7198602716281062E-01 
    7.7212311873265271E-01 
    7.7224455712453433E-01 
    7.7234135348246535E-01 
    7.7239559075717201E-01 
    7.7241315094939555E-01 
    7.7239950322522433E-01 
    7.7235951038517148E-01 
    7.7229731060616069E-01 
    7.7221625806695027E-01 
    7.0153283492564245E-01 
    7.0163564802847989E-01 
    7.0180433781207863E-01 
    7.0200169816133151E-01 
    7.0219050973586739E-01 
    7.0233539273757406E-01 
    7.0243569048326293E-01 
    7.0249379335772821E-01 
    7.0251270679166589E-01 
    7.0249720228285928E-01 
    7.0245801708986400E-01 
    7.0240664429270161E-01 
    7.0235418183311549E-01 
    7.0231185691174769E-01 
    7.0229114636562984E-01 
    7.0230385419709140E-01 
    6.3528117415986152E-01 
    6.3523715269212366E-01 
    6.3514755891326891E-01 
    6.3500661947041692E-01 
    6.3480492195266580E-01 
    6.3456488017277157E-01 
    6.3434058615890399E-01 
    6.3413668949267532E-01 
    6.3395665462184325E-01 
    6.3380490769104869E-01 
    6.3370673563825630E-01 
    6.3365279016496157E-01 
    6.3363490496286712E-01 
    6.3364577653594278E-01 
    6.3367878316702109E-01 
    6.3372779037619631E-01 
    5.7011126853051308E-01 
    5.7004323996083672E-01 
    5.6992932306243360E-01 
    5.6979314842600981E-01 
    5.6965913809964563E-01 
    5.6955217770425748E-01 
    5.6949626583092239E-01 
    5.6949223480005851E-01 
    5.6953996701601839E-01 
    5.6961932230907464E-01 
    5.6970913412220447E-01 
    5.6980229163243235E-01 
    5.6989114023099652E-01 
    5.6996686203864932E-01 
    5.7001957608366893E-01 
    5.7003856919989748E-01 
    5.0653003494474258E-01 
    5.0646115252758950E-01 
    5.0636947812537969E-01 
    5.0630406875199252E-01 
    5.0631684332297500E-01 
    5.0642561056674407E-01 
    5.0661375318135593E-01 
    5.0686767849548708E-01 
    5.0717471174361972E-01 
    5.0748608517456595E-01 
    5.0774333125337978E-01 
    5.0794509262283027E-01 
    5.0808627714302257E-01 
    5.0815751538890253E-01 
    5.0814482225005309E-01 
    5.0802942310314803E-01 
    4.3417666271520416E-01 
    4.3422480653775025E-01 
    4.3431112804642924E-01 
    4.3442689503219417E-01 
    4.3456331167868806E-01 
    4.3471381223458899E-01 
    4.3485364128337911E-01 
    4.3496346018070847E-01 
    4.3502362153786678E-01 
    4.3501550213609924E-01 
    4.3495560434374547E-01 
    4.3486035588894789E-01 
    4.3474291443053292E-01 
    4.3461412067450073E-01 
    4.3448285116344032E-01 
    4.3435646602656680E-01 
    3.5013685087292229E-01 
    3.5013354492038157E-01 
    3.5011070413525808E-01 
    3.5004606246529257E-01 
    3.4991207883716918E-01 
    3.4967670366303638E-01 
    3.4940367501691477E-01 
    3.4911068290730179E-01 
    3.4881378335854535E-01 
    3.4852860135500890E-01 
    3.4831641330364199E-01 
    3.4817151472460128E-01 
    3.4808980298922121E-01 
    3.4806915028088248E-01 
    3.4810932310631965E-01 
    3.4821179241955336E-01 
    2.7291705900091962E-01 
    2.7292090288746829E-01 
    2.7291900338540032E-01 
    2.7289924964532453E-01 
    2.7284805858708405E-01 
    2.7275159146459288E-01 
    2.7262916047394625E-01 
    2.7249583165525154E-01 
    2.7236720474096110E-01 
    2.7225989713308874E-01 
    2.7220070188337731E-01 
    2.7218366242905034E-01 
    2.7220442860355332E-01 
    2.7226071326404522E-01 
    2.7235237097464632E-01 
    2.7248130552556121E-01 
    2.1032672521997364E-01 
    2.1032388373950231E-01 
    2.1031291566338853E-01 
    2.1028720617251412E-01 
    2.1023933615606205E-01 
    2.1016166512876658E-01 
    2.1006576606670185E-01 
    2.0996092130622770E-01 
    2.0985678458020066E-01 
    2.0976356148856293E-01 
    2.0969766497750000E-01 
    2.0965637359190439E-01 
    2.0963800612414663E-01 
    2.0964211799367471E-01 
    2.0966952278289797E-01 
    2.0972220590679319E-01 
    1.5430867107109222E-01 
    1.5427338958268319E-01 
    1.5420286219789128E-01 
    1.5409767550430029E-01 
    1.5395906204149154E-01 
    1.5378900458980904E-01 
    1.5359606959838812E-01 
    1.5338839321060144E-01 
    1.5317478574108823E-01 
    1.5296466071724688E-01 
    1.5277030587777862E-01 
    1.5259813791365426E-01 
    1.5245481702465410E-01 
    1.5234692102133224E-01 
    1.5228058180362208E-01 
    1.5226098595325754E-01 
    1.0240806068301510E-01 
    1.0226765141046879E-01 
    1.0199220596518888E-01 
    1.0158998870384188E-01 
    1.0107196623709826E-01 
    1.0045167387273433E-01 
    9.9737673875380947E-02 
    9.8942053922492057E-02 
    9.8080661007883402E-02 
    9.7173770713471733E-02 
    9.6245791294042954E-02 
    9.5333771322744856E-02 
    9.4480917920544069E-02 
    9.3737850598310621E-02 
    9.3164135426705458E-02 
    9.2830142437501220E-02 
    6.2693416530137339E-02 
    6.2237454956653747E-02 
    6.1332965360302784E-02 
    5.9984973149837265E-02 
    5.8195593808998060E-02 
    5.5955363344931647E-02 
    5.3226936150101829E-02 
    4.9969014179099672E-02 
    4.6135858136331774E-02 
    4.1701217441524822E-02 
    3.6628671706034135E-02 
    3.0875171428777888E-02 
    2.4390031724202826E-02 
    1.7113944487816363E-02 
    8.9779034040211435E-03 
    0.0000000000000000E+00 

SCALARS Saturarion double 1 
LOOKUP_TABLE default 

    9.9945860472149717E-01 
    9.0607370758442218E-01 
    7.5722909104288016E-01 
    6.6238800786299334E-01 
    6.0457360846403541E-01 
    5.5912223032566144E-01 
    5.2114864605590727E-01 
    4.8125373306443142E-01 
    4.0352034868741021E-01 
    1.1936141040070669E-01 
    3.0009897907147926E-06 
    1.0000021430054460E-06 
    9.9999999999999974E-07 
    9.9999999999999995E-07 
    9.9999999999999995E-07 
    9.9999999999999995E-07 
    7.9041993413828737E-01 
    7.4176623880804915E-01 
    6.4226025306639545E-01 
    5.6304242998576004E-01 
    5.0772017822282356E-01 
    4.4154411223808071E-01 
    3.4638564090959517E-01 
    2.2936264265299683E-01 
    8.6042065370452128E-02 
    2.4711675965236007E-03 
    1.2497879556780955E-06 
    1.0000000015028016E-06 
    1.0000000000000002E-06 
    9.9999999999999995E-07 
    9.9999999999999995E-07 
    9.9999999999999995E-07 
    3.8348848800907620E-01 
    3.3096400692184930E-01 
    2.5540972009191970E-01 
    1.8478365420495796E-01 
    1.1414972040601885E-01 
    4.5284951859805300E-02 
    9.1369913507136670E-03 
    6.8968148874896246E-04 
    5.2660936591534045E-05 
    1.0697021138744102E-06 
    1.0000000231592250E-06 
    1.0000000000000006E-06 
    9.9999999999999995E-07 
    9.9999999999999995E-07 
    9.9999999999999995E-07 
    9.9999999999999995E-07 
    4.1218086515925996E-03 
    1.8459665977809789E-03 
    4.7836783450551845E-04 
    1.0226430528010692E-04 
    5.0457326504923821E-05 
    2.9855354989114355E-05 
    3.1216019307152701E-06 
    1.0150794492488825E-06 
    1.0005728277293591E-06 
    1.0000000053700518E-06 
    1.0000000000000004E-06 
    9.9999999999999995E-07 
    9.9999999999999995E-07 
    9.9999999999999995E-07 
    9.9999999999999995E-07 
    9.9999999999999995E-07 
    1.0000039791893501E-06 
    1.0387316957465113E-06 
    1.0056360146453664E-06 
    1.0009538186003803E-06 
    1.0008059385090945E-06 
    1.0001039160736340E-06 
    1.0000007363025298E-06 
    1.0000000030499310E-06 
    9.9999999999999995E-07 
    9.9999999999999995E-07 
    9.9999999999999995E-07 
    9.9999999999999995E-07 
    9.9999999999999995E-07 
    9.9999999999999995E-07 
    9.9999999999999995E-07 
    9.9999999999999995E-07 
    1.0000000000011388E-06 
    1.0000000031229058E-06 
    1.0000000010861793E-06 
    1.0000000000952660E-06 
    1.0000000000122692E-06 
    9.9999999999999974E-07 
    9.9999999999999995E-07 
    9.9999999999999974E-07 
    9.9999999999999995E-07 
    9.9999999999999995E-07 
    9.9999999999999995E-07 
    9.9999999999999995E-07 
    9.9999999999999995E-07 
    9.9999999999999995E-07 
    9.9999999999999995E-07 
    9.9999999999999995E-07 
    9.9999999999999995E-07 
    1.0000000000000002E-06 
    9.9999999999999974E-07 
    9.9999999999999995E-07 
    9.9999999999999995E-07 
    9.9999999999999995E-07 
    9.9999999999999995E-07 
    9.9999999999999995E-07 
    9.9999999999999995E-07 
    9.9999999999999995E-07 
    9.9999999999999995E-07 
    9.9999999999999995E-07 
    9.9999999999999995E-07 
    9.9999999999999995E-07 
    9.9999999999999995E-07 
    9.9999999999999995E-07 
    9.9999999999999995E-07 
    9.9999999999999995E-07 
    9.9999999999999995E-07 
    9.9999999999999995E-07 
    9.9999999999999995E-07 
    9.9999999999999995E-07 
    9.9999999999999995E-07 
    9.9999999999999995E-07 
    9.9999999999999995E-07 
    9.9999999999999995E-07 
    9.9999999999999995E-07 
    9.9999999999999995E-07 
    9.9999999999999995E-07 
    9.9999999999999995E-07 
    9.9999999999999995E-07 
    9.9999999999999995E-07 
    9.9999999999999995E-07 
    9.9999999999999995E-07 
    9.9999999999999995E-07 
    9.9999999999999995E-07 
    9.9999999999999995E-07 
    9.9999999999999995E-07 
    9.9999999999999995E-07 
    9.9999999999999995E-07 
    9.9999999999999995E-07 
    9.9999999999999995E-07 
    9.9999999999999995E-07 
    9.9999999999999995E-07 
    9.9999999999999995E-07 
    9.9999999999999995E-07 
    9.9999999999999995E-07 
    9.9999999999999995E-07 
    9.9999999999999995E-07 
    9.9999999999999995E-07 
    9.9999999999999995E-07 
    9.9999999999999995E-07 
    9.9999999999999995E-07 
    9.9999999999999995E-07 
    9.9999999999999995E-07 
    9.9999999999999995E-07 
    9.9999999999999995E-07 
    9.9999999999999995E-07 
    9.9999999999999995E-07 
    9.9999999999999995E-07 
    9.9999999999999995E-07 
    9.9999999999999995E-07 
    9.9999999999999995E-07 
    9.9999999999999995E-07 
    9.9999999999999995E-07 
    9.9999999999999995E-07 
    9.9999999999999995E-07 
    9.9999999999999995E-07 
    9.9999999999999995E-07 
    9.9999999999999995E-07 
    9.9999999999999995E-07 
    9.9999999999999995E-07 
    9.9999999999999995E-07 
    9.9999999999999995E-07 
    9.9999999999999995E-07 
    9.9999999999999995E-07 
    9.9999999999999995E-07 
    9.9999999999999995E-07 
    9.9999999999999995E-07 
    9.9999999999999995E-07 
    9.9999999999999995E-07 
    9.9999999999999995E-07 
    9.9999999999999995E-07 
    9.9999999999999995E-07 
    9.9999999999999995E-07 
    9.9999999999999995E-07 
    9.9999999999999995E-07 
    9.9999999999999995E-07 
    9.9999999999999995E-07 
    9.9999999999999995E-07 
    9.9999999999999995E-07 
    9.9999999999999995E-07 
    9.9999999999999995E-07 
    9.9999999999999995E-07 
    9.9999999999999995E-07 
    9.9999999999999995E-07 
    9.9999999999999995E-07 
    9.9999999999999995E-07 
    9.9999999999999995E-07 
    9.9999999999999995E-07 
    9.9999999999999995E-07 
    9.9999999999999995E-07 
    9.9999999999999995E-07 
    9.9999999999999995E-07 
    9.9999999999999995E-07 
    9.9999999999999995E-07 
    9.9999999999999995E-07 
    9.9999999999999995E-07 
    9.9999999999999995E-07 
    9.9999999999999995E-07 
    9.9999999999999995E-07 
    9.9999999999999995E-07 
    9.9999999999999995E-07 
    9.9999999999999995E-07 
    9.9999999999999995E-07 
    9.9999999999999995E-07 
    9.9999999999999995E-07 
    9.9999999999999995E-07 
    9.9999999999999995E-07 
    9.9999999999999995E-07 
    9.9999999999999995E-07 
    9.9999999999999995E-07 
    9.9999999999999995E-07 
    9.9999999999999995E-07 
    9.9999999999999995E-07 
    9.9999999999999995E-07 
    9.9999999999999995E-07 
    9.9999999999999995E-07 
    9.9999999999999995E-07 
    9.9999999999999995E-07 
    9.9999999999999995E-07 
    9.9999999999999995E-07 
    9.9999999999999995E-07 
    9.9999999999999995E-07 
    9.9999999999999995E-07 
    9.9999999999999995E-07 
    9.9999999999999995E-07 
    9.9999999999999995E-07 
    9.9999999999999995E-07 
    9.9999999999999995E-07 
    9.9999999999999995E-07 
    9.9999999999999995E-07 
    9.9999999999999995E-07 
    9.9999999999999995E-07 
    9.9999999999999995E-07 
    9.9999999999999995E-07 
    9.9999999999999995E-07 
    9.9999999999999995E-07 
    9.9999999999999995E-07 
    9.9999999999999995E-07 
    9.9999999999999995E-07 
    9.9999999999999995E-07 
    9.9999999999999995E-07 
    9.9999999999999995E-07 
    9.9999999999999995E-07 
    9.9999999999999995E-07 
    9.9999999999999995E-07 
    9.9999999999999995E-07 
    9.9999999999999995E-07 
    1.0000000530262030E-06 
