# vtk DataFile Version 2.0
Pressure Field Data 
ASCII 
DATASET UNSTRUCTURED_GRID 

POINTS 289 double 

    0.0000000000000000E+00     0.0000000000000000E+00     0.0000000000000000E+00 
    1.0000000000000000E+00     0.0000000000000000E+00     0.0000000000000000E+00 
    1.0000000000000000E+00     1.0000000000000000E+00     0.0000000000000000E+00 
    0.0000000000000000E+00     1.0000000000000000E+00     0.0000000000000000E+00 
    6.2499999999872928E-02     0.0000000000000000E+00     0.0000000000000000E+00 
    1.2499999999977310E-01     0.0000000000000000E+00     0.0000000000000000E+00 
    1.8749999999959341E-01     0.0000000000000000E+00     0.0000000000000000E+00 
    2.4999999999941089E-01     0.0000000000000000E+00     0.0000000000000000E+00 
    3.1249999999922851E-01     0.0000000000000000E+00     0.0000000000000000E+00 
    3.7499999999904610E-01     0.0000000000000000E+00     0.0000000000000000E+00 
    4.3749999999886358E-01     0.0000000000000000E+00     0.0000000000000000E+00 
    4.9999999999869210E-01     0.0000000000000000E+00     0.0000000000000000E+00 
    5.6249999999884603E-01     0.0000000000000000E+00     0.0000000000000000E+00 
    6.2499999999901090E-01     0.0000000000000000E+00     0.0000000000000000E+00 
    6.8749999999917577E-01     0.0000000000000000E+00     0.0000000000000000E+00 
    7.4999999999934064E-01     0.0000000000000000E+00     0.0000000000000000E+00 
    8.1249999999950551E-01     0.0000000000000000E+00     0.0000000000000000E+00 
    8.7499999999967026E-01     0.0000000000000000E+00     0.0000000000000000E+00 
    9.3749999999983513E-01     0.0000000000000000E+00     0.0000000000000000E+00 
    1.0000000000000000E+00     6.2499999999872928E-02     0.0000000000000000E+00 
    1.0000000000000000E+00     1.2499999999977310E-01     0.0000000000000000E+00 
    1.0000000000000000E+00     1.8749999999959341E-01     0.0000000000000000E+00 
    1.0000000000000000E+00     2.4999999999941089E-01     0.0000000000000000E+00 
    1.0000000000000000E+00     3.1249999999922851E-01     0.0000000000000000E+00 
    1.0000000000000000E+00     3.7499999999904610E-01     0.0000000000000000E+00 
    1.0000000000000000E+00     4.3749999999886358E-01     0.0000000000000000E+00 
    1.0000000000000000E+00     4.9999999999869210E-01     0.0000000000000000E+00 
    1.0000000000000000E+00     5.6249999999884603E-01     0.0000000000000000E+00 
    1.0000000000000000E+00     6.2499999999901090E-01     0.0000000000000000E+00 
    1.0000000000000000E+00     6.8749999999917577E-01     0.0000000000000000E+00 
    1.0000000000000000E+00     7.4999999999934064E-01     0.0000000000000000E+00 
    1.0000000000000000E+00     8.1249999999950551E-01     0.0000000000000000E+00 
    1.0000000000000000E+00     8.7499999999967026E-01     0.0000000000000000E+00 
    1.0000000000000000E+00     9.3749999999983513E-01     0.0000000000000000E+00 
    9.3749999999973976E-01     1.0000000000000000E+00     0.0000000000000000E+00 
    8.7499999999950118E-01     1.0000000000000000E+00     0.0000000000000000E+00 
    8.1249999999991318E-01     1.0000000000000000E+00     0.0000000000000000E+00 
    7.5000000000034706E-01     1.0000000000000000E+00     0.0000000000000000E+00 
    6.8750000000078049E-01     1.0000000000000000E+00     0.0000000000000000E+00 
    6.2500000000121403E-01     1.0000000000000000E+00     0.0000000000000000E+00 
    5.6250000000164757E-01     1.0000000000000000E+00     0.0000000000000000E+00 
    5.0000000000205946E-01     1.0000000000000000E+00     0.0000000000000000E+00 
    4.3750000000182099E-01     1.0000000000000000E+00     0.0000000000000000E+00 
    3.7500000000156092E-01     1.0000000000000000E+00     0.0000000000000000E+00 
    3.1250000000130068E-01     1.0000000000000000E+00     0.0000000000000000E+00 
    2.5000000000104050E-01     1.0000000000000000E+00     0.0000000000000000E+00 
    1.8750000000078040E-01     1.0000000000000000E+00     0.0000000000000000E+00 
    1.2500000000052031E-01     1.0000000000000000E+00     0.0000000000000000E+00 
    6.2500000000260125E-02     1.0000000000000000E+00     0.0000000000000000E+00 
    0.0000000000000000E+00     9.3749999999973976E-01     0.0000000000000000E+00 
    0.0000000000000000E+00     8.7499999999950118E-01     0.0000000000000000E+00 
    0.0000000000000000E+00     8.1249999999991318E-01     0.0000000000000000E+00 
    0.0000000000000000E+00     7.5000000000034706E-01     0.0000000000000000E+00 
    0.0000000000000000E+00     6.8750000000078049E-01     0.0000000000000000E+00 
    0.0000000000000000E+00     6.2500000000121403E-01     0.0000000000000000E+00 
    0.0000000000000000E+00     5.6250000000164757E-01     0.0000000000000000E+00 
    0.0000000000000000E+00     5.0000000000205946E-01     0.0000000000000000E+00 
    0.0000000000000000E+00     4.3750000000182099E-01     0.0000000000000000E+00 
    0.0000000000000000E+00     3.7500000000156092E-01     0.0000000000000000E+00 
    0.0000000000000000E+00     3.1250000000130068E-01     0.0000000000000000E+00 
    0.0000000000000000E+00     2.5000000000104050E-01     0.0000000000000000E+00 
    0.0000000000000000E+00     1.8750000000078040E-01     0.0000000000000000E+00 
    0.0000000000000000E+00     1.2500000000052031E-01     0.0000000000000000E+00 
    0.0000000000000000E+00     6.2500000000260125E-02     0.0000000000000000E+00 
    6.2499999999897131E-02     6.2500000000235922E-02     0.0000000000000000E+00 
    6.2499999999921327E-02     1.2500000000047351E-01     0.0000000000000000E+00 
    6.2499999999945530E-02     1.8750000000070621E-01     0.0000000000000000E+00 
    6.2499999999969733E-02     2.5000000000093858E-01     0.0000000000000000E+00 
    6.2499999999993928E-02     3.1250000000117117E-01     0.0000000000000000E+00 
    6.2500000000018124E-02     3.7500000000140382E-01     0.0000000000000000E+00 
    6.2500000000042327E-02     4.3750000000163619E-01     0.0000000000000000E+00 
    6.2500000000066530E-02     5.0000000000184897E-01     0.0000000000000000E+00 
    6.2500000000090733E-02     5.6250000000147260E-01     0.0000000000000000E+00 
    6.2500000000114922E-02     6.2500000000107636E-01     0.0000000000000000E+00 
    6.2500000000139125E-02     6.8750000000068034E-01     0.0000000000000000E+00 
    6.2500000000163328E-02     7.5000000000028411E-01     0.0000000000000000E+00 
    6.2500000000187531E-02     8.1249999999988787E-01     0.0000000000000000E+00 
    6.2500000000211720E-02     8.7499999999951172E-01     0.0000000000000000E+00 
    6.2500000000235922E-02     9.3749999999974565E-01     0.0000000000000000E+00 
    1.2499999999981980E-01     6.2500000000211733E-02     0.0000000000000000E+00 
    1.2499999999986650E-01     1.2500000000042691E-01     0.0000000000000000E+00 
    1.2499999999991319E-01     1.8750000000063199E-01     0.0000000000000000E+00 
    1.2499999999995989E-01     2.5000000000083678E-01     0.0000000000000000E+00 
    1.2500000000000661E-01     3.1250000000104172E-01     0.0000000000000000E+00 
    1.2500000000005329E-01     3.7500000000124661E-01     0.0000000000000000E+00 
    1.2500000000010000E-01     4.3750000000145117E-01     0.0000000000000000E+00 
    1.2500000000014669E-01     5.0000000000163858E-01     0.0000000000000000E+00 
    1.2500000000019340E-01     5.6250000000129741E-01     0.0000000000000000E+00 
    1.2500000000024011E-01     6.2500000000093847E-01     0.0000000000000000E+00 
    1.2500000000028680E-01     6.8750000000057998E-01     0.0000000000000000E+00 
    1.2500000000033351E-01     7.5000000000022127E-01     0.0000000000000000E+00 
    1.2500000000038020E-01     8.1249999999986211E-01     0.0000000000000000E+00 
    1.2500000000042691E-01     8.7499999999952238E-01     0.0000000000000000E+00 
    1.2500000000047359E-01     9.3749999999975164E-01     0.0000000000000000E+00 
    1.8749999999966760E-01     6.2500000000187531E-02     0.0000000000000000E+00 
    1.8749999999974179E-01     1.2500000000038020E-01     0.0000000000000000E+00 
    1.8749999999981601E-01     1.8750000000055780E-01     0.0000000000000000E+00 
    1.8749999999989009E-01     2.5000000000073502E-01     0.0000000000000000E+00 
    1.8749999999996431E-01     3.1250000000091221E-01     0.0000000000000000E+00 
    1.8750000000003850E-01     3.7500000000108941E-01     0.0000000000000000E+00 
    1.8750000000011269E-01     4.3750000000126649E-01     0.0000000000000000E+00 
    1.8750000000018691E-01     5.0000000000142808E-01     0.0000000000000000E+00 
    1.8750000000026110E-01     5.6250000000112244E-01     0.0000000000000000E+00 
    1.8750000000033529E-01     6.2500000000080080E-01     0.0000000000000000E+00 
    1.8750000000040951E-01     6.8750000000047962E-01     0.0000000000000000E+00 
    1.8750000000048361E-01     7.5000000000015843E-01     0.0000000000000000E+00 
    1.8750000000055780E-01     8.1249999999983680E-01     0.0000000000000000E+00 
    1.8750000000063199E-01     8.7499999999953304E-01     0.0000000000000000E+00 
    1.8750000000070621E-01     9.3749999999975764E-01     0.0000000000000000E+00 
    2.4999999999951281E-01     6.2500000000163314E-02     0.0000000000000000E+00 
    2.4999999999961461E-01     1.2500000000033351E-01     0.0000000000000000E+00 
    2.4999999999971650E-01     1.8750000000048361E-01     0.0000000000000000E+00 
    2.4999999999981831E-01     2.5000000000063310E-01     0.0000000000000000E+00 
    2.4999999999992020E-01     3.1250000000078260E-01     0.0000000000000000E+00 
    2.5000000000002198E-01     3.7500000000093209E-01     0.0000000000000000E+00 
    2.5000000000012390E-01     4.3750000000108180E-01     0.0000000000000000E+00 
    2.5000000000022571E-01     5.0000000000121769E-01     0.0000000000000000E+00 
    2.5000000000032763E-01     5.6250000000094724E-01     0.0000000000000000E+00 
    2.5000000000042938E-01     6.2500000000066314E-01     0.0000000000000000E+00 
    2.5000000000053119E-01     6.8750000000037925E-01     0.0000000000000000E+00 
[...]
CELL_DATA 256 
SCALARS Pressure double 1 
LOOKUP_TABLE default 

    1.0004309289485187E+00 
    9.9836342391559152E-01 
    9.9606503616888364E-01 
    9.9339060664335455E-01 
    9.9059715902449219E-01 
    9.8778389448232551E-01 
    9.8500831251008958E-01 
    9.8220378565922184E-01 
    9.7936681079375421E-01 
    9.7686841208615394E-01 
    9.7483684227441392E-01 
    9.7316809485028810E-01 
    9.7184994081267329E-01 
    9.7087346776021100E-01 
    9.7023293900055496E-01 
    9.6992558286730390E-01 
    9.5367435871898598E-01 
    9.5337275005278910E-01 
    9.5273021649768141E-01 
    9.5173103540366255E-01 
    9.5046873061229953E-01 
    9.4899969411977547E-01 
    9.4741089238519416E-01 
    9.4581373013069592E-01 
    9.4432438863572121E-01 
    9.4302646259584344E-01 
    9.4192942878776842E-01 
    9.4101470669708231E-01 
    9.4028363651747704E-01 
    9.3973716677239316E-01 
    9.3937593346945791E-01 
    9.3920028803942412E-01 
    8.9899412411108703E-01 
    8.9868586223587033E-01 
    8.9809181401106697E-01 
    8.9729388274354283E-01 
    8.9640513332938776E-01 
    8.9550373467462341E-01 
    8.9465537177969212E-01 
    8.9390536730649717E-01 
    8.9325549659684578E-01 
    8.9268444136829428E-01 
    8.9218563133373985E-01 
    8.9176400575769788E-01 
    8.9142374194266671E-01 
    8.9116799623954024E-01 
    8.9099889183495540E-01 
    8.9091754585155603E-01 
    8.3502200897774803E-01 
    8.3503253777654662E-01 
    8.3505058853235303E-01 
    8.3506882687966588E-01 
    8.3507877747664327E-01 
    8.3507693977038600E-01 
    8.3505624661645328E-01 
    8.3501923649240284E-01 
    8.3496798456824450E-01 
    8.3490313705292885E-01 
    8.3482484938513701E-01 
    8.3474078637472626E-01 
    8.3465759769790437E-01 
    8.3458063132332938E-01 
    8.3451394878366092E-01 
    8.3446040528332399E-01 
    7.7169432124420856E-01 
    7.7173621106821277E-01 
    7.7181265309260660E-01 
    7.7191673862477828E-01 
    7.7204207069420572E-01 
    7.7218283675722987E-01 
    7.7232691814624432E-01 
    7.7246406347368346E-01 
    7.7258485029704127E-01 
    7.7268038852630028E-01 
    7.7273329217934450E-01 
    7.7274943756173231E-01 
    7.7273430072544125E-01 
    7.7269277586254459E-01 
    7.7262906743045456E-01 
    7.7254664010249618E-01 
    7.0164817982083227E-01 
    7.0175082613977069E-01 
    7.0191939025556493E-01 
    7.0211687692462088E-01 
    7.0230629726776017E-01 
    7.0245249405860610E-01 
    7.0255457680436884E-01 
    7.0261471359881100E-01 
    7.0263572927657159E-01 
    7.0262223695184267E-01 
    7.0258494957557449E-01 
    7.0253532267561125E-01 
    7.0248441692522035E-01 
    7.0244342025919559E-01 
    7.0242376498685721E-01 
    7.0243720191437564E-01 
    6.3527922598916708E-01 
    6.3523516695559623E-01 
    6.3514557082239897E-01 
    6.3500472411139564E-01 
    6.3480325895939571E-01 
    6.3456366854374047E-01 
    6.3434013259863375E-01 
    6.3413723574153147E-01 
    6.3395837335742167E-01 
    6.3380784617645247E-01 
    6.3371097504242324E-01 
    6.3365834651859365E-01 
    6.3364173409576752E-01 
    6.3365377683042357E-01 
    6.3368779697774746E-01 
    6.3373760434751536E-01 
    5.7006939417788571E-01 
    5.7000125691083159E-01 
    5.6988720779278801E-01 
    5.6975095855268953E-01 
    5.6961700879549226E-01 
    5.6951032307702043E-01 
    5.6945497712527127E-01 
    5.6945175764469780E-01 
    5.6950050481125769E-01 
    5.6958096451566920E-01 
    5.6967185905516160E-01 
    5.6976603850301477E-01 
    5.6985581229968774E-01 
    5.6993232702856378E-01 
    5.6998566598973432E-01 
    5.7000507965990221E-01 
    5.0648855647405555E-01 
    5.0641948306920204E-01 
    5.0632755705757992E-01 
    5.0626196837103843E-01 
    5.0627477762274020E-01 
    5.0638387786090999E-01 
    5.0657259930116805E-01 
    5.0682731353654509E-01 
    5.0713532061168609E-01 
    5.0744775274252441E-01 
    5.0770594110377942E-01 
    5.0790852514939167E-01 
    5.0805040508435806E-01 
    5.0812219881782650E-01 
    5.0810990298903724E-01 
    5.0799471849038591E-01 
    4.3416544119242045E-01 
    4.3421371970727868E-01 
    4.3430022201840879E-01 
    4.3441612309853878E-01 
    4.3455252453384224E-01 
    4.3470275860206442E-01 
    4.3484215870981630E-01 
    4.3495147080066560E-01 
    4.3501111896900607E-01 
    4.3500254552145695E-01 
    4.3494224807802251E-01 
    4.3484665433937891E-01 
    4.3472892399320667E-01 
    4.3459990219049743E-01 
    4.3446847293578800E-01 
    4.3434200746646234E-01 
    3.5013641120031308E-01 
    3.5013314393736722E-01 
    3.5011035182085948E-01 
    3.5004574093718099E-01 
    3.4991174407944919E-01 
    3.4967628837775605E-01 
    3.4940311097158439E-01 
    3.4910992323332113E-01 
    3.4881280425810562E-01 
    3.4852740282648409E-01 
    3.4831498481622347E-01 
    3.4816985904692727E-01 
    3.4808793591724985E-01 
    3.4806710080802744E-01 
    3.4810713386634473E-01 
    3.4820952032552088E-01 
    2.7291970627708406E-01 
    2.7292357741096512E-01 
    2.7292171680736799E-01 
    2.7290199840324431E-01 
    2.7285082417873707E-01 
    2.7275434061254566E-01 
    2.7263184843534022E-01 
    2.7249842124326518E-01 
    2.7236966586168843E-01 
    2.7226220597706274E-01 
    2.7220285435286384E-01 
    2.7218566374328829E-01 
    2.7220629326290829E-01 
    2.7226246519103564E-01 
    2.7235404374978350E-01 
    2.7248294269094203E-01 
    2.1032924913072687E-01 
    2.1032642346927366E-01 
    2.1031547829921490E-01 
    2.1028979024757855E-01 
    2.1024193170368602E-01 
    2.1016425362290711E-01 
    2.1006832210095111E-01 
    2.0996342362088746E-01 
    2.0985921585720999E-01 
    2.0976590811792031E-01 
    2.0969992540052659E-01 
    2.0965855188806046E-01 
    2.0964011195802992E-01 
    2.0964416664552085E-01 
    2.0967153523069987E-01 
    2.0972420894602783E-01 
    1.5431028404171154E-01 
    1.5427500616649995E-01 
    1.5420448363511219E-01 
    1.5409930068377534E-01 
    1.5396068748603450E-01 
    1.5379062441250210E-01 
    1.5359767636838947E-01 
    1.5338998090470449E-01 
    1.5317634964935256E-01 
    1.5296619740657569E-01 
    1.5277181566976517E-01 
    1.5259962265733601E-01 
    1.5245628011673734E-01 
    1.5234836742775659E-01 
    1.5228201809256317E-01 
    1.5226242033577408E-01 
    1.0240861281114738E-01 
    1.0226819474153256E-01 
    1.0199273582542155E-01 
    1.0159050430278106E-01 
    1.0107247038588477E-01 
    1.0045217264039322E-01 
    9.9738176700116796E-02 
    9.8942568776901579E-02 
    9.8081194687011292E-02 
    9.7174329182201216E-02 
    9.6246376658229105E-02 
    9.5334383194115135E-02 
    9.4481553499009330E-02 
    9.3738504709656001E-02 
    9.3164800520797536E-02 
    9.2830808553106367E-02 
    6.2692958138309121E-02 
    6.2236973848237002E-02 
    6.1332454190061468E-02 
    5.9984439964954263E-02 
    5.8195062375658468E-02 
    5.5954857118691158E-02 
    5.3226472650576485E-02 
    4.9968605156102713E-02 
    4.6135509731003881E-02 
    4.1700936504653466E-02 
    3.6628459987385183E-02 
    3.0875025660709411E-02 
    2.4389943595509025E-02 
    1.7113900538357804E-02 
    8.9778848475446735E-03 
    0.0000000000000000E+00 

SCALARS Saturarion double 1 
LOOKUP_TABLE default 

    9.9715824586677582E-01 
    8.8430211701812411E-01 
    7.1408383638300765E-01 
    6.2626380126765280E-01 
    5.7119172769869164E-01 
    5.2787261181999112E-01 
    4.8533789207523326E-01 
    4.0940120584323469E-01 
    1.3729876666417445E-01 
    3.2972597039173475E-06 
    1.0000031237719589E-06 
    9.9999999999999974E-07 
    9.9999999999999995E-07 
    9.9999999999999995E-07 
    9.9999999999999995E-07 
    9.9999999999999995E-07 
    7.5112940309084320E-01 
    6.9322938997288341E-01 
    5.7642350910616280E-01 
    4.9476965330153444E-01 
    4.0648305880871566E-01 
    3.0636687584388744E-01 
    2.0543607639692923E-01 
    7.6757120883696212E-02 
    3.2234607078045667E-03 
    1.4564334423023858E-06 
    1.0000000056514374E-06 
    1.0000000000000002E-06 
    9.9999999999999995E-07 
    9.9999999999999995E-07 
    9.9999999999999995E-07 
    9.9999999999999995E-07 
    2.1889961398869104E-01 
    1.7110069636707637E-01 
    1.0793281025115836E-01 
    5.4831507327227372E-02 
    1.6888012265591709E-02 
    2.7226827294537814E-03 
    3.0541286472531677E-04 
    4.3489086791800787E-05 
    1.1194248782919452E-06 
    1.0000000455770469E-06 
    1.0000000000000012E-06 
    9.9999999999999995E-07 
    9.9999999999999995E-07 
    9.9999999999999995E-07 
    9.9999999999999995E-07 
    9.9999999999999995E-07 
    3.1425305607010467E-06 
    4.1238384334811027E-05 
    2.3224238587028453E-05 
    2.6615776279390793E-05 
    6.1875773918658545E-06 
    1.2216873347976678E-06 
    1.0031091503063597E-06 
    1.0003167832983407E-06 
    1.0000000090586963E-06 
    1.0000000000000006E-06 
    9.9999999999999995E-07 
    9.9999999999999995E-07 
    9.9999999999999995E-07 
    9.9999999999999995E-07 
    9.9999999999999995E-07 
    9.9999999999999995E-07 
    1.0000000032036844E-06 
    1.0002296146165178E-06 
    1.0001558566789225E-06 
    1.0000847319498292E-06 
    1.0000032150998604E-06 
    1.0000000506298216E-06 
    1.0000000006142157E-06 
    9.9999999999999995E-07 
    9.9999999999999974E-07 
    9.9999999999999995E-07 
    9.9999999999999995E-07 
    9.9999999999999995E-07 
    9.9999999999999995E-07 
    9.9999999999999995E-07 
    9.9999999999999995E-07 
    9.9999999999999995E-07 
    1.0000000000000002E-06 
    1.0000000000524588E-06 
    9.9999999999999995E-07 
    9.9999999999999974E-07 
    9.9999999999999974E-07 
    9.9999999999999974E-07 
    9.9999999999999995E-07 
    9.9999999999999995E-07 
    9.9999999999999995E-07 
    9.9999999999999995E-07 
    9.9999999999999995E-07 
    9.9999999999999995E-07 
    9.9999999999999995E-07 
    9.9999999999999995E-07 
    9.9999999999999995E-07 
    9.9999999999999995E-07 
    9.9999999999999995E-07 
    9.9999999999999995E-07 
    9.9999999999999995E-07 
    9.9999999999999995E-07 
    9.9999999999999995E-07 
    9.9999999999999995E-07 
    9.9999999999999995E-07 
    9.9999999999999995E-07 
    9.9999999999999995E-07 
    9.9999999999999995E-07 
    9.9999999999999995E-07 
    9.9999999999999995E-07 
    9.9999999999999995E-07 
    9.9999999999999995E-07 
    9.9999999999999995E-07 
    9.9999999999999995E-07 
    9.9999999999999995E-07 
    9.9999999999999995E-07 
    9.9999999999999995E-07 
    9.9999999999999995E-07 
    9.9999999999999995E-07 
    9.9999999999999995E-07 
    9.9999999999999995E-07 
    9.9999999999999995E-07 
    9.9999999999999995E-07 
    9.9999999999999995E-07 
    9.9999999999999995E-07 
    9.9999999999999995E-07 
    9.9999999999999995E-07 
    9.9999999999999995E-07 
    9.9999999999999995E-07 
    9.9999999999999995E-07 
    9.9999999999999995E-07 
    9.9999999999999995E-07 
    9.9999999999999995E-07 
    9.9999999999999995E-07 
    9.9999999999999995E-07 
    9.9999999999999995E-07 
    9.9999999999999995E-07 
    9.9999999999999995E-07 
    9.9999999999999995E-07 
    9.9999999999999995E-07 
    9.9999999999999995E-07 
    9.9999999999999995E-07 
    9.9999999999999995E-07 
    9.9999999999999995E-07 
    9.9999999999999995E-07 
    9.9999999999999995E-07 
    9.9999999999999995E-07 
    9.9999999999999995E-07 
    9.9999999999999995E-07 
    9.9999999999999995E-07 
    9.9999999999999995E-07 
    9.9999999999999995E-07 
    9.9999999999999995E-07 
    9.9999999999999995E-07 
    9.9999999999999995E-07 
    9.9999999999999995E-07 
    9.9999999999999995E-07 
    9.9999999999999995E-07 
    9.9999999999999995E-07 
    9.9999999999999995E-07 
    9.9999999999999995E-07 
    9.9999999999999995E-07 
    9.9999999999999995E-07 
    9.9999999999999995E-07 
    9.9999999999999995E-07 
    9.9999999999999995E-07 
    9.9999999999999995E-07 
    9.9999999999999995E-07 
    9.9999999999999995E-07 
    9.9999999999999995E-07 
    9.9999999999999995E-07 
    9.9999999999999995E-07 
    9.9999999999999995E-07 
    9.9999999999999995E-07 
    9.9999999999999995E-07 
    9.9999999999999995E-07 
    9.9999999999999995E-07 
    9.9999999999999995E-07 
    9.9999999999999995E-07 
    9.9999999999999995E-07 
    9.9999999999999995E-07 
    9.9999999999999995E-07 
    9.9999999999999995E-07 
    9.9999999999999995E-07 
    9.9999999999999995E-07 
    9.9999999999999995E-07 
    9.9999999999999995E-07 
    9.9999999999999995E-07 
    9.9999999999999995E-07 
    9.9999999999999995E-07 
    9.9999999999999995E-07 
    9.9999999999999995E-07 
    9.9999999999999995E-07 
    9.9999999999999995E-07 
    9.9999999999999995E-07 
    9.9999999999999995E-07 
    9.9999999999999995E-07 
    9.9999999999999995E-07 
    9.9999999999999995E-07 
    9.9999999999999995E-07 
    9.9999999999999995E-07 
    9.9999999999999995E-07 
    9.9999999999999995E-07 
    9.9999999999999995E-07 
    9.9999999999999995E-07 
    9.9999999999999995E-07 
    9.9999999999999995E-07 
    9.9999999999999995E-07 
    9.9999999999999995E-07 
    9.9999999999999995E-07 
    9.9999999999999995E-07 
    9.9999999999999995E-07 
    9.9999999999999995E-07 
    9.9999999999999995E-07 
    9.9999999999999995E-07 
    9.9999999999999995E-07 
    9.9999999999999995E-07 
    9.9999999999999995E-07 
    9.9999999999999995E-07 
    9.9999999999999995E-07 
    9.9999999999999995E-07 
    9.9999999999999995E-07 
    9.9999999999999995E-07 
    9.9999999999999995E-07 
    9.9999999999999995E-07 
    9.9999999999999995E-07 
    9.9999999999999995E-07 
    9.9999999999999995E-07 
    9.9999999999999995E-07 
    9.9999999999999995E-07 
    9.9999999999999995E-07 
    9.9999999999999995E-07 
    9.9999999999999995E-07 
    9.9999999999999995E-07 
    9.9999999999999995E-07 
    9.9999999999999995E-07 
    9.9999999999999995E-07 
    9.9999999999999995E-07 
    9.9999999999999995E-07 
    9.9999999999999995E-07 
    9.9999999999999995E-07 
    9.9999999999999995E-07 
    9.9999999999999995E-07 
    9.9999999999999995E-07 
    9.9999999999999995E-07 
    9.9999999999999995E-07 
    9.9999999999999995E-07 
    9.9999999999999995E-07 
    9.9999999999999995E-07 
    9.9999999999999995E-07 
    9.9999999999999995E-07 
    9.9999999999999995E-07 
    9.9999999999999995E-07 
    9.9999999999999995E-07 
    9.9999999999999995E-07 
    9.9999999999999995E-07 
    9.9999999999999995E-07 
    1.0000000420087838E-06 
