# vtk DataFile Version 2.0
Pressure Field Data 
ASCII 
DATASET UNSTRUCTURED_GRID 

POINTS 289 double 

    0.0000000000000000E+00     0.0000000000000000E+00     0.0000000000000000E+00 
    1.0000000000000000E+00     0.0000000000000000E+00     0.0000000000000000E+00 
    1.0000000000000000E+00     1.0000000000000000E+00     0.0000000000000000E+00 
    0.0000000000000000E+00     1.0000000000000000E+00     0.0000000000000000E+00 
    6.2499999999872928E-02     0.0000000000000000E+00     0.0000000000000000E+00 
    1.2499999999977310E-01     0.0000000000000000E+00     0.0000000000000000E+00 
    1.8749999999959341E-01     0.0000000000000000E+00     0.0000000000000000E+00 
    2.4999999999941089E-01     0.0000000000000000E+00     0.0000000000000000E+00 
    3.1249999999922851E-01     0.0000000000000000E+00     0.0000000000000000E+00 
    3.7499999999904610E-01     0.0000000000000000E+00     0.0000000000000000E+00 
    4.3749999999886358E-01     0.0000000000000000E+00     0.0000000000000000E+00 
    4.9999999999869210E-01     0.0000000000000000E+00     0.0000000000000000E+00 
    5.6249999999884603E-01     0.0000000000000000E+00     0.0000000000000000E+00 
    6.2499999999901090E-01     0.0000000000000000E+00     0.0000000000000000E+00 
    6.8749999999917577E-01     0.0000000000000000E+00     0.0000000000000000E+00 
    7.4999999999934064E-01     0.0000000000000000E+00     0.0000000000000000E+00 
    8.1249999999950551E-01     0.0000000000000000E+00     0.0000000000000000E+00 
    8.7499999999967026E-01     0.0000000000000000E+00     0.0000000000000000E+00 
    9.3749999999983513E-01     0.0000000000000000E+00     0.0000000000000000E+00 
    1.0000000000000000E+00     6.2499999999872928E-02     0.0000000000000000E+00 
    1.0000000000000000E+00     1.2499999999977310E-01     0.0000000000000000E+00 
    1.0000000000000000E+00     1.8749999999959341E-01     0.0000000000000000E+00 
    1.0000000000000000E+00     2.4999999999941089E-01     0.0000000000000000E+00 
    1.0000000000000000E+00     3.1249999999922851E-01     0.0000000000000000E+00 
    1.0000000000000000E+00     3.7499999999904610E-01     0.0000000000000000E+00 
    1.0000000000000000E+00     4.3749999999886358E-01     0.0000000000000000E+00 
    1.0000000000000000E+00     4.9999999999869210E-01     0.0000000000000000E+00 
    1.0000000000000000E+00     5.6249999999884603E-01     0.0000000000000000E+00 
    1.0000000000000000E+00     6.2499999999901090E-01     0.0000000000000000E+00 
    1.0000000000000000E+00     6.8749999999917577E-01     0.0000000000000000E+00 
    1.0000000000000000E+00     7.4999999999934064E-01     0.0000000000000000E+00 
    1.0000000000000000E+00     8.1249999999950551E-01     0.0000000000000000E+00 
    1.0000000000000000E+00     8.7499999999967026E-01     0.0000000000000000E+00 
    1.0000000000000000E+00     9.3749999999983513E-01     0.0000000000000000E+00 
    9.3749999999973976E-01     1.0000000000000000E+00     0.0000000000000000E+00 
    8.7499999999950118E-01     1.0000000000000000E+00     0.0000000000000000E+00 
    8.1249999999991318E-01     1.0000000000000000E+00     0.0000000000000000E+00 
    7.5000000000034706E-01     1.0000000000000000E+00     0.0000000000000000E+00 
    6.8750000000078049E-01     1.0000000000000000E+00     0.0000000000000000E+00 
    6.2500000000121403E-01     1.0000000000000000E+00     0.0000000000000000E+00 
    5.6250000000164757E-01     1.0000000000000000E+00     0.0000000000000000E+00 
    5.0000000000205946E-01     1.0000000000000000E+00     0.0000000000000000E+00 
    4.3750000000182099E-01     1.0000000000000000E+00     0.0000000000000000E+00 
    3.7500000000156092E-01     1.0000000000000000E+00     0.0000000000000000E+00 
    3.1250000000130068E-01     1.0000000000000000E+00     0.0000000000000000E+00 
    2.5000000000104050E-01     1.0000000000000000E+00     0.0000000000000000E+00 
    1.8750000000078040E-01     1.0000000000000000E+00     0.0000000000000000E+00 
    1.2500000000052031E-01     1.0000000000000000E+00     0.0000000000000000E+00 
    6.2500000000260125E-02     1.0000000000000000E+00     0.0000000000000000E+00 
    0.0000000000000000E+00     9.3749999999973976E-01     0.0000000000000000E+00 
    0.0000000000000000E+00     8.7499999999950118E-01     0.0000000000000000E+00 
    0.0000000000000000E+00     8.1249999999991318E-01     0.0000000000000000E+00 
    0.0000000000000000E+00     7.5000000000034706E-01     0.0000000000000000E+00 
    0.0000000000000000E+00     6.8750000000078049E-01     0.0000000000000000E+00 
    0.0000000000000000E+00     6.2500000000121403E-01     0.0000000000000000E+00 
    0.0000000000000000E+00     5.6250000000164757E-01     0.0000000000000000E+00 
    0.0000000000000000E+00     5.0000000000205946E-01     0.0000000000000000E+00 
    0.0000000000000000E+00     4.3750000000182099E-01     0.0000000000000000E+00 
    0.0000000000000000E+00     3.7500000000156092E-01     0.0000000000000000E+00 
    0.0000000000000000E+00     3.1250000000130068E-01     0.0000000000000000E+00 
    0.0000000000000000E+00     2.5000000000104050E-01     0.0000000000000000E+00 
    0.0000000000000000E+00     1.8750000000078040E-01     0.0000000000000000E+00 
    0.0000000000000000E+00     1.2500000000052031E-01     0.0000000000000000E+00 
    0.0000000000000000E+00     6.2500000000260125E-02     0.0000000000000000E+00 
    6.2499999999897131E-02     6.2500000000235922E-02     0.0000000000000000E+00 
    6.2499999999921327E-02     1.2500000000047351E-01     0.0000000000000000E+00 
    6.2499999999945530E-02     1.8750000000070621E-01     0.0000000000000000E+00 
    6.2499999999969733E-02     2.5000000000093858E-01     0.0000000000000000E+00 
    6.2499999999993928E-02     3.1250000000117117E-01     0.0000000000000000E+00 
    6.2500000000018124E-02     3.7500000000140382E-01     0.0000000000000000E+00 
    6.2500000000042327E-02     4.3750000000163619E-01     0.0000000000000000E+00 
    6.2500000000066530E-02     5.0000000000184897E-01     0.0000000000000000E+00 
    6.2500000000090733E-02     5.6250000000147260E-01     0.0000000000000000E+00 
    6.2500000000114922E-02     6.2500000000107636E-01     0.0000000000000000E+00 
    6.2500000000139125E-02     6.8750000000068034E-01     0.0000000000000000E+00 
    6.2500000000163328E-02     7.5000000000028411E-01     0.0000000000000000E+00 
    6.2500000000187531E-02     8.1249999999988787E-01     0.0000000000000000E+00 
    6.2500000000211720E-02     8.7499999999951172E-01     0.0000000000000000E+00 
    6.2500000000235922E-02     9.3749999999974565E-01     0.0000000000000000E+00 
    1.2499999999981980E-01     6.2500000000211733E-02     0.0000000000000000E+00 
    1.2499999999986650E-01     1.2500000000042691E-01     0.0000000000000000E+00 
    1.2499999999991319E-01     1.8750000000063199E-01     0.0000000000000000E+00 
    1.2499999999995989E-01     2.5000000000083678E-01     0.0000000000000000E+00 
    1.2500000000000661E-01     3.1250000000104172E-01     0.0000000000000000E+00 
    1.2500000000005329E-01     3.7500000000124661E-01     0.0000000000000000E+00 
    1.2500000000010000E-01     4.3750000000145117E-01     0.0000000000000000E+00 
    1.2500000000014669E-01     5.0000000000163858E-01     0.0000000000000000E+00 
    1.2500000000019340E-01     5.6250000000129741E-01     0.0000000000000000E+00 
    1.2500000000024011E-01     6.2500000000093847E-01     0.0000000000000000E+00 
    1.2500000000028680E-01     6.8750000000057998E-01     0.0000000000000000E+00 
    1.2500000000033351E-01     7.5000000000022127E-01     0.0000000000000000E+00 
    1.2500000000038020E-01     8.1249999999986211E-01     0.0000000000000000E+00 
    1.2500000000042691E-01     8.7499999999952238E-01     0.0000000000000000E+00 
    1.2500000000047359E-01     9.3749999999975164E-01     0.0000000000000000E+00 
    1.8749999999966760E-01     6.2500000000187531E-02     0.0000000000000000E+00 
    1.8749999999974179E-01     1.2500000000038020E-01     0.0000000000000000E+00 
    1.8749999999981601E-01     1.8750000000055780E-01     0.0000000000000000E+00 
    1.8749999999989009E-01     2.5000000000073502E-01     0.0000000000000000E+00 
    1.8749999999996431E-01     3.1250000000091221E-01     0.0000000000000000E+00 
    1.8750000000003850E-01     3.7500000000108941E-01     0.0000000000000000E+00 
    1.8750000000011269E-01     4.3750000000126649E-01     0.0000000000000000E+00 
    1.8750000000018691E-01     5.0000000000142808E-01     0.0000000000000000E+00 
    1.8750000000026110E-01     5.6250000000112244E-01     0.0000000000000000E+00 
    1.8750000000033529E-01     6.2500000000080080E-01     0.0000000000000000E+00 
    1.8750000000040951E-01     6.8750000000047962E-01     0.0000000000000000E+00 
    1.8750000000048361E-01     7.5000000000015843E-01     0.0000000000000000E+00 
    1.8750000000055780E-01     8.1249999999983680E-01     0.0000000000000000E+00 
    1.8750000000063199E-01     8.7499999999953304E-01     0.0000000000000000E+00 
    1.8750000000070621E-01     9.3749999999975764E-01     0.0000000000000000E+00 
    2.4999999999951281E-01     6.2500000000163314E-02     0.0000000000000000E+00 
    2.4999999999961461E-01     1.2500000000033351E-01     0.0000000000000000E+00 
    2.4999999999971650E-01     1.8750000000048361E-01     0.0000000000000000E+00 
    2.4999999999981831E-01     2.5000000000063310E-01     0.0000000000000000E+00 
    2.4999999999992020E-01     3.1250000000078260E-01     0.0000000000000000E+00 
    2.5000000000002198E-01     3.7500000000093209E-01     0.0000000000000000E+00 
    2.5000000000012390E-01     4.3750000000108180E-01     0.0000000000000000E+00 
    2.5000000000022571E-01     5.0000000000121769E-01     0.0000000000000000E+00 
    2.5000000000032763E-01     5.6250000000094724E-01     0.0000000000000000E+00 
    2.5000000000042938E-01     6.2500000000066314E-01     0.0000000000000000E+00 
    2.5000000000053119E-01     6.8750000000037925E-01     0.0000000000000000E+00 
[...]
CELL_DATA 256 
SCALARS Pressure double 1 
LOOKUP_TABLE default 

    8.8734734913061530E-01 
    8.8550325800049856E-01 
    8.8380934732872329E-01 
    8.8220650201946271E-01 
    8.8067439277436377E-01 
    8.7921997049873535E-01 
    8.7785920022269215E-01 
    8.7660540404193643E-01 
    8.7547130107739457E-01 
    8.7446129533667560E-01 
    8.7358202649797478E-01 
    8.7284180960337998E-01 
    8.7225009015022770E-01 
    8.7179155528807750E-01 
    8.7143068170685900E-01 
    8.7125929440717631E-01 
    8.5850493779342274E-01 
    8.5842562400758071E-01 
    8.5827880365898834E-01 
    8.5806971279436650E-01 
    8.5780479298955215E-01 
    8.5749639556774504E-01 
    8.5716200474720761E-01 
    8.5681672861151970E-01 
    8.5647436205157013E-01 
    8.5614738376680877E-01 
    8.5584880773038519E-01 
    8.5558840209336440E-01 
    8.5536217745179632E-01 
    8.5514904537143022E-01 
    8.5496387648637751E-01 
    8.5487331352726725E-01 
    8.3174080757175095E-01 
    8.3171692862208013E-01 
    8.3166812323169736E-01 
    8.3159256236302848E-01 
    8.3149190638811210E-01 
    8.3137323519028594E-01 
    8.3124289211550828E-01 
    8.3110709328384691E-01 
    8.3097110574568234E-01 
    8.3083885878000263E-01 
    8.3071144192676016E-01 
    8.3058286419021354E-01 
    8.3043055294720258E-01 
    8.3025287395910219E-01 
    8.3010890733811493E-01 
    8.3003102186102307E-01 
    7.9886445307295406E-01 
    7.9884285869242666E-01 
    7.9880418442587642E-01 
    7.9875681837690593E-01 
    7.9871075690680060E-01 
    7.9867270840528770E-01 
    7.9863840913066642E-01 
    7.9860500965153158E-01 
    7.9856735771977516E-01 
    7.9851543256245783E-01 
    7.9842740390790878E-01 
    7.9828031282230794E-01 
    7.9807704989815720E-01 
    7.9788111773727299E-01 
    7.9773631681221968E-01 
    7.9763520934586218E-01 
    7.5665416311763578E-01 
    7.5665314029380748E-01 
    7.5665245212391119E-01 
    7.5665840537101137E-01 
    7.5667630553225118E-01 
    7.5670274152739514E-01 
    7.5672013676153005E-01 
    7.5670695784652831E-01 
    7.5663593481145619E-01 
    7.5648210279881678E-01 
    7.5622944908546386E-01 
    7.5591313910767299E-01 
    7.5560950424375140E-01 
    7.5536551184232148E-01 
    7.5517342089007122E-01 
    7.5502518711788380E-01 
    7.0192894311687815E-01 
    7.0193993131043875E-01 
    7.0193723681571585E-01 
    7.0189307515075239E-01 
    7.0177142678541105E-01 
    7.0153570172301627E-01 
    7.0118863969553280E-01 
    7.0074108634772891E-01 
    7.0020151864632585E-01 
    6.9960385258092206E-01 
    6.9902382655216266E-01 
    6.9852973229022897E-01 
    6.9815086859591358E-01 
    6.9787612324204717E-01 
    6.9769988056358401E-01 
    6.9763176931915849E-01 
    6.3947883736149369E-01 
    6.3932550639293173E-01 
    6.3901779159540084E-01 
    6.3855179142878316E-01 
    6.3791917934841136E-01 
    6.3716886746911638E-01 
    6.3641705619931632E-01 
    6.3570334349913538E-01 
    6.3506137608331337E-01 
    6.3452771801373342E-01 
    6.3413784084544356E-01 
    6.3385783589003653E-01 
    6.3366235973227214E-01 
    6.3354184583464956E-01 
    6.3348943971995031E-01 
    6.3349865035210873E-01 
    5.7101120997052690E-01 
    5.7089260329905045E-01 
    5.7068874594778807E-01 
    5.7044273882436236E-01 
    5.7020478716323153E-01 
    5.7002245093035864E-01 
    5.6992113302813241E-01 
    5.6988666295524215E-01 
    5.6990793755467362E-01 
    5.6996046875530360E-01 
    5.7002303960122924E-01 
    5.7009094261254434E-01 
    5.7015839391038436E-01 
    5.7021792231351387E-01 
    5.7026049463429684E-01 
    5.7027577245823935E-01 
    5.0672804912976632E-01 
    5.0665950538522020E-01 
    5.0656984625566470E-01 
    5.0650863818023806E-01 
    5.0652891364681163E-01 
    5.0664904644032738E-01 
    5.0685138138659314E-01 
    5.0712185656837361E-01 
    5.0744734471903730E-01 
    5.0777696452720700E-01 
    5.0804846876318754E-01 
    5.0826092422895930E-01 
    5.0840952062665379E-01 
    5.0848499742737985E-01 
    5.0847328609422604E-01 
    5.0835532657205307E-01 
    4.3438498969204825E-01 
    4.3443604533933367E-01 
    4.3452642569650712E-01 
    4.3464555312676018E-01 
    4.3478267239585960E-01 
    4.3492942887427571E-01 
    4.3506245938194027E-01 
    4.3516386679792579E-01 
    4.3521524259534278E-01 
    4.3519909054460520E-01 
    4.3513204820205903E-01 
    4.3503073042249524E-01 
    4.3490846899113844E-01 
    4.3477627251986795E-01 
    4.3464318333524532E-01 
    4.3451673046462108E-01 
    3.5016811088323796E-01 
    3.5016558500820677E-01 
    3.5014359125535227E-01 
    3.5007909336499521E-01 
    3.4994376337551536E-01 
    3.4970478985162684E-01 
    3.4942661770892380E-01 
    3.4912754646815181E-01 
    3.4882426922126408E-01 
    3.4853306133670570E-01 
    3.4831566105129563E-01 
    3.4816650328440307E-01 
    3.4808163539829373E-01 
    3.4805909447286865E-01 
    3.4809882369119999E-01 
    3.4820247758754819E-01 
    2.7288419869778141E-01 
    2.7288854077282093E-01 
    2.7288723812196647E-01 
    2.7286775303797600E-01 
    2.7281606695557936E-01 
    2.7271791686698260E-01 
    2.7259266870887594E-01 
    2.7245572020176856E-01 
    2.7232301716565510E-01 
    2.7221153435569856E-01 
    2.7214870000005759E-01 
    2.7212863960198563E-01 
    2.7214709716203372E-01 
    2.7220189487034219E-01 
    2.7229300978025095E-01 
    2.7242247774365325E-01 
    2.1028937878785164E-01 
    2.1028680494290963E-01 
    2.1027614490501242E-01 
    2.1025053955639794E-01 
    2.1020231758006325E-01 
    2.1012358814680374E-01 
    2.1002595341676192E-01 
    2.0991888662742544E-01 
    2.0981224201909596E-01 
    2.0971643552763172E-01 
    2.0964826268532366E-01 
    2.0960504861470827E-01 
    2.0958516674435343E-01 
    2.0958823635505783E-01 
    2.0961514313357876E-01 
    2.0966795087769341E-01 
    1.5427891278976097E-01 
    1.5424365064988474E-01 
    1.5417310286667130E-01 
    1.5406779175667840E-01 
    1.5392888304070879E-01 
    1.5375829307061925E-01 
    1.5356461701101182E-01 
    1.5335605551395265E-01 
    1.5314148550458603E-01 
    1.5293039025274224E-01 
    1.5273518398423067E-01 
    1.5256229781761174E-01 
    1.5241841011284099E-01 
    1.5231011954054827E-01 
    1.5224358130675208E-01 
    1.5222400715696163E-01 
    1.0238654366691319E-01 
    1.0224592778861481E-01 
    1.0197018451073511E-01 
    1.0156769747692010E-01 
    1.0104955016420768E-01 
    1.0042938582212391E-01 
    9.9715775348081667E-02 
    9.8920730656233066E-02 
    9.8060025201425885E-02 
    9.7153866124741084E-02 
    9.6226543183917781E-02 
    9.5315091166442503E-02 
    9.4462698253147695E-02 
    9.3719960545417300E-02 
    9.3146417203589543E-02 
    9.2812409093306347E-02 
    6.2675667366938470E-02 
    6.2219282431627304E-02 
    6.1314359319001352E-02 
    5.9966349015226475E-02 
    5.8177796522001592E-02 
    5.5939297572420950E-02 
    5.3213149262018596E-02 
    4.9957693266532030E-02 
    4.6126825993356796E-02 
    4.1694350712176170E-02 
    3.6623779438113825E-02 
    3.0871987918050126E-02 
    2.4388207025307401E-02 
    1.7113034898580973E-02 
    8.9773627217000270E-03 
    0.0000000000000000E+00 

SCALARS Saturarion double 1 
LOOKUP_TABLE default 

    1.0000000000055320E+00 
    9.7288594207129231E-01 
    9.2837757001449184E-01 
    8.7440987890315180E-01 
    8.2608923970567272E-01 
    7.8228844313826784E-01 
    7.4177554061830531E-01 
    7.0359028484618724E-01 
    6.6686383213235567E-01 
    6.3071003460638175E-01 
    5.9401654549831340E-01 
    5.5612639626757321E-01 
    5.1861668530062410E-01 
    4.6492634586196391E-01 
    2.0832915915270461E-01 
    1.3024005003832034E-05 
    9.1308140974124241E-01 
    8.9546952462860463E-01 
    8.5745151030229128E-01 
    8.1159135641278646E-01 
    7.6247082937987809E-01 
    7.2362248595249690E-01 
    6.8904035614874004E-01 
    6.5663235931576724E-01 
    6.2515156713100661E-01 
    5.9363157894451346E-01 
    5.6194001555018103E-01 
    5.3057189421492468E-01 
    4.9095064618401252E-01 
    3.6441277286069335E-01 
    6.8122068446109310E-02 
    8.1226803710839334E-05 
    8.0507958139996960E-01 
    7.7954853390076229E-01 
    7.3488638958897889E-01 
    6.8753308463150131E-01 
    6.5343699061853278E-01 
    6.2797839907227615E-01 
    6.0511906292565110E-01 
    5.8288431507839800E-01 
    5.6016552750531012E-01 
    5.3619095051748589E-01 
    5.1180319508219796E-01 
    4.8267710581771384E-01 
    3.7347648341203615E-01 
    1.0081541859980635E-01 
    4.6516775834777471E-04 
    1.0139338799389709E-06 
    6.9617738542228369E-01 
    6.8532612565983475E-01 
    6.5417410891196848E-01 
    6.1888813564753664E-01 
    5.9283051869771830E-01 
    5.7098802556837724E-01 
    5.5315497870360630E-01 
    5.3556408504877806E-01 
    5.1692656486856359E-01 
    4.9479920317401754E-01 
    4.6347452140009909E-01 
    3.8441708167690586E-01 
    1.2594970523451801E-01 
    6.2213391124219138E-04 
    1.0677994285195753E-06 
    1.0000000060622658E-06 
    6.2083654785936837E-01 
    6.1039145340855205E-01 
    5.9112847664507762E-01 
    5.7050078672853399E-01 
    5.4805441996902693E-01 
    5.2792027256848972E-01 
    5.1009228424877806E-01 
    4.9048450027392265E-01 
    4.6469751546495297E-01 
    4.2507878132525045E-01 
    3.3317963928457112E-01 
    1.3340228700323009E-01 
    1.6530129975547763E-03 
    1.2118128224523932E-06 
    1.0000000369385649E-06 
    1.0000000000000008E-06 
    5.5230494350101311E-01 
    5.4539938088848838E-01 
    5.3133363339316719E-01 
    5.1516345855757706E-01 
    4.8266991351574018E-01 
    4.5362510816155943E-01 
    4.2225219226092225E-01 
    3.7747632972749506E-01 
    2.8520502446636753E-01 
    1.6009580533752277E-01 
    3.7670824436465258E-02 
    6.0896785830603234E-04 
    1.2602451559858989E-06 
    1.0000001055794491E-06 
    1.0000000000000097E-06 
    9.9999999999999995E-07 
    4.3362189384863958E-01 
    4.2493474698590894E-01 
    4.0564608623213155E-01 
    3.7636074191515989E-01 
    2.7735183445026396E-01 
    1.6464375928105698E-01 
    9.5799342932390785E-02 
    4.0873382834577865E-02 
    7.5939268859362523E-03 
    2.9808114915222796E-04 
    6.3319897624392155E-05 
    1.0840494789388835E-06 
    1.0000000963749460E-06 
    1.0000000000000724E-06 
    9.9999999999999995E-07 
    9.9999999999999995E-07 
    7.5750084618771238E-02 
    6.3869533676857160E-02 
    4.6256251635336122E-02 
    2.6374020437718127E-02 
    5.6668965420882253E-03 
    1.3397567611074811E-04 
    5.0104717964048517E-05 
    3.0294194883458934E-05 
    3.5676570984112508E-06 
    1.0119187938724773E-06 
    1.0005447121913566E-06 
    1.0000000037261455E-06 
    1.0000000000000196E-06 
    9.9999999999999995E-07 
    9.9999999999999995E-07 
    9.9999999999999995E-07 
    1.0000011062406102E-06 
    3.6537536207285618E-06 
    9.8053253106232016E-06 
    6.9314375142209906E-06 
    2.3084762632427969E-06 
    1.0008115586974010E-06 
    1.0007963150186837E-06 
    1.0001391320374802E-06 
    1.0000011753725262E-06 
    1.0000000004790998E-06 
    1.0000000000000016E-06 
    9.9999999999999953E-07 
    9.9999999999999995E-07 
    9.9999999999999995E-07 
    9.9999999999999995E-07 
    9.9999999999999995E-07 
    1.0000000000011379E-06 
    1.0000012193144335E-06 
    1.0000047402417116E-06 
    1.0000057439635389E-06 
    1.0000004345232136E-06 
    1.0000000001150031E-06 
    1.0000000000993402E-06 
    9.9999999999999932E-07 
    1.0000000000000002E-06 
    9.9999999999999995E-07 
    9.9999999999999995E-07 
    9.9999999999999995E-07 
    9.9999999999999995E-07 
    9.9999999999999995E-07 
    9.9999999999999995E-07 
    9.9999999999999995E-07 
    9.9999999999999995E-07 
    1.0000000000005217E-06 
    1.0000000000010376E-06 
    9.9999999999999974E-07 
    9.9999999999999995E-07 
    9.9999999999999995E-07 
    9.9999999999999974E-07 
    9.9999999999999995E-07 
    9.9999999999999995E-07 
    9.9999999999999995E-07 
    9.9999999999999995E-07 
    9.9999999999999995E-07 
    9.9999999999999995E-07 
    9.9999999999999995E-07 
    9.9999999999999995E-07 
    9.9999999999999995E-07 
    9.9999999999999995E-07 
    9.9999999999999995E-07 
    9.9999999999999995E-07 
    9.9999999999999995E-07 
    9.9999999999999995E-07 
    9.9999999999999995E-07 
    9.9999999999999995E-07 
    9.9999999999999995E-07 
    9.9999999999999995E-07 
    9.9999999999999995E-07 
    9.9999999999999995E-07 
    9.9999999999999995E-07 
    9.9999999999999995E-07 
    9.9999999999999995E-07 
    9.9999999999999995E-07 
    9.9999999999999995E-07 
    9.9999999999999995E-07 
    9.9999999999999995E-07 
    9.9999999999999995E-07 
    9.9999999999999995E-07 
    9.9999999999999995E-07 
    9.9999999999999995E-07 
    9.9999999999999995E-07 
    9.9999999999999995E-07 
    9.9999999999999995E-07 
    9.9999999999999995E-07 
    9.9999999999999995E-07 
    9.9999999999999995E-07 
    9.9999999999999995E-07 
    9.9999999999999995E-07 
    9.9999999999999995E-07 
    9.9999999999999995E-07 
    9.9999999999999995E-07 
    9.9999999999999995E-07 
    9.9999999999999995E-07 
    9.9999999999999995E-07 
    9.9999999999999995E-07 
    9.9999999999999995E-07 
    9.9999999999999995E-07 
    9.9999999999999995E-07 
    9.9999999999999995E-07 
    9.9999999999999995E-07 
    9.9999999999999995E-07 
    9.9999999999999995E-07 
    9.9999999999999995E-07 
    9.9999999999999995E-07 
    9.9999999999999995E-07 
    9.9999999999999995E-07 
    9.9999999999999995E-07 
    9.9999999999999995E-07 
    9.9999999999999995E-07 
    9.9999999999999995E-07 
    9.9999999999999995E-07 
    9.9999999999999995E-07 
    9.9999999999999995E-07 
    9.9999999999999995E-07 
    9.9999999999999995E-07 
    9.9999999999999995E-07 
    9.9999999999999995E-07 
    9.9999999999999995E-07 
    9.9999999999999995E-07 
    9.9999999999999995E-07 
    9.9999999999999995E-07 
    9.9999999999999995E-07 
    9.9999999999999995E-07 
    9.9999999999999995E-07 
    9.9999999999999995E-07 
    9.9999999999999995E-07 
    9.9999999999999995E-07 
    9.9999999999999995E-07 
    9.9999999999999995E-07 
    9.9999999999999995E-07 
    9.9999999999999995E-07 
    9.9999999999999995E-07 
    9.9999999999999995E-07 
    9.9999999999999995E-07 
    9.9999999999999995E-07 
    9.9999999999999995E-07 
    9.9999999999999995E-07 
    1.0000002281346420E-06 
